<?xml version="1.0" encoding="ISO-8859-1"?>
<modeling>
 <generator>
  <i name="program" type="string">vasp </i>
  <i name="version" type="string">5.4.4.18Apr17-6-g9f103f2a35  </i>
  <i name="subversion" type="string">(build Sep 03 2018 23:53:05) complex            parallel </i>
  <i name="platform" type="string">LinuxIFC </i>
  <i name="date" type="string">2021 11 26 </i>
  <i name="time" type="string">14:41:23 </i>
 </generator>
 <incar>
  <i type="string" name="SYSTEM"> 6_Pd100_top_free_z(O)</i>
  <i type="int" name="ISTART">     0</i>
  <i type="string" name="PREC">normal   			! encut=max(enmax), ngx,y,z</i>
  <i type="string" name="ALGO"> Fast     			! Mix RMM-DIIS and Dav</i>
  <i type="logical" name="ADDGRID"> F  </i>
  <i type="int" name="ISPIN">     1</i>
  <i type="int" name="ICHARG">     2</i>
  <i type="int" name="NELM">   100</i>
  <i type="int" name="NELMIN">     6</i>
  <i type="int" name="IBRION">     2</i>
  <i name="EDIFF">      0.00010000</i>
  <i name="EDIFFG">     -0.05000000</i>
  <i type="int" name="NSW">     0</i>
  <i type="int" name="ISIF">     2</i>
  <i type="int" name="ISYM">     2</i>
  <i name="ENCUT">    400.00000000</i>
  <i type="string" name="LREAL"> Auto     			! Auto or A projection done</i>
  <i type="int" name="ISMEAR">     2</i>
  <i name="SIGMA">      0.20000000</i>
  <i type="logical" name="LWAVE"> F  </i>
  <i type="logical" name="LCHARG"> F  </i>
  <v type="int" name="KPOINT_BSE">    -1     0     0     0</v>
  <i type="int" name="MAXMEM"> 10000</i>
  <i type="int" name="NELM">   100</i>
  <i type="string" name="GGA"> RP         			! Revised PBE</i>
 </incar>
 <structure name="primitive_cell" >
  <crystal>
   <varray name="basis" >
    <v>      30.00000000       0.00000000       0.00000000 </v>
    <v>       0.00000000      30.00000000       0.00000000 </v>
    <v>       0.00000000       0.00000000      30.00000000 </v>
   </varray>
   <i name="volume">  27000.00000000 </i>
   <varray name="rec_basis" >
    <v>       0.03333333       0.00000000       0.00000000 </v>
    <v>       0.00000000       0.03333333       0.00000000 </v>
    <v>       0.00000000       0.00000000       0.03333333 </v>
   </varray>
  </crystal>
  <varray name="positions" >
   <v>       0.44576020       0.32826710       0.41691983 </v>
   <v>      -0.44576020       0.32826710       0.41691983 </v>
   <v>      -0.50000000       0.38250690       0.34021317 </v>
   <v>      -0.50000000       0.27609440      -0.50000000 </v>
   <v>       0.38804720       0.38804720       0.34167483 </v>
   <v>      -0.50000000       0.38416601      -0.50000000 </v>
   <v>       0.44208300       0.44208300       0.41809300 </v>
   <v>       0.38317830       0.38317830      -0.50000000 </v>
   <v>      -0.44208300       0.44208300       0.41809300 </v>
   <v>       0.44576020       0.32826710      -0.41691977 </v>
   <v>       0.32826705       0.44576024       0.41691983 </v>
   <v>      -0.38804720       0.38804720       0.34167483 </v>
   <v>      -0.38317830       0.38317830      -0.50000000 </v>
   <v>      -0.50000000      -0.50000000       0.33478917 </v>
   <v>      -0.50000000      -0.50000000      -0.50000000 </v>
   <v>      -0.44576020       0.32826710      -0.41691977 </v>
   <v>       0.38250685      -0.49999995       0.34021317 </v>
   <v>       0.44208300       0.44208300      -0.41809297 </v>
   <v>       0.38416599      -0.49999998      -0.50000000 </v>
   <v>      -0.44208300       0.44208300      -0.41809297 </v>
   <v>       0.44208298      -0.44208298       0.41809300 </v>
   <v>       0.32826705       0.44576024      -0.41691977 </v>
   <v>      -0.50000000       0.38250690      -0.34021320 </v>
   <v>       0.32826712      -0.44576022       0.41691983 </v>
   <v>      -0.38250685      -0.49999995       0.34021317 </v>
   <v>      -0.32826705       0.44576024       0.41691983 </v>
   <v>       0.27609443       0.49999998      -0.50000000 </v>
   <v>       0.38804720       0.38804720      -0.34167487 </v>
   <v>      -0.38416599      -0.49999998      -0.50000000 </v>
   <v>      -0.44208298      -0.44208298       0.41809300 </v>
   <v>       0.44208298      -0.44208298      -0.41809297 </v>
   <v>      -0.38804720       0.38804720      -0.34167487 </v>
   <v>       0.38804722      -0.38804722       0.34167483 </v>
   <v>       0.38250685      -0.49999995      -0.34021320 </v>
   <v>       0.32826712      -0.44576022      -0.41691977 </v>
   <v>      -0.32826705       0.44576024      -0.41691977 </v>
   <v>       0.50000000      -0.38250681       0.34021317 </v>
   <v>      -0.50000000      -0.38416596      -0.50000000 </v>
   <v>      -0.44208298      -0.44208298      -0.41809297 </v>
   <v>      -0.50000000      -0.50000000      -0.33478913 </v>
   <v>       0.38317828      -0.38317828      -0.50000000 </v>
   <v>      -0.32826712      -0.44576022       0.41691983 </v>
   <v>      -0.27609443       0.49999998      -0.50000000 </v>
   <v>      -0.38804722      -0.38804722       0.34167483 </v>
   <v>      -0.38250685      -0.49999995      -0.34021320 </v>
   <v>       0.44576027      -0.32826707       0.41691983 </v>
   <v>      -0.38317828      -0.38317828      -0.50000000 </v>
   <v>      -0.32826712      -0.44576022      -0.41691977 </v>
   <v>      -0.44576027      -0.32826707       0.41691983 </v>
   <v>      -0.46390810      -0.47377283      -0.28841350 </v>
   <v>       0.38804722      -0.38804722      -0.34167487 </v>
   <v>      -0.50000000      -0.38250681      -0.34021320 </v>
   <v>       0.44576027      -0.32826707      -0.41691977 </v>
   <v>      -0.44576027      -0.32826707      -0.41691977 </v>
   <v>      -0.45763240      -0.46921240      -0.25162250 </v>
   <v>      -0.50000000      -0.27609445       0.50000000 </v>
   <v>      -0.38804722      -0.38804722      -0.34167487 </v>
  </varray>
 </structure>
 <varray name="primitive_index" >
  <v type="int" >        1 </v>
  <v type="int" >        3 </v>
  <v type="int" >        5 </v>
  <v type="int" >        7 </v>
  <v type="int" >       15 </v>
  <v type="int" >       29 </v>
  <v type="int" >       28 </v>
  <v type="int" >       34 </v>
  <v type="int" >       21 </v>
  <v type="int" >       19 </v>
  <v type="int" >       22 </v>
  <v type="int" >       11 </v>
  <v type="int" >       36 </v>
  <v type="int" >       38 </v>
  <v type="int" >       52 </v>
  <v type="int" >       24 </v>
  <v type="int" >       32 </v>
  <v type="int" >       44 </v>
  <v type="int" >       48 </v>
  <v type="int" >       42 </v>
  <v type="int" >       43 </v>
  <v type="int" >       40 </v>
  <v type="int" >        6 </v>
  <v type="int" >        4 </v>
  <v type="int" >       30 </v>
  <v type="int" >       26 </v>
  <v type="int" >        8 </v>
  <v type="int" >       16 </v>
  <v type="int" >       49 </v>
  <v type="int" >       47 </v>
  <v type="int" >       53 </v>
  <v type="int" >       12 </v>
  <v type="int" >       13 </v>
  <v type="int" >       33 </v>
  <v type="int" >       25 </v>
  <v type="int" >       45 </v>
  <v type="int" >       50 </v>
  <v type="int" >       55 </v>
  <v type="int" >       54 </v>
  <v type="int" >       39 </v>
  <v type="int" >       37 </v>
  <v type="int" >        2 </v>
  <v type="int" >        9 </v>
  <v type="int" >       17 </v>
  <v type="int" >       31 </v>
  <v type="int" >       27 </v>
  <v type="int" >       35 </v>
  <v type="int" >       20 </v>
  <v type="int" >       23 </v>
  <v type="int" >       56 </v>
  <v type="int" >       14 </v>
  <v type="int" >       51 </v>
  <v type="int" >       46 </v>
  <v type="int" >       41 </v>
  <v type="int" >       57 </v>
  <v type="int" >       10 </v>
  <v type="int" >       18 </v>
 </varray>
 <kpoints>
  <generation param="Monkhorst-Pack">
   <v type="int" name="divisions">       1        1        1 </v>
   <v name="usershift">      0.00000000       0.00000000       0.00000000 </v>
   <v name="genvec1">      1.00000000       0.00000000       0.00000000 </v>
   <v name="genvec2">      0.00000000       1.00000000       0.00000000 </v>
   <v name="genvec3">      0.00000000       0.00000000       1.00000000 </v>
   <v name="shift">      0.00000000       0.00000000       0.00000000 </v>
  </generation>
  <varray name="kpointlist" >
   <v>       0.00000000       0.00000000       0.00000000 </v>
  </varray>
  <varray name="weights" >
   <v>       1.00000000 </v>
  </varray>
 </kpoints>
 <parameters>
  <separator name="general" >
   <i type="string" name="SYSTEM">6_Pd100_top_free_z(O)</i>
   <i type="logical" name="LCOMPAT"> F  </i>
  </separator>
  <separator name="electronic" >
   <i type="string" name="PREC">normal</i>
   <i name="ENMAX">    400.00000000</i>
   <i name="ENAUG">    644.87300000</i>
   <i name="EDIFF">      0.00010000</i>
   <i type="int" name="IALGO">    68</i>
   <i type="int" name="IWAVPR">    10</i>
   <i type="int" name="NBANDS">   336</i>
   <i name="NELECT">    560.00000000</i>
   <i type="int" name="TURBO">     0</i>
   <i type="int" name="IRESTART">     0</i>
   <i type="int" name="NREBOOT">     0</i>
   <i type="int" name="NMIN">     0</i>
   <i name="EREF">      0.00000000</i>
   <separator name="electronic smearing" >
    <i type="int" name="ISMEAR">     2</i>
    <i name="SIGMA">      0.20000000</i>
    <i name="KSPACING">      0.50000000</i>
    <i type="logical" name="KGAMMA"> T  </i>
   </separator>
   <separator name="electronic projectors" >
    <i type="logical" name="LREAL"> T  </i>
    <v name="ROPT">     -0.00050000     -0.00050000     -0.00050000</v>
    <i type="int" name="LMAXPAW">  -100</i>
    <i type="int" name="LMAXMIX">     2</i>
    <i type="logical" name="NLSPLINE"> F  </i>
   </separator>
   <separator name="electronic startup" >
    <i type="int" name="ISTART">     0</i>
    <i type="int" name="ICHARG">     2</i>
    <i type="int" name="INIWAV">     1</i>
   </separator>
   <separator name="electronic spin" >
    <i type="int" name="ISPIN">     1</i>
    <i type="logical" name="LNONCOLLINEAR"> F  </i>
    <v name="MAGMOM">      1.00000000      1.00000000      1.00000000      1.00000000      1.00000000      1.00000000      1.00000000      1.00000000      1.00000000      1.00000000      1.00000000      1.00000000      1.00000000      1.00000000      1.00000000      1.00000000      1.00000000      1.00000000      1.00000000      1.00000000
      1.00000000      1.00000000      1.00000000      1.00000000      1.00000000      1.00000000      1.00000000      1.00000000      1.00000000      1.00000000      1.00000000      1.00000000      1.00000000      1.00000000      1.00000000      1.00000000      1.00000000      1.00000000      1.00000000      1.00000000
      1.00000000      1.00000000      1.00000000      1.00000000      1.00000000      1.00000000      1.00000000      1.00000000      1.00000000      1.00000000      1.00000000      1.00000000      1.00000000      1.00000000      1.00000000      1.00000000      1.00000000</v>
    <i name="NUPDOWN">     -1.00000000</i>
    <i type="logical" name="LSORBIT"> F  </i>
    <v name="SAXIS">      0.00000000      0.00000000      1.00000000</v>
    <i type="logical" name="LSPIRAL"> F  </i>
    <v name="QSPIRAL">      0.00000000      0.00000000      0.00000000</v>
    <i type="logical" name="LZEROZ"> F  </i>
   </separator>
   <separator name="electronic exchange-correlation" >
    <i type="logical" name="LASPH"> F  </i>
    <i type="logical" name="LMETAGGA"> F  </i>
   </separator>
   <separator name="electronic convergence" >
    <i type="int" name="NELM">   100</i>
    <i type="int" name="NELMDL">    -5</i>
    <i type="int" name="NELMIN">     6</i>
    <i name="ENINI">    400.00000000</i>
    <separator name="electronic convergence detail" >
     <i type="logical" name="LDIAG"> T  </i>
     <i type="logical" name="LSUBROT"> F  </i>
     <i name="WEIMIN">      0.00000000</i>
     <i name="EBREAK">      0.00000007</i>
     <i name="DEPER">      0.30000000</i>
     <i type="int" name="NRMM">     4</i>
     <i name="TIME">      0.40000000</i>
    </separator>
   </separator>
   <separator name="electronic mixer" >
    <i name="AMIX">      0.40000000</i>
    <i name="BMIX">      1.00000000</i>
    <i name="AMIN">      0.10000000</i>
    <i name="AMIX_MAG">      1.60000000</i>
    <i name="BMIX_MAG">      1.00000000</i>
    <separator name="electronic mixer details" >
     <i type="int" name="IMIX">     4</i>
     <i type="logical" name="MIXFIRST"> F  </i>
     <i type="int" name="MAXMIX">   -45</i>
     <i name="WC">    100.00000000</i>
     <i type="int" name="INIMIX">     1</i>
     <i type="int" name="MIXPRE">     1</i>
     <i type="int" name="MREMOVE">     5</i>
    </separator>
   </separator>
   <separator name="electronic dipolcorrection" >
    <i type="logical" name="LDIPOL"> F  </i>
    <i type="logical" name="LMONO"> F  </i>
    <i type="int" name="IDIPOL">     0</i>
    <i name="EPSILON">      1.00000000</i>
    <v name="DIPOL">   -100.00000000   -100.00000000   -100.00000000</v>
    <i name="EFIELD">      0.00000000</i>
   </separator>
  </separator>
  <separator name="grids" >
   <i type="int" name="NGX">   150</i>
   <i type="int" name="NGY">   150</i>
   <i type="int" name="NGZ">   150</i>
   <i type="int" name="NGXF">   300</i>
   <i type="int" name="NGYF">   300</i>
   <i type="int" name="NGZF">   300</i>
   <i type="logical" name="ADDGRID"> F  </i>
  </separator>
  <separator name="ionic" >
   <i type="int" name="NSW">     0</i>
   <i type="int" name="IBRION">    -1</i>
   <i type="int" name="MDALGO">     0</i>
   <i type="int" name="ISIF">     2</i>
   <i name="PSTRESS">      0.00000000</i>
   <i name="EDIFFG">     -0.05000000</i>
   <i type="int" name="NFREE">     1</i>
   <i name="POTIM">      0.50000000</i>
   <i name="SMASS">     -3.00000000</i>
   <i name="SCALEE">      1.00000000</i>
  </separator>
  <separator name="ionic md" >
   <i name="TEBEG">      0.00010000</i>
   <i name="TEEND">      0.00010000</i>
   <i type="int" name="NBLOCK">     1</i>
   <i type="int" name="KBLOCK">     1</i>
   <i type="int" name="NPACO">   256</i>
   <i name="APACO">     16.00000000</i>
  </separator>
  <separator name="symmetry" >
   <i type="int" name="ISYM">     2</i>
   <i name="SYMPREC">      0.00001000</i>
  </separator>
  <separator name="dos" >
   <i type="int" name="LORBIT">     0</i>
   <v name="RWIGS">     -1.00000000     -1.00000000     -1.00000000</v>
   <i type="int" name="NEDOS">   301</i>
   <i name="EMIN">     10.00000000</i>
   <i name="EMAX">    -10.00000000</i>
   <i name="EFERMI">      0.00000000</i>
  </separator>
  <separator name="writing" >
   <i type="int" name="NWRITE">     2</i>
   <i type="logical" name="LWAVE"> F  </i>
   <i type="logical" name="LDOWNSAMPLE"> F  </i>
   <i type="logical" name="LCHARG"> F  </i>
   <i type="logical" name="LPARD"> F  </i>
   <i type="logical" name="LVTOT"> F  </i>
   <i type="logical" name="LVHAR"> F  </i>
   <i type="logical" name="LELF"> F  </i>
   <i type="logical" name="LOPTICS"> F  </i>
   <v name="STM">      0.00000000      0.00000000      0.00000000      0.00000000      0.00000000      0.00000000      0.00000000</v>
  </separator>
  <separator name="performance" >
   <i type="int" name="NPAR">     1</i>
   <i type="int" name="NSIM">     4</i>
   <i type="int" name="NBLK">    -1</i>
   <i type="logical" name="LPLANE"> T  </i>
   <i type="logical" name="LSCALAPACK"> T  </i>
   <i type="logical" name="LSCAAWARE"> F  </i>
   <i type="logical" name="LSCALU"> F  </i>
   <i type="logical" name="LASYNC"> F  </i>
   <i type="logical" name="LORBITALREAL"> F  </i>
  </separator>
  <separator name="miscellaneous" >
   <i type="int" name="IDIOT">     3</i>
   <i type="int" name="ISPECIAL">     0</i>
   <i type="logical" name="LMUSIC"> F  </i>
   <v name="POMASS">    106.42000000     12.01100000     16.00000000</v>
   <v name="DARWINR">      0.00000000      0.00000000      0.00000000</v>
   <v name="DARWINV">      1.00000000      1.00000000      1.00000000</v>
   <i type="logical" name="LCORR"> T  </i>
  </separator>
  <i type="logical" name="GGA_COMPAT"> T  </i>
  <i type="logical" name="LBERRY"> F  </i>
  <i type="int" name="ICORELEVEL">     0</i>
  <i type="logical" name="LDAU"> F  </i>
  <i type="int" name="I_CONSTRAINED_M">     0</i>
  <separator name="electronic exchange-correlation" >
   <i type="string" name="GGA">RP</i>
   <i type="int" name="VOSKOWN">     0</i>
   <i type="logical" name="LHFCALC"> F  </i>
   <i type="string" name="PRECFOCK"></i>
   <i type="logical" name="LSYMGRAD"> F  </i>
   <i type="logical" name="LHFONE"> F  </i>
   <i type="logical" name="LRHFCALC"> F  </i>
   <i type="logical" name="LTHOMAS"> F  </i>
   <i type="logical" name="LMODELHF"> F  </i>
   <i name="ENCUT4O">     -1.00000000</i>
   <i type="int" name="EXXOEP">     0</i>
   <i type="int" name="FOURORBIT">     0</i>
   <i name="AEXX">      0.00000000</i>
   <i name="HFALPHA">      0.00000000</i>
   <i name="MCALPHA">      0.00000000</i>
   <i name="ALDAX">      1.00000000</i>
   <i name="AGGAX">      1.00000000</i>
   <i name="ALDAC">      1.00000000</i>
   <i name="AGGAC">      1.00000000</i>
   <i type="int" name="NKREDX">     1</i>
   <i type="int" name="NKREDY">     1</i>
   <i type="int" name="NKREDZ">     1</i>
   <i type="logical" name="SHIFTRED"> F  </i>
   <i type="logical" name="ODDONLY"> F  </i>
   <i type="logical" name="EVENONLY"> F  </i>
   <i type="int" name="LMAXFOCK">     0</i>
   <i type="int" name="NMAXFOCKAE">     0</i>
   <i type="logical" name="LFOCKAEDFT"> F  </i>
   <i name="HFSCREEN">      0.00000000</i>
   <i name="HFSCREENC">      0.00000000</i>
   <i type="int" name="NBANDSGWLOW">     0</i>
  </separator>
  <separator name="vdW DFT" >
   <i type="logical" name="LUSE_VDW"> F  </i>
   <i name="Zab_VDW">     -0.84910000</i>
   <i name="PARAM1">      0.12340000</i>
   <i name="PARAM2">      1.00000000</i>
   <i name="PARAM3">      0.00000000</i>
  </separator>
  <separator name="model GW" >
   <i type="int" name="MODEL_GW">     0</i>
   <i name="MODEL_EPS0">    284.21052632</i>
   <i name="MODEL_ALPHA">      1.00000000</i>
  </separator>
  <separator name="linear response parameters" >
   <i type="logical" name="LEPSILON"> F  </i>
   <i type="logical" name="LRPA"> F  </i>
   <i type="logical" name="LNABLA"> F  </i>
   <i type="logical" name="LVEL"> F  </i>
   <i type="int" name="KINTER">     0</i>
   <i name="CSHIFT">      0.10000000</i>
   <i name="OMEGAMAX">     -1.00000000</i>
   <i name="DEG_THRESHOLD">      0.00200000</i>
   <i name="RTIME">     -0.10000000</i>
   <i name="WPLASMAI">      0.00000000</i>
   <v name="DFIELD">      0.00000000      0.00000000      0.00000000</v>
   <v name="WPLASMA">      0.00000000      0.00000000      0.00000000      0.00000000      0.00000000      0.00000000      0.00000000      0.00000000      0.00000000</v>
  </separator>
  <separator name="orbital magnetization" >
   <i type="logical" name="NUCIND"> F  </i>
   <v name="MAGPOS">      0.00000000      0.00000000      0.00000000</v>
   <i type="logical" name="LNICSALL"> T  </i>
   <i type="logical" name="ORBITALMAG"> F  </i>
   <i type="logical" name="LMAGBLOCH"> F  </i>
   <i type="logical" name="LCHIMAG"> F  </i>
   <i type="logical" name="LGAUGE"> T  </i>
   <i type="int" name="MAGATOM">     0</i>
   <v name="MAGDIPOL">      0.00000000      0.00000000      0.00000000</v>
   <v name="AVECCONST">      0.00000000      0.00000000      0.00000000</v>
  </separator>
  <separator name="response functions" >
   <i type="logical" name="LADDER"> F  </i>
   <i type="logical" name="LRPAFORCE"> F  </i>
   <i type="logical" name="LFXC"> F  </i>
   <i type="logical" name="LHARTREE"> T  </i>
   <i type="int" name="IBSE">     0</i>
   <v type="int" name="KPOINT">    -1     0     0     0</v>
   <i type="logical" name="LTCTE"> F  </i>
   <i type="logical" name="LTETE"> F  </i>
   <i type="logical" name="LTRIPLET"> F  </i>
   <i type="logical" name="LFXCEPS"> F  </i>
   <i type="logical" name="LFXHEG"> F  </i>
   <i type="int" name="NATURALO">     2</i>
   <i type="logical" name="L2ORDER"> F  </i>
   <i type="logical" name="LMP2LT"> F  </i>
   <i type="logical" name="LUSEW"> F  </i>
   <i name="ENCUTGW">     -2.00000000</i>
   <i name="ENCUTGWSOFT">     -2.00000000</i>
   <i name="ENCUTLF">     -1.00000000</i>
   <i type="int" name="LMAXMP2">    -1</i>
   <i name="SCISSOR">      0.00000000</i>
   <i type="int" name="NOMEGA">     0</i>
   <i type="int" name="NOMEGAR">     0</i>
   <i type="int" name="NBANDSGW">    -1</i>
   <i type="int" name="NBANDSO">    -1</i>
   <i type="int" name="NBANDSV">    -1</i>
   <i type="int" name="NELM">   100</i>
   <i type="int" name="NELMHF">     1</i>
   <i type="int" name="DIM">     3</i>
   <i type="int" name="ANTIRES">     0</i>
   <i name="OMEGAMAX">    -30.00000000</i>
   <i name="OMEGAMIN">    -30.00000000</i>
   <i name="OMEGATL">   -200.00000000</i>
   <i type="int" name="OMEGAGRID">   140</i>
   <i name="CSHIFT">     -0.10000000</i>
   <i type="logical" name="SELFENERGY"> F  </i>
   <i type="logical" name="LSPECTRAL"> F  </i>
   <i type="logical" name="LSPECTRALGW"> F  </i>
   <i type="logical" name="LSINGLES"> F  </i>
   <i type="logical" name="LFERMIGW"> F  </i>
   <i type="logical" name="ODDONLYGW"> F  </i>
   <i type="logical" name="EVENONLYGW"> F  </i>
   <i type="int" name="NKREDLFX">     1</i>
   <i type="int" name="NKREDLFY">     1</i>
   <i type="int" name="NKREDLFZ">     1</i>
   <i type="int" name="MAXMEM"> 10000</i>
   <i type="int" name="TELESCOPE">     0</i>
   <i type="int" name="TAUPAR">     1</i>
   <i type="int" name="OMEGAPAR">    -1</i>
   <i name="LAMBDA">      1.00000000</i>
  </separator>
  <separator name="External order field" >
   <i name="OFIELD_KAPPA">      0.00000000</i>
   <v name="OFIELD_K">      0.00000000      0.00000000      0.00000000</v>
   <i name="OFIELD_Q6_NEAR">      0.00000000</i>
   <i name="OFIELD_Q6_FAR">      0.00000000</i>
   <i name="OFIELD_A">      0.00000000</i>
  </separator>
 </parameters>
 <atominfo>
  <atoms>      57 </atoms>
  <types>       3 </types>
  <array name="atoms" >
   <dimension dim="1">ion</dimension>
   <field type="string">element</field>
   <field type="int">atomtype</field>
   <set>
    <rc><c>Pd</c><c>   1</c></rc>
    <rc><c>Pd</c><c>   1</c></rc>
    <rc><c>Pd</c><c>   1</c></rc>
    <rc><c>Pd</c><c>   1</c></rc>
    <rc><c>Pd</c><c>   1</c></rc>
    <rc><c>Pd</c><c>   1</c></rc>
    <rc><c>Pd</c><c>   1</c></rc>
    <rc><c>Pd</c><c>   1</c></rc>
    <rc><c>Pd</c><c>   1</c></rc>
    <rc><c>Pd</c><c>   1</c></rc>
    <rc><c>Pd</c><c>   1</c></rc>
    <rc><c>Pd</c><c>   1</c></rc>
    <rc><c>Pd</c><c>   1</c></rc>
    <rc><c>Pd</c><c>   1</c></rc>
    <rc><c>Pd</c><c>   1</c></rc>
    <rc><c>Pd</c><c>   1</c></rc>
    <rc><c>Pd</c><c>   1</c></rc>
    <rc><c>Pd</c><c>   1</c></rc>
    <rc><c>Pd</c><c>   1</c></rc>
    <rc><c>Pd</c><c>   1</c></rc>
    <rc><c>Pd</c><c>   1</c></rc>
    <rc><c>Pd</c><c>   1</c></rc>
    <rc><c>Pd</c><c>   1</c></rc>
    <rc><c>Pd</c><c>   1</c></rc>
    <rc><c>Pd</c><c>   1</c></rc>
    <rc><c>Pd</c><c>   1</c></rc>
    <rc><c>Pd</c><c>   1</c></rc>
    <rc><c>Pd</c><c>   1</c></rc>
    <rc><c>Pd</c><c>   1</c></rc>
    <rc><c>Pd</c><c>   1</c></rc>
    <rc><c>Pd</c><c>   1</c></rc>
    <rc><c>Pd</c><c>   1</c></rc>
    <rc><c>Pd</c><c>   1</c></rc>
    <rc><c>Pd</c><c>   1</c></rc>
    <rc><c>Pd</c><c>   1</c></rc>
    <rc><c>Pd</c><c>   1</c></rc>
    <rc><c>Pd</c><c>   1</c></rc>
    <rc><c>Pd</c><c>   1</c></rc>
    <rc><c>Pd</c><c>   1</c></rc>
    <rc><c>Pd</c><c>   1</c></rc>
    <rc><c>Pd</c><c>   1</c></rc>
    <rc><c>Pd</c><c>   1</c></rc>
    <rc><c>Pd</c><c>   1</c></rc>
    <rc><c>Pd</c><c>   1</c></rc>
    <rc><c>Pd</c><c>   1</c></rc>
    <rc><c>Pd</c><c>   1</c></rc>
    <rc><c>Pd</c><c>   1</c></rc>
    <rc><c>Pd</c><c>   1</c></rc>
    <rc><c>Pd</c><c>   1</c></rc>
    <rc><c>Pd</c><c>   1</c></rc>
    <rc><c>Pd</c><c>   1</c></rc>
    <rc><c>Pd</c><c>   1</c></rc>
    <rc><c>Pd</c><c>   1</c></rc>
    <rc><c>Pd</c><c>   1</c></rc>
    <rc><c>Pd</c><c>   1</c></rc>
    <rc><c>C </c><c>   2</c></rc>
    <rc><c>O </c><c>   3</c></rc>
   </set>
  </array>
  <array name="atomtypes" >
   <dimension dim="1">type</dimension>
   <field type="int">atomspertype</field>
   <field type="string">element</field>
   <field>mass</field>
   <field>valence</field>
   <field type="string">pseudopotential</field>
   <set>
    <rc><c>  55</c><c>Pd</c><c>    106.42000000</c><c>     10.00000000</c><c>  PAW_PBE Pd 04Jan2005                  </c></rc>
    <rc><c>   1</c><c>C </c><c>     12.01100000</c><c>      4.00000000</c><c>  PAW_PBE C 08Apr2002                   </c></rc>
    <rc><c>   1</c><c>O </c><c>     16.00000000</c><c>      6.00000000</c><c>  PAW_PBE O 08Apr2002                   </c></rc>
   </set>
  </array>
 </atominfo>
 <structure name="initialpos" >
  <crystal>
   <varray name="basis" >
    <v>      30.00000000       0.00000000       0.00000000 </v>
    <v>       0.00000000      30.00000000       0.00000000 </v>
    <v>       0.00000000       0.00000000      30.00000000 </v>
   </varray>
   <i name="volume">  27000.00000000 </i>
   <varray name="rec_basis" >
    <v>       0.03333333       0.00000000       0.00000000 </v>
    <v>       0.00000000       0.03333333       0.00000000 </v>
    <v>       0.00000000       0.00000000       0.03333333 </v>
   </varray>
  </crystal>
  <varray name="positions" >
   <v>       0.44576020       0.32826710       0.41691983 </v>
   <v>       0.67173288       0.55423978       0.41691983 </v>
   <v>       0.55423980       0.32826710       0.41691983 </v>
   <v>       0.32826712       0.55423978       0.41691983 </v>
   <v>       0.50000000       0.38250690       0.34021317 </v>
   <v>       0.50000000       0.38250690       0.65978680 </v>
   <v>       0.50000000       0.27609440       0.50000000 </v>
   <v>       0.27609443       0.49999998       0.50000000 </v>
   <v>       0.72390557       0.49999998       0.50000000 </v>
   <v>       0.50000000       0.72390555       0.50000000 </v>
   <v>       0.61195280       0.38804720       0.34167483 </v>
   <v>       0.61195280       0.38804720       0.65832513 </v>
   <v>       0.38804722       0.61195278       0.34167483 </v>
   <v>       0.38804722       0.61195278       0.65832513 </v>
   <v>       0.38804720       0.38804720       0.34167483 </v>
   <v>       0.38804720       0.38804720       0.65832513 </v>
   <v>       0.61195278       0.61195278       0.34167483 </v>
   <v>       0.61195278       0.61195278       0.65832513 </v>
   <v>       0.44576020       0.32826710       0.58308023 </v>
   <v>       0.67173288       0.55423978       0.58308023 </v>
   <v>       0.55791699       0.44208301       0.41809300 </v>
   <v>       0.32826705       0.44576024       0.41691983 </v>
   <v>       0.55423973       0.67173293       0.41691983 </v>
   <v>       0.55423980       0.32826710       0.58308023 </v>
   <v>       0.32826712       0.55423978       0.58308023 </v>
   <v>       0.67173295       0.44576024       0.41691983 </v>
   <v>       0.44576027       0.67173293       0.41691983 </v>
   <v>       0.44208301       0.44208301       0.41809300 </v>
   <v>       0.50000000       0.38416601       0.50000000 </v>
   <v>       0.61749315       0.50000005       0.34021317 </v>
   <v>       0.61749315       0.50000005       0.65978680 </v>
   <v>       0.38250685       0.50000005       0.34021317 </v>
   <v>       0.38250685       0.50000005       0.65978680 </v>
   <v>       0.38317830       0.38317830       0.50000000 </v>
   <v>       0.61682172       0.61682172       0.50000000 </v>
   <v>       0.61682170       0.38317830       0.50000000 </v>
   <v>       0.38317828       0.61682172       0.50000000 </v>
   <v>       0.50000000       0.50000000       0.33478917 </v>
   <v>       0.50000000       0.50000000       0.66521087 </v>
   <v>       0.32826705       0.44576024       0.58308023 </v>
   <v>       0.55423973       0.67173293       0.58308023 </v>
   <v>       0.55791699       0.44208301       0.58190703 </v>
   <v>       0.44208298       0.55791702       0.41809300 </v>
   <v>       0.44208301       0.44208301       0.58190703 </v>
   <v>       0.67173295       0.44576024       0.58308023 </v>
   <v>       0.44576027       0.67173293       0.58308023 </v>
   <v>       0.55791702       0.55791702       0.41809300 </v>
   <v>       0.38416599       0.50000002       0.50000000 </v>
   <v>       0.61583401       0.50000002       0.50000000 </v>
   <v>       0.50000000       0.61749319       0.34021317 </v>
   <v>       0.50000000       0.61749319       0.65978680 </v>
   <v>       0.50000000       0.50000000       0.50000000 </v>
   <v>       0.44208298       0.55791702       0.58190703 </v>
   <v>       0.55791702       0.55791702       0.58190703 </v>
   <v>       0.50000000       0.61583404       0.50000000 </v>
   <v>       0.53609190       0.52622717       0.71158650 </v>
   <v>       0.54236760       0.53078760       0.74837750 </v>
  </varray>
  <varray name="selective"  type="logical" >
   <v type="logical" >  F  F  F </v>
   <v type="logical" >  F  F  F </v>
   <v type="logical" >  F  F  F </v>
   <v type="logical" >  F  F  F </v>
   <v type="logical" >  F  F  F </v>
   <v type="logical" >  F  F  F </v>
   <v type="logical" >  F  F  F </v>
   <v type="logical" >  F  F  F </v>
   <v type="logical" >  F  F  F </v>
   <v type="logical" >  F  F  F </v>
   <v type="logical" >  F  F  F </v>
   <v type="logical" >  F  F  F </v>
   <v type="logical" >  F  F  F </v>
   <v type="logical" >  F  F  F </v>
   <v type="logical" >  F  F  F </v>
   <v type="logical" >  F  F  F </v>
   <v type="logical" >  F  F  F </v>
   <v type="logical" >  F  F  F </v>
   <v type="logical" >  F  F  F </v>
   <v type="logical" >  F  F  F </v>
   <v type="logical" >  F  F  F </v>
   <v type="logical" >  F  F  F </v>
   <v type="logical" >  F  F  F </v>
   <v type="logical" >  F  F  F </v>
   <v type="logical" >  F  F  F </v>
   <v type="logical" >  F  F  F </v>
   <v type="logical" >  F  F  F </v>
   <v type="logical" >  F  F  F </v>
   <v type="logical" >  F  F  F </v>
   <v type="logical" >  F  F  F </v>
   <v type="logical" >  F  F  F </v>
   <v type="logical" >  F  F  F </v>
   <v type="logical" >  F  F  F </v>
   <v type="logical" >  F  F  F </v>
   <v type="logical" >  F  F  F </v>
   <v type="logical" >  F  F  F </v>
   <v type="logical" >  F  F  F </v>
   <v type="logical" >  F  F  F </v>
   <v type="logical" >  F  F  F </v>
   <v type="logical" >  F  F  F </v>
   <v type="logical" >  F  F  F </v>
   <v type="logical" >  F  F  F </v>
   <v type="logical" >  F  F  F </v>
   <v type="logical" >  F  F  F </v>
   <v type="logical" >  F  F  F </v>
   <v type="logical" >  F  F  F </v>
   <v type="logical" >  F  F  F </v>
   <v type="logical" >  F  F  F </v>
   <v type="logical" >  F  F  F </v>
   <v type="logical" >  F  F  F </v>
   <v type="logical" >  F  F  F </v>
   <v type="logical" >  F  F  F </v>
   <v type="logical" >  F  F  F </v>
   <v type="logical" >  F  F  F </v>
   <v type="logical" >  F  F  F </v>
   <v type="logical" >  F  F  F </v>
   <v type="logical" >  F  F  F </v>
  </varray>
  <nose>
   <v>      -3.00000000       0.00000000       0.00010000       0.00010000 </v>
  </nose>
 </structure>
 <calculation>
  <scstep>
   <time name="dav">  322.42  322.48</time>
   <time name="total">  334.63  334.69</time>
   <energy>
    <i name="alphaZ">     75.25431677 </i>
    <i name="ewald"> 139054.52412171 </i>
    <i name="hartreedc">-182414.34250877 </i>
    <i name="XCdc">  -1702.90381605 </i>
    <i name="pawpsdc">  44873.02882129 </i>
    <i name="pawaedc"> -41398.84523641 </i>
    <i name="eentropy">     -0.00031920 </i>
    <i name="bandstr">    820.56087402 </i>
    <i name="atom">  45086.50549395 </i>
    <i name="e_fr_energy">   4393.78174732 </i>
    <i name="e_wo_entrp">   4393.78206652 </i>
    <i name="e_0_energy">   4393.78182712 </i>
   </energy>
  </scstep>
  <scstep>
   <time name="dav">  513.69  513.70</time>
   <time name="total">  513.69  513.70</time>
   <energy>
    <i name="e_fr_energy">   2025.30850016 </i>
    <i name="e_wo_entrp">   2025.32504137 </i>
    <i name="e_0_energy">   2025.31263546 </i>
   </energy>
  </scstep>
  <scstep>
   <time name="dav">  454.05  454.07</time>
   <time name="total">  454.05  454.07</time>
   <energy>
    <i name="e_fr_energy">    233.71323400 </i>
    <i name="e_wo_entrp">    233.73610132 </i>
    <i name="e_0_energy">    233.71895083 </i>
   </energy>
  </scstep>
  <scstep>
   <time name="dav">  377.59  377.60</time>
   <time name="total">  377.59  377.60</time>
   <energy>
    <i name="e_fr_energy">   -134.25159592 </i>
    <i name="e_wo_entrp">   -134.23492703 </i>
    <i name="e_0_energy">   -134.24742869 </i>
   </energy>
  </scstep>
  <scstep>
   <time name="dav">  457.42  457.42</time>
   <time name="total">  481.09  481.09</time>
   <energy>
    <i name="e_fr_energy">   -180.16794124 </i>
    <i name="e_wo_entrp">   -180.67555788 </i>
    <i name="e_0_energy">   -180.29484540 </i>
   </energy>
  </scstep>
  <scstep>
   <time name="diag">   61.47   61.47</time>
   <time name="diis">  168.10  168.10</time>
   <time name="orth">   12.40   12.40</time>
   <time name="total">  277.08  277.08</time>
   <energy>
    <i name="e_fr_energy">   -179.56591790 </i>
    <i name="e_wo_entrp">   -179.33402541 </i>
    <i name="e_0_energy">   -179.50794478 </i>
   </energy>
  </scstep>
  <scstep>
   <time name="diag">   61.52   61.52</time>
   <time name="diis">  192.46  192.46</time>
   <time name="orth">   12.42   12.42</time>
   <time name="total">  301.21  301.21</time>
   <energy>
    <i name="e_fr_energy">   -182.14624278 </i>
    <i name="e_wo_entrp">   -182.00433920 </i>
    <i name="e_0_energy">   -182.11076688 </i>
   </energy>
  </scstep>
  <scstep>
   <time name="diag">   61.74   61.74</time>
   <time name="diis">  177.55  177.55</time>
   <time name="orth">   12.62   12.62</time>
   <time name="total">  287.19  287.19</time>
   <energy>
    <i name="e_fr_energy">   -184.60114194 </i>
    <i name="e_wo_entrp">   -184.55396537 </i>
    <i name="e_0_energy">   -184.58934779 </i>
   </energy>
  </scstep>
  <scstep>
   <time name="diag">   62.75   62.75</time>
   <time name="diis">  175.94  175.94</time>
   <time name="orth">   12.75   12.75</time>
   <time name="total">  287.31  287.32</time>
   <energy>
    <i name="e_fr_energy">   -180.50073057 </i>
    <i name="e_wo_entrp">   -180.53210558 </i>
    <i name="e_0_energy">   -180.50857432 </i>
   </energy>
  </scstep>
  <scstep>
   <time name="diag">   61.77   61.77</time>
   <time name="diis">  170.73  170.73</time>
   <time name="orth">   12.26   12.26</time>
   <time name="total">  280.38  280.38</time>
   <energy>
    <i name="e_fr_energy">   -179.72620897 </i>
    <i name="e_wo_entrp">   -179.62420412 </i>
    <i name="e_0_energy">   -179.70070776 </i>
   </energy>
  </scstep>
  <scstep>
   <time name="diag">   61.39   61.39</time>
   <time name="diis">  169.03  169.03</time>
   <time name="orth">   12.13   12.13</time>
   <time name="total">  277.21  277.21</time>
   <energy>
    <i name="e_fr_energy">   -178.52666253 </i>
    <i name="e_wo_entrp">   -178.52598403 </i>
    <i name="e_0_energy">   -178.52649291 </i>
   </energy>
  </scstep>
  <scstep>
   <time name="diag">   61.34   61.34</time>
   <time name="diis">  168.37  168.37</time>
   <time name="orth">   12.22   12.22</time>
   <time name="total">  276.67  276.67</time>
   <energy>
    <i name="e_fr_energy">   -178.01063402 </i>
    <i name="e_wo_entrp">   -178.05338795 </i>
    <i name="e_0_energy">   -178.02132250 </i>
   </energy>
  </scstep>
  <scstep>
   <time name="diag">   61.48   61.49</time>
   <time name="diis">  169.25  169.25</time>
   <time name="orth">   12.29   12.29</time>
   <time name="total">  277.81  277.81</time>
   <energy>
    <i name="e_fr_energy">   -178.28161022 </i>
    <i name="e_wo_entrp">   -178.35454548 </i>
    <i name="e_0_energy">   -178.29984403 </i>
   </energy>
  </scstep>
  <scstep>
   <time name="diag">   61.83   61.83</time>
   <time name="diis">  165.46  165.46</time>
   <time name="orth">   12.29   12.29</time>
   <time name="total">  274.34  274.35</time>
   <energy>
    <i name="e_fr_energy">   -177.46908429 </i>
    <i name="e_wo_entrp">   -177.49422972 </i>
    <i name="e_0_energy">   -177.47537065 </i>
   </energy>
  </scstep>
  <scstep>
   <time name="diag">   61.51   61.51</time>
   <time name="diis">  163.37  163.37</time>
   <time name="orth">   12.29   12.29</time>
   <time name="total">  272.01  272.01</time>
   <energy>
    <i name="e_fr_energy">   -176.47548779 </i>
    <i name="e_wo_entrp">   -176.40253007 </i>
    <i name="e_0_energy">   -176.45724836 </i>
   </energy>
  </scstep>
  <scstep>
   <time name="diag">   61.79   61.79</time>
   <time name="diis">  165.15  165.15</time>
   <time name="orth">   12.38   12.38</time>
   <time name="total">  274.17  274.17</time>
   <energy>
    <i name="e_fr_energy">   -176.48744391 </i>
    <i name="e_wo_entrp">   -176.53903919 </i>
    <i name="e_0_energy">   -176.50034273 </i>
   </energy>
  </scstep>
  <scstep>
   <time name="diag">   62.28   62.28</time>
   <time name="diis">  170.55  170.55</time>
   <time name="orth">   12.39   12.39</time>
   <time name="total">  280.72  280.72</time>
   <energy>
    <i name="e_fr_energy">   -175.97562708 </i>
    <i name="e_wo_entrp">   -176.03630115 </i>
    <i name="e_0_energy">   -175.99079560 </i>
   </energy>
  </scstep>
  <scstep>
   <time name="diag">   62.59   62.59</time>
   <time name="diis">  165.17  165.17</time>
   <time name="orth">   12.58   12.58</time>
   <time name="total">  276.55  276.55</time>
   <energy>
    <i name="e_fr_energy">   -175.80110599 </i>
    <i name="e_wo_entrp">   -175.77862837 </i>
    <i name="e_0_energy">   -175.79548659 </i>
   </energy>
  </scstep>
  <scstep>
   <time name="diag">   62.90   62.91</time>
   <time name="diis">  164.42  164.42</time>
   <time name="orth">   12.26   12.26</time>
   <time name="total">  275.20  275.21</time>
   <energy>
    <i name="e_fr_energy">   -175.82557852 </i>
    <i name="e_wo_entrp">   -175.87064285 </i>
    <i name="e_0_energy">   -175.83684460 </i>
   </energy>
  </scstep>
  <scstep>
   <time name="diag">   61.67   61.67</time>
   <time name="diis">  163.24  163.24</time>
   <time name="orth">   12.27   12.27</time>
   <time name="total">  272.14  272.14</time>
   <energy>
    <i name="e_fr_energy">   -175.50999953 </i>
    <i name="e_wo_entrp">   -175.48388717 </i>
    <i name="e_0_energy">   -175.50347144 </i>
   </energy>
  </scstep>
  <scstep>
   <time name="diag">   61.57   61.57</time>
   <time name="diis">  163.02  163.02</time>
   <time name="orth">   12.33   12.33</time>
   <time name="total">  271.93  271.93</time>
   <energy>
    <i name="e_fr_energy">   -175.49427720 </i>
    <i name="e_wo_entrp">   -175.45295505 </i>
    <i name="e_0_energy">   -175.48394666 </i>
   </energy>
  </scstep>
  <scstep>
   <time name="diag">   61.71   61.71</time>
   <time name="diis">  161.75  161.76</time>
   <time name="orth">   12.37   12.37</time>
   <time name="total">  270.88  270.88</time>
   <energy>
    <i name="e_fr_energy">   -175.31747234 </i>
    <i name="e_wo_entrp">   -175.27989612 </i>
    <i name="e_0_energy">   -175.30807828 </i>
   </energy>
  </scstep>
  <scstep>
   <time name="diag">   61.73   61.73</time>
   <time name="diis">  160.87  160.87</time>
   <time name="orth">   12.37   12.37</time>
   <time name="total">  270.00  270.00</time>
   <energy>
    <i name="e_fr_energy">   -175.29000119 </i>
    <i name="e_wo_entrp">   -175.25733229 </i>
    <i name="e_0_energy">   -175.28183397 </i>
   </energy>
  </scstep>
  <scstep>
   <time name="diag">   61.59   61.59</time>
   <time name="diis">  161.50  161.50</time>
   <time name="orth">   12.32   12.32</time>
   <time name="total">  270.60  270.60</time>
   <energy>
    <i name="e_fr_energy">   -175.21084006 </i>
    <i name="e_wo_entrp">   -175.18745674 </i>
    <i name="e_0_energy">   -175.20499423 </i>
   </energy>
  </scstep>
  <scstep>
   <time name="diag">   61.58   61.59</time>
   <time name="diis">  161.04  161.04</time>
   <time name="orth">   12.31   12.31</time>
   <time name="total">  270.17  270.18</time>
   <energy>
    <i name="e_fr_energy">   -175.17964648 </i>
    <i name="e_wo_entrp">   -175.17283054 </i>
    <i name="e_0_energy">   -175.17794250 </i>
   </energy>
  </scstep>
  <scstep>
   <time name="diag">   61.61   61.61</time>
   <time name="diis">  161.05  161.05</time>
   <time name="orth">   12.25   12.25</time>
   <time name="total">  270.23  270.23</time>
   <energy>
    <i name="e_fr_energy">   -175.13684167 </i>
    <i name="e_wo_entrp">   -175.11343620 </i>
    <i name="e_0_energy">   -175.13099030 </i>
   </energy>
  </scstep>
  <scstep>
   <time name="diag">   61.48   61.48</time>
   <time name="diis">  161.36  161.36</time>
   <time name="orth">   12.32   12.32</time>
   <time name="total">  270.49  270.49</time>
   <energy>
    <i name="e_fr_energy">   -175.11792392 </i>
    <i name="e_wo_entrp">   -175.09886246 </i>
    <i name="e_0_energy">   -175.11315856 </i>
   </energy>
  </scstep>
  <scstep>
   <time name="diag">   61.45   61.46</time>
   <time name="diis">  161.33  161.34</time>
   <time name="orth">   12.27   12.27</time>
   <time name="total">  270.47  270.49</time>
   <energy>
    <i name="e_fr_energy">   -175.10457415 </i>
    <i name="e_wo_entrp">   -175.08460337 </i>
    <i name="e_0_energy">   -175.09958146 </i>
   </energy>
  </scstep>
  <scstep>
   <time name="diag">   61.66   61.66</time>
   <time name="diis">  161.37  161.37</time>
   <time name="orth">   12.08   12.08</time>
   <time name="total">  270.48  270.49</time>
   <energy>
    <i name="e_fr_energy">   -175.07922571 </i>
    <i name="e_wo_entrp">   -175.04493597 </i>
    <i name="e_0_energy">   -175.07065328 </i>
   </energy>
  </scstep>
  <scstep>
   <time name="diag">   64.01   64.01</time>
   <time name="diis">  163.64  163.64</time>
   <time name="orth">   12.50   12.50</time>
   <time name="total">  276.78  276.78</time>
   <energy>
    <i name="e_fr_energy">   -175.07758018 </i>
    <i name="e_wo_entrp">   -175.04321785 </i>
    <i name="e_0_energy">   -175.06898959 </i>
   </energy>
  </scstep>
  <scstep>
   <time name="diag">   62.01   62.01</time>
   <time name="diis">  162.72  162.72</time>
   <time name="orth">   12.34   12.34</time>
   <time name="total">  273.24  273.24</time>
   <energy>
    <i name="e_fr_energy">   -175.06283662 </i>
    <i name="e_wo_entrp">   -175.02721777 </i>
    <i name="e_0_energy">   -175.05393191 </i>
   </energy>
  </scstep>
  <scstep>
   <time name="diag">   62.73   62.73</time>
   <time name="diis">  162.02  162.02</time>
   <time name="orth">   12.50   12.50</time>
   <time name="total">  273.90  273.90</time>
   <energy>
    <i name="e_fr_energy">   -175.05802395 </i>
    <i name="e_wo_entrp">   -175.02404236 </i>
    <i name="e_0_energy">   -175.04952855 </i>
   </energy>
  </scstep>
  <scstep>
   <time name="diag">   62.79   62.79</time>
   <time name="diis">  161.73  161.74</time>
   <time name="orth">   12.31   12.31</time>
   <time name="total">  273.27  273.28</time>
   <energy>
    <i name="e_fr_energy">   -175.05962510 </i>
    <i name="e_wo_entrp">   -175.02008521 </i>
    <i name="e_0_energy">   -175.04974013 </i>
   </energy>
  </scstep>
  <scstep>
   <time name="diag">   62.57   62.57</time>
   <time name="diis">  162.81  162.81</time>
   <time name="orth">   12.28   12.28</time>
   <time name="total">  274.13  274.13</time>
   <energy>
    <i name="e_fr_energy">   -175.05692232 </i>
    <i name="e_wo_entrp">   -175.01924625 </i>
    <i name="e_0_energy">   -175.04750331 </i>
   </energy>
  </scstep>
  <scstep>
   <time name="diag">   61.78   61.78</time>
   <time name="diis">  160.49  160.49</time>
   <time name="orth">   12.45   12.45</time>
   <time name="total">  271.34  271.34</time>
   <energy>
    <i name="e_fr_energy">   -175.05557277 </i>
    <i name="e_wo_entrp">   -175.01889024 </i>
    <i name="e_0_energy">   -175.04640214 </i>
   </energy>
  </scstep>
  <scstep>
   <time name="diag">   62.59   62.59</time>
   <time name="diis">  162.24  162.24</time>
   <time name="orth">   12.26   12.27</time>
   <time name="total">  273.52  273.53</time>
   <energy>
    <i name="e_fr_energy">   -175.05681867 </i>
    <i name="e_wo_entrp">   -175.02108905 </i>
    <i name="e_0_energy">   -175.04788626 </i>
   </energy>
  </scstep>
  <scstep>
   <time name="diag">   61.92   61.92</time>
   <time name="diis">  160.35  160.35</time>
   <time name="orth">   12.30   12.30</time>
   <time name="total">  270.94  270.95</time>
   <energy>
    <i name="e_fr_energy">   -175.05771514 </i>
    <i name="e_wo_entrp">   -175.02278535 </i>
    <i name="e_0_energy">   -175.04898269 </i>
   </energy>
  </scstep>
  <scstep>
   <time name="diag">   62.14   62.14</time>
   <time name="diis">  161.98  161.99</time>
   <time name="orth">   12.56   12.56</time>
   <time name="total">  273.88  273.88</time>
   <energy>
    <i name="e_fr_energy">   -175.06010592 </i>
    <i name="e_wo_entrp">   -175.02155529 </i>
    <i name="e_0_energy">   -175.05046827 </i>
   </energy>
  </scstep>
  <scstep>
   <time name="diag">   62.79   62.79</time>
   <time name="diis">  152.11  152.11</time>
   <time name="orth">   12.37   12.37</time>
   <time name="total">  264.86  264.87</time>
   <energy>
    <i name="e_fr_energy">   -175.06171883 </i>
    <i name="e_wo_entrp">   -175.02345031 </i>
    <i name="e_0_energy">   -175.05215170 </i>
   </energy>
  </scstep>
  <scstep>
   <time name="diag">   62.16   62.16</time>
   <time name="diis">  148.05  148.05</time>
   <time name="orth">   12.46   12.46</time>
   <time name="total">  259.64  259.65</time>
   <energy>
    <i name="e_fr_energy">   -175.06508355 </i>
    <i name="e_wo_entrp">   -175.02735838 </i>
    <i name="e_0_energy">   -175.05565225 </i>
   </energy>
  </scstep>
  <scstep>
   <time name="diag">   61.85   61.85</time>
   <time name="diis">  126.76  126.76</time>
   <time name="orth">   12.46   12.46</time>
   <time name="total">  237.97  237.98</time>
   <energy>
    <i name="e_fr_energy">   -175.06697633 </i>
    <i name="e_wo_entrp">   -175.03039975 </i>
    <i name="e_0_energy">   -175.05783219 </i>
   </energy>
  </scstep>
  <scstep>
   <time name="diag">   62.11   62.11</time>
   <time name="diis">  124.57  124.57</time>
   <time name="orth">   12.39   12.39</time>
   <time name="total">  236.78  236.78</time>
   <energy>
    <i name="e_fr_energy">   -175.06921580 </i>
    <i name="e_wo_entrp">   -175.03310782 </i>
    <i name="e_0_energy">   -175.06018881 </i>
   </energy>
  </scstep>
  <scstep>
   <time name="diag">   62.57   62.58</time>
   <time name="diis">  137.52  137.52</time>
   <time name="orth">   12.26   12.27</time>
   <time name="total">  250.00  250.01</time>
   <energy>
    <i name="e_fr_energy">   -175.07238253 </i>
    <i name="e_wo_entrp">   -175.03566599 </i>
    <i name="e_0_energy">   -175.06320339 </i>
   </energy>
  </scstep>
  <scstep>
   <time name="diag">   61.78   61.78</time>
   <time name="diis">  108.75  108.75</time>
   <time name="orth">   12.29   12.29</time>
   <time name="total">  219.97  219.97</time>
   <energy>
    <i name="e_fr_energy">   -175.07374960 </i>
    <i name="e_wo_entrp">   -175.03735295 </i>
    <i name="e_0_energy">   -175.06465044 </i>
   </energy>
  </scstep>
  <scstep>
   <time name="diag">   61.56   61.57</time>
   <time name="diis">  109.03  109.03</time>
   <time name="orth">   12.31   12.31</time>
   <time name="total">  220.32  220.33</time>
   <energy>
    <i name="e_fr_energy">   -175.07584071 </i>
    <i name="e_wo_entrp">   -175.03967629 </i>
    <i name="e_0_energy">   -175.06679960 </i>
   </energy>
  </scstep>
  <scstep>
   <time name="diag">   61.68   61.68</time>
   <time name="diis">  106.96  106.96</time>
   <time name="orth">   12.37   12.37</time>
   <time name="total">  218.72  218.72</time>
   <energy>
    <i name="e_fr_energy">   -175.07745221 </i>
    <i name="e_wo_entrp">   -175.04151283 </i>
    <i name="e_0_energy">   -175.06846737 </i>
   </energy>
  </scstep>
  <scstep>
   <time name="diag">   61.68   61.69</time>
   <time name="diis">  104.56  104.56</time>
   <time name="orth">   12.31   12.31</time>
   <time name="total">  216.26  216.26</time>
   <energy>
    <i name="e_fr_energy">   -175.07825954 </i>
    <i name="e_wo_entrp">   -175.04225519 </i>
    <i name="e_0_energy">   -175.06925845 </i>
   </energy>
  </scstep>
  <scstep>
   <time name="diag">   62.51   62.51</time>
   <time name="diis">  105.87  105.87</time>
   <time name="orth">   12.43   12.43</time>
   <time name="total">  219.00  219.01</time>
   <energy>
    <i name="e_fr_energy">   -175.07990216 </i>
    <i name="e_wo_entrp">   -175.04373846 </i>
    <i name="e_0_energy">   -175.07086124 </i>
   </energy>
  </scstep>
  <scstep>
   <time name="diag">   62.71   62.71</time>
   <time name="diis">  105.57  105.57</time>
   <time name="orth">   12.44   12.44</time>
   <time name="total">  219.95  219.96</time>
   <energy>
    <i name="e_fr_energy">   -175.08042872 </i>
    <i name="e_wo_entrp">   -175.04457380 </i>
    <i name="e_0_energy">   -175.07146499 </i>
   </energy>
  </scstep>
  <scstep>
   <time name="diag">   63.22   63.22</time>
   <time name="diis">  101.61  101.61</time>
   <time name="orth">   12.15   12.15</time>
   <time name="total">  215.66  215.66</time>
   <energy>
    <i name="e_fr_energy">   -175.08133479 </i>
    <i name="e_wo_entrp">   -175.04542557 </i>
    <i name="e_0_energy">   -175.07235749 </i>
   </energy>
  </scstep>
  <scstep>
   <time name="diag">   61.70   61.70</time>
   <time name="diis">   97.48   97.48</time>
   <time name="orth">   12.34   12.34</time>
   <time name="total">  209.43  209.44</time>
   <energy>
    <i name="e_fr_energy">   -175.08171325 </i>
    <i name="e_wo_entrp">   -175.04570225 </i>
    <i name="e_0_energy">   -175.07271050 </i>
   </energy>
  </scstep>
  <scstep>
   <time name="diag">   61.98   61.98</time>
   <time name="diis">   94.43   94.44</time>
   <time name="orth">   12.32   12.32</time>
   <time name="total">  206.87  206.87</time>
   <energy>
    <i name="e_fr_energy">   -175.08238525 </i>
    <i name="e_wo_entrp">   -175.04650709 </i>
    <i name="e_0_energy">   -175.07341571 </i>
   </energy>
  </scstep>
  <scstep>
   <time name="diag">   61.54   61.54</time>
   <time name="diis">   87.05   87.05</time>
   <time name="orth">   12.32   12.32</time>
   <time name="total">  199.19  199.19</time>
   <energy>
    <i name="e_fr_energy">   -175.08278796 </i>
    <i name="e_wo_entrp">   -175.04693261 </i>
    <i name="e_0_energy">   -175.07382412 </i>
   </energy>
  </scstep>
  <scstep>
   <time name="diag">   61.70   61.70</time>
   <time name="diis">   77.95   77.95</time>
   <time name="orth">   12.35   12.35</time>
   <time name="total">  190.28  190.28</time>
   <energy>
    <i name="e_fr_energy">   -175.08310395 </i>
    <i name="e_wo_entrp">   -175.04708719 </i>
    <i name="e_0_energy">   -175.07409976 </i>
   </energy>
  </scstep>
  <scstep>
   <time name="diag">   61.89   61.89</time>
   <time name="diis">   88.93   88.93</time>
   <time name="orth">   12.39   12.39</time>
   <time name="total">  201.27  201.27</time>
   <energy>
    <i name="e_fr_energy">   -175.08364412 </i>
    <i name="e_wo_entrp">   -175.04768576 </i>
    <i name="e_0_energy">   -175.07465453 </i>
   </energy>
  </scstep>
  <scstep>
   <time name="diag">   61.57   61.57</time>
   <time name="diis">   72.90   72.90</time>
   <time name="orth">   12.36   12.36</time>
   <time name="total">  185.04  185.04</time>
   <energy>
    <i name="e_fr_energy">   -175.08380188 </i>
    <i name="e_wo_entrp">   -175.04786982 </i>
    <i name="e_0_energy">   -175.07481887 </i>
   </energy>
  </scstep>
  <scstep>
   <time name="diag">   62.30   62.30</time>
   <time name="diis">   80.45   80.45</time>
   <time name="orth">   12.40   12.40</time>
   <time name="total">  193.42  193.41</time>
   <energy>
    <i name="e_fr_energy">   -175.08401102 </i>
    <i name="e_wo_entrp">   -175.04803344 </i>
    <i name="e_0_energy">   -175.07501662 </i>
   </energy>
  </scstep>
  <scstep>
   <time name="diag">   62.20   62.20</time>
   <time name="diis">   75.40   75.40</time>
   <time name="orth">   12.59   12.59</time>
   <time name="total">  189.01  189.01</time>
   <energy>
    <i name="e_fr_energy">   -175.08415853 </i>
    <i name="e_wo_entrp">   -175.04822268 </i>
    <i name="e_0_energy">   -175.07517457 </i>
   </energy>
  </scstep>
  <scstep>
   <time name="diag">   62.94   62.94</time>
   <time name="diis">   75.68   75.68</time>
   <time name="orth">   12.69   12.69</time>
   <time name="total">  190.78  190.79</time>
   <energy>
    <i name="e_fr_energy">   -175.08428089 </i>
    <i name="e_wo_entrp">   -175.04833141 </i>
    <i name="e_0_energy">   -175.07529352 </i>
   </energy>
  </scstep>
  <scstep>
   <time name="diag">   62.73   62.73</time>
   <time name="diis">   73.28   73.29</time>
   <time name="orth">   12.24   12.24</time>
   <time name="total">  161.02  161.03</time>
   <energy>
    <i name="alphaZ">     75.25431677 </i>
    <i name="ewald"> 139054.52412171 </i>
    <i name="hartreedc">-183415.53672921 </i>
    <i name="XCdc">  -1692.15482033 </i>
    <i name="pawpsdc">  46184.42807304 </i>
    <i name="pawaedc"> -42654.98672543 </i>
    <i name="eentropy">     -0.03593761 </i>
    <i name="bandstr">  -2813.08215402 </i>
    <i name="atom">  45086.50549395 </i>
    <i name="e_fr_energy">   -175.08436113 </i>
    <i name="e_wo_entrp">   -175.04842352 </i>
    <i name="e_0_energy">   -175.07537673 </i>
   </energy>
  </scstep>
  <structure>
   <crystal>
    <varray name="basis" >
     <v>      30.00000000       0.00000000       0.00000000 </v>
     <v>       0.00000000      30.00000000       0.00000000 </v>
     <v>       0.00000000       0.00000000      30.00000000 </v>
    </varray>
    <i name="volume">  27000.00000000 </i>
    <varray name="rec_basis" >
     <v>       0.03333333       0.00000000       0.00000000 </v>
     <v>       0.00000000       0.03333333       0.00000000 </v>
     <v>       0.00000000       0.00000000       0.03333333 </v>
    </varray>
   </crystal>
   <varray name="positions" >
    <v>       0.44576020       0.32826710       0.41691983 </v>
    <v>       0.67173288       0.55423978       0.41691983 </v>
    <v>       0.55423980       0.32826710       0.41691983 </v>
    <v>       0.32826712       0.55423978       0.41691983 </v>
    <v>       0.50000000       0.38250690       0.34021317 </v>
    <v>       0.50000000       0.38250690       0.65978680 </v>
    <v>       0.50000000       0.27609440       0.50000000 </v>
    <v>       0.27609443       0.49999998       0.50000000 </v>
    <v>       0.72390557       0.49999998       0.50000000 </v>
    <v>       0.50000000       0.72390555       0.50000000 </v>
    <v>       0.61195280       0.38804720       0.34167483 </v>
    <v>       0.61195280       0.38804720       0.65832513 </v>
    <v>       0.38804722       0.61195278       0.34167483 </v>
    <v>       0.38804722       0.61195278       0.65832513 </v>
    <v>       0.38804720       0.38804720       0.34167483 </v>
    <v>       0.38804720       0.38804720       0.65832513 </v>
    <v>       0.61195278       0.61195278       0.34167483 </v>
    <v>       0.61195278       0.61195278       0.65832513 </v>
    <v>       0.44576020       0.32826710       0.58308023 </v>
    <v>       0.67173288       0.55423978       0.58308023 </v>
    <v>       0.55791699       0.44208301       0.41809300 </v>
    <v>       0.32826705       0.44576024       0.41691983 </v>
    <v>       0.55423973       0.67173293       0.41691983 </v>
    <v>       0.55423980       0.32826710       0.58308023 </v>
    <v>       0.32826712       0.55423978       0.58308023 </v>
    <v>       0.67173295       0.44576024       0.41691983 </v>
    <v>       0.44576027       0.67173293       0.41691983 </v>
    <v>       0.44208301       0.44208301       0.41809300 </v>
    <v>       0.50000000       0.38416601       0.50000000 </v>
    <v>       0.61749315       0.50000005       0.34021317 </v>
    <v>       0.61749315       0.50000005       0.65978680 </v>
    <v>       0.38250685       0.50000005       0.34021317 </v>
    <v>       0.38250685       0.50000005       0.65978680 </v>
    <v>       0.38317830       0.38317830       0.50000000 </v>
    <v>       0.61682172       0.61682172       0.50000000 </v>
    <v>       0.61682170       0.38317830       0.50000000 </v>
    <v>       0.38317828       0.61682172       0.50000000 </v>
    <v>       0.50000000       0.50000000       0.33478917 </v>
    <v>       0.50000000       0.50000000       0.66521087 </v>
    <v>       0.32826705       0.44576024       0.58308023 </v>
    <v>       0.55423973       0.67173293       0.58308023 </v>
    <v>       0.55791699       0.44208301       0.58190703 </v>
    <v>       0.44208298       0.55791702       0.41809300 </v>
    <v>       0.44208301       0.44208301       0.58190703 </v>
    <v>       0.67173295       0.44576024       0.58308023 </v>
    <v>       0.44576027       0.67173293       0.58308023 </v>
    <v>       0.55791702       0.55791702       0.41809300 </v>
    <v>       0.38416599       0.50000002       0.50000000 </v>
    <v>       0.61583401       0.50000002       0.50000000 </v>
    <v>       0.50000000       0.61749319       0.34021317 </v>
    <v>       0.50000000       0.61749319       0.65978680 </v>
    <v>       0.50000000       0.50000000       0.50000000 </v>
    <v>       0.44208298       0.55791702       0.58190703 </v>
    <v>       0.55791702       0.55791702       0.58190703 </v>
    <v>       0.50000000       0.61583404       0.50000000 </v>
    <v>       0.53609190       0.52622717       0.71158650 </v>
    <v>       0.54236760       0.53078760       0.74837750 </v>
   </varray>
  </structure>
  <varray name="forces" >
   <v>       0.69606694       1.10944813       0.28942432 </v>
   <v>      -1.11355408      -0.69871683       0.28801272 </v>
   <v>      -0.69807406       1.10808404       0.28824267 </v>
   <v>       1.10770568      -0.69792866       0.28781935 </v>
   <v>       0.00337546       0.40328694       1.28071800 </v>
   <v>      -0.02094780       0.36793992      -1.31616797 </v>
   <v>       0.00636036       1.50972891       0.00693479 </v>
   <v>       1.51069307       0.00438395       0.00527794 </v>
   <v>      -1.50496746       0.00880209       0.02298398 </v>
   <v>       0.00831083      -1.50478963       0.01820711 </v>
   <v>      -0.74991649       0.75453712       1.07380329 </v>
   <v>      -0.73801823       0.73604107      -1.07086150 </v>
   <v>       0.75428713      -0.74960655       1.07425023 </v>
   <v>       0.74384350      -0.74507969      -1.07186917 </v>
   <v>       0.75129410       0.74991599       1.07548619 </v>
   <v>       0.75508826       0.75437624      -1.06734456 </v>
   <v>      -0.75360535      -0.75457600       1.07215100 </v>
   <v>      -0.71895726      -0.71514814      -1.06648434 </v>
   <v>       0.70191066       1.11128554      -0.28566243 </v>
   <v>      -1.08141751      -0.70353129      -0.32145341 </v>
   <v>       0.11220274      -0.11490976      -0.15338261 </v>
   <v>       1.10865772       0.69632569       0.28990147 </v>
   <v>      -0.69855917      -1.11279837       0.28867853 </v>
   <v>      -0.69916814       1.10520589      -0.29729833 </v>
   <v>       1.10822255      -0.69727686      -0.29379219 </v>
   <v>      -1.11434023       0.69610573       0.28292473 </v>
   <v>       0.69563722      -1.11321802       0.28312660 </v>
   <v>      -0.11449288      -0.11497768      -0.14776683 </v>
   <v>      -0.00325028      -0.21691845      -0.00147733 </v>
   <v>      -0.41047272       0.00162921       1.27903143 </v>
   <v>      -0.62105954       0.05997249      -1.18324725 </v>
   <v>       0.40162245       0.00298772       1.28120521 </v>
   <v>       0.38399526      -0.01515273      -1.31362150 </v>
   <v>       0.81370538       0.81525105      -0.02456445 </v>
   <v>      -0.83584412      -0.83474112       0.01249689 </v>
   <v>      -0.83025745       0.82384545      -0.00053262 </v>
   <v>       0.82099131      -0.82676409      -0.00750251 </v>
   <v>       0.01140588       0.00790725       1.18404027 </v>
   <v>       0.51352144       0.41695095      -0.58403730 </v>
   <v>       1.11178374       0.69861092      -0.28791358 </v>
   <v>      -0.70414382      -1.08921049      -0.31439176 </v>
   <v>       0.14216652      -0.17971319       0.10561319 </v>
   <v>      -0.11444028       0.11308803      -0.15141759 </v>
   <v>      -0.09175385      -0.08252709       0.19544313 </v>
   <v>      -1.09175226       0.70218779      -0.29997176 </v>
   <v>       0.70609048      -1.10209539      -0.29027996 </v>
   <v>       0.11333944       0.11419251      -0.15387530 </v>
   <v>      -0.21525605      -0.00279404      -0.00056656 </v>
   <v>       0.22204898       0.00228543       0.00069902 </v>
   <v>       0.00223774      -0.40971162       1.27935469 </v>
   <v>      -0.00189771      -0.43914852      -1.28636727 </v>
   <v>       0.00148121       0.00176738       0.00284616 </v>
   <v>      -0.17090840       0.13296349       0.11599269 </v>
   <v>       0.16004500       0.16971080       0.06320035 </v>
   <v>       0.00221017       0.22079089       0.00051612 </v>
   <v>      -1.44019823      -1.36086014      -5.14495148 </v>
   <v>       1.06695215       0.88258576       4.68841953 </v>
  </varray>
  <varray name="stress" >
   <v>      -6.76133022      -0.00738457       0.03379123 </v>
   <v>      -0.00738458      -6.72533028       0.00998893 </v>
   <v>       0.03379125       0.00998896      -6.46965865 </v>
  </varray>
  <energy>
   <i name="e_fr_energy">   -175.08436113 </i>
   <i name="e_wo_entrp">   -175.07537673 </i>
   <i name="e_0_energy">     -0.03593761 </i>
  </energy>
  <time name="totalsc">16270.8216271.11</time>
  <eigenvalues>
   <array>
    <dimension dim="1">band</dimension>
    <dimension dim="2">kpoint</dimension>
    <dimension dim="3">spin</dimension>
    <field>eigene</field>
    <field>occ</field>
    <set>
     <set comment="spin 1">
      <set comment="kpoint 1">
       <r>  -28.4503    1.0000 </r>
       <r>  -13.3458    1.0000 </r>
       <r>  -11.1177    1.0000 </r>
       <r>  -10.9384    1.0000 </r>
       <r>  -10.4355    1.0000 </r>
       <r>   -6.6486    1.0000 </r>
       <r>   -6.1987    1.0000 </r>
       <r>   -6.1780    1.0000 </r>
       <r>   -6.1284    1.0000 </r>
       <r>   -6.1113    1.0000 </r>
       <r>   -6.0746    1.0000 </r>
       <r>   -5.8274    1.0000 </r>
       <r>   -5.8139    1.0000 </r>
       <r>   -5.8067    1.0000 </r>
       <r>   -5.7432    1.0000 </r>
       <r>   -5.6892    1.0000 </r>
       <r>   -5.6865    1.0000 </r>
       <r>   -5.6822    1.0000 </r>
       <r>   -5.6795    1.0000 </r>
       <r>   -5.6547    1.0000 </r>
       <r>   -5.6423    1.0000 </r>
       <r>   -5.6162    1.0000 </r>
       <r>   -5.6054    1.0000 </r>
       <r>   -5.5938    1.0000 </r>
       <r>   -5.5905    1.0000 </r>
       <r>   -5.5876    1.0000 </r>
       <r>   -5.5650    1.0000 </r>
       <r>   -5.5493    1.0000 </r>
       <r>   -5.5386    1.0000 </r>
       <r>   -5.5285    1.0000 </r>
       <r>   -5.5261    1.0000 </r>
       <r>   -5.5188    1.0000 </r>
       <r>   -5.5145    1.0000 </r>
       <r>   -5.5129    1.0000 </r>
       <r>   -5.5118    1.0000 </r>
       <r>   -5.5077    1.0000 </r>
       <r>   -5.4983    1.0000 </r>
       <r>   -5.4846    1.0000 </r>
       <r>   -5.4809    1.0000 </r>
       <r>   -5.4737    1.0000 </r>
       <r>   -5.4726    1.0000 </r>
       <r>   -5.4687    1.0000 </r>
       <r>   -5.4646    1.0000 </r>
       <r>   -5.4634    1.0000 </r>
       <r>   -5.4622    1.0000 </r>
       <r>   -5.4575    1.0000 </r>
       <r>   -5.4437    1.0000 </r>
       <r>   -5.4267    1.0000 </r>
       <r>   -5.4237    1.0000 </r>
       <r>   -5.4228    1.0000 </r>
       <r>   -5.4210    1.0000 </r>
       <r>   -5.4128    1.0000 </r>
       <r>   -5.4018    1.0000 </r>
       <r>   -5.4002    1.0000 </r>
       <r>   -5.3906    1.0000 </r>
       <r>   -5.3817    1.0000 </r>
       <r>   -5.3667    1.0000 </r>
       <r>   -5.3525    1.0000 </r>
       <r>   -5.3443    1.0000 </r>
       <r>   -5.3184    1.0000 </r>
       <r>   -5.3156    1.0000 </r>
       <r>   -5.3127    1.0000 </r>
       <r>   -5.3105    1.0000 </r>
       <r>   -5.3101    1.0000 </r>
       <r>   -5.3024    1.0000 </r>
       <r>   -5.2977    1.0000 </r>
       <r>   -5.2945    1.0000 </r>
       <r>   -5.2929    1.0000 </r>
       <r>   -5.2730    1.0000 </r>
       <r>   -5.2568    1.0000 </r>
       <r>   -5.2433    1.0000 </r>
       <r>   -5.2013    1.0000 </r>
       <r>   -5.1808    1.0000 </r>
       <r>   -5.1777    1.0000 </r>
       <r>   -5.1756    1.0000 </r>
       <r>   -5.1748    1.0000 </r>
       <r>   -5.1726    1.0000 </r>
       <r>   -5.1712    1.0000 </r>
       <r>   -5.1699    1.0000 </r>
       <r>   -5.1505    1.0000 </r>
       <r>   -5.1435    1.0000 </r>
       <r>   -5.1395    1.0000 </r>
       <r>   -5.1281    1.0000 </r>
       <r>   -5.1227    1.0000 </r>
       <r>   -5.1172    1.0000 </r>
       <r>   -5.1165    1.0000 </r>
       <r>   -5.1097    1.0000 </r>
       <r>   -5.0951    1.0000 </r>
       <r>   -5.0913    1.0000 </r>
       <r>   -5.0833    1.0000 </r>
       <r>   -5.0716    1.0000 </r>
       <r>   -5.0539    1.0000 </r>
       <r>   -5.0523    1.0000 </r>
       <r>   -5.0477    1.0000 </r>
       <r>   -5.0464    1.0000 </r>
       <r>   -5.0434    1.0000 </r>
       <r>   -5.0424    1.0000 </r>
       <r>   -5.0341    1.0000 </r>
       <r>   -5.0234    1.0000 </r>
       <r>   -5.0166    1.0000 </r>
       <r>   -5.0147    1.0000 </r>
       <r>   -5.0118    1.0000 </r>
       <r>   -5.0028    1.0000 </r>
       <r>   -5.0003    1.0000 </r>
       <r>   -4.9997    1.0000 </r>
       <r>   -4.9978    1.0000 </r>
       <r>   -4.9956    1.0000 </r>
       <r>   -4.9866    1.0000 </r>
       <r>   -4.9794    1.0000 </r>
       <r>   -4.9764    1.0000 </r>
       <r>   -4.9747    1.0000 </r>
       <r>   -4.9731    1.0000 </r>
       <r>   -4.9630    1.0000 </r>
       <r>   -4.9594    1.0000 </r>
       <r>   -4.9547    1.0000 </r>
       <r>   -4.9519    1.0000 </r>
       <r>   -4.9453    1.0000 </r>
       <r>   -4.9427    1.0000 </r>
       <r>   -4.9269    1.0000 </r>
       <r>   -4.9182    1.0000 </r>
       <r>   -4.9127    1.0000 </r>
       <r>   -4.9107    1.0000 </r>
       <r>   -4.9093    1.0000 </r>
       <r>   -4.9032    1.0000 </r>
       <r>   -4.8964    1.0000 </r>
       <r>   -4.8952    1.0000 </r>
       <r>   -4.8902    1.0000 </r>
       <r>   -4.8702    1.0000 </r>
       <r>   -4.8627    1.0000 </r>
       <r>   -4.8616    1.0000 </r>
       <r>   -4.8392    1.0000 </r>
       <r>   -4.8362    1.0000 </r>
       <r>   -4.8329    1.0000 </r>
       <r>   -4.8266    1.0000 </r>
       <r>   -4.8258    1.0000 </r>
       <r>   -4.8248    1.0000 </r>
       <r>   -4.8124    1.0000 </r>
       <r>   -4.7983    0.9999 </r>
       <r>   -4.7955    0.9999 </r>
       <r>   -4.7856    0.9999 </r>
       <r>   -4.7763    0.9999 </r>
       <r>   -4.7657    0.9998 </r>
       <r>   -4.7547    0.9998 </r>
       <r>   -4.7494    0.9998 </r>
       <r>   -4.7320    0.9996 </r>
       <r>   -4.7314    0.9996 </r>
       <r>   -4.7305    0.9996 </r>
       <r>   -4.7239    0.9996 </r>
       <r>   -4.7090    0.9994 </r>
       <r>   -4.7015    0.9993 </r>
       <r>   -4.6994    0.9993 </r>
       <r>   -4.6969    0.9992 </r>
       <r>   -4.6778    0.9989 </r>
       <r>   -4.6759    0.9988 </r>
       <r>   -4.6741    0.9988 </r>
       <r>   -4.6704    0.9987 </r>
       <r>   -4.6675    0.9987 </r>
       <r>   -4.6670    0.9986 </r>
       <r>   -4.6625    0.9985 </r>
       <r>   -4.6577    0.9984 </r>
       <r>   -4.6528    0.9983 </r>
       <r>   -4.6470    0.9981 </r>
       <r>   -4.6466    0.9981 </r>
       <r>   -4.6461    0.9981 </r>
       <r>   -4.6438    0.9980 </r>
       <r>   -4.6392    0.9979 </r>
       <r>   -4.6382    0.9978 </r>
       <r>   -4.6302    0.9976 </r>
       <r>   -4.6276    0.9975 </r>
       <r>   -4.6249    0.9974 </r>
       <r>   -4.6210    0.9972 </r>
       <r>   -4.6181    0.9971 </r>
       <r>   -4.6084    0.9968 </r>
       <r>   -4.5916    0.9961 </r>
       <r>   -4.5906    0.9961 </r>
       <r>   -4.5866    0.9960 </r>
       <r>   -4.5865    0.9960 </r>
       <r>   -4.5831    0.9958 </r>
       <r>   -4.5810    0.9958 </r>
       <r>   -4.5685    0.9954 </r>
       <r>   -4.5674    0.9954 </r>
       <r>   -4.5610    0.9952 </r>
       <r>   -4.5491    0.9951 </r>
       <r>   -4.5472    0.9951 </r>
       <r>   -4.5460    0.9951 </r>
       <r>   -4.5459    0.9951 </r>
       <r>   -4.5454    0.9951 </r>
       <r>   -4.5441    0.9951 </r>
       <r>   -4.5430    0.9951 </r>
       <r>   -4.5404    0.9951 </r>
       <r>   -4.5101    0.9963 </r>
       <r>   -4.5058    0.9967 </r>
       <r>   -4.5037    0.9969 </r>
       <r>   -4.4998    0.9973 </r>
       <r>   -4.4967    0.9976 </r>
       <r>   -4.4852    0.9993 </r>
       <r>   -4.4773    1.0008 </r>
       <r>   -4.4747    1.0013 </r>
       <r>   -4.4685    1.0027 </r>
       <r>   -4.4661    1.0033 </r>
       <r>   -4.4617    1.0044 </r>
       <r>   -4.4600    1.0049 </r>
       <r>   -4.4577    1.0056 </r>
       <r>   -4.4565    1.0059 </r>
       <r>   -4.4519    1.0073 </r>
       <r>   -4.4491    1.0082 </r>
       <r>   -4.4469    1.0089 </r>
       <r>   -4.4420    1.0107 </r>
       <r>   -4.4384    1.0120 </r>
       <r>   -4.4332    1.0140 </r>
       <r>   -4.4237    1.0179 </r>
       <r>   -4.4142    1.0221 </r>
       <r>   -4.4065    1.0257 </r>
       <r>   -4.4028    1.0275 </r>
       <r>   -4.4005    1.0286 </r>
       <r>   -4.3963    1.0306 </r>
       <r>   -4.3947    1.0314 </r>
       <r>   -4.3927    1.0323 </r>
       <r>   -4.3916    1.0329 </r>
       <r>   -4.3893    1.0340 </r>
       <r>   -4.3840    1.0364 </r>
       <r>   -4.3750    1.0406 </r>
       <r>   -4.3609    1.0461 </r>
       <r>   -4.3454    1.0504 </r>
       <r>   -4.3449    1.0505 </r>
       <r>   -4.3360    1.0515 </r>
       <r>   -4.3314    1.0516 </r>
       <r>   -4.3305    1.0516 </r>
       <r>   -4.3294    1.0515 </r>
       <r>   -4.3275    1.0514 </r>
       <r>   -4.3237    1.0508 </r>
       <r>   -4.3227    1.0507 </r>
       <r>   -4.3209    1.0503 </r>
       <r>   -4.3193    1.0499 </r>
       <r>   -4.3171    1.0493 </r>
       <r>   -4.3148    1.0485 </r>
       <r>   -4.3138    1.0481 </r>
       <r>   -4.3093    1.0461 </r>
       <r>   -4.3084    1.0456 </r>
       <r>   -4.3018    1.0417 </r>
       <r>   -4.3013    1.0413 </r>
       <r>   -4.2930    1.0344 </r>
       <r>   -4.2927    1.0341 </r>
       <r>   -4.2901    1.0315 </r>
       <r>   -4.2863    1.0273 </r>
       <r>   -4.2841    1.0247 </r>
       <r>   -4.2773    1.0156 </r>
       <r>   -4.2759    1.0134 </r>
       <r>   -4.2750    1.0121 </r>
       <r>   -4.2746    1.0115 </r>
       <r>   -4.2606    0.9860 </r>
       <r>   -4.2532    0.9698 </r>
       <r>   -4.2520    0.9669 </r>
       <r>   -4.2490    0.9596 </r>
       <r>   -4.2440    0.9466 </r>
       <r>   -4.2438    0.9459 </r>
       <r>   -4.2426    0.9428 </r>
       <r>   -4.2424    0.9420 </r>
       <r>   -4.2373    0.9275 </r>
       <r>   -4.2362    0.9243 </r>
       <r>   -4.2313    0.9091 </r>
       <r>   -4.2304    0.9061 </r>
       <r>   -4.2290    0.9016 </r>
       <r>   -4.2281    0.8986 </r>
       <r>   -4.2262    0.8921 </r>
       <r>   -4.2146    0.8505 </r>
       <r>   -4.2136    0.8466 </r>
       <r>   -4.2114    0.8382 </r>
       <r>   -4.2108    0.8356 </r>
       <r>   -4.2077    0.8232 </r>
       <r>   -4.2072    0.8212 </r>
       <r>   -4.1933    0.7618 </r>
       <r>   -4.1885    0.7397 </r>
       <r>   -4.1873    0.7343 </r>
       <r>   -4.1820    0.7088 </r>
       <r>   -4.1765    0.6822 </r>
       <r>   -4.1732    0.6658 </r>
       <r>   -4.1677    0.6385 </r>
       <r>   -4.1622    0.6100 </r>
       <r>   -4.1611    0.6046 </r>
       <r>   -4.1606    0.6017 </r>
       <r>   -4.1471    0.5311 </r>
       <r>   -4.1401    0.4942 </r>
       <r>   -4.1245    0.4124 </r>
       <r>   -4.1230    0.4042 </r>
       <r>   -4.1186    0.3819 </r>
       <r>   -4.1120    0.3481 </r>
       <r>   -4.1024    0.3005 </r>
       <r>   -4.0120   -0.0046 </r>
       <r>   -3.9665   -0.0489 </r>
       <r>   -3.8988   -0.0367 </r>
       <r>   -3.8204   -0.0044 </r>
       <r>   -3.8162   -0.0033 </r>
       <r>   -3.7871    0.0022 </r>
       <r>   -3.4918    0.0001 </r>
       <r>   -3.4888    0.0001 </r>
       <r>   -3.3427    0.0000 </r>
       <r>   -3.0599    0.0000 </r>
       <r>   -3.0540    0.0000 </r>
       <r>   -3.0283    0.0000 </r>
       <r>   -3.0176    0.0000 </r>
       <r>   -3.0067    0.0000 </r>
       <r>   -3.0051    0.0000 </r>
       <r>   -2.9299    0.0000 </r>
       <r>   -2.8160    0.0000 </r>
       <r>   -2.5826    0.0000 </r>
       <r>   -2.5207    0.0000 </r>
       <r>   -2.5127    0.0000 </r>
       <r>   -2.2203    0.0000 </r>
       <r>   -2.1320    0.0000 </r>
       <r>   -2.1116    0.0000 </r>
       <r>   -2.1060    0.0000 </r>
       <r>   -1.9700    0.0000 </r>
       <r>   -1.9396    0.0000 </r>
       <r>   -1.9026    0.0000 </r>
       <r>   -1.8591    0.0000 </r>
       <r>   -1.8431    0.0000 </r>
       <r>   -1.7526    0.0000 </r>
       <r>   -1.7234    0.0000 </r>
       <r>   -1.6454    0.0000 </r>
       <r>   -1.6309    0.0000 </r>
       <r>   -1.5510    0.0000 </r>
       <r>   -1.5008    0.0000 </r>
       <r>   -1.4297    0.0000 </r>
       <r>   -1.3314    0.0000 </r>
       <r>   -1.0798    0.0000 </r>
       <r>   -1.0202    0.0000 </r>
       <r>   -1.0008    0.0000 </r>
       <r>   -0.9750    0.0000 </r>
       <r>   -0.9502    0.0000 </r>
       <r>   -0.9347    0.0000 </r>
       <r>   -0.9271    0.0000 </r>
       <r>   -0.9088    0.0000 </r>
       <r>   -0.8786    0.0000 </r>
       <r>   -0.8017    0.0000 </r>
       <r>   -0.6756    0.0000 </r>
      </set>
     </set>
    </set>
   </array>
  </eigenvalues>
  <separator name="orbital magnetization" >
   <v name="MAGDIPOLOUT">      0.00000000      0.00000000      0.00000000</v>
  </separator>
  <dos>
   <i name="efermi">     -4.14119615 </i>
   <total>
    <array>
     <dimension dim="1">gridpoints</dimension>
     <dimension dim="2">spin</dimension>
     <field>energy</field>
     <field>total</field>
     <field>integrated</field>
     <set>
      <set comment="spin 1">
       <r>   -30.4503     0.0000     0.0000 </r>
       <r>   -30.3444     0.0000     0.0000 </r>
       <r>   -30.2385     0.0000     0.0000 </r>
       <r>   -30.1326     0.0000     0.0000 </r>
       <r>   -30.0267     0.0000     0.0000 </r>
       <r>   -29.9207     0.0000     0.0000 </r>
       <r>   -29.8148     0.0000     0.0000 </r>
       <r>   -29.7089     0.0000     0.0000 </r>
       <r>   -29.6030     0.0000     0.0000 </r>
       <r>   -29.4971     0.0000     0.0000 </r>
       <r>   -29.3912     0.0000     0.0000 </r>
       <r>   -29.2853     0.0000     0.0000 </r>
       <r>   -29.1793     0.0002     0.0000 </r>
       <r>   -29.0734     0.0031     0.0003 </r>
       <r>   -28.9675     0.0265     0.0032 </r>
       <r>   -28.8616     0.0627     0.0098 </r>
       <r>   -28.7557    -0.2634    -0.0181 </r>
       <r>   -28.6498    -0.7948    -0.1023 </r>
       <r>   -28.5438     2.4822     0.1606 </r>
       <r>   -28.4379     9.1596     1.1308 </r>
       <r>   -28.3320     7.9013     1.9676 </r>
       <r>   -28.2261     1.1457     2.0890 </r>
       <r>   -28.1202    -0.8016     2.0041 </r>
       <r>   -28.0143    -0.1207     1.9913 </r>
       <r>   -27.9084     0.0629     1.9980 </r>
       <r>   -27.8024     0.0174     1.9998 </r>
       <r>   -27.6965     0.0016     2.0000 </r>
       <r>   -27.5906     0.0001     2.0000 </r>
       <r>   -27.4847     0.0000     2.0000 </r>
       <r>   -27.3788     0.0000     2.0000 </r>
       <r>   -27.2729     0.0000     2.0000 </r>
       <r>   -27.1669     0.0000     2.0000 </r>
       <r>   -27.0610     0.0000     2.0000 </r>
       <r>   -26.9551     0.0000     2.0000 </r>
       <r>   -26.8492     0.0000     2.0000 </r>
       <r>   -26.7433     0.0000     2.0000 </r>
       <r>   -26.6374     0.0000     2.0000 </r>
       <r>   -26.5314     0.0000     2.0000 </r>
       <r>   -26.4255     0.0000     2.0000 </r>
       <r>   -26.3196     0.0000     2.0000 </r>
       <r>   -26.2137     0.0000     2.0000 </r>
       <r>   -26.1078     0.0000     2.0000 </r>
       <r>   -26.0019     0.0000     2.0000 </r>
       <r>   -25.8960     0.0000     2.0000 </r>
       <r>   -25.7900     0.0000     2.0000 </r>
       <r>   -25.6841     0.0000     2.0000 </r>
       <r>   -25.5782     0.0000     2.0000 </r>
       <r>   -25.4723     0.0000     2.0000 </r>
       <r>   -25.3664     0.0000     2.0000 </r>
       <r>   -25.2605     0.0000     2.0000 </r>
       <r>   -25.1545     0.0000     2.0000 </r>
       <r>   -25.0486     0.0000     2.0000 </r>
       <r>   -24.9427     0.0000     2.0000 </r>
       <r>   -24.8368     0.0000     2.0000 </r>
       <r>   -24.7309     0.0000     2.0000 </r>
       <r>   -24.6250     0.0000     2.0000 </r>
       <r>   -24.5190     0.0000     2.0000 </r>
       <r>   -24.4131     0.0000     2.0000 </r>
       <r>   -24.3072     0.0000     2.0000 </r>
       <r>   -24.2013     0.0000     2.0000 </r>
       <r>   -24.0954     0.0000     2.0000 </r>
       <r>   -23.9895     0.0000     2.0000 </r>
       <r>   -23.8836     0.0000     2.0000 </r>
       <r>   -23.7776     0.0000     2.0000 </r>
       <r>   -23.6717     0.0000     2.0000 </r>
       <r>   -23.5658     0.0000     2.0000 </r>
       <r>   -23.4599     0.0000     2.0000 </r>
       <r>   -23.3540     0.0000     2.0000 </r>
       <r>   -23.2481     0.0000     2.0000 </r>
       <r>   -23.1421     0.0000     2.0000 </r>
       <r>   -23.0362     0.0000     2.0000 </r>
       <r>   -22.9303     0.0000     2.0000 </r>
       <r>   -22.8244     0.0000     2.0000 </r>
       <r>   -22.7185     0.0000     2.0000 </r>
       <r>   -22.6126     0.0000     2.0000 </r>
       <r>   -22.5067     0.0000     2.0000 </r>
       <r>   -22.4007     0.0000     2.0000 </r>
       <r>   -22.2948     0.0000     2.0000 </r>
       <r>   -22.1889     0.0000     2.0000 </r>
       <r>   -22.0830     0.0000     2.0000 </r>
       <r>   -21.9771     0.0000     2.0000 </r>
       <r>   -21.8712     0.0000     2.0000 </r>
       <r>   -21.7652     0.0000     2.0000 </r>
       <r>   -21.6593     0.0000     2.0000 </r>
       <r>   -21.5534     0.0000     2.0000 </r>
       <r>   -21.4475     0.0000     2.0000 </r>
       <r>   -21.3416     0.0000     2.0000 </r>
       <r>   -21.2357     0.0000     2.0000 </r>
       <r>   -21.1297     0.0000     2.0000 </r>
       <r>   -21.0238     0.0000     2.0000 </r>
       <r>   -20.9179     0.0000     2.0000 </r>
       <r>   -20.8120     0.0000     2.0000 </r>
       <r>   -20.7061     0.0000     2.0000 </r>
       <r>   -20.6002     0.0000     2.0000 </r>
       <r>   -20.4943     0.0000     2.0000 </r>
       <r>   -20.3883     0.0000     2.0000 </r>
       <r>   -20.2824     0.0000     2.0000 </r>
       <r>   -20.1765     0.0000     2.0000 </r>
       <r>   -20.0706     0.0000     2.0000 </r>
       <r>   -19.9647     0.0000     2.0000 </r>
       <r>   -19.8588     0.0000     2.0000 </r>
       <r>   -19.7528     0.0000     2.0000 </r>
       <r>   -19.6469     0.0000     2.0000 </r>
       <r>   -19.5410     0.0000     2.0000 </r>
       <r>   -19.4351     0.0000     2.0000 </r>
       <r>   -19.3292     0.0000     2.0000 </r>
       <r>   -19.2233     0.0000     2.0000 </r>
       <r>   -19.1173     0.0000     2.0000 </r>
       <r>   -19.0114     0.0000     2.0000 </r>
       <r>   -18.9055     0.0000     2.0000 </r>
       <r>   -18.7996     0.0000     2.0000 </r>
       <r>   -18.6937     0.0000     2.0000 </r>
       <r>   -18.5878     0.0000     2.0000 </r>
       <r>   -18.4819     0.0000     2.0000 </r>
       <r>   -18.3759     0.0000     2.0000 </r>
       <r>   -18.2700     0.0000     2.0000 </r>
       <r>   -18.1641     0.0000     2.0000 </r>
       <r>   -18.0582     0.0000     2.0000 </r>
       <r>   -17.9523     0.0000     2.0000 </r>
       <r>   -17.8464     0.0000     2.0000 </r>
       <r>   -17.7404     0.0000     2.0000 </r>
       <r>   -17.6345     0.0000     2.0000 </r>
       <r>   -17.5286     0.0000     2.0000 </r>
       <r>   -17.4227     0.0000     2.0000 </r>
       <r>   -17.3168     0.0000     2.0000 </r>
       <r>   -17.2109     0.0000     2.0000 </r>
       <r>   -17.1050     0.0000     2.0000 </r>
       <r>   -16.9990     0.0000     2.0000 </r>
       <r>   -16.8931     0.0000     2.0000 </r>
       <r>   -16.7872     0.0000     2.0000 </r>
       <r>   -16.6813     0.0000     2.0000 </r>
       <r>   -16.5754     0.0000     2.0000 </r>
       <r>   -16.4695     0.0000     2.0000 </r>
       <r>   -16.3635     0.0000     2.0000 </r>
       <r>   -16.2576     0.0000     2.0000 </r>
       <r>   -16.1517     0.0000     2.0000 </r>
       <r>   -16.0458     0.0000     2.0000 </r>
       <r>   -15.9399     0.0000     2.0000 </r>
       <r>   -15.8340     0.0000     2.0000 </r>
       <r>   -15.7280     0.0000     2.0000 </r>
       <r>   -15.6221     0.0000     2.0000 </r>
       <r>   -15.5162     0.0000     2.0000 </r>
       <r>   -15.4103     0.0000     2.0000 </r>
       <r>   -15.3044     0.0000     2.0000 </r>
       <r>   -15.1985     0.0000     2.0000 </r>
       <r>   -15.0926     0.0000     2.0000 </r>
       <r>   -14.9866     0.0000     2.0000 </r>
       <r>   -14.8807     0.0000     2.0000 </r>
       <r>   -14.7748     0.0000     2.0000 </r>
       <r>   -14.6689     0.0000     2.0000 </r>
       <r>   -14.5630     0.0000     2.0000 </r>
       <r>   -14.4571     0.0000     2.0000 </r>
       <r>   -14.3511     0.0000     2.0000 </r>
       <r>   -14.2452     0.0000     2.0000 </r>
       <r>   -14.1393     0.0000     2.0000 </r>
       <r>   -14.0334     0.0006     2.0001 </r>
       <r>   -13.9275     0.0079     2.0009 </r>
       <r>   -13.8216     0.0464     2.0058 </r>
       <r>   -13.7156     0.0162     2.0075 </r>
       <r>   -13.6097    -0.5693     1.9472 </r>
       <r>   -13.5038    -0.2521     1.9206 </r>
       <r>   -13.3979     5.2551     2.4771 </r>
       <r>   -13.2920    10.0225     3.5387 </r>
       <r>   -13.1861     5.1305     4.0821 </r>
       <r>   -13.0802    -0.2928     4.0511 </r>
       <r>   -12.9742    -0.5559     3.9922 </r>
       <r>   -12.8683     0.0199     3.9943 </r>
       <r>   -12.7624     0.0455     3.9991 </r>
       <r>   -12.6565     0.0077     3.9999 </r>
       <r>   -12.5506     0.0005     4.0000 </r>
       <r>   -12.4447     0.0000     4.0000 </r>
       <r>   -12.3387     0.0000     4.0000 </r>
       <r>   -12.2328     0.0000     4.0000 </r>
       <r>   -12.1269     0.0000     4.0000 </r>
       <r>   -12.0210     0.0000     4.0000 </r>
       <r>   -11.9151     0.0000     4.0000 </r>
       <r>   -11.8092     0.0005     4.0001 </r>
       <r>   -11.7033     0.0074     4.0008 </r>
       <r>   -11.5973     0.0457     4.0057 </r>
       <r>   -11.4914     0.0383     4.0097 </r>
       <r>   -11.3855    -0.4801     3.9589 </r>
       <r>   -11.2796    -0.4109     3.9154 </r>
       <r>   -11.1737     4.2236     4.3627 </r>
       <r>   -11.0678    10.6820     5.4941 </r>
       <r>   -10.9618    12.6440     6.8333 </r>
       <r>   -10.8559     9.4222     7.8313 </r>
       <r>   -10.7500     2.3821     8.0836 </r>
       <r>   -10.6441    -1.5329     7.9212 </r>
       <r>   -10.5382     1.6610     8.0971 </r>
       <r>   -10.4323     8.8156     9.0308 </r>
       <r>   -10.3263     8.4473     9.9255 </r>
       <r>   -10.2204     1.6030    10.0953 </r>
       <r>   -10.1145    -0.8188    10.0086 </r>
       <r>   -10.0086    -0.1681     9.9908 </r>
       <r>    -9.9027     0.0644     9.9976 </r>
       <r>    -9.7968     0.0205     9.9998 </r>
       <r>    -9.6909     0.0021    10.0000 </r>
       <r>    -9.5849     0.0001    10.0000 </r>
       <r>    -9.4790     0.0000    10.0000 </r>
       <r>    -9.3731     0.0000    10.0000 </r>
       <r>    -9.2672     0.0000    10.0000 </r>
       <r>    -9.1613     0.0000    10.0000 </r>
       <r>    -9.0554     0.0000    10.0000 </r>
       <r>    -8.9494     0.0000    10.0000 </r>
       <r>    -8.8435     0.0000    10.0000 </r>
       <r>    -8.7376     0.0000    10.0000 </r>
       <r>    -8.6317     0.0000    10.0000 </r>
       <r>    -8.5258     0.0000    10.0000 </r>
       <r>    -8.4199     0.0000    10.0000 </r>
       <r>    -8.3139     0.0000    10.0000 </r>
       <r>    -8.2080     0.0000    10.0000 </r>
       <r>    -8.1021     0.0000    10.0000 </r>
       <r>    -7.9962     0.0000    10.0000 </r>
       <r>    -7.8903     0.0000    10.0000 </r>
       <r>    -7.7844     0.0000    10.0000 </r>
       <r>    -7.6785     0.0000    10.0000 </r>
       <r>    -7.5725     0.0000    10.0000 </r>
       <r>    -7.4666     0.0000    10.0000 </r>
       <r>    -7.3607     0.0003    10.0000 </r>
       <r>    -7.2548     0.0046    10.0005 </r>
       <r>    -7.1489     0.0342    10.0041 </r>
       <r>    -7.0430     0.0527    10.0097 </r>
       <r>    -6.9370    -0.3825     9.9692 </r>
       <r>    -6.8311    -0.6648     9.8988 </r>
       <r>    -6.7252     3.6101    10.2812 </r>
       <r>    -6.6193     9.9354    11.3335 </r>
       <r>    -6.5134     6.6921    12.0423 </r>
       <r>    -6.4075    -2.0344    11.8268 </r>
       <r>    -6.3016     0.2029    11.8483 </r>
       <r>    -6.1956    24.8940    14.4849 </r>
       <r>    -6.0897    44.1875    19.1651 </r>
       <r>    -5.9838    24.9238    21.8049 </r>
       <r>    -5.8779    10.0039    22.8645 </r>
       <r>    -5.7720    35.3544    26.6091 </r>
       <r>    -5.6661    90.8350    36.2299 </r>
       <r>    -5.5601   189.4735    56.2981 </r>
       <r>    -5.4542   288.0499    86.8071 </r>
       <r>    -5.3483   281.4529   116.6174 </r>
       <r>    -5.2424   213.9751   139.2807 </r>
       <r>    -5.1365   227.7700   163.4052 </r>
       <r>    -5.0306   324.5946   197.7848 </r>
       <r>    -4.9246   364.7588   236.4185 </r>
       <r>    -4.8187   306.2636   268.8566 </r>
       <r>    -4.7128   302.1620   300.8603 </r>
       <r>    -4.6069   386.8953   341.8386 </r>
       <r>    -4.5010   419.7312   386.2947 </r>
       <r>    -4.3951   437.0884   432.5892 </r>
       <r>    -4.2892   530.1066   488.7358 </r>
       <r>    -4.1832   523.7790   544.2122 </r>
       <r>    -4.0773   285.9160   574.4952 </r>
       <r>    -3.9714    60.5500   580.9084 </r>
       <r>    -3.8655    17.6817   582.7812 </r>
       <r>    -3.7596    32.7194   586.2467 </r>
       <r>    -3.6537    16.4851   587.9927 </r>
       <r>    -3.5477     8.7126   588.9155 </r>
       <r>    -3.4418    20.9582   591.1353 </r>
       <r>    -3.3359    18.5328   593.0982 </r>
       <r>    -3.2300     3.5152   593.4706 </r>
       <r>    -3.1241    14.0746   594.9613 </r>
       <r>    -3.0182    54.5936   600.7436 </r>
       <r>    -2.9122    58.9316   606.9854 </r>
       <r>    -2.8063    23.3973   609.4635 </r>
       <r>    -2.7004     4.3224   609.9213 </r>
       <r>    -2.5945    14.6751   611.4756 </r>
       <r>    -2.4886    27.5313   614.3916 </r>
       <r>    -2.3827    14.5201   615.9295 </r>
       <r>    -2.2768     4.2573   616.3805 </r>
       <r>    -2.1708    21.3161   618.6382 </r>
       <r>    -2.0649    36.3982   622.4933 </r>
       <r>    -1.9590    38.9351   626.6172 </r>
       <r>    -1.8531    44.0392   631.2816 </r>
       <r>    -1.7472    42.8870   635.8240 </r>
       <r>    -1.6413    38.7016   639.9231 </r>
       <r>    -1.5353    36.5038   643.7894 </r>
       <r>    -1.4294    30.7914   647.0507 </r>
       <r>    -1.3235    19.6340   649.1303 </r>
       <r>    -1.2176     4.7408   649.6324 </r>
       <r>    -1.1117     7.9958   650.4793 </r>
       <r>    -1.0058    47.7079   655.5323 </r>
       <r>    -0.8999    77.3829   663.7283 </r>
       <r>    -0.7939    52.7032   669.3104 </r>
       <r>    -0.6880    18.3123   671.2500 </r>
       <r>    -0.5821     6.2967   671.9169 </r>
       <r>    -0.4762     1.3468   672.0596 </r>
       <r>    -0.3703    -0.5761   671.9985 </r>
       <r>    -0.2644    -0.1087   671.9870 </r>
       <r>    -0.1584     0.0903   671.9966 </r>
       <r>    -0.0525     0.0288   671.9996 </r>
       <r>     0.0534     0.0032   672.0000 </r>
       <r>     0.1593     0.0002   672.0000 </r>
       <r>     0.2652     0.0000   672.0000 </r>
       <r>     0.3711     0.0000   672.0000 </r>
       <r>     0.4771     0.0000   672.0000 </r>
       <r>     0.5830     0.0000   672.0000 </r>
       <r>     0.6889     0.0000   672.0000 </r>
       <r>     0.7948     0.0000   672.0000 </r>
       <r>     0.9007     0.0000   672.0000 </r>
       <r>     1.0066     0.0000   672.0000 </r>
       <r>     1.1125     0.0000   672.0000 </r>
       <r>     1.2185     0.0000   672.0000 </r>
       <r>     1.3244     0.0000   672.0000 </r>
      </set>
     </set>
    </array>
   </total>
  </dos>
 </calculation>
 <structure name="finalpos" >
  <crystal>
   <varray name="basis" >
    <v>      30.00000000       0.00000000       0.00000000 </v>
    <v>       0.00000000      30.00000000       0.00000000 </v>
    <v>       0.00000000       0.00000000      30.00000000 </v>
   </varray>
   <i name="volume">  27000.00000000 </i>
   <varray name="rec_basis" >
    <v>       0.03333333       0.00000000       0.00000000 </v>
    <v>       0.00000000       0.03333333       0.00000000 </v>
    <v>       0.00000000       0.00000000       0.03333333 </v>
   </varray>
  </crystal>
  <varray name="positions" >
   <v>       0.44576020       0.32826710       0.41691983 </v>
   <v>       0.67173288       0.55423978       0.41691983 </v>
   <v>       0.55423980       0.32826710       0.41691983 </v>
   <v>       0.32826712       0.55423978       0.41691983 </v>
   <v>       0.50000000       0.38250690       0.34021317 </v>
   <v>       0.50000000       0.38250690       0.65978680 </v>
   <v>       0.50000000       0.27609440       0.50000000 </v>
   <v>       0.27609443       0.49999998       0.50000000 </v>
   <v>       0.72390557       0.49999998       0.50000000 </v>
   <v>       0.50000000       0.72390555       0.50000000 </v>
   <v>       0.61195280       0.38804720       0.34167483 </v>
   <v>       0.61195280       0.38804720       0.65832513 </v>
   <v>       0.38804722       0.61195278       0.34167483 </v>
   <v>       0.38804722       0.61195278       0.65832513 </v>
   <v>       0.38804720       0.38804720       0.34167483 </v>
   <v>       0.38804720       0.38804720       0.65832513 </v>
   <v>       0.61195278       0.61195278       0.34167483 </v>
   <v>       0.61195278       0.61195278       0.65832513 </v>
   <v>       0.44576020       0.32826710       0.58308023 </v>
   <v>       0.67173288       0.55423978       0.58308023 </v>
   <v>       0.55791699       0.44208301       0.41809300 </v>
   <v>       0.32826705       0.44576024       0.41691983 </v>
   <v>       0.55423973       0.67173293       0.41691983 </v>
   <v>       0.55423980       0.32826710       0.58308023 </v>
   <v>       0.32826712       0.55423978       0.58308023 </v>
   <v>       0.67173295       0.44576024       0.41691983 </v>
   <v>       0.44576027       0.67173293       0.41691983 </v>
   <v>       0.44208301       0.44208301       0.41809300 </v>
   <v>       0.50000000       0.38416601       0.50000000 </v>
   <v>       0.61749315       0.50000005       0.34021317 </v>
   <v>       0.61749315       0.50000005       0.65978680 </v>
   <v>       0.38250685       0.50000005       0.34021317 </v>
   <v>       0.38250685       0.50000005       0.65978680 </v>
   <v>       0.38317830       0.38317830       0.50000000 </v>
   <v>       0.61682172       0.61682172       0.50000000 </v>
   <v>       0.61682170       0.38317830       0.50000000 </v>
   <v>       0.38317828       0.61682172       0.50000000 </v>
   <v>       0.50000000       0.50000000       0.33478917 </v>
   <v>       0.50000000       0.50000000       0.66521087 </v>
   <v>       0.32826705       0.44576024       0.58308023 </v>
   <v>       0.55423973       0.67173293       0.58308023 </v>
   <v>       0.55791699       0.44208301       0.58190703 </v>
   <v>       0.44208298       0.55791702       0.41809300 </v>
   <v>       0.44208301       0.44208301       0.58190703 </v>
   <v>       0.67173295       0.44576024       0.58308023 </v>
   <v>       0.44576027       0.67173293       0.58308023 </v>
   <v>       0.55791702       0.55791702       0.41809300 </v>
   <v>       0.38416599       0.50000002       0.50000000 </v>
   <v>       0.61583401       0.50000002       0.50000000 </v>
   <v>       0.50000000       0.61749319       0.34021317 </v>
   <v>       0.50000000       0.61749319       0.65978680 </v>
   <v>       0.50000000       0.50000000       0.50000000 </v>
   <v>       0.44208298       0.55791702       0.58190703 </v>
   <v>       0.55791702       0.55791702       0.58190703 </v>
   <v>       0.50000000       0.61583404       0.50000000 </v>
   <v>       0.53609190       0.52622717       0.71158650 </v>
   <v>       0.54236760       0.53078760       0.74837750 </v>
  </varray>
  <varray name="selective"  type="logical" >
   <v type="logical" >  F  F  F </v>
   <v type="logical" >  F  F  F </v>
   <v type="logical" >  F  F  F </v>
   <v type="logical" >  F  F  F </v>
   <v type="logical" >  F  F  F </v>
   <v type="logical" >  F  F  F </v>
   <v type="logical" >  F  F  F </v>
   <v type="logical" >  F  F  F </v>
   <v type="logical" >  F  F  F </v>
   <v type="logical" >  F  F  F </v>
   <v type="logical" >  F  F  F </v>
   <v type="logical" >  F  F  F </v>
   <v type="logical" >  F  F  F </v>
   <v type="logical" >  F  F  F </v>
   <v type="logical" >  F  F  F </v>
   <v type="logical" >  F  F  F </v>
   <v type="logical" >  F  F  F </v>
   <v type="logical" >  F  F  F </v>
   <v type="logical" >  F  F  F </v>
   <v type="logical" >  F  F  F </v>
   <v type="logical" >  F  F  F </v>
   <v type="logical" >  F  F  F </v>
   <v type="logical" >  F  F  F </v>
   <v type="logical" >  F  F  F </v>
   <v type="logical" >  F  F  F </v>
   <v type="logical" >  F  F  F </v>
   <v type="logical" >  F  F  F </v>
   <v type="logical" >  F  F  F </v>
   <v type="logical" >  F  F  F </v>
   <v type="logical" >  F  F  F </v>
   <v type="logical" >  F  F  F </v>
   <v type="logical" >  F  F  F </v>
   <v type="logical" >  F  F  F </v>
   <v type="logical" >  F  F  F </v>
   <v type="logical" >  F  F  F </v>
   <v type="logical" >  F  F  F </v>
   <v type="logical" >  F  F  F </v>
   <v type="logical" >  F  F  F </v>
   <v type="logical" >  F  F  F </v>
   <v type="logical" >  F  F  F </v>
   <v type="logical" >  F  F  F </v>
   <v type="logical" >  F  F  F </v>
   <v type="logical" >  F  F  F </v>
   <v type="logical" >  F  F  F </v>
   <v type="logical" >  F  F  F </v>
   <v type="logical" >  F  F  F </v>
   <v type="logical" >  F  F  F </v>
   <v type="logical" >  F  F  F </v>
   <v type="logical" >  F  F  F </v>
   <v type="logical" >  F  F  F </v>
   <v type="logical" >  F  F  F </v>
   <v type="logical" >  F  F  F </v>
   <v type="logical" >  F  F  F </v>
   <v type="logical" >  F  F  F </v>
   <v type="logical" >  F  F  F </v>
   <v type="logical" >  F  F  F </v>
   <v type="logical" >  F  F  F </v>
  </varray>
  <nose>
   <v>      -3.00000000       0.00000000       0.00010000       0.00010000 </v>
  </nose>
 </structure>
</modeling>
