 vasp.5.4.4.18Apr17-6-g9f103f2a35 (build Sep 03 2018 23:53:05) complex          
  
 executed on             LinuxIFC date 2021.12.01  15:33:27
 running on    1 total cores
 distrk:  each k-point on    1 cores,    1 groups
 distr:  one band on NCORES_PER_BAND=   1 cores,    1 groups


--------------------------------------------------------------------------------------------------------


 INCAR:
 POTCAR:    PAW_PBE Pd 04Jan2005                  
 POTCAR:    PAW_PBE C 08Apr2002                   
 POTCAR:    PAW_PBE O 08Apr2002                   
 POTCAR:    PAW_PBE Pd 04Jan2005                  
   VRHFIN =Pd : s1 d9                                                           
   LEXCH  = PE                                                                  
   EATOM  =   809.7530 eV,   59.5152 Ry                                         
                                                                                
   TITEL  = PAW_PBE Pd 04Jan2005                                                
   LULTRA =        F    use ultrasoft PP ?                                      
   IUNSCR =        1    unscreen: 0-lin 1-nonlin 2-no                           
   RPACOR =    2.000    partial core radius                                     
   POMASS =  106.420; ZVAL   =   10.000    mass and valenz                      
   RCORE  =    2.600    outmost cutoff radius                                   
   RWIGS  =    2.710; RWIGS  =    1.434    wigner-seitz radius (au A)           
   ENMAX  =  250.925; ENMIN  =  188.194 eV                                      
   ICORE  =        3    local potential                                         
   LCOR   =        T    correct aug charges                                     
   LPAW   =        T    paw PP                                                  
   EAUG   =  416.230                                                            
   DEXC   =    0.000                                                            
   RMAX   =    2.653    core radius for proj-oper                               
   RAUG   =    1.300    factor for augmentation sphere                          
   RDEP   =    2.734    radius for radial grids                                 
   RDEPT  =    2.103    core radius for aug-charge                              
                                                                                
   Atomic configuration                                                         
   12 entries                                                                   
     n  l   j            E        occ.                                          
     1  0  0.50    -24164.6631   2.0000                                         
     2  0  0.50     -3530.9218   2.0000                                         
     2  1  1.50     -3165.6822   6.0000                                         
     3  0  0.50      -639.4577   2.0000                                         
     3  1  1.50      -519.4532   6.0000                                         
     3  2  2.50      -328.9757  10.0000                                         
     4  0  0.50       -88.7014   2.0000                                         
     4  1  1.50       -54.4540   6.0000                                         
     4  2  2.50        -6.6878   9.0000                                         
     5  0  0.50        -4.3543   1.0000                                         
     5  1  0.50        -1.3606   0.0000                                         
     4  3  2.50        -1.3606   0.0000                                         
   Description                                                                  
     l       E           TYP  RCUT    TYP  RCUT                                 
     2     -6.6878251     23  2.400                                             
     2     -8.0484077     23  2.400                                             
     0     -4.3542939     23  2.400                                             
     0      4.3406793     23  2.400                                             
     1     -4.0817478     23  2.600                                             
     1     15.8380318     23  2.600                                             
     3     -4.0817478     23  2.400                                             
  local pseudopotential read in
  partial core-charges read in
  partial kinetic energy density read in
  atomic valenz-charges read in
  non local Contribution for L=           2  read in
    real space projection operators read in
  non local Contribution for L=           2  read in
    real space projection operators read in
  non local Contribution for L=           0  read in
    real space projection operators read in
  non local Contribution for L=           0  read in
    real space projection operators read in
  non local Contribution for L=           1  read in
    real space projection operators read in
  non local Contribution for L=           1  read in
    real space projection operators read in
    PAW grid and wavefunctions read in
 
   number of l-projection  operators is LMAX  =           6
   number of lm-projection operators is LMMAX =          18
 
 POTCAR:    PAW_PBE C 08Apr2002                   
   VRHFIN =C: s2p2                                                              
   LEXCH  = PE                                                                  
   EATOM  =   147.1560 eV,   10.8157 Ry                                         
                                                                                
   TITEL  = PAW_PBE C 08Apr2002                                                 
   LULTRA =        F    use ultrasoft PP ?                                      
   IUNSCR =        1    unscreen: 0-lin 1-nonlin 2-no                           
   RPACOR =    1.200    partial core radius                                     
   POMASS =   12.011; ZVAL   =    4.000    mass and valenz                      
   RCORE  =    1.500    outmost cutoff radius                                   
   RWIGS  =    1.630; RWIGS  =    0.863    wigner-seitz radius (au A)           
   ENMAX  =  400.000; ENMIN  =  300.000 eV                                      
   ICORE  =        2    local potential                                         
   LCOR   =        T    correct aug charges                                     
   LPAW   =        T    paw PP                                                  
   EAUG   =  644.873                                                            
   DEXC   =    0.000                                                            
   RMAX   =    1.529    core radius for proj-oper                               
   RAUG   =    1.300    factor for augmentation sphere                          
   RDEP   =    1.501    radius for radial grids                                 
   RDEPT  =    1.300    core radius for aug-charge                              
                                                                                
   Atomic configuration                                                         
    4 entries                                                                   
     n  l   j            E        occ.                                          
     1  0  0.50      -273.3789   2.0000                                         
     2  0  0.50       -13.7508   2.0000                                         
     2  1  0.50        -5.2854   2.0000                                         
     3  2  1.50        -5.4423   0.0000                                         
   Description                                                                  
     l       E           TYP  RCUT    TYP  RCUT                                 
     0    -13.7508458     23  1.200                                             
     0     -8.2022199     23  1.200                                             
     1     -5.2854383     23  1.500                                             
     1     34.0145650     23  1.500                                             
     2     -5.4423304      7  1.500                                             
  local pseudopotential read in
  partial core-charges read in
  partial kinetic energy density read in
  atomic valenz-charges read in
  non local Contribution for L=           0  read in
    real space projection operators read in
  non local Contribution for L=           0  read in
    real space projection operators read in
  non local Contribution for L=           1  read in
    real space projection operators read in
  non local Contribution for L=           1  read in
    real space projection operators read in
    PAW grid and wavefunctions read in
 
   number of l-projection  operators is LMAX  =           4
   number of lm-projection operators is LMMAX =           8
 
 POTCAR:    PAW_PBE O 08Apr2002                   
   VRHFIN =O: s2p4                                                              
   LEXCH  = PE                                                                  
   EATOM  =   432.3788 eV,   31.7789 Ry                                         
                                                                                
   TITEL  = PAW_PBE O 08Apr2002                                                 
   LULTRA =        F    use ultrasoft PP ?                                      
   IUNSCR =        1    unscreen: 0-lin 1-nonlin 2-no                           
   RPACOR =    1.200    partial core radius                                     
   POMASS =   16.000; ZVAL   =    6.000    mass and valenz                      
   RCORE  =    1.520    outmost cutoff radius                                   
   RWIGS  =    1.550; RWIGS  =    0.820    wigner-seitz radius (au A)           
   ENMAX  =  400.000; ENMIN  =  300.000 eV                                      
   ICORE  =        2    local potential                                         
   LCOR   =        T    correct aug charges                                     
   LPAW   =        T    paw PP                                                  
   EAUG   =  605.392                                                            
   DEXC   =    0.000                                                            
   RMAX   =    1.553    core radius for proj-oper                               
   RAUG   =    1.300    factor for augmentation sphere                          
   RDEP   =    1.550    radius for radial grids                                 
   RDEPT  =    1.329    core radius for aug-charge                              
                                                                                
   Atomic configuration                                                         
    4 entries                                                                   
     n  l   j            E        occ.                                          
     1  0  0.50      -514.6923   2.0000                                         
     2  0  0.50       -23.9615   2.0000                                         
     2  1  0.50        -9.0305   4.0000                                         
     3  2  1.50        -9.5241   0.0000                                         
   Description                                                                  
     l       E           TYP  RCUT    TYP  RCUT                                 
     0    -23.9615318     23  1.200                                             
     0     -9.5240782     23  1.200                                             
     1     -9.0304911     23  1.520                                             
     1      8.1634956     23  1.520                                             
     2     -9.5240782      7  1.500                                             
  local pseudopotential read in
  partial core-charges read in
  partial kinetic energy density read in
  kinetic energy density of atom read in
  atomic valenz-charges read in
  non local Contribution for L=           0  read in
    real space projection operators read in
  non local Contribution for L=           0  read in
    real space projection operators read in
  non local Contribution for L=           1  read in
    real space projection operators read in
  non local Contribution for L=           1  read in
    real space projection operators read in
    PAW grid and wavefunctions read in
 
   number of l-projection  operators is LMAX  =           4
   number of lm-projection operators is LMMAX =           8
 
 Optimization of the real space projectors (new method)

 maximal supplied QI-value         = 14.36
 optimisation between [QCUT,QGAM] = [ 10.20, 20.39] = [ 29.12,116.47] Ry 
 Optimized for a Real-space Cutoff    1.51 Angstroem

   l    n(q)    QCUT    max X(q) W(low)/X(q) W(high)/X(q)  e(spline) 
   2      8    10.197    59.108    0.26E-03    0.14E-03    0.96E-07
   2      8    10.197    58.101    0.27E-03    0.14E-03    0.98E-07
   0      9    10.197   102.235    0.54E-04    0.60E-05    0.72E-07
   0      9    10.197    58.388    0.52E-04    0.60E-05    0.68E-07
   1      9    10.197    22.191    0.18E-03    0.25E-03    0.79E-07
   1      9    10.197    15.590    0.15E-03    0.21E-03    0.69E-07
 Optimization of the real space projectors (new method)

 maximal supplied QI-value         = 25.13
 optimisation between [QCUT,QGAM] = [ 10.05, 20.36] = [ 28.30,116.06] Ry 
 Optimized for a Real-space Cutoff    1.30 Angstroem

   l    n(q)    QCUT    max X(q) W(low)/X(q) W(high)/X(q)  e(spline) 
   0      8    10.053   115.676    0.49E-03    0.72E-03    0.18E-06
   0      8    10.053    87.132    0.49E-03    0.71E-03    0.18E-06
   1      7    10.053     4.429    0.32E-03    0.31E-03    0.18E-06
   1      7    10.053     2.733    0.23E-03    0.19E-03    0.20E-06
 Optimization of the real space projectors (new method)

 maximal supplied QI-value         = 24.76
 optimisation between [QCUT,QGAM] = [ 10.15, 20.30] = [ 28.85,115.39] Ry 
 Optimized for a Real-space Cutoff    1.38 Angstroem

   l    n(q)    QCUT    max X(q) W(low)/X(q) W(high)/X(q)  e(spline) 
   0      8    10.150    20.381    0.22E-03    0.32E-03    0.29E-06
   0      8    10.150    15.268    0.23E-03    0.35E-03    0.30E-06
   1      8    10.150     5.964    0.46E-03    0.53E-03    0.21E-06
   1      8    10.150     5.382    0.38E-03    0.45E-03    0.19E-06

 ----------------------------------------------------------------------------- 
|                                                                             |
|  ADVICE TO THIS USER RUNNING 'VASP/VAMP'   (HEAR YOUR MASTER'S VOICE ...):  |
|                                                                             |
|      You enforced a specific xc-type in the INCAR file,                     |
|      a different type was found on the POTCAR file                          |
|          I HOPE YOU KNOW, WHAT YOU ARE  DOING                               |
|                                                                             |
 ----------------------------------------------------------------------------- 

  PAW_PBE Pd 04Jan2005                  :
 energy of atom  1       EATOM= -809.7530
 kinetic energy error for atom=    0.0091 (will be added to EATOM!!)
  PAW_PBE C 08Apr2002                   :
 energy of atom  2       EATOM= -147.1560
 kinetic energy error for atom=    0.0288 (will be added to EATOM!!)
  PAW_PBE O 08Apr2002                   :
 energy of atom  3       EATOM= -432.3788
 kinetic energy error for atom=    0.1156 (will be added to EATOM!!)
 
 
 POSCAR: Pd55PES                                 
  positions in cartesian coordinates
  No initial velocities read in
 exchange correlation table for  LEXCH =        9
   RHO(1)=    0.500       N(1)  =     2000
   RHO(2)=  100.500       N(2)  =     4000
 


--------------------------------------------------------------------------------------------------------


 ion  position               nearest neighbor table
   1  0.446  0.328  0.417-   3 3.25   5 3.25   7 3.36  15 3.36  29 3.42  28 3.42
   2  0.672  0.554  0.417-  56 2.09  26 3.25  30 3.25  17 3.36   9 3.36  47 3.42  49 3.42
   3  0.554  0.328  0.417-   1 3.25   5 3.25   7 3.36  11 3.36  29 3.42  21 3.42
   4  0.328  0.554  0.417-  32 3.25  22 3.25  13 3.36   8 3.36  43 3.42  48 3.42
   5  0.500  0.383  0.340-   1 3.25   3 3.25  11 3.36  15 3.36  21 3.42  28 3.42
   6  0.500  0.383  0.660-  24 3.25  19 3.25  16 3.36  12 3.36  42 3.42  44 3.42
   7  0.500  0.276  0.500-  29 3.24   3 3.36   1 3.36  19 3.36  24 3.36
   8  0.276  0.500  0.500-  48 3.24  22 3.36  40 3.36   4 3.36  25 3.36
   9  0.724  0.500  0.500-  49 3.24  26 3.36  45 3.36   2 3.36  20 3.36
  10  0.500  0.724  0.500-  55 3.24  27 3.36  23 3.36  46 3.36  41 3.36
  11  0.612  0.388  0.342-  21 3.24   5 3.36   3 3.36  30 3.36  26 3.36
  12  0.612  0.388  0.658-  42 3.24  24 3.36  45 3.36   6 3.36  31 3.36
  13  0.388  0.612  0.342-  43 3.24  32 3.36  50 3.36   4 3.36  27 3.36
  14  0.388  0.612  0.658-  53 3.24  25 3.36  33 3.36  51 3.36  46 3.36
  15  0.388  0.388  0.342-  28 3.24   5 3.36   1 3.36  32 3.36  22 3.36
  16  0.388  0.388  0.658-  44 3.24  19 3.36  40 3.36   6 3.36  33 3.36
  17  0.612  0.612  0.342-  47 3.24  30 3.36  50 3.36   2 3.36  23 3.36
  18  0.612  0.612  0.658-  54 3.24  31 3.36  20 3.36  51 3.36  41 3.36
  19  0.446  0.328  0.583-   6 3.25  24 3.25  16 3.36   7 3.36  44 3.42  29 3.42
  20  0.672  0.554  0.583-  31 3.25  45 3.25  18 3.36   9 3.36  54 3.42  49 3.42
  21  0.558  0.442  0.418-  11 3.24   5 3.42   3 3.42  30 3.42  26 3.42
  22  0.328  0.446  0.417-   4 3.25  32 3.25   8 3.36  15 3.36  48 3.42  28 3.42
  23  0.554  0.672  0.417-  27 3.25  50 3.25  10 3.36  17 3.36  55 3.42  47 3.42
  24  0.554  0.328  0.583-   6 3.25  19 3.25  12 3.36   7 3.36  42 3.42  29 3.42
  25  0.328  0.554  0.583-  33 3.25  40 3.25  14 3.36   8 3.36  53 3.42  48 3.42
  26  0.672  0.446  0.417-   2 3.25  30 3.25   9 3.36  11 3.36  49 3.42  21 3.42
  27  0.446  0.672  0.417-  23 3.25  50 3.25  10 3.36  13 3.36  55 3.42  43 3.42
  28  0.442  0.442  0.418-  15 3.24   5 3.42   1 3.42  32 3.42  22 3.42
  29  0.500  0.384  0.500-   7 3.24   3 3.42   1 3.42  24 3.42  19 3.42
  30  0.617  0.500  0.340-   2 3.25  26 3.25  17 3.36  11 3.36  47 3.42  21 3.42
  31  0.617  0.500  0.660-  20 3.25  45 3.25  18 3.36  12 3.36  54 3.42  42 3.42
  32  0.383  0.500  0.340-   4 3.25  22 3.25  13 3.36  15 3.36  43 3.42  28 3.42
  33  0.383  0.500  0.660-  25 3.25  40 3.25  14 3.36  16 3.36  53 3.42  44 3.42
  34  0.383  0.383  0.500-
  35  0.617  0.617  0.500-
  36  0.617  0.383  0.500-
  37  0.383  0.617  0.500-
  38  0.500  0.500  0.335-
  39  0.500  0.500  0.665-
  40  0.328  0.446  0.583-  33 3.25  25 3.25  16 3.36   8 3.36  44 3.42  48 3.42
  41  0.554  0.672  0.583-  46 3.25  51 3.25  10 3.36  18 3.36  54 3.42  55 3.42
  42  0.558  0.442  0.582-  12 3.24   6 3.42  24 3.42  31 3.42  45 3.42
  43  0.442  0.558  0.418-  13 3.24   4 3.42  32 3.42  27 3.42  50 3.42
  44  0.442  0.442  0.582-  16 3.24   6 3.42  19 3.42  33 3.42  40 3.42
  45  0.672  0.446  0.583-  20 3.25  31 3.25   9 3.36  12 3.36  49 3.42  42 3.42
  46  0.446  0.672  0.583-  41 3.25  51 3.25  10 3.36  14 3.36  53 3.42  55 3.42
  47  0.558  0.558  0.418-  17 3.24   2 3.42  30 3.42  23 3.42  50 3.42
  48  0.384  0.500  0.500-   8 3.24   4 3.42  22 3.42  25 3.42  40 3.42
  49  0.616  0.500  0.500-   9 3.24   2 3.42  26 3.42  20 3.42  45 3.42
  50  0.500  0.617  0.340-  27 3.25  23 3.25  13 3.36  17 3.36  43 3.42  47 3.42
  51  0.500  0.617  0.660-  41 3.25  46 3.25  14 3.36  18 3.36  53 3.42  54 3.42
  52  0.500  0.500  0.500-
  53  0.442  0.558  0.582-  14 3.24  25 3.42  33 3.42  51 3.42  46 3.42
  54  0.558  0.558  0.582-  18 3.24  31 3.42  20 3.42  51 3.42  41 3.42
  55  0.500  0.616  0.500-  10 3.24  23 3.42  27 3.42  41 3.42  46 3.42
  56  0.708  0.543  0.359-  57 1.13   2 2.09
  57  0.739  0.550  0.338-  56 1.13
 
  LATTYP: Found a simple cubic cell.
 ALAT       =    30.0000000000
  
  Lattice vectors:
  
 A1 = (  30.0000000000,   0.0000000000,   0.0000000000)
 A2 = (   0.0000000000,  30.0000000000,   0.0000000000)
 A3 = (   0.0000000000,   0.0000000000,  30.0000000000)


Analysis of symmetry for initial positions (statically):
=====================================================================
 Subroutine PRICEL returns:
 Original cell was already a primitive cell.
 

 Routine SETGRP: Setting up the symmetry group for a 
 simple cubic supercell.


 Subroutine GETGRP returns: Found  1 space group operations
 (whereof  1 operations were pure point group operations)
 out of a pool of 48 trial point group operations.


The static configuration has the point symmetry C_1 .


Analysis of symmetry for dynamics (positions and initial velocities):
=====================================================================
 Subroutine PRICEL returns:
 Original cell was already a primitive cell.
 

 Routine SETGRP: Setting up the symmetry group for a 
 simple cubic supercell.


 Subroutine GETGRP returns: Found  1 space group operations
 (whereof  1 operations were pure point group operations)
 out of a pool of 48 trial point group operations.


The dynamic configuration has the point symmetry C_1 .


Analysis of constrained symmetry for selective dynamics:
=====================================================================
 Subroutine PRICEL returns:
 Original cell was already a primitive cell.
 

 Routine SETGRP: Setting up the symmetry group for a 
 simple cubic supercell.


 Subroutine GETGRP returns: Found  1 space group operations
 (whereof  1 operations were pure point group operations)
 out of a pool of 48 trial point group operations.


The constrained configuration has the point symmetry C_1 .


 Subroutine INISYM returns: Found  1 space group operations
 (whereof  1 operations are pure point group operations),
 and found     1 'primitive' translations

 
 
 KPOINTS: K-points                                

Automatic generation of k-mesh.
Space group operators:
 irot       det(A)        alpha          n_x          n_y          n_z        tau_x        tau_y        tau_z
    1     1.000000     0.000000     1.000000     0.000000     0.000000     0.000000     0.000000     0.000000
 
 Subroutine IBZKPT returns following result:
 ===========================================
 
 Found      1 irreducible k-points:
 
 Following reciprocal coordinates:
            Coordinates               Weight
  0.000000  0.000000  0.000000      1.000000
 
 Following cartesian coordinates:
            Coordinates               Weight
  0.000000  0.000000  0.000000      1.000000
 


--------------------------------------------------------------------------------------------------------




 Dimension of arrays:
   k-points           NKPTS =      1   k-points in BZ     NKDIM =      1   number of bands    NBANDS=    336
   number of dos      NEDOS =    301   number of ions     NIONS =     57
   non local maximal  LDIM  =      6   non local SUM 2l+1 LMDIM =     18
   total plane-waves  NPLWV = ******
   max r-space proj   IRMAX =   1847   max aug-charges    IRDMAX=   6262
   dimension x,y,z NGX =   150 NGY =  150 NGZ =  150
   dimension x,y,z NGXF=   300 NGYF=  300 NGZF=  300
   support grid    NGXF=   300 NGYF=  300 NGZF=  300
   ions per type =              55   1   1
   NGX,Y,Z   is equivalent  to a cutoff of   8.31,  8.31,  8.31 a.u.
   NGXF,Y,Z  is equivalent  to a cutoff of  16.62, 16.62, 16.62 a.u.

 SYSTEM =  6_Pd100_top_free_z(O)                   
 POSCAR =  Pd55PES                                 

 Startparameter for this run:
   NWRITE =      2    write-flag & timer
   PREC   = normal    normal or accurate (medium, high low for compatibility)
   ISTART =      0    job   : 0-new  1-cont  2-samecut
   ICHARG =      2    charge: 1-file 2-atom 10-const
   ISPIN  =      1    spin polarized calculation?
   LNONCOLLINEAR =      F non collinear calculations
   LSORBIT =      F    spin-orbit coupling
   INIWAV =      1    electr: 0-lowe 1-rand  2-diag
   LASPH  =      F    aspherical Exc in radial PAW
   METAGGA=      F    non-selfconsistent MetaGGA calc.

 Electronic Relaxation 1
   ENCUT  =  400.0 eV  29.40 Ry    5.42 a.u.  48.92 48.92 48.92*2*pi/ulx,y,z
   ENINI  =  400.0     initial cutoff
   ENAUG  =  644.9 eV  augmentation charge cutoff
   NELM   =    100;   NELMIN=  6; NELMDL= -5     # of ELM steps 
   EDIFF  = 0.1E-03   stopping-criterion for ELM
   LREAL  =      T    real-space projection
   NLSPLINE    = F    spline interpolate recip. space projectors
   LCOMPAT=      F    compatible to vasp.4.4
   GGA_COMPAT  = T    GGA compatible to vasp.4.4-vasp.4.6
   LMAXPAW     = -100 max onsite density
   LMAXMIX     =    2 max onsite mixed and CHGCAR
   VOSKOWN=      0    Vosko Wilk Nusair interpolation
   ROPT   =   -0.00050  -0.00050  -0.00050
 Ionic relaxation
   EDIFFG = -.5E-01   stopping-criterion for IOM
   NSW    =      0    number of steps for IOM
   NBLOCK =      1;   KBLOCK =      1    inner block; outer block 
   IBRION =     -1    ionic relax: 0-MD 1-quasi-New 2-CG
   NFREE  =      1    steps in history (QN), initial steepest desc. (CG)
   ISIF   =      2    stress and relaxation
   IWAVPR =     10    prediction:  0-non 1-charg 2-wave 3-comb
   ISYM   =      2    0-nonsym 1-usesym 2-fastsym
   LCORR  =      T    Harris-Foulkes like correction to forces

   POTIM  = 0.5000    time-step for ionic-motion
   TEIN   =    0.0    initial temperature
   TEBEG  =    0.0;   TEEND  =   0.0 temperature during run
   SMASS  =  -3.00    Nose mass-parameter (am)
   estimated Nose-frequenzy (Omega)   =  0.10E-29 period in steps =****** mass=  -0.206E-25a.u.
   SCALEE = 1.0000    scale energy and forces
   NPACO  =    256;   APACO  = 16.0  distance and # of slots for P.C.
   PSTRESS=    0.0 pullay stress

  Mass of Ions in am
   POMASS = 106.42 12.01 16.00
  Ionic Valenz
   ZVAL   =  10.00  4.00  6.00
  Atomic Wigner-Seitz radii
   RWIGS  =  -1.00 -1.00 -1.00
  virtual crystal weights 
   VCA    =   1.00  1.00  1.00
   NELECT =     560.0000    total number of electrons
   NUPDOWN=      -1.0000    fix difference up-down

 DOS related values:
   EMIN   =  10.00;   EMAX   =-10.00  energy-range for DOS
   EFERMI =   0.00
   ISMEAR =     2;   SIGMA  =   0.20  broadening in eV -4-tet -1-fermi 0-gaus

 Electronic relaxation 2 (details)
   IALGO  =     68    algorithm
   LDIAG  =      T    sub-space diagonalisation (order eigenvalues)
   LSUBROT=      F    optimize rotation matrix (better conditioning)
   TURBO    =      0    0=normal 1=particle mesh
   IRESTART =      0    0=no restart 2=restart with 2 vectors
   NREBOOT  =      0    no. of reboots
   NMIN     =      0    reboot dimension
   EREF     =   0.00    reference energy to select bands
   IMIX   =      4    mixing-type and parameters
     AMIX     =   0.40;   BMIX     =  1.00
     AMIX_MAG =   1.60;   BMIX_MAG =  1.00
     AMIN     =   0.10
     WC   =   100.;   INIMIX=   1;  MIXPRE=   1;  MAXMIX= -45

 Intra band minimization:
   WEIMIN = 0.0000     energy-eigenvalue tresh-hold
   EBREAK =  0.74E-07  absolut break condition
   DEPER  =   0.30     relativ break condition  

   TIME   =   0.40     timestep for ELM

  volume/ion in A,a.u.               =     473.68      3196.58
  Fermi-wavevector in a.u.,A,eV,Ry     =   0.449797  0.849992  2.752691  0.202317
  Thomas-Fermi vector in A             =   1.430086
 
 Write flags
   LWAVE        =      F    write WAVECAR
   LDOWNSAMPLE  =      F    k-point downsampling of WAVECAR
   LCHARG       =      F    write CHGCAR
   LVTOT        =      F    write LOCPOT, total local potential
   LVHAR        =      F    write LOCPOT, Hartree potential only
   LELF         =      F    write electronic localiz. function (ELF)
   LORBIT       =      0    0 simple, 1 ext, 2 COOP (PROOUT), +10 PAW based schemes


 Dipole corrections
   LMONO  =      F    monopole corrections only (constant potential shift)
   LDIPOL =      F    correct potential (dipole corrections)
   IDIPOL =      0    1-x, 2-y, 3-z, 4-all directions 
   EPSILON=  1.0000000 bulk dielectric constant

 Exchange correlation treatment:
   GGA     =    RP    GGA type
   LEXCH   =     9    internal setting for exchange type
   VOSKOWN=      0    Vosko Wilk Nusair interpolation
   LHFCALC =     F    Hartree Fock is set to
   LHFONE  =     F    Hartree Fock one center treatment
   AEXX    =    0.0000 exact exchange contribution

 Linear response parameters
   LEPSILON=     F    determine dielectric tensor
   LRPA    =     F    only Hartree local field effects (RPA)
   LNABLA  =     F    use nabla operator in PAW spheres
   LVEL    =     F    velocity operator in full k-point grid
   LINTERFAST=   F  fast interpolation
   KINTER  =     0    interpolate to denser k-point grid
   CSHIFT  =0.1000    complex shift for real part using Kramers Kronig
   OMEGAMAX=  -1.0    maximum frequency
   DEG_THRESHOLD= 0.2000000E-02 threshold for treating states as degnerate
   RTIME   =   -0.100 relaxation time in fs
  (WPLASMAI=    0.000 imaginary part of plasma frequency in eV, 0.658/RTIME)
   DFIELD  = 0.0000000 0.0000000 0.0000000 field for delta impulse in time
 
 Orbital magnetization related:
   ORBITALMAG=     F  switch on orbital magnetization
   LCHIMAG   =     F  perturbation theory with respect to B field
   DQ        =  0.001000  dq finite difference perturbation B field
   LLRAUG    =     F  two centre corrections for induced B field



--------------------------------------------------------------------------------------------------------


 Static calculation
 charge density and potential will be updated during run
 non-spin polarized calculation
 RMM-DIIS sequential band-by-band and
  variant of blocked Davidson during initial phase
 perform sub-space diagonalisation
    before iterative eigenvector-optimisation
 modified Broyden-mixing scheme, WC =      100.0
 initial mixing is a Kerker type mixing with AMIX =  0.4000 and BMIX =      1.0000
 Hartree-type preconditioning will be used
 using additional bands           56
 real space projection scheme for non local part
 use partial core corrections
 calculate Harris-corrections to forces 
   (improved forces if not selfconsistent)
 use gradient corrections 
 use of overlap-Matrix (Vanderbilt PP)
 Methfessel and Paxton  Order N= 2 SIGMA  =   0.20


--------------------------------------------------------------------------------------------------------


  energy-cutoff  :      400.00
  volume of cell :    27000.00
      direct lattice vectors                 reciprocal lattice vectors
    30.000000000  0.000000000  0.000000000     0.033333333  0.000000000  0.000000000
     0.000000000 30.000000000  0.000000000     0.000000000  0.033333333  0.000000000
     0.000000000  0.000000000 30.000000000     0.000000000  0.000000000  0.033333333

  length of vectors
    30.000000000 30.000000000 30.000000000     0.033333333  0.033333333  0.033333333


 
 k-points in units of 2pi/SCALE and weight: K-points                                
   0.00000000  0.00000000  0.00000000       1.000
 
 k-points in reciprocal lattice and weights: K-points                                
   0.00000000  0.00000000  0.00000000       1.000
 
 position of ions in fractional coordinates (direct lattice) 
   0.44576020  0.32826710  0.41691983
   0.67173288  0.55423978  0.41691983
   0.55423980  0.32826710  0.41691983
   0.32826712  0.55423978  0.41691983
   0.50000000  0.38250690  0.34021317
   0.50000000  0.38250690  0.65978680
   0.50000000  0.27609440  0.50000000
   0.27609443  0.49999998  0.50000000
   0.72390557  0.49999998  0.50000000
   0.50000000  0.72390555  0.50000000
   0.61195280  0.38804720  0.34167483
   0.61195280  0.38804720  0.65832513
   0.38804722  0.61195278  0.34167483
   0.38804722  0.61195278  0.65832513
   0.38804720  0.38804720  0.34167483
   0.38804720  0.38804720  0.65832513
   0.61195278  0.61195278  0.34167483
   0.61195278  0.61195278  0.65832513
   0.44576020  0.32826710  0.58308023
   0.67173288  0.55423978  0.58308023
   0.55791699  0.44208301  0.41809300
   0.32826705  0.44576024  0.41691983
   0.55423973  0.67173293  0.41691983
   0.55423980  0.32826710  0.58308023
   0.32826712  0.55423978  0.58308023
   0.67173295  0.44576024  0.41691983
   0.44576027  0.67173293  0.41691983
   0.44208301  0.44208301  0.41809300
   0.50000000  0.38416601  0.50000000
   0.61749315  0.50000005  0.34021317
   0.61749315  0.50000005  0.65978680
   0.38250685  0.50000005  0.34021317
   0.38250685  0.50000005  0.65978680
   0.38317830  0.38317830  0.50000000
   0.61682172  0.61682172  0.50000000
   0.61682170  0.38317830  0.50000000
   0.38317828  0.61682172  0.50000000
   0.50000000  0.50000000  0.33478917
   0.50000000  0.50000000  0.66521087
   0.32826705  0.44576024  0.58308023
   0.55423973  0.67173293  0.58308023
   0.55791699  0.44208301  0.58190703
   0.44208298  0.55791702  0.41809300
   0.44208301  0.44208301  0.58190703
   0.67173295  0.44576024  0.58308023
   0.44576027  0.67173293  0.58308023
   0.55791702  0.55791702  0.41809300
   0.38416599  0.50000002  0.50000000
   0.61583401  0.50000002  0.50000000
   0.50000000  0.61749319  0.34021317
   0.50000000  0.61749319  0.65978680
   0.50000000  0.50000000  0.50000000
   0.44208298  0.55791702  0.58190703
   0.55791702  0.55791702  0.58190703
   0.50000000  0.61583404  0.50000000
   0.70848680  0.54342380  0.35861783
   0.73915390  0.54981120  0.33782143
 
 position of ions in cartesian coordinates  (Angst):
  13.37280588  9.84801292 12.50759500
  20.15198637 16.62719342 12.50759500
  16.62719412  9.84801292 12.50759500
   9.84801363 16.62719342 12.50759500
  15.00000000 11.47520705 10.20639500
  15.00000000 11.47520705 19.79360400
  15.00000000  8.28283206 15.00000000
   8.28283277 14.99999929 15.00000000
  21.71716723 14.99999929 15.00000000
  15.00000000 21.71716652 14.99999999
  18.35858397 11.64141603 10.25024500
  18.35858397 11.64141603 19.74975399
  11.64141674 18.35858326 10.25024500
  11.64141674 18.35858326 19.74975400
  11.64141603 11.64141603 10.25024500
  11.64141603 11.64141603 19.74975400
  18.35858326 18.35858326 10.25024500
  18.35858326 18.35858326 19.74975400
  13.37280588  9.84801291 17.49240700
  20.15198638 16.62719341 17.49240700
  16.73750985 13.26249015 12.54279000
   9.84801151 13.37280729 12.50759500
  16.62719200 20.15198779 12.50759500
  16.62719412  9.84801292 17.49240700
   9.84801363 16.62719342 17.49240700
  20.15198849 13.37280729 12.50759500
  13.37280800 20.15198779 12.50759500
  13.26249015 13.26249015 12.54279000
  15.00000000 11.52498029 15.00000000
  18.52479437 15.00000140 10.20639500
  18.52479437 15.00000141 19.79360400
  11.47520562 15.00000141 10.20639501
  11.47520563 15.00000141 19.79360400
  11.49534898 11.49534898 15.00000000
  18.50465172 18.50465172 15.00000000
  18.50465102 11.49534898 15.00000000
  11.49534828 18.50465172 15.00000000
  15.00000000 15.00000000 10.04367500
  15.00000000 15.00000000 19.95632599
   9.84801151 13.37280729 17.49240700
  16.62719200 20.15198779 17.49240700
  16.73750985 13.26249015 17.45721100
  13.26248944 16.73751056 12.54279001
  13.26249015 13.26249015 17.45721100
  20.15198849 13.37280729 17.49240699
  13.37280800 20.15198779 17.49240700
  16.73751056 16.73751056 12.54279000
  11.52497959 15.00000071 15.00000000
  18.47502041 15.00000071 15.00000000
  14.99999999 18.52479579 10.20639500
  15.00000000 18.52479578 19.79360400
  15.00000000 15.00000000 15.00000000
  13.26248944 16.73751057 17.45721101
  16.73751056 16.73751057 17.45721100
  15.00000000 18.47502112 15.00000000
  21.25460400 16.30271400 10.75853500
  22.17461700 16.49433600 10.13464300
 


--------------------------------------------------------------------------------------------------------


 k-point  1 :   0.0000 0.0000 0.0000  plane waves:  490521

 maximum and minimum number of plane-waves per node :    490521   490521

 maximum number of plane-waves:    490521
 maximum index in each direction: 
   IXMAX=   48   IYMAX=   48   IZMAX=   48
   IXMIN=  -48   IYMIN=  -48   IZMIN=  -48


 serial   3D FFT for wavefunctions
 parallel 3D FFT for charge:
    minimum data exchange during FFTs selected (reduces bandwidth)


 total amount of memory used by VASP MPI-rank0  5486941. kBytes
=======================================================================

   base      :      30000. kBytes
   nonlr-proj:      17126. kBytes
   fftplans  :     924480. kBytes
   grid      :    1872000. kBytes
   one-center:        886. kBytes
   wavefun   :    2642449. kBytes
 
     INWAV:  cpu time    0.0000: real time    0.0002
 Broyden mixing: mesh for mixing (old mesh)
   NGX = 97   NGY = 97   NGZ = 97
  (NGX  =300   NGY  =300   NGZ  =300)
  gives a total of 912673 points

 initial charge density was supplied:
 charge density of overlapping atoms calculated
 number of electron     560.0000000 magnetization 
 keeping initial charge density in first step


--------------------------------------------------------------------------------------------------------


 Maximum index for non-local projection operator         1763
 Maximum index for augmentation-charges         5898 (set IRDMAX)


--------------------------------------------------------------------------------------------------------


 First call to EWALD:  gamma=   0.059
 Maximum number of real-space cells 3x 3x 3
 Maximum number of reciprocal cells 3x 3x 3

    FEWALD:  cpu time    0.0147: real time    0.0147


--------------------------------------- Iteration      1(   1)  ---------------------------------------


    POTLOK:  cpu time   13.9245: real time   13.9268
    SETDIJ:  cpu time    0.1157: real time    0.1157
     EDDAV:  cpu time  363.5232: real time  363.5802
       DOS:  cpu time    0.0013: real time    0.0013
    --------------------------------------------
      LOOP:  cpu time  377.5648: real time  377.6241

 eigenvalue-minimisations  :   688
 total energy-change (2. order) : 0.4385782E+04  (-0.1005169E+05)
 number of electron     560.0000000 magnetization 
 augmentation part      560.0000000 magnetization 

 Free energy of the ion-electron system (eV)
  ---------------------------------------------------
  alpha Z        PSCENC =        75.25431677
  Ewald energy   TEWEN  =    138067.17599957
  -Hartree energ DENC   =   -181430.29356621
  -exchange      EXHF   =         0.00000000
  -V(xc)+E(xc)   XCENC  =     -1703.26055009
  PAW double counting   =     44873.02882129   -41398.84523641
  entropy T*S    EENTRO =         0.01938034
  eigenvalues    EBANDS =       816.19766290
  atomic energy  EATOM  =     45086.50549395
  Solvation  Ediel_sol  =         0.00000000
  ---------------------------------------------------
  free energy    TOTEN  =      4385.78232211 eV

  energy without entropy =     4385.76294177  energy(sigma->0) =     4385.77747703


--------------------------------------------------------------------------------------------------------




--------------------------------------- Iteration      1(   2)  ---------------------------------------


     EDDAV:  cpu time  584.8954: real time  584.8940
       DOS:  cpu time    0.0013: real time    0.0013
    --------------------------------------------
      LOOP:  cpu time  584.8967: real time  584.8953

 eigenvalue-minimisations  :  1224
 total energy-change (2. order) :-0.2378258E+04  (-0.2141178E+04)
 number of electron     560.0000000 magnetization 
 augmentation part      560.0000000 magnetization 

 Free energy of the ion-electron system (eV)
  ---------------------------------------------------
  alpha Z        PSCENC =        75.25431677
  Ewald energy   TEWEN  =    138067.17599957
  -Hartree energ DENC   =   -181430.29356621
  -exchange      EXHF   =         0.00000000
  -V(xc)+E(xc)   XCENC  =     -1703.26055009
  PAW double counting   =     44873.02882129   -41398.84523641
  entropy T*S    EENTRO =        -0.07114469
  eigenvalues    EBANDS =     -1561.96983532
  atomic energy  EATOM  =     45086.50549395
  Solvation  Ediel_sol  =         0.00000000
  ---------------------------------------------------
  free energy    TOTEN  =      2007.52429885 eV

  energy without entropy =     2007.59544355  energy(sigma->0) =     2007.54208503


--------------------------------------------------------------------------------------------------------




--------------------------------------- Iteration      1(   3)  ---------------------------------------


     EDDAV:  cpu time  500.8871: real time  500.8812
       DOS:  cpu time    0.0011: real time    0.0011
    --------------------------------------------
      LOOP:  cpu time  500.8882: real time  500.8823

 eigenvalue-minimisations  :  1008
 total energy-change (2. order) :-0.1781183E+04  (-0.1676081E+04)
 number of electron     560.0000000 magnetization 
 augmentation part      560.0000000 magnetization 

 Free energy of the ion-electron system (eV)
  ---------------------------------------------------
  alpha Z        PSCENC =        75.25431677
  Ewald energy   TEWEN  =    138067.17599957
  -Hartree energ DENC   =   -181430.29356621
  -exchange      EXHF   =         0.00000000
  -V(xc)+E(xc)   XCENC  =     -1703.26055009
  PAW double counting   =     44873.02882129   -41398.84523641
  entropy T*S    EENTRO =        -0.05618302
  eigenvalues    EBANDS =     -3343.16762791
  atomic energy  EATOM  =     45086.50549395
  Solvation  Ediel_sol  =         0.00000000
  ---------------------------------------------------
  free energy    TOTEN  =       226.34146794 eV

  energy without entropy =      226.39765096  energy(sigma->0) =      226.35551370


--------------------------------------------------------------------------------------------------------




--------------------------------------- Iteration      1(   4)  ---------------------------------------


     EDDAV:  cpu time  428.1500: real time  428.1450
       DOS:  cpu time    0.0012: real time    0.0012
    --------------------------------------------
      LOOP:  cpu time  428.1512: real time  428.1461

 eigenvalue-minimisations  :   832
 total energy-change (2. order) :-0.3620392E+03  (-0.3086641E+03)
 number of electron     560.0000000 magnetization 
 augmentation part      560.0000000 magnetization 

 Free energy of the ion-electron system (eV)
  ---------------------------------------------------
  alpha Z        PSCENC =        75.25431677
  Ewald energy   TEWEN  =    138067.17599957
  -Hartree energ DENC   =   -181430.29356621
  -exchange      EXHF   =         0.00000000
  -V(xc)+E(xc)   XCENC  =     -1703.26055009
  PAW double counting   =     44873.02882129   -41398.84523641
  entropy T*S    EENTRO =         0.02940573
  eigenvalues    EBANDS =     -3705.29239034
  atomic energy  EATOM  =     45086.50549395
  Solvation  Ediel_sol  =         0.00000000
  ---------------------------------------------------
  free energy    TOTEN  =      -135.69770574 eV

  energy without entropy =     -135.72711146  energy(sigma->0) =     -135.70505717


--------------------------------------------------------------------------------------------------------




--------------------------------------- Iteration      1(   5)  ---------------------------------------


     EDDAV:  cpu time  521.8247: real time  521.8347
       DOS:  cpu time    0.0014: real time    0.0014
    CHARGE:  cpu time   25.7881: real time   25.7935
    MIXING:  cpu time    0.4397: real time    0.4397
    --------------------------------------------
      LOOP:  cpu time  548.0539: real time  548.0693

 eigenvalue-minimisations  :  1056
 total energy-change (2. order) :-0.4433219E+02  (-0.3617925E+02)
 number of electron     559.9999861 magnetization 
 augmentation part      245.2152155 magnetization 

 Broyden mixing:
  rms(total) = 0.14864E+01    rms(broyden)= 0.14855E+01
  rms(prec ) = 0.15921E+01
  weight for this iteration     100.00

 Free energy of the ion-electron system (eV)
  ---------------------------------------------------
  alpha Z        PSCENC =        75.25431677
  Ewald energy   TEWEN  =    138067.17599957
  -Hartree energ DENC   =   -181430.29356621
  -exchange      EXHF   =         0.00000000
  -V(xc)+E(xc)   XCENC  =     -1703.26055009
  PAW double counting   =     44873.02882129   -41398.84523641
  entropy T*S    EENTRO =         0.52292226
  eigenvalues    EBANDS =     -3750.11809615
  atomic energy  EATOM  =     45086.50549395
  Solvation  Ediel_sol  =         0.00000000
  ---------------------------------------------------
  free energy    TOTEN  =      -180.02989501 eV

  energy without entropy =     -180.55281728  energy(sigma->0) =     -180.16062558


--------------------------------------------------------------------------------------------------------




--------------------------------------- Iteration      1(   6)  ---------------------------------------


    POTLOK:  cpu time   13.4149: real time   13.4178
    SETDIJ:  cpu time    0.1214: real time    0.1214
    EDDIAG:  cpu time   69.1784: real time   69.1822
  RMM-DIIS:  cpu time  194.4795: real time  194.4847
    ORTHCH:  cpu time   13.6116: real time   13.6113
       DOS:  cpu time    0.0014: real time    0.0014
    CHARGE:  cpu time   26.5080: real time   26.5074
    MIXING:  cpu time    0.4757: real time    0.4757
    --------------------------------------------
      LOOP:  cpu time  317.7909: real time  317.8019

 eigenvalue-minimisations  :   724
 total energy-change (2. order) : 0.2290598E-01  (-0.5534515E+01)
 number of electron     559.9999886 magnetization 
 augmentation part      240.6324818 magnetization 

 Broyden mixing:
  rms(total) = 0.22164E+01    rms(broyden)= 0.22163E+01
  rms(prec ) = 0.25702E+01
  weight for this iteration     100.00

 eigenvalues of (default mixing * dielectric matrix)
  average eigenvalue GAMMA=   0.3446
  0.3446

 Free energy of the ion-electron system (eV)
  ---------------------------------------------------
  alpha Z        PSCENC =        75.25431677
  Ewald energy   TEWEN  =    138067.17599957
  -Hartree energ DENC   =   -181835.74022172
  -exchange      EXHF   =         0.00000000
  -V(xc)+E(xc)   XCENC  =     -1696.86385029
  PAW double counting   =     45632.14889487   -42130.93576856
  entropy T*S    EENTRO =        -0.07227114
  eigenvalues    EBANDS =     -3377.47958249
  atomic energy  EATOM  =     45086.50549395
  Solvation  Ediel_sol  =         0.00000000
  ---------------------------------------------------
  free energy    TOTEN  =      -180.00698904 eV

  energy without entropy =     -179.93471789  energy(sigma->0) =     -179.98892125


--------------------------------------------------------------------------------------------------------




--------------------------------------- Iteration      1(   7)  ---------------------------------------


    POTLOK:  cpu time   13.7869: real time   13.7874
    SETDIJ:  cpu time    0.1218: real time    0.1218
    EDDIAG:  cpu time   70.6916: real time   70.6920
  RMM-DIIS:  cpu time  229.5030: real time  229.5004
    ORTHCH:  cpu time   14.1955: real time   14.1952
       DOS:  cpu time    0.0014: real time    0.0014
    CHARGE:  cpu time   26.9666: real time   26.9661
    MIXING:  cpu time    0.5097: real time    0.5096
    --------------------------------------------
      LOOP:  cpu time  355.7764: real time  355.7739

 eigenvalue-minimisations  :   845
 total energy-change (2. order) :-0.1706529E+01  (-0.1835236E+01)
 number of electron     559.9999840 magnetization 
 augmentation part      240.3962771 magnetization 

 Broyden mixing:
  rms(total) = 0.22072E+01    rms(broyden)= 0.22070E+01
  rms(prec ) = 0.26716E+01
  weight for this iteration     100.00

 eigenvalues of (default mixing * dielectric matrix)
  average eigenvalue GAMMA=   0.3210
  0.4857  0.1564

 Free energy of the ion-electron system (eV)
  ---------------------------------------------------
  alpha Z        PSCENC =        75.25431677
  Ewald energy   TEWEN  =    138067.17599957
  -Hartree energ DENC   =   -181923.36580279
  -exchange      EXHF   =         0.00000000
  -V(xc)+E(xc)   XCENC  =     -1697.05584442
  PAW double counting   =     45699.22877985   -42195.28346336
  entropy T*S    EENTRO =        -0.08410756
  eigenvalues    EBANDS =     -3294.08888980
  atomic energy  EATOM  =     45086.50549395
  Solvation  Ediel_sol  =         0.00000000
  ---------------------------------------------------
  free energy    TOTEN  =      -181.71351780 eV

  energy without entropy =     -181.62941023  energy(sigma->0) =     -181.69249090


--------------------------------------------------------------------------------------------------------




--------------------------------------- Iteration      1(   8)  ---------------------------------------


    POTLOK:  cpu time   14.0257: real time   14.0261
    SETDIJ:  cpu time    0.1236: real time    0.1236
    EDDIAG:  cpu time   72.0685: real time   72.0685
  RMM-DIIS:  cpu time  219.1383: real time  219.1430
    ORTHCH:  cpu time   14.3143: real time   14.3141
       DOS:  cpu time    0.0015: real time    0.0015
    CHARGE:  cpu time   26.8761: real time   26.8756
    MIXING:  cpu time    0.5226: real time    0.5226
    --------------------------------------------
      LOOP:  cpu time  347.0706: real time  347.0750

 eigenvalue-minimisations  :   789
 total energy-change (2. order) :-0.2484483E+01  (-0.6596806E+00)
 number of electron     559.9999859 magnetization 
 augmentation part      240.0215863 magnetization 

 Broyden mixing:
  rms(total) = 0.25910E+01    rms(broyden)= 0.25907E+01
  rms(prec ) = 0.31018E+01
  weight for this iteration     100.00

 eigenvalues of (default mixing * dielectric matrix)
  average eigenvalue GAMMA=   0.3030
  0.6284  0.1403  0.1403

 Free energy of the ion-electron system (eV)
  ---------------------------------------------------
  alpha Z        PSCENC =        75.25431677
  Ewald energy   TEWEN  =    138067.17599957
  -Hartree energ DENC   =   -181961.01376267
  -exchange      EXHF   =         0.00000000
  -V(xc)+E(xc)   XCENC  =     -1697.08113867
  PAW double counting   =     45755.94756075   -42249.60679259
  entropy T*S    EENTRO =        -0.10875969
  eigenvalues    EBANDS =     -3261.27091870
  atomic energy  EATOM  =     45086.50549395
  Solvation  Ediel_sol  =         0.00000000
  ---------------------------------------------------
  free energy    TOTEN  =      -184.19800128 eV

  energy without entropy =     -184.08924159  energy(sigma->0) =     -184.17081136


--------------------------------------------------------------------------------------------------------




--------------------------------------- Iteration      1(   9)  ---------------------------------------


    POTLOK:  cpu time   14.1186: real time   14.1200
    SETDIJ:  cpu time    0.1284: real time    0.1284
    EDDIAG:  cpu time   71.7138: real time   71.7133
  RMM-DIIS:  cpu time  205.4723: real time  205.4709
    ORTHCH:  cpu time   13.7860: real time   13.7857
       DOS:  cpu time    0.0014: real time    0.0014
    CHARGE:  cpu time   27.4385: real time   27.4379
    MIXING:  cpu time    0.5600: real time    0.5600
    --------------------------------------------
      LOOP:  cpu time  333.2190: real time  333.2176

 eigenvalue-minimisations  :   735
 total energy-change (2. order) : 0.1311602E+01  (-0.4753646E+00)
 number of electron     559.9999849 magnetization 
 augmentation part      240.6928506 magnetization 

 Broyden mixing:
  rms(total) = 0.29224E+01    rms(broyden)= 0.29221E+01
  rms(prec ) = 0.34514E+01
  weight for this iteration     100.00

 eigenvalues of (default mixing * dielectric matrix)
  average eigenvalue GAMMA=   0.2704
  0.6977  0.1399  0.1399  0.1039

 Free energy of the ion-electron system (eV)
  ---------------------------------------------------
  alpha Z        PSCENC =        75.25431677
  Ewald energy   TEWEN  =    138067.17599957
  -Hartree energ DENC   =   -181979.24992966
  -exchange      EXHF   =         0.00000000
  -V(xc)+E(xc)   XCENC  =     -1697.08791561
  PAW double counting   =     45807.87330549   -42299.40748365
  entropy T*S    EENTRO =        -0.01471200
  eigenvalues    EBANDS =     -3243.93547405
  atomic energy  EATOM  =     45086.50549395
  Solvation  Ediel_sol  =         0.00000000
  ---------------------------------------------------
  free energy    TOTEN  =      -182.88639919 eV

  energy without entropy =     -182.87168719  energy(sigma->0) =     -182.88272119


--------------------------------------------------------------------------------------------------------




--------------------------------------- Iteration      1(  10)  ---------------------------------------


    POTLOK:  cpu time   14.3173: real time   14.3179
    SETDIJ:  cpu time    0.1250: real time    0.1250
    EDDIAG:  cpu time   71.8158: real time   71.8150
  RMM-DIIS:  cpu time  204.2316: real time  204.2295
    ORTHCH:  cpu time   13.6075: real time   13.6073
       DOS:  cpu time    0.0015: real time    0.0015
    CHARGE:  cpu time   27.2882: real time   27.2876
    MIXING:  cpu time    0.6394: real time    0.6394
    --------------------------------------------
      LOOP:  cpu time  332.0263: real time  332.0232

 eigenvalue-minimisations  :   737
 total energy-change (2. order) : 0.2921335E+01  (-0.2814259E+00)
 number of electron     559.9999857 magnetization 
 augmentation part      241.1436464 magnetization 

 Broyden mixing:
  rms(total) = 0.20035E+01    rms(broyden)= 0.20032E+01
  rms(prec ) = 0.23162E+01
  weight for this iteration     100.00

 eigenvalues of (default mixing * dielectric matrix)
  average eigenvalue GAMMA=   0.2635
  0.7864  0.1611  0.1611  0.1155  0.0935

 Free energy of the ion-electron system (eV)
  ---------------------------------------------------
  alpha Z        PSCENC =        75.25431677
  Ewald energy   TEWEN  =    138067.17599957
  -Hartree energ DENC   =   -181995.53676247
  -exchange      EXHF   =         0.00000000
  -V(xc)+E(xc)   XCENC  =     -1697.01810656
  PAW double counting   =     45840.76826994   -42330.97941871
  entropy T*S    EENTRO =        -0.14347954
  eigenvalues    EBANDS =     -3225.99137761
  atomic energy  EATOM  =     45086.50549395
  Solvation  Ediel_sol  =         0.00000000
  ---------------------------------------------------
  free energy    TOTEN  =      -179.96506465 eV

  energy without entropy =     -179.82158512  energy(sigma->0) =     -179.92919477


--------------------------------------------------------------------------------------------------------




--------------------------------------- Iteration      1(  11)  ---------------------------------------


    POTLOK:  cpu time   14.1756: real time   14.1761
    SETDIJ:  cpu time    0.1262: real time    0.1262
    EDDIAG:  cpu time   71.6991: real time   71.6980
  RMM-DIIS:  cpu time  200.8648: real time  200.8637
    ORTHCH:  cpu time   13.6953: real time   13.6950
       DOS:  cpu time    0.0015: real time    0.0015
    CHARGE:  cpu time   27.2825: real time   27.2888
    MIXING:  cpu time    0.6263: real time    0.6263
    --------------------------------------------
      LOOP:  cpu time  328.4713: real time  328.4756

 eigenvalue-minimisations  :   726
 total energy-change (2. order) : 0.1715898E+01  (-0.2143377E+00)
 number of electron     559.9999846 magnetization 
 augmentation part      241.4093423 magnetization 

 Broyden mixing:
  rms(total) = 0.17332E+01    rms(broyden)= 0.17329E+01
  rms(prec ) = 0.20706E+01
  weight for this iteration     100.00

 eigenvalues of (default mixing * dielectric matrix)
  average eigenvalue GAMMA=   0.2561
  0.8460  0.1962  0.1962  0.1099  0.1099  0.0787

 Free energy of the ion-electron system (eV)
  ---------------------------------------------------
  alpha Z        PSCENC =        75.25431677
  Ewald energy   TEWEN  =    138067.17599957
  -Hartree energ DENC   =   -182018.57903448
  -exchange      EXHF   =         0.00000000
  -V(xc)+E(xc)   XCENC  =     -1696.87599389
  PAW double counting   =     45878.62456977   -42367.21877667
  entropy T*S    EENTRO =        -0.18448922
  eigenvalues    EBANDS =     -3202.95125222
  atomic energy  EATOM  =     45086.50549395
  Solvation  Ediel_sol  =         0.00000000
  ---------------------------------------------------
  free energy    TOTEN  =      -178.24916642 eV

  energy without entropy =     -178.06467720  energy(sigma->0) =     -178.20304412


--------------------------------------------------------------------------------------------------------




--------------------------------------- Iteration      1(  12)  ---------------------------------------


    POTLOK:  cpu time   14.3669: real time   14.3695
    SETDIJ:  cpu time    0.1243: real time    0.1243
    EDDIAG:  cpu time   71.9714: real time   71.9704
  RMM-DIIS:  cpu time  204.0874: real time  204.1649
    ORTHCH:  cpu time   13.7541: real time   13.7542
       DOS:  cpu time    0.0016: real time    0.0015
    CHARGE:  cpu time   27.3432: real time   27.3441
    MIXING:  cpu time    0.7132: real time    0.7132
    --------------------------------------------
      LOOP:  cpu time  332.3621: real time  332.4422

 eigenvalue-minimisations  :   729
 total energy-change (2. order) : 0.1318252E+01  (-0.1472622E+00)
 number of electron     559.9999869 magnetization 
 augmentation part      241.5733984 magnetization 

 Broyden mixing:
  rms(total) = 0.13018E+01    rms(broyden)= 0.13014E+01
  rms(prec ) = 0.15221E+01
  weight for this iteration     100.00

 eigenvalues of (default mixing * dielectric matrix)
  average eigenvalue GAMMA=   0.2682
  0.9365  0.2643  0.2643  0.1163  0.1163  0.1146  0.0650

 Free energy of the ion-electron system (eV)
  ---------------------------------------------------
  alpha Z        PSCENC =        75.25431677
  Ewald energy   TEWEN  =    138067.17599957
  -Hartree energ DENC   =   -182035.08285901
  -exchange      EXHF   =         0.00000000
  -V(xc)+E(xc)   XCENC  =     -1696.68517055
  PAW double counting   =     45910.09456678   -42397.25325103
  entropy T*S    EENTRO =        -0.11494621
  eigenvalues    EBANDS =     -3186.82506484
  atomic energy  EATOM  =     45086.50549395
  Solvation  Ediel_sol  =         0.00000000
  ---------------------------------------------------
  free energy    TOTEN  =      -176.93091458 eV

  energy without entropy =     -176.81596837  energy(sigma->0) =     -176.90217802


--------------------------------------------------------------------------------------------------------




--------------------------------------- Iteration      1(  13)  ---------------------------------------


    POTLOK:  cpu time   14.2691: real time   14.2729
    SETDIJ:  cpu time    0.1241: real time    0.1241
    EDDIAG:  cpu time   72.2613: real time   72.2635
  RMM-DIIS:  cpu time  197.3475: real time  197.3595
    ORTHCH:  cpu time   13.8876: real time   13.8918
       DOS:  cpu time    0.0015: real time    0.0015
    CHARGE:  cpu time   27.2753: real time   27.2756
    MIXING:  cpu time    0.7471: real time    0.7472
    --------------------------------------------
      LOOP:  cpu time  325.9134: real time  325.9360

 eigenvalue-minimisations  :   709
 total energy-change (2. order) : 0.1886791E+00  (-0.1450831E+00)
 number of electron     559.9999839 magnetization 
 augmentation part      241.5728395 magnetization 

 Broyden mixing:
  rms(total) = 0.16107E+01    rms(broyden)= 0.16103E+01
  rms(prec ) = 0.19212E+01
  weight for this iteration     100.00

 eigenvalues of (default mixing * dielectric matrix)
  average eigenvalue GAMMA=   0.2833
  1.0627  0.3706  0.3151  0.1277  0.1277  0.1149  0.0788  0.0693

 Free energy of the ion-electron system (eV)
  ---------------------------------------------------
  alpha Z        PSCENC =        75.25431677
  Ewald energy   TEWEN  =    138067.17599957
  -Hartree energ DENC   =   -182066.10008777
  -exchange      EXHF   =         0.00000000
  -V(xc)+E(xc)   XCENC  =     -1696.30229770
  PAW double counting   =     45958.28058869   -42443.15923308
  entropy T*S    EENTRO =        -0.08424624
  eigenvalues    EBANDS =     -3158.31276965
  atomic energy  EATOM  =     45086.50549395
  Solvation  Ediel_sol  =         0.00000000
  ---------------------------------------------------
  free energy    TOTEN  =      -176.74223547 eV

  energy without entropy =     -176.65798922  energy(sigma->0) =     -176.72117390


--------------------------------------------------------------------------------------------------------




--------------------------------------- Iteration      1(  14)  ---------------------------------------


    POTLOK:  cpu time   14.3087: real time   14.3117
    SETDIJ:  cpu time    0.1309: real time    0.1309
    EDDIAG:  cpu time   72.4211: real time   72.4258
  RMM-DIIS:  cpu time  199.8626: real time  199.8755
    ORTHCH:  cpu time   13.8824: real time   13.8838
       DOS:  cpu time    0.0015: real time    0.0015
    CHARGE:  cpu time   27.2581: real time   27.2606
    MIXING:  cpu time    0.8005: real time    0.8005
    --------------------------------------------
      LOOP:  cpu time  328.6658: real time  328.6904

 eigenvalue-minimisations  :   719
 total energy-change (2. order) :-0.6609888E+00  (-0.1169463E+00)
 number of electron     559.9999865 magnetization 
 augmentation part      241.2161951 magnetization 

 Broyden mixing:
  rms(total) = 0.21025E+01    rms(broyden)= 0.21022E+01
  rms(prec ) = 0.25257E+01
  weight for this iteration     100.00

 eigenvalues of (default mixing * dielectric matrix)
  average eigenvalue GAMMA=   0.2906
  1.1909  0.5354  0.2810  0.1357  0.1357  0.1032  0.1032  0.0737  0.0565

 Free energy of the ion-electron system (eV)
  ---------------------------------------------------
  alpha Z        PSCENC =        75.25431677
  Ewald energy   TEWEN  =    138067.17599957
  -Hartree energ DENC   =   -182108.12778228
  -exchange      EXHF   =         0.00000000
  -V(xc)+E(xc)   XCENC  =     -1695.81525580
  PAW double counting   =     46015.36869143   -42497.47393966
  entropy T*S    EENTRO =        -0.03881321
  eigenvalues    EBANDS =     -3120.25193506
  atomic energy  EATOM  =     45086.50549395
  Solvation  Ediel_sol  =         0.00000000
  ---------------------------------------------------
  free energy    TOTEN  =      -177.40322430 eV

  energy without entropy =     -177.36441109  energy(sigma->0) =     -177.39352099


--------------------------------------------------------------------------------------------------------




--------------------------------------- Iteration      1(  15)  ---------------------------------------


    POTLOK:  cpu time   14.3360: real time   14.3378
    SETDIJ:  cpu time    0.1338: real time    0.1338
    EDDIAG:  cpu time   72.4280: real time   72.4368
  RMM-DIIS:  cpu time  199.6712: real time  199.6702
    ORTHCH:  cpu time   13.7925: real time   13.7922
       DOS:  cpu time    0.0015: real time    0.0015
    CHARGE:  cpu time   27.1704: real time   27.1699
    MIXING:  cpu time    0.8147: real time    0.8148
    --------------------------------------------
      LOOP:  cpu time  328.3480: real time  328.3570

 eigenvalue-minimisations  :   716
 total energy-change (2. order) : 0.9517472E+00  (-0.1058376E+00)
 number of electron     559.9999849 magnetization 
 augmentation part      241.0636622 magnetization 

 Broyden mixing:
  rms(total) = 0.13702E+01    rms(broyden)= 0.13699E+01
  rms(prec ) = 0.16048E+01
  weight for this iteration     100.00

 eigenvalues of (default mixing * dielectric matrix)
  average eigenvalue GAMMA=   0.3035
  1.3985  0.5915  0.2675  0.1736  0.1736  0.1134  0.1134  0.0751  0.0751  0.0535

 Free energy of the ion-electron system (eV)
  ---------------------------------------------------
  alpha Z        PSCENC =        75.25431677
  Ewald energy   TEWEN  =    138067.17599957
  -Hartree energ DENC   =   -182144.13801588
  -exchange      EXHF   =         0.00000000
  -V(xc)+E(xc)   XCENC  =     -1695.37255870
  PAW double counting   =     46062.73515815   -42542.51488117
  entropy T*S    EENTRO =        -0.11542047
  eigenvalues    EBANDS =     -3085.98156934
  atomic energy  EATOM  =     45086.50549395
  Solvation  Ediel_sol  =         0.00000000
  ---------------------------------------------------
  free energy    TOTEN  =      -176.45147712 eV

  energy without entropy =     -176.33605665  energy(sigma->0) =     -176.42262200


--------------------------------------------------------------------------------------------------------




--------------------------------------- Iteration      1(  16)  ---------------------------------------


    POTLOK:  cpu time   14.3548: real time   14.3590
    SETDIJ:  cpu time    0.1244: real time    0.1244
    EDDIAG:  cpu time   72.3484: real time   72.3473
  RMM-DIIS:  cpu time  197.8192: real time  197.8234
    ORTHCH:  cpu time   13.6924: real time   13.6921
       DOS:  cpu time    0.0015: real time    0.0015
    CHARGE:  cpu time   26.9166: real time   26.9160
    MIXING:  cpu time    0.9133: real time    0.9132
    --------------------------------------------
      LOOP:  cpu time  326.1706: real time  326.1769

 eigenvalue-minimisations  :   711
 total energy-change (2. order) : 0.4961509E+00  (-0.9033438E-01)
 number of electron     559.9999853 magnetization 
 augmentation part      241.1574114 magnetization 

 Broyden mixing:
  rms(total) = 0.12826E+01    rms(broyden)= 0.12823E+01
  rms(prec ) = 0.15119E+01
  weight for this iteration     100.00

 eigenvalues of (default mixing * dielectric matrix)
  average eigenvalue GAMMA=   0.3068
  1.4966  0.6784  0.2419  0.2419  0.1841  0.1200  0.1200  0.0849  0.0849  0.0697
  0.0520

 Free energy of the ion-electron system (eV)
  ---------------------------------------------------
  alpha Z        PSCENC =        75.25431677
  Ewald energy   TEWEN  =    138067.17599957
  -Hartree energ DENC   =   -182167.22647522
  -exchange      EXHF   =         0.00000000
  -V(xc)+E(xc)   XCENC  =     -1694.99220229
  PAW double counting   =     46104.62704359   -42582.28790491
  entropy T*S    EENTRO =        -0.04261925
  eigenvalues    EBANDS =     -3064.96897845
  atomic energy  EATOM  =     45086.50549395
  Solvation  Ediel_sol  =         0.00000000
  ---------------------------------------------------
  free energy    TOTEN  =      -175.95532624 eV

  energy without entropy =     -175.91270699  energy(sigma->0) =     -175.94467143


--------------------------------------------------------------------------------------------------------




--------------------------------------- Iteration      1(  17)  ---------------------------------------


    POTLOK:  cpu time   14.2441: real time   14.2466
    SETDIJ:  cpu time    0.1311: real time    0.1311
    EDDIAG:  cpu time   72.1577: real time   72.1577
  RMM-DIIS:  cpu time  195.6461: real time  195.6470
    ORTHCH:  cpu time   13.8256: real time   13.8253
       DOS:  cpu time    0.0015: real time    0.0015
    CHARGE:  cpu time   26.7213: real time   26.7207
    MIXING:  cpu time    0.9449: real time    0.9449
    --------------------------------------------
      LOOP:  cpu time  323.6724: real time  323.6748

 eigenvalue-minimisations  :   706
 total energy-change (2. order) : 0.3794089E+00  (-0.5364130E-01)
 number of electron     559.9999873 magnetization 
 augmentation part      241.1972338 magnetization 

 Broyden mixing:
  rms(total) = 0.10661E+01    rms(broyden)= 0.10659E+01
  rms(prec ) = 0.12363E+01
  weight for this iteration     100.00

 eigenvalues of (default mixing * dielectric matrix)
  average eigenvalue GAMMA=   0.3138
  1.5419  0.7972  0.3210  0.3210  0.1366  0.1366  0.1168  0.1168  0.0771  0.0771
  0.0720  0.0508

 Free energy of the ion-electron system (eV)
  ---------------------------------------------------
  alpha Z        PSCENC =        75.25431677
  Ewald energy   TEWEN  =    138067.17599957
  -Hartree energ DENC   =   -182183.57676609
  -exchange      EXHF   =         0.00000000
  -V(xc)+E(xc)   XCENC  =     -1694.73024636
  PAW double counting   =     46126.50504095   -42602.87490321
  entropy T*S    EENTRO =         0.00411197
  eigenvalues    EBANDS =     -3049.83896485
  atomic energy  EATOM  =     45086.50549395
  Solvation  Ediel_sol  =         0.00000000
  ---------------------------------------------------
  free energy    TOTEN  =      -175.57591729 eV

  energy without entropy =     -175.58002926  energy(sigma->0) =     -175.57694528


--------------------------------------------------------------------------------------------------------




--------------------------------------- Iteration      1(  18)  ---------------------------------------


    POTLOK:  cpu time   14.2263: real time   14.2309
    SETDIJ:  cpu time    0.1220: real time    0.1220
    EDDIAG:  cpu time   72.0017: real time   72.0008
  RMM-DIIS:  cpu time  195.2409: real time  195.2384
    ORTHCH:  cpu time   13.7807: real time   13.7805
       DOS:  cpu time    0.0015: real time    0.0015
    CHARGE:  cpu time   26.8460: real time   26.8454
    MIXING:  cpu time    1.0210: real time    1.0210
    --------------------------------------------
      LOOP:  cpu time  323.2401: real time  323.2406

 eigenvalue-minimisations  :   704
 total energy-change (2. order) : 0.4872892E-01  (-0.3515666E-01)
 number of electron     559.9999876 magnetization 
 augmentation part      241.1292546 magnetization 

 Broyden mixing:
  rms(total) = 0.12278E+01    rms(broyden)= 0.12277E+01
  rms(prec ) = 0.14378E+01
  weight for this iteration     100.00

 eigenvalues of (default mixing * dielectric matrix)
  average eigenvalue GAMMA=   0.3285
  1.5962  1.0291  0.3801  0.3801  0.1500  0.1500  0.1138  0.1138  0.0944  0.0746
  0.0681  0.0681  0.0516

 Free energy of the ion-electron system (eV)
  ---------------------------------------------------
  alpha Z        PSCENC =        75.25431677
  Ewald energy   TEWEN  =    138067.17599957
  -Hartree energ DENC   =   -182201.05184794
  -exchange      EXHF   =         0.00000000
  -V(xc)+E(xc)   XCENC  =     -1694.57197069
  PAW double counting   =     46138.85683279   -42614.34029305
  entropy T*S    EENTRO =        -0.00930532
  eigenvalues    EBANDS =     -3033.34641445
  atomic energy  EATOM  =     45086.50549395
  Solvation  Ediel_sol  =         0.00000000
  ---------------------------------------------------
  free energy    TOTEN  =      -175.52718837 eV

  energy without entropy =     -175.51788304  energy(sigma->0) =     -175.52486204


--------------------------------------------------------------------------------------------------------




--------------------------------------- Iteration      1(  19)  ---------------------------------------


    POTLOK:  cpu time   14.1486: real time   14.1505
    SETDIJ:  cpu time    0.1248: real time    0.1248
    EDDIAG:  cpu time   71.8496: real time   71.8490
  RMM-DIIS:  cpu time  198.4579: real time  198.4576
    ORTHCH:  cpu time   13.7639: real time   13.7636
       DOS:  cpu time    0.0015: real time    0.0015
    CHARGE:  cpu time   27.0754: real time   27.0799
    MIXING:  cpu time    1.0768: real time    1.0767
    --------------------------------------------
      LOOP:  cpu time  326.4983: real time  326.5037

 eigenvalue-minimisations  :   715
 total energy-change (2. order) :-0.1945306E+00  (-0.4088226E-01)
 number of electron     559.9999866 magnetization 
 augmentation part      241.0939872 magnetization 

 Broyden mixing:
  rms(total) = 0.14318E+01    rms(broyden)= 0.14317E+01
  rms(prec ) = 0.17427E+01
  weight for this iteration     100.00

 eigenvalues of (default mixing * dielectric matrix)
  average eigenvalue GAMMA=   0.3354
  1.7223  1.0974  0.4314  0.4314  0.1700  0.1700  0.1163  0.1163  0.0949  0.0949
  0.0718  0.0718  0.0535  0.0535

 Free energy of the ion-electron system (eV)
  ---------------------------------------------------
  alpha Z        PSCENC =        75.25431677
  Ewald energy   TEWEN  =    138067.17599957
  -Hartree energ DENC   =   -182223.12857496
  -exchange      EXHF   =         0.00000000
  -V(xc)+E(xc)   XCENC  =     -1694.34903743
  PAW double counting   =     46151.74710581   -42626.06769449
  entropy T*S    EENTRO =         0.09235370
  eigenvalues    EBANDS =     -3012.95168191
  atomic energy  EATOM  =     45086.50549395
  Solvation  Ediel_sol  =         0.00000000
  ---------------------------------------------------
  free energy    TOTEN  =      -175.72171898 eV

  energy without entropy =     -175.81407268  energy(sigma->0) =     -175.74480740


--------------------------------------------------------------------------------------------------------




--------------------------------------- Iteration      1(  20)  ---------------------------------------


    POTLOK:  cpu time   14.0825: real time   14.0850
    SETDIJ:  cpu time    0.1247: real time    0.1247
    EDDIAG:  cpu time   71.6151: real time   71.6149
  RMM-DIIS:  cpu time  194.8034: real time  194.8073
    ORTHCH:  cpu time   13.7771: real time   13.7768
       DOS:  cpu time    0.0014: real time    0.0014
    CHARGE:  cpu time   26.8547: real time   26.8540
    MIXING:  cpu time    1.1333: real time    1.1333
    --------------------------------------------
      LOOP:  cpu time  322.3922: real time  322.3974

 eigenvalue-minimisations  :   704
 total energy-change (2. order) : 0.1630491E+00  (-0.3344936E-01)
 number of electron     559.9999858 magnetization 
 augmentation part      241.1393012 magnetization 

 Broyden mixing:
  rms(total) = 0.11441E+01    rms(broyden)= 0.11440E+01
  rms(prec ) = 0.13306E+01
  weight for this iteration     100.00

 eigenvalues of (default mixing * dielectric matrix)
  average eigenvalue GAMMA=   0.3310
  1.7644  1.1913  0.4416  0.4416  0.1846  0.1846  0.1185  0.1185  0.1014  0.1014
  0.0711  0.0711  0.0711  0.0520  0.0520

 Free energy of the ion-electron system (eV)
  ---------------------------------------------------
  alpha Z        PSCENC =        75.25431677
  Ewald energy   TEWEN  =    138067.17599957
  -Hartree energ DENC   =   -182236.95886644
  -exchange      EXHF   =         0.00000000
  -V(xc)+E(xc)   XCENC  =     -1694.22614960
  PAW double counting   =     46157.63964913   -42631.25545629
  entropy T*S    EENTRO =        -0.02332415
  eigenvalues    EBANDS =     -2999.67033277
  atomic energy  EATOM  =     45086.50549395
  Solvation  Ediel_sol  =         0.00000000
  ---------------------------------------------------
  free energy    TOTEN  =      -175.55866983 eV

  energy without entropy =     -175.53534568  energy(sigma->0) =     -175.55283879


--------------------------------------------------------------------------------------------------------




--------------------------------------- Iteration      1(  21)  ---------------------------------------


    POTLOK:  cpu time   14.1588: real time   14.1616
    SETDIJ:  cpu time    0.1298: real time    0.1298
    EDDIAG:  cpu time   72.0054: real time   72.0044
  RMM-DIIS:  cpu time  193.5108: real time  193.5087
    ORTHCH:  cpu time   13.8523: real time   13.8519
       DOS:  cpu time    0.0015: real time    0.0015
    CHARGE:  cpu time   26.9473: real time   26.9466
    MIXING:  cpu time    1.1894: real time    1.1894
    --------------------------------------------
      LOOP:  cpu time  321.7953: real time  321.7939

 eigenvalue-minimisations  :   698
 total energy-change (2. order) : 0.3456917E+00  (-0.2286524E-01)
 number of electron     559.9999858 magnetization 
 augmentation part      241.0962917 magnetization 

 Broyden mixing:
  rms(total) = 0.69492E+00    rms(broyden)= 0.69476E+00
  rms(prec ) = 0.79425E+00
  weight for this iteration     100.00

 eigenvalues of (default mixing * dielectric matrix)
  average eigenvalue GAMMA=   0.3320
  1.9155  1.1935  0.4207  0.4207  0.2958  0.1559  0.1559  0.1179  0.1179  0.0989
  0.0989  0.0751  0.0751  0.0654  0.0521  0.0521

 Free energy of the ion-electron system (eV)
  ---------------------------------------------------
  alpha Z        PSCENC =        75.25431677
  Ewald energy   TEWEN  =    138067.17599957
  -Hartree energ DENC   =   -182252.38163263
  -exchange      EXHF   =         0.00000000
  -V(xc)+E(xc)   XCENC  =     -1694.08372135
  PAW double counting   =     46163.22817803   -42636.21581375
  entropy T*S    EENTRO =        -0.12974190
  eigenvalues    EBANDS =     -2984.56605677
  atomic energy  EATOM  =     45086.50549395
  Solvation  Ediel_sol  =         0.00000000
  ---------------------------------------------------
  free energy    TOTEN  =      -175.21297810 eV

  energy without entropy =     -175.08323620  energy(sigma->0) =     -175.18054263


--------------------------------------------------------------------------------------------------------




--------------------------------------- Iteration      1(  22)  ---------------------------------------


    POTLOK:  cpu time   14.1801: real time   14.1829
    SETDIJ:  cpu time    0.1277: real time    0.1277
    EDDIAG:  cpu time   72.1493: real time   72.1478
  RMM-DIIS:  cpu time  192.9610: real time  192.9616
    ORTHCH:  cpu time   13.7617: real time   13.7614
       DOS:  cpu time    0.0015: real time    0.0015
    CHARGE:  cpu time   26.7727: real time   26.7720
    MIXING:  cpu time    1.2859: real time    1.2858
    --------------------------------------------
      LOOP:  cpu time  321.2399: real time  321.2407

 eigenvalue-minimisations  :   696
 total energy-change (2. order) : 0.1602329E+00  (-0.1958079E-01)
 number of electron     559.9999865 magnetization 
 augmentation part      241.1670448 magnetization 

 Broyden mixing:
  rms(total) = 0.64555E+00    rms(broyden)= 0.64541E+00
  rms(prec ) = 0.74839E+00
  weight for this iteration     100.00

 eigenvalues of (default mixing * dielectric matrix)
  average eigenvalue GAMMA=   0.3357
  1.9967  1.1972  0.5815  0.3691  0.3691  0.1578  0.1578  0.1379  0.1167  0.1167
  0.0984  0.0984  0.0721  0.0721  0.0621  0.0519  0.0519

 Free energy of the ion-electron system (eV)
  ---------------------------------------------------
  alpha Z        PSCENC =        75.25431677
  Ewald energy   TEWEN  =    138067.17599957
  -Hartree energ DENC   =   -182265.61202749
  -exchange      EXHF   =         0.00000000
  -V(xc)+E(xc)   XCENC  =     -1693.91124636
  PAW double counting   =     46167.87088453   -42640.12215454
  entropy T*S    EENTRO =        -0.14571441
  eigenvalues    EBANDS =     -2972.06829719
  atomic energy  EATOM  =     45086.50549395
  Solvation  Ediel_sol  =         0.00000000
  ---------------------------------------------------
  free energy    TOTEN  =      -175.05274516 eV

  energy without entropy =     -174.90703075  energy(sigma->0) =     -175.01631656


--------------------------------------------------------------------------------------------------------




--------------------------------------- Iteration      1(  23)  ---------------------------------------


    POTLOK:  cpu time   14.1328: real time   14.1351
    SETDIJ:  cpu time    0.1227: real time    0.1227
    EDDIAG:  cpu time   72.4667: real time   72.4654
  RMM-DIIS:  cpu time  192.9677: real time  192.9670
    ORTHCH:  cpu time   13.7291: real time   13.7289
       DOS:  cpu time    0.0015: real time    0.0015
    CHARGE:  cpu time   26.7069: real time   26.7064
    MIXING:  cpu time    1.3343: real time    1.3354
    --------------------------------------------
      LOOP:  cpu time  321.4617: real time  321.4623

 eigenvalue-minimisations  :   696
 total energy-change (2. order) : 0.1020324E+00  (-0.1157604E-01)
 number of electron     559.9999860 magnetization 
 augmentation part      241.0836285 magnetization 

 Broyden mixing:
  rms(total) = 0.46502E+00    rms(broyden)= 0.46491E+00
  rms(prec ) = 0.53560E+00
  weight for this iteration     100.00

 eigenvalues of (default mixing * dielectric matrix)
  average eigenvalue GAMMA=   0.3519
  2.1963  1.1890  0.7828  0.3742  0.3742  0.2518  0.1665  0.1665  0.1173  0.1173
[...]
 -0.007  -0.012   0.004   0.004   0.005  -0.006  -0.011   0.003
 -0.011  -0.020   0.006   0.008   0.009  -0.011  -0.019   0.006
 -0.015  -0.005   0.013   0.000   0.022  -0.014  -0.005   0.012
  0.000  -0.023  -0.006  -0.015  -0.000   0.000  -0.022  -0.006
 -0.022   0.000   0.009  -0.005  -0.016  -0.022   0.000   0.008
 -0.017  -0.006   0.015   0.000   0.027  -0.017  -0.006   0.015
  0.000  -0.027  -0.007  -0.018  -0.000   0.000  -0.027  -0.007
 -0.027   0.000   0.010  -0.006  -0.019  -0.026   0.000   0.010
 total augmentation occupancy for first ion, spin component:           1
  1.540  -0.031   0.004   0.016   0.026   0.073  -0.008  -0.001   0.036  -0.010   0.090  -0.031   0.012   0.003   0.002  -0.019
 -0.031   1.402   0.029   0.071   0.001  -0.007   0.071   0.011  -0.014  -0.008   0.214  -0.065   0.019   0.002   0.002  -0.006
  0.004   0.029   1.546   0.003   0.002  -0.001   0.013   0.072  -0.013   0.017  -0.052   0.017  -0.003  -0.007  -0.005   0.016
  0.016   0.071   0.003   1.340   0.044   0.034  -0.013  -0.013   0.090  -0.023  -0.084   0.022  -0.001  -0.009  -0.003   0.001
  0.026   0.001   0.002   0.044   1.442  -0.011  -0.009   0.016  -0.022   0.066  -0.092   0.030  -0.003  -0.010  -0.010   0.026
  0.073  -0.007  -0.001   0.034  -0.011   0.217   0.019  -0.002  -0.045   0.004  -0.048   0.002   0.017  -0.010   0.035  -0.004
 -0.008   0.071   0.013  -0.013  -0.009   0.019   0.262  -0.023  -0.003   0.006  -0.109   0.007  -0.001   0.051  -0.010  -0.000
 -0.001   0.011   0.072  -0.013   0.016  -0.002  -0.023   0.214   0.014  -0.020   0.028  -0.001  -0.012   0.009  -0.018   0.003
  0.036  -0.014  -0.013   0.090  -0.022  -0.045  -0.003   0.014   0.260   0.007   0.043  -0.004  -0.009   0.036   0.004   0.000
 -0.010  -0.008   0.017  -0.023   0.066   0.004   0.006  -0.020   0.007   0.258   0.046  -0.003  -0.038   0.002   0.049   0.007
  0.090   0.214  -0.052  -0.084  -0.092  -0.048  -0.109   0.028   0.043   0.046   0.949  -0.140   0.084   0.014   0.064  -0.012
 -0.031  -0.065   0.017   0.022   0.030   0.002   0.007  -0.001  -0.004  -0.003  -0.140   0.023  -0.014  -0.003  -0.010   0.003
  0.012   0.019  -0.003  -0.001  -0.003   0.017  -0.001  -0.012  -0.009  -0.038   0.084  -0.014   0.029  -0.008  -0.004  -0.003
  0.003   0.002  -0.007  -0.009  -0.010  -0.010   0.051   0.009   0.036   0.002   0.014  -0.003  -0.008   0.036   0.004   0.000
  0.002   0.002  -0.005  -0.003  -0.010   0.035  -0.010  -0.018   0.004   0.049   0.064  -0.010  -0.004   0.004   0.035  -0.000
 -0.019  -0.006   0.016   0.001   0.026  -0.004  -0.000   0.003   0.000   0.007  -0.012   0.003  -0.003   0.000  -0.000   0.001
  0.001  -0.028  -0.007  -0.018   0.001   0.001  -0.008  -0.002  -0.006  -0.000  -0.003   0.001   0.000  -0.003  -0.000   0.000
 -0.028   0.001   0.012  -0.005  -0.019  -0.006   0.001   0.003  -0.001  -0.007  -0.008   0.001  -0.000  -0.000  -0.003   0.000


------------------------ aborting loop because EDIFF is reached ----------------------------------------


    CHARGE:  cpu time   25.8582: real time   25.8576
    FORLOC:  cpu time    6.8849: real time    6.8847
    FORNL :  cpu time   68.2357: real time   68.2344
    STRESS:  cpu time  203.2236: real time  203.2192
    FORCOR:  cpu time   22.3037: real time   22.3032
    FORHAR:  cpu time    9.9723: real time    9.9721
    MIXING:  cpu time    3.6689: real time    3.6688
    OFIELD:  cpu time    0.0000: real time    0.0000

  FORCE on cell =-STRESS in cart. coord.  units (eV):
  Direction    XX          YY          ZZ          XY          YZ          ZX
  --------------------------------------------------------------------------------------
  Alpha Z    75.25432    75.25432    75.25432
  Ewald   48153.91518 44024.68452 45888.47052   585.92585  -474.65223 -2018.24653
  Hartree 62817.28029 58949.39272 60655.75816   543.75127  -446.89227 -1822.59009
  E(xc)   -2903.68310 -2905.34648 -2903.96907     0.19244     0.05331    -1.43303
  Local  ************************************ -1125.37890   920.34903  3819.61379
  n-local  -884.67086  -881.40928  -883.53486    -1.44591     0.57407     1.62537
  augment  4102.62863  4106.04390  4102.52415     0.01224    -0.56610     3.68480
  Kinetic  7795.26256  7814.29998  7799.48042    -2.40739     0.02241    16.78936
  Fock        0.00000     0.00000     0.00000     0.00000     0.00000     0.00000
  -------------------------------------------------------------------------------------
  Total    -112.05754  -113.73536  -114.83010     0.64960    -1.11177    -0.55632
  in kB      -6.64948    -6.74904    -6.81401     0.03855    -0.06597    -0.03301
  external pressure =       -6.74 kB  Pullay stress =        0.00 kB


 VOLUME and BASIS-vectors are now :
 -----------------------------------------------------------------------------
  energy-cutoff  :      400.00
  volume of cell :    27000.00
      direct lattice vectors                 reciprocal lattice vectors
    30.000000000  0.000000000  0.000000000     0.033333333  0.000000000  0.000000000
     0.000000000 30.000000000  0.000000000     0.000000000  0.033333333  0.000000000
     0.000000000  0.000000000 30.000000000     0.000000000  0.000000000  0.033333333

  length of vectors
    30.000000000 30.000000000 30.000000000     0.033333333  0.033333333  0.033333333


 FORCES acting on ions
    electron-ion (+dipol)            ewald-force                    non-local-force                 convergence-correction
 -----------------------------------------------------------------------------------------------
   0.401E+03 0.976E+03 0.414E+03   -.399E+03 -.973E+03 -.413E+03   -.149E+01 -.182E+01 -.230E+00   0.380E-02 0.442E-02 -.740E-02
   -.839E+03 -.418E+03 0.234E+03   0.841E+03 0.415E+03 -.238E+03   -.140E+01 0.149E+01 0.310E+01   -.275E-02 -.101E-03 -.377E-03
   -.383E+03 0.983E+03 0.411E+03   0.381E+03 -.981E+03 -.411E+03   0.148E+01 -.183E+01 -.217E+00   -.249E-02 0.427E-02 -.664E-02
   0.976E+03 -.394E+03 0.414E+03   -.973E+03 0.392E+03 -.413E+03   -.183E+01 0.150E+01 -.193E+00   0.365E-03 -.212E-03 -.130E-02
   0.150E+02 0.597E+03 0.964E+03   -.149E+02 -.596E+03 -.960E+03   -.251E-01 -.330E+00 -.234E+01   -.359E-04 -.758E-04 0.499E-03
   0.397E+01 0.589E+03 -.968E+03   -.392E+01 -.588E+03 0.965E+03   -.286E-01 -.299E+00 0.236E+01   0.677E-03 -.307E-02 0.373E-02
   0.520E+01 0.114E+04 -.367E+01   -.521E+01 -.113E+04 0.370E+01   0.538E-02 -.311E+01 -.161E-01   0.552E-03 0.289E-03 -.519E-02
   0.113E+04 0.730E+00 -.228E+01   -.113E+04 -.733E+00 0.228E+01   -.310E+01 0.146E-02 -.244E-04   -.120E-02 0.165E-02 -.493E-02
   -.113E+04 0.178E+02 -.577E+02   0.113E+04 -.178E+02 0.579E+02   0.312E+01 0.249E-01 -.125E+00   -.151E-02 0.290E-03 -.311E-03
   0.906E+01 -.114E+04 -.632E+01   -.907E+01 0.113E+04 0.635E+01   0.123E-01 0.310E+01 -.130E-01   0.598E-03 -.613E-03 -.276E-02
   -.554E+03 0.610E+03 0.813E+03   0.552E+03 -.608E+03 -.810E+03   0.162E+01 -.153E+01 -.220E+01   -.756E-02 -.898E-03 0.610E-03
   -.574E+03 0.582E+03 -.819E+03   0.572E+03 -.580E+03 0.816E+03   0.158E+01 -.154E+01 0.219E+01   0.744E-03 -.339E-02 0.773E-03
   0.588E+03 -.580E+03 0.812E+03   -.585E+03 0.577E+03 -.808E+03   -.153E+01 0.156E+01 -.219E+01   -.151E-03 -.258E-02 0.999E-05
   0.581E+03 -.578E+03 -.815E+03   -.579E+03 0.576E+03 0.812E+03   -.156E+01 0.155E+01 0.219E+01   -.261E-03 0.171E-02 0.196E-02
   0.585E+03 0.582E+03 0.812E+03   -.583E+03 -.579E+03 -.808E+03   -.154E+01 -.156E+01 -.220E+01   0.649E-02 -.194E-03 -.100E-02
   0.580E+03 0.579E+03 -.814E+03   -.578E+03 -.577E+03 0.811E+03   -.155E+01 -.156E+01 0.219E+01   0.339E-03 -.375E-02 0.323E-02
   -.499E+03 -.623E+03 0.816E+03   0.497E+03 0.621E+03 -.813E+03   0.163E+01 0.136E+01 -.203E+01   -.203E-02 -.175E-02 0.603E-03
   -.573E+03 -.580E+03 -.822E+03   0.571E+03 0.578E+03 0.819E+03   0.157E+01 0.155E+01 0.219E+01   0.846E-03 0.204E-02 -.280E-03
   0.398E+03 0.974E+03 -.419E+03   -.396E+03 -.971E+03 0.419E+03   -.153E+01 -.181E+01 0.226E+00   -.912E-04 -.284E-02 -.553E-03
   -.964E+03 -.394E+03 -.440E+03   0.961E+03 0.392E+03 0.440E+03   0.183E+01 0.151E+01 0.269E+00   0.336E-02 0.122E-03 -.515E-02
   -.293E+03 0.338E+03 0.441E+03   0.293E+03 -.339E+03 -.441E+03   -.376E+00 0.349E+00 0.546E+00   -.269E-02 -.349E-02 -.645E-02
   0.975E+03 0.396E+03 0.414E+03   -.972E+03 -.393E+03 -.414E+03   -.182E+01 -.151E+01 -.193E+00   0.275E-02 0.113E-02 -.337E-02
   -.370E+03 -.987E+03 0.406E+03   0.368E+03 0.984E+03 -.406E+03   0.150E+01 0.187E+01 -.230E+00   0.169E-02 -.412E-02 -.347E-02
   -.389E+03 0.976E+03 -.422E+03   0.386E+03 -.973E+03 0.422E+03   0.153E+01 -.181E+01 0.193E+00   0.726E-03 -.127E-02 -.725E-03
   0.973E+03 -.394E+03 -.419E+03   -.970E+03 0.391E+03 0.418E+03   -.182E+01 0.151E+01 0.224E+00   -.132E-02 0.264E-02 -.308E-02
   -.936E+03 0.460E+03 0.370E+03   0.933E+03 -.459E+03 -.370E+03   0.179E+01 -.116E+01 -.299E+00   -.388E-02 -.835E-03 -.146E-02
   0.406E+03 -.976E+03 0.412E+03   -.404E+03 0.973E+03 -.412E+03   -.150E+01 0.181E+01 -.225E+00   -.715E-03 -.380E-02 -.343E-02
   0.333E+03 0.326E+03 0.449E+03   -.334E+03 -.326E+03 -.450E+03   0.384E+00 0.376E+00 0.519E+00   0.318E-02 -.368E-02 -.826E-02
   0.981E+01 0.645E+03 -.683E+01   -.984E+01 -.646E+03 0.687E+01   0.252E-01 0.747E+00 -.184E-01   0.148E-02 -.175E-02 -.101E-01
   -.481E+03 0.464E+02 0.973E+03   0.480E+03 -.465E+02 -.970E+03   0.415E+00 0.214E+00 -.191E+01   -.358E-02 -.207E-02 0.810E-03
   -.581E+03 0.185E+01 -.974E+03   0.581E+03 -.185E+01 0.971E+03   0.317E+00 -.326E-02 0.234E+01   0.255E-02 -.173E-02 -.998E-03
   0.595E+03 0.168E+01 0.964E+03   -.595E+03 -.167E+01 -.960E+03   -.257E+00 -.604E-04 -.236E+01   0.171E-02 -.239E-02 0.724E-03
   0.589E+03 0.651E+00 -.967E+03   -.588E+03 -.663E+00 0.963E+03   -.306E+00 0.820E-02 0.236E+01   -.575E-03 0.183E-02 0.328E-02
   0.765E+03 0.763E+03 -.309E+01   -.763E+03 -.761E+03 0.309E+01   -.115E+01 -.114E+01 0.643E-02   0.385E-03 -.201E-02 -.681E-02
   -.739E+03 -.773E+03 -.296E+02   0.737E+03 0.771E+03 0.295E+02   0.109E+01 0.135E+01 0.160E+00   0.168E-02 -.218E-02 -.391E-02
   -.749E+03 0.775E+03 -.149E+02   0.747E+03 -.773E+03 0.149E+02   0.112E+01 -.118E+01 0.425E-01   -.948E-06 -.319E-03 -.554E-02
   0.766E+03 -.761E+03 -.389E+01   -.764E+03 0.759E+03 0.389E+01   -.114E+01 0.114E+01 0.540E-03   -.237E-02 -.148E-02 -.439E-02
   0.277E+02 0.585E+01 0.107E+04   -.276E+02 -.586E+01 -.107E+04   -.723E-01 0.979E-03 -.164E+01   0.132E-03 -.552E-02 0.165E-02
   0.492E+01 0.111E+01 -.107E+04   -.491E+01 -.111E+01 0.107E+04   -.789E-02 -.248E-03 0.161E+01   -.121E-02 0.236E-03 0.291E-02
   0.973E+03 0.395E+03 -.419E+03   -.970E+03 -.393E+03 0.418E+03   -.183E+01 -.151E+01 0.215E+00   -.313E-02 -.851E-03 -.272E-02
   -.386E+03 -.976E+03 -.426E+03   0.384E+03 0.973E+03 0.425E+03   0.155E+01 0.179E+01 0.166E+00   0.149E-02 -.626E-03 -.545E-03
   -.312E+03 0.326E+03 -.464E+03   0.313E+03 -.326E+03 0.464E+03   -.344E+00 0.389E+00 -.563E+00   0.268E-02 -.239E-02 -.307E-02
   0.336E+03 -.321E+03 0.448E+03   -.337E+03 0.322E+03 -.449E+03   0.388E+00 -.382E+00 0.528E+00   -.339E-03 -.207E-02 -.346E-02
   0.327E+03 0.323E+03 -.458E+03   -.327E+03 -.323E+03 0.459E+03   0.380E+00 0.347E+00 -.517E+00   0.656E-03 -.190E-02 -.158E-02
   -.966E+03 0.402E+03 -.435E+03   0.963E+03 -.400E+03 0.434E+03   0.181E+01 -.152E+01 0.253E+00   0.281E-02 -.964E-03 -.366E-02
   0.400E+03 -.973E+03 -.421E+03   -.397E+03 0.970E+03 0.420E+03   -.152E+01 0.180E+01 0.204E+00   -.211E-02 -.178E-02 0.102E-02
   -.277E+03 -.323E+03 0.434E+03   0.277E+03 0.324E+03 -.435E+03   -.313E+00 -.387E+00 0.405E+00   0.244E-03 -.208E-02 -.266E-02
   0.645E+03 0.127E+01 -.401E+01   -.646E+03 -.128E+01 0.404E+01   0.728E+00 -.451E-03 -.222E-01   -.160E-02 0.201E-02 -.808E-02
   -.614E+03 0.103E+02 -.329E+02   0.615E+03 -.101E+02 0.329E+02   -.807E+00 -.148E+00 0.934E-01   0.952E-03 0.290E-03 -.514E-02
   0.255E+02 -.594E+03 0.964E+03   -.254E+02 0.593E+03 -.961E+03   -.425E-01 0.317E+00 -.237E+01   0.844E-03 -.258E-02 -.597E-03
   0.494E+01 -.587E+03 -.970E+03   -.493E+01 0.586E+03 0.966E+03   -.561E-02 0.282E+00 0.235E+01   -.227E-02 0.798E-03 0.278E-02
   0.156E+02 0.335E+01 -.108E+02   -.155E+02 -.334E+01 0.107E+02   -.203E-01 -.108E-01 0.156E-01   0.182E-02 0.113E-03 -.904E-02
   0.328E+03 -.321E+03 -.459E+03   -.328E+03 0.321E+03 0.459E+03   0.374E+00 -.358E+00 -.519E+00   -.620E-03 0.301E-02 -.163E-02
   -.310E+03 -.321E+03 -.466E+03   0.311E+03 0.322E+03 0.467E+03   -.369E+00 -.362E+00 -.525E+00   0.867E-03 0.126E-02 -.470E-02
   0.147E+02 -.642E+03 -.102E+02   -.147E+02 0.643E+03 0.102E+02   -.106E-01 -.731E+00 0.216E-01   0.757E-03 -.336E-02 -.521E-02
   -.206E+03 -.299E+02 0.164E+03   0.187E+03 0.263E+02 -.150E+03   0.151E+02 0.342E+01 -.100E+02   -.659E-03 -.862E-05 -.193E-03
   -.624E+03 -.132E+03 0.431E+03   0.677E+03 0.143E+03 -.467E+03   -.498E+02 -.107E+02 0.333E+02   -.102E-02 -.787E-04 -.456E-04
 -----------------------------------------------------------------------------------------------
   0.377E+02 0.697E+01 -.270E+02   0.000E+00 -.512E-12 -.108E-11   -.377E+02 -.693E+01 0.271E+02   0.992E-03 -.467E-01 -.126E+00
 
 
 POSITION                                       TOTAL-FORCE (eV/Angst)
 -----------------------------------------------------------------------------------
     13.37281      9.84801     12.50759         0.702339      1.108680      0.292858
     20.15199     16.62719     12.50759        -0.069423     -0.951497     -1.281942
     16.62719      9.84801     12.50759        -0.698795      1.111830      0.284714
      9.84801     16.62719     12.50759         1.118166     -0.706995      0.279456
     15.00000     11.47521     10.20639         0.008833      0.413334      1.278883
     15.00000     11.47521     19.79360         0.016126      0.410306     -1.287751
     15.00000      8.28283     15.00000        -0.000967      1.522167      0.009077
      8.28283     15.00000     15.00000         1.521191      0.000228     -0.005099
     21.71717     15.00000     15.00000        -1.535683     -0.016553      0.054576
     15.00000     21.71717     15.00000        -0.005477     -1.520942      0.007849
     18.35858     11.64142     10.25025        -0.779340      0.765174      1.089097
     18.35858     11.64142     19.74975        -0.772021      0.751438     -1.075254
     11.64142     18.35858     10.25025         0.744148     -0.768107      1.079727
     11.64142     18.35858     19.74975         0.764799     -0.752276     -1.075864
     11.64142     11.64142     10.25025         0.751571      0.764857      1.077546
     11.64142     11.64142     19.74975         0.757131      0.756316     -1.073138
     18.35858     18.35858     10.25025        -0.787095     -0.726294      1.052449
     18.35858     18.35858     19.74975        -0.766494     -0.755114     -1.071436
     13.37281      9.84801     17.49241         0.718280      1.106704     -0.300318
     20.15199     16.62719     17.49241        -1.102041     -0.709275     -0.297857
     16.73751     13.26249     12.54279         0.094336     -0.120318     -0.151003
      9.84801     13.37281     12.50759         1.115227      0.710152      0.281196
     16.62719     20.15199     12.50759        -0.715087     -1.099786      0.284212
     16.62719      9.84801     17.49241        -0.715053      1.106478     -0.280089
      9.84801     16.62719     17.49241         1.107593     -0.708868     -0.289389
     20.15199     13.37281     12.50759        -1.116670      0.580251      0.330270
     13.37281     20.15199     12.50759         0.711994     -1.109447      0.289254
     13.26249     13.26249     12.54279        -0.111983     -0.110237     -0.160715
     15.00000     11.52498     15.00000        -0.003661     -0.235353      0.009449
     18.52479     15.00000     10.20639        -0.230675      0.040282      1.208984
     18.52479     15.00000     19.79360        -0.413204      0.001873     -1.283170
     11.47521     15.00000     10.20640         0.392854      0.000813      1.294127
     11.47521     15.00000     19.79360         0.410095     -0.001801     -1.286394
     11.49535     11.49535     15.00000         0.825662      0.826910     -0.000902
     18.50465     18.50465     15.00000        -0.815397     -0.886896     -0.019509
     18.50465     11.49535     15.00000        -0.817716      0.835606     -0.022017
     11.49535     18.50465     15.00000         0.824948     -0.825306      0.000822
     15.00000     15.00000     10.04368         0.018626     -0.014702      1.176252
     15.00000     15.00000     19.95633         0.000280      0.002310     -1.174329
      9.84801     13.37281     17.49241         1.109275      0.709235     -0.288290
     16.62719     20.15199     17.49241        -0.741746     -1.104103     -0.261028
     16.73751     13.26249     17.45721         0.100389     -0.132979      0.177643
     13.26249     16.73751     12.54279        -0.132462      0.107662     -0.160267
     13.26249     13.26249     17.45721        -0.116493     -0.104731      0.154833
     20.15199     13.37281     17.49241        -1.098267      0.713777     -0.299253
     13.37281     20.15199     17.49241         0.718241     -1.110486     -0.288364
     16.73751     16.73751     12.54279         0.038358      0.122127     -0.110071
     11.52498     15.00000     15.00000        -0.230279     -0.000915      0.003245
     18.47502     15.00000     15.00000         0.217596      0.036008      0.016980
     15.00000     18.52480     10.20639         0.005003     -0.399239      1.282910
     15.00000     18.52480     19.79360         0.002620     -0.404472     -1.291389
     15.00000     15.00000     15.00000         0.016489     -0.001896     -0.014282
     13.26249     16.73751     17.45721        -0.110979      0.113338      0.158228
     16.73751     16.73751     17.45721         0.121371      0.115817      0.150269
     15.00000     18.47502     15.00000         0.006729      0.230411     -0.002919
     21.25460     16.30271     10.75854        -4.359089     -0.174921      4.029363
     22.17462     16.49434     10.13464         3.305826      0.489425     -2.502231
 -----------------------------------------------------------------------------------
    total drift:                                0.005482     -0.004939      0.007088


--------------------------------------------------------------------------------------------------------



  FREE ENERGIE OF THE ION-ELECTRON SYSTEM (eV)
  ---------------------------------------------------
  free  energy   TOTEN  =      -174.77858127 eV

  energy  without entropy=     -174.65207152  energy(sigma->0) =     -174.74695383
 


--------------------------------------------------------------------------------------------------------


    POTLOK:  cpu time   14.1235: real time   14.1289


--------------------------------------------------------------------------------------------------------


     LOOP+:  cpu time18866.5737: real time18866.8434
    4ORBIT:  cpu time    0.0000: real time    0.0000

 total amount of memory used by VASP MPI-rank0  5486941. kBytes
=======================================================================

   base      :      30000. kBytes
   nonlr-proj:      17126. kBytes
   fftplans  :     924480. kBytes
   grid      :    1872000. kBytes
   one-center:        886. kBytes
   wavefun   :    2642449. kBytes
 
  
  
 General timing and accounting informations for this job:
 ========================================================
  
                  Total CPU time used (sec):    18941.529
                            User time (sec):    17894.448
                          System time (sec):     1047.082
                         Elapsed time (sec):    18941.835
  
                   Maximum memory used (kb):     7179260.
                   Average memory used (kb):           0.
  
                          Minor page faults:    811750638
                          Major page faults:            0
                 Voluntary context switches:          416
