 vasp.5.4.4.18Apr17-6-g9f103f2a35 (build Sep 03 2018 23:53:05) complex          
  
 executed on             LinuxIFC date 2021.11.26  19:50:08
 running on    1 total cores
 distrk:  each k-point on    1 cores,    1 groups
 distr:  one band on NCORES_PER_BAND=   1 cores,    1 groups


--------------------------------------------------------------------------------------------------------


 INCAR:
 POTCAR:    PAW_PBE Pd 04Jan2005                  
 POTCAR:    PAW_PBE C 08Apr2002                   
 POTCAR:    PAW_PBE O 08Apr2002                   
 POTCAR:    PAW_PBE Pd 04Jan2005                  
   VRHFIN =Pd : s1 d9                                                           
   LEXCH  = PE                                                                  
   EATOM  =   809.7530 eV,   59.5152 Ry                                         
                                                                                
   TITEL  = PAW_PBE Pd 04Jan2005                                                
   LULTRA =        F    use ultrasoft PP ?                                      
   IUNSCR =        1    unscreen: 0-lin 1-nonlin 2-no                           
   RPACOR =    2.000    partial core radius                                     
   POMASS =  106.420; ZVAL   =   10.000    mass and valenz                      
   RCORE  =    2.600    outmost cutoff radius                                   
   RWIGS  =    2.710; RWIGS  =    1.434    wigner-seitz radius (au A)           
   ENMAX  =  250.925; ENMIN  =  188.194 eV                                      
   ICORE  =        3    local potential                                         
   LCOR   =        T    correct aug charges                                     
   LPAW   =        T    paw PP                                                  
   EAUG   =  416.230                                                            
   DEXC   =    0.000                                                            
   RMAX   =    2.653    core radius for proj-oper                               
   RAUG   =    1.300    factor for augmentation sphere                          
   RDEP   =    2.734    radius for radial grids                                 
   RDEPT  =    2.103    core radius for aug-charge                              
                                                                                
   Atomic configuration                                                         
   12 entries                                                                   
     n  l   j            E        occ.                                          
     1  0  0.50    -24164.6631   2.0000                                         
     2  0  0.50     -3530.9218   2.0000                                         
     2  1  1.50     -3165.6822   6.0000                                         
     3  0  0.50      -639.4577   2.0000                                         
     3  1  1.50      -519.4532   6.0000                                         
     3  2  2.50      -328.9757  10.0000                                         
     4  0  0.50       -88.7014   2.0000                                         
     4  1  1.50       -54.4540   6.0000                                         
     4  2  2.50        -6.6878   9.0000                                         
     5  0  0.50        -4.3543   1.0000                                         
     5  1  0.50        -1.3606   0.0000                                         
     4  3  2.50        -1.3606   0.0000                                         
   Description                                                                  
     l       E           TYP  RCUT    TYP  RCUT                                 
     2     -6.6878251     23  2.400                                             
     2     -8.0484077     23  2.400                                             
     0     -4.3542939     23  2.400                                             
     0      4.3406793     23  2.400                                             
     1     -4.0817478     23  2.600                                             
     1     15.8380318     23  2.600                                             
     3     -4.0817478     23  2.400                                             
  local pseudopotential read in
  partial core-charges read in
  partial kinetic energy density read in
  atomic valenz-charges read in
  non local Contribution for L=           2  read in
    real space projection operators read in
  non local Contribution for L=           2  read in
    real space projection operators read in
  non local Contribution for L=           0  read in
    real space projection operators read in
  non local Contribution for L=           0  read in
    real space projection operators read in
  non local Contribution for L=           1  read in
    real space projection operators read in
  non local Contribution for L=           1  read in
    real space projection operators read in
    PAW grid and wavefunctions read in
 
   number of l-projection  operators is LMAX  =           6
   number of lm-projection operators is LMMAX =          18
 
 POTCAR:    PAW_PBE C 08Apr2002                   
   VRHFIN =C: s2p2                                                              
   LEXCH  = PE                                                                  
   EATOM  =   147.1560 eV,   10.8157 Ry                                         
                                                                                
   TITEL  = PAW_PBE C 08Apr2002                                                 
   LULTRA =        F    use ultrasoft PP ?                                      
   IUNSCR =        1    unscreen: 0-lin 1-nonlin 2-no                           
   RPACOR =    1.200    partial core radius                                     
   POMASS =   12.011; ZVAL   =    4.000    mass and valenz                      
   RCORE  =    1.500    outmost cutoff radius                                   
   RWIGS  =    1.630; RWIGS  =    0.863    wigner-seitz radius (au A)           
   ENMAX  =  400.000; ENMIN  =  300.000 eV                                      
   ICORE  =        2    local potential                                         
   LCOR   =        T    correct aug charges                                     
   LPAW   =        T    paw PP                                                  
   EAUG   =  644.873                                                            
   DEXC   =    0.000                                                            
   RMAX   =    1.529    core radius for proj-oper                               
   RAUG   =    1.300    factor for augmentation sphere                          
   RDEP   =    1.501    radius for radial grids                                 
   RDEPT  =    1.300    core radius for aug-charge                              
                                                                                
   Atomic configuration                                                         
    4 entries                                                                   
     n  l   j            E        occ.                                          
     1  0  0.50      -273.3789   2.0000                                         
     2  0  0.50       -13.7508   2.0000                                         
     2  1  0.50        -5.2854   2.0000                                         
     3  2  1.50        -5.4423   0.0000                                         
   Description                                                                  
     l       E           TYP  RCUT    TYP  RCUT                                 
     0    -13.7508458     23  1.200                                             
     0     -8.2022199     23  1.200                                             
     1     -5.2854383     23  1.500                                             
     1     34.0145650     23  1.500                                             
     2     -5.4423304      7  1.500                                             
  local pseudopotential read in
  partial core-charges read in
  partial kinetic energy density read in
  atomic valenz-charges read in
  non local Contribution for L=           0  read in
    real space projection operators read in
  non local Contribution for L=           0  read in
    real space projection operators read in
  non local Contribution for L=           1  read in
    real space projection operators read in
  non local Contribution for L=           1  read in
    real space projection operators read in
    PAW grid and wavefunctions read in
 
   number of l-projection  operators is LMAX  =           4
   number of lm-projection operators is LMMAX =           8
 
 POTCAR:    PAW_PBE O 08Apr2002                   
   VRHFIN =O: s2p4                                                              
   LEXCH  = PE                                                                  
   EATOM  =   432.3788 eV,   31.7789 Ry                                         
                                                                                
   TITEL  = PAW_PBE O 08Apr2002                                                 
   LULTRA =        F    use ultrasoft PP ?                                      
   IUNSCR =        1    unscreen: 0-lin 1-nonlin 2-no                           
   RPACOR =    1.200    partial core radius                                     
   POMASS =   16.000; ZVAL   =    6.000    mass and valenz                      
   RCORE  =    1.520    outmost cutoff radius                                   
   RWIGS  =    1.550; RWIGS  =    0.820    wigner-seitz radius (au A)           
   ENMAX  =  400.000; ENMIN  =  300.000 eV                                      
   ICORE  =        2    local potential                                         
   LCOR   =        T    correct aug charges                                     
   LPAW   =        T    paw PP                                                  
   EAUG   =  605.392                                                            
   DEXC   =    0.000                                                            
   RMAX   =    1.553    core radius for proj-oper                               
   RAUG   =    1.300    factor for augmentation sphere                          
   RDEP   =    1.550    radius for radial grids                                 
   RDEPT  =    1.329    core radius for aug-charge                              
                                                                                
   Atomic configuration                                                         
    4 entries                                                                   
     n  l   j            E        occ.                                          
     1  0  0.50      -514.6923   2.0000                                         
     2  0  0.50       -23.9615   2.0000                                         
     2  1  0.50        -9.0305   4.0000                                         
     3  2  1.50        -9.5241   0.0000                                         
   Description                                                                  
     l       E           TYP  RCUT    TYP  RCUT                                 
     0    -23.9615318     23  1.200                                             
     0     -9.5240782     23  1.200                                             
     1     -9.0304911     23  1.520                                             
     1      8.1634956     23  1.520                                             
     2     -9.5240782      7  1.500                                             
  local pseudopotential read in
  partial core-charges read in
  partial kinetic energy density read in
  kinetic energy density of atom read in
  atomic valenz-charges read in
  non local Contribution for L=           0  read in
    real space projection operators read in
  non local Contribution for L=           0  read in
    real space projection operators read in
  non local Contribution for L=           1  read in
    real space projection operators read in
  non local Contribution for L=           1  read in
    real space projection operators read in
    PAW grid and wavefunctions read in
 
   number of l-projection  operators is LMAX  =           4
   number of lm-projection operators is LMMAX =           8
 
 Optimization of the real space projectors (new method)

 maximal supplied QI-value         = 14.36
 optimisation between [QCUT,QGAM] = [ 10.20, 20.39] = [ 29.12,116.47] Ry 
 Optimized for a Real-space Cutoff    1.51 Angstroem

   l    n(q)    QCUT    max X(q) W(low)/X(q) W(high)/X(q)  e(spline) 
   2      8    10.197    59.108    0.26E-03    0.14E-03    0.96E-07
   2      8    10.197    58.101    0.27E-03    0.14E-03    0.98E-07
   0      9    10.197   102.235    0.54E-04    0.60E-05    0.72E-07
   0      9    10.197    58.388    0.52E-04    0.60E-05    0.68E-07
   1      9    10.197    22.191    0.18E-03    0.25E-03    0.79E-07
   1      9    10.197    15.590    0.15E-03    0.21E-03    0.69E-07
 Optimization of the real space projectors (new method)

 maximal supplied QI-value         = 25.13
 optimisation between [QCUT,QGAM] = [ 10.05, 20.36] = [ 28.30,116.06] Ry 
 Optimized for a Real-space Cutoff    1.30 Angstroem

   l    n(q)    QCUT    max X(q) W(low)/X(q) W(high)/X(q)  e(spline) 
   0      8    10.053   115.676    0.49E-03    0.72E-03    0.18E-06
   0      8    10.053    87.132    0.49E-03    0.71E-03    0.18E-06
   1      7    10.053     4.429    0.32E-03    0.31E-03    0.18E-06
   1      7    10.053     2.733    0.23E-03    0.19E-03    0.20E-06
 Optimization of the real space projectors (new method)

 maximal supplied QI-value         = 24.76
 optimisation between [QCUT,QGAM] = [ 10.15, 20.30] = [ 28.85,115.39] Ry 
 Optimized for a Real-space Cutoff    1.38 Angstroem

   l    n(q)    QCUT    max X(q) W(low)/X(q) W(high)/X(q)  e(spline) 
   0      8    10.150    20.381    0.22E-03    0.32E-03    0.29E-06
   0      8    10.150    15.268    0.23E-03    0.35E-03    0.30E-06
   1      8    10.150     5.964    0.46E-03    0.53E-03    0.21E-06
   1      8    10.150     5.382    0.38E-03    0.45E-03    0.19E-06

 ----------------------------------------------------------------------------- 
|                                                                             |
|  ADVICE TO THIS USER RUNNING 'VASP/VAMP'   (HEAR YOUR MASTER'S VOICE ...):  |
|                                                                             |
|      You enforced a specific xc-type in the INCAR file,                     |
|      a different type was found on the POTCAR file                          |
|          I HOPE YOU KNOW, WHAT YOU ARE  DOING                               |
|                                                                             |
 ----------------------------------------------------------------------------- 

  PAW_PBE Pd 04Jan2005                  :
 energy of atom  1       EATOM= -809.7530
 kinetic energy error for atom=    0.0091 (will be added to EATOM!!)
  PAW_PBE C 08Apr2002                   :
 energy of atom  2       EATOM= -147.1560
 kinetic energy error for atom=    0.0288 (will be added to EATOM!!)
  PAW_PBE O 08Apr2002                   :
 energy of atom  3       EATOM= -432.3788
 kinetic energy error for atom=    0.1156 (will be added to EATOM!!)
 
 
 POSCAR: Pd55PES                                 
  positions in cartesian coordinates
  No initial velocities read in
 exchange correlation table for  LEXCH =        9
   RHO(1)=    0.500       N(1)  =     2000
   RHO(2)=  100.500       N(2)  =     4000
 


--------------------------------------------------------------------------------------------------------


 ion  position               nearest neighbor table
   1  0.446  0.328  0.417-   3 3.25   5 3.25   7 3.36  15 3.36  29 3.42  28 3.42
   2  0.672  0.554  0.417-  26 3.25  30 3.25  17 3.36   9 3.36  47 3.42  49 3.42
   3  0.554  0.328  0.417-   1 3.25   5 3.25   7 3.36  11 3.36  29 3.42  21 3.42
   4  0.328  0.554  0.417-  32 3.25  22 3.25  13 3.36   8 3.36  43 3.42  48 3.42
   5  0.500  0.383  0.340-   1 3.25   3 3.25  11 3.36  15 3.36  21 3.42  28 3.42
   6  0.500  0.383  0.660-  24 3.25  19 3.25  16 3.36  12 3.36  42 3.42  44 3.42
   7  0.500  0.276  0.500-  29 3.24   3 3.36   1 3.36  19 3.36  24 3.36
   8  0.276  0.500  0.500-  48 3.24  22 3.36  40 3.36   4 3.36  25 3.36
   9  0.724  0.500  0.500-  49 3.24  26 3.36  45 3.36   2 3.36  20 3.36
  10  0.500  0.724  0.500-  55 3.24  27 3.36  23 3.36  46 3.36  41 3.36
  11  0.612  0.388  0.342-  21 3.24   5 3.36   3 3.36  30 3.36  26 3.36
  12  0.612  0.388  0.658-  42 3.24  24 3.36  45 3.36   6 3.36  31 3.36
  13  0.388  0.612  0.342-  43 3.24  32 3.36  50 3.36   4 3.36  27 3.36
  14  0.388  0.612  0.658-  53 3.24  25 3.36  33 3.36  51 3.36  46 3.36
  15  0.388  0.388  0.342-  28 3.24   5 3.36   1 3.36  32 3.36  22 3.36
  16  0.388  0.388  0.658-  44 3.24  19 3.36  40 3.36   6 3.36  33 3.36
  17  0.612  0.612  0.342-  47 3.24  30 3.36  50 3.36   2 3.36  23 3.36
  18  0.612  0.612  0.658-  54 3.24  31 3.36  20 3.36  51 3.36  41 3.36
  19  0.446  0.328  0.583-   6 3.25  24 3.25  16 3.36   7 3.36  44 3.42  29 3.42
  20  0.672  0.554  0.583-  31 3.25  45 3.25  18 3.36   9 3.36  54 3.42  49 3.42
  21  0.558  0.442  0.418-  11 3.24   5 3.42   3 3.42  30 3.42  26 3.42
  22  0.328  0.446  0.417-   4 3.25  32 3.25   8 3.36  15 3.36  48 3.42  28 3.42
  23  0.554  0.672  0.417-  27 3.25  50 3.25  10 3.36  17 3.36  55 3.42  47 3.42
  24  0.554  0.328  0.583-   6 3.25  19 3.25  12 3.36   7 3.36  42 3.42  29 3.42
  25  0.328  0.554  0.583-  33 3.25  40 3.25  14 3.36   8 3.36  53 3.42  48 3.42
  26  0.672  0.446  0.417-   2 3.25  30 3.25   9 3.36  11 3.36  49 3.42  21 3.42
  27  0.446  0.672  0.417-  23 3.25  50 3.25  10 3.36  13 3.36  55 3.42  43 3.42
  28  0.442  0.442  0.418-  15 3.24   5 3.42   1 3.42  32 3.42  22 3.42
  29  0.500  0.384  0.500-   7 3.24   3 3.42   1 3.42  24 3.42  19 3.42
  30  0.617  0.500  0.340-   2 3.25  26 3.25  17 3.36  11 3.36  47 3.42  21 3.42
  31  0.617  0.500  0.660-  20 3.25  45 3.25  18 3.36  12 3.36  54 3.42  42 3.42
  32  0.383  0.500  0.340-   4 3.25  22 3.25  13 3.36  15 3.36  43 3.42  28 3.42
  33  0.383  0.500  0.660-  25 3.25  40 3.25  14 3.36  16 3.36  53 3.42  44 3.42
  34  0.383  0.383  0.500-
  35  0.617  0.617  0.500-
  36  0.617  0.383  0.500-  56 1.67
  37  0.383  0.617  0.500-
  38  0.500  0.500  0.335-
  39  0.500  0.500  0.665-
  40  0.328  0.446  0.583-  33 3.25  25 3.25  16 3.36   8 3.36  44 3.42  48 3.42
  41  0.554  0.672  0.583-  46 3.25  51 3.25  10 3.36  18 3.36  54 3.42  55 3.42
  42  0.558  0.442  0.582-  12 3.24   6 3.42  24 3.42  31 3.42  45 3.42
  43  0.442  0.558  0.418-  13 3.24   4 3.42  32 3.42  27 3.42  50 3.42
  44  0.442  0.442  0.582-  16 3.24   6 3.42  19 3.42  33 3.42  40 3.42
  45  0.672  0.446  0.583-  20 3.25  31 3.25   9 3.36  12 3.36  49 3.42  42 3.42
  46  0.446  0.672  0.583-  41 3.25  51 3.25  10 3.36  14 3.36  53 3.42  55 3.42
  47  0.558  0.558  0.418-  17 3.24   2 3.42  30 3.42  23 3.42  50 3.42
  48  0.384  0.500  0.500-   8 3.24   4 3.42  22 3.42  25 3.42  40 3.42
  49  0.616  0.500  0.500-   9 3.24   2 3.42  26 3.42  20 3.42  45 3.42
  50  0.500  0.617  0.340-  27 3.25  23 3.25  13 3.36  17 3.36  43 3.42  47 3.42
  51  0.500  0.617  0.660-  41 3.25  46 3.25  14 3.36  18 3.36  53 3.42  54 3.42
  52  0.500  0.500  0.500-
  53  0.442  0.558  0.582-  14 3.24  25 3.42  33 3.42  51 3.42  46 3.42
  54  0.558  0.558  0.582-  18 3.24  31 3.42  20 3.42  51 3.42  41 3.42
  55  0.500  0.616  0.500-  10 3.24  23 3.42  27 3.42  41 3.42  46 3.42
  56  0.644  0.341  0.476-  57 1.13  36 1.67
  57  0.669  0.313  0.472-  56 1.13
 
  LATTYP: Found a simple cubic cell.
 ALAT       =    30.0000000000
  
  Lattice vectors:
  
 A1 = (  30.0000000000,   0.0000000000,   0.0000000000)
 A2 = (   0.0000000000,  30.0000000000,   0.0000000000)
 A3 = (   0.0000000000,   0.0000000000,  30.0000000000)


Analysis of symmetry for initial positions (statically):
=====================================================================
 Subroutine PRICEL returns:
 Original cell was already a primitive cell.
 

 Routine SETGRP: Setting up the symmetry group for a 
 simple cubic supercell.


 Subroutine GETGRP returns: Found  1 space group operations
 (whereof  1 operations were pure point group operations)
 out of a pool of 48 trial point group operations.


The static configuration has the point symmetry C_1 .


Analysis of symmetry for dynamics (positions and initial velocities):
=====================================================================
 Subroutine PRICEL returns:
 Original cell was already a primitive cell.
 

 Routine SETGRP: Setting up the symmetry group for a 
 simple cubic supercell.


 Subroutine GETGRP returns: Found  1 space group operations
 (whereof  1 operations were pure point group operations)
 out of a pool of 48 trial point group operations.


The dynamic configuration has the point symmetry C_1 .


Analysis of constrained symmetry for selective dynamics:
=====================================================================
 Subroutine PRICEL returns:
 Original cell was already a primitive cell.
 

 Routine SETGRP: Setting up the symmetry group for a 
 simple cubic supercell.


 Subroutine GETGRP returns: Found  1 space group operations
 (whereof  1 operations were pure point group operations)
 out of a pool of 48 trial point group operations.


The constrained configuration has the point symmetry C_1 .


 Subroutine INISYM returns: Found  1 space group operations
 (whereof  1 operations are pure point group operations),
 and found     1 'primitive' translations

 
 
 KPOINTS: K-points                                

Automatic generation of k-mesh.
Space group operators:
 irot       det(A)        alpha          n_x          n_y          n_z        tau_x        tau_y        tau_z
    1     1.000000     0.000000     1.000000     0.000000     0.000000     0.000000     0.000000     0.000000
 
 Subroutine IBZKPT returns following result:
 ===========================================
 
 Found      1 irreducible k-points:
 
 Following reciprocal coordinates:
            Coordinates               Weight
  0.000000  0.000000  0.000000      1.000000
 
 Following cartesian coordinates:
            Coordinates               Weight
  0.000000  0.000000  0.000000      1.000000
 


--------------------------------------------------------------------------------------------------------




 Dimension of arrays:
   k-points           NKPTS =      1   k-points in BZ     NKDIM =      1   number of bands    NBANDS=    336
   number of dos      NEDOS =    301   number of ions     NIONS =     57
   non local maximal  LDIM  =      6   non local SUM 2l+1 LMDIM =     18
   total plane-waves  NPLWV = ******
   max r-space proj   IRMAX =   1847   max aug-charges    IRDMAX=   6262
   dimension x,y,z NGX =   150 NGY =  150 NGZ =  150
   dimension x,y,z NGXF=   300 NGYF=  300 NGZF=  300
   support grid    NGXF=   300 NGYF=  300 NGZF=  300
   ions per type =              55   1   1
   NGX,Y,Z   is equivalent  to a cutoff of   8.31,  8.31,  8.31 a.u.
   NGXF,Y,Z  is equivalent  to a cutoff of  16.62, 16.62, 16.62 a.u.

 SYSTEM =  6_Pd100_top_free_z(O)                   
 POSCAR =  Pd55PES                                 

 Startparameter for this run:
   NWRITE =      2    write-flag & timer
   PREC   = normal    normal or accurate (medium, high low for compatibility)
   ISTART =      0    job   : 0-new  1-cont  2-samecut
   ICHARG =      2    charge: 1-file 2-atom 10-const
   ISPIN  =      1    spin polarized calculation?
   LNONCOLLINEAR =      F non collinear calculations
   LSORBIT =      F    spin-orbit coupling
   INIWAV =      1    electr: 0-lowe 1-rand  2-diag
   LASPH  =      F    aspherical Exc in radial PAW
   METAGGA=      F    non-selfconsistent MetaGGA calc.

 Electronic Relaxation 1
   ENCUT  =  400.0 eV  29.40 Ry    5.42 a.u.  48.92 48.92 48.92*2*pi/ulx,y,z
   ENINI  =  400.0     initial cutoff
   ENAUG  =  644.9 eV  augmentation charge cutoff
   NELM   =    100;   NELMIN=  6; NELMDL= -5     # of ELM steps 
   EDIFF  = 0.1E-03   stopping-criterion for ELM
   LREAL  =      T    real-space projection
   NLSPLINE    = F    spline interpolate recip. space projectors
   LCOMPAT=      F    compatible to vasp.4.4
   GGA_COMPAT  = T    GGA compatible to vasp.4.4-vasp.4.6
   LMAXPAW     = -100 max onsite density
   LMAXMIX     =    2 max onsite mixed and CHGCAR
   VOSKOWN=      0    Vosko Wilk Nusair interpolation
   ROPT   =   -0.00050  -0.00050  -0.00050
 Ionic relaxation
   EDIFFG = -.5E-01   stopping-criterion for IOM
   NSW    =      0    number of steps for IOM
   NBLOCK =      1;   KBLOCK =      1    inner block; outer block 
   IBRION =     -1    ionic relax: 0-MD 1-quasi-New 2-CG
   NFREE  =      1    steps in history (QN), initial steepest desc. (CG)
   ISIF   =      2    stress and relaxation
   IWAVPR =     10    prediction:  0-non 1-charg 2-wave 3-comb
   ISYM   =      2    0-nonsym 1-usesym 2-fastsym
   LCORR  =      T    Harris-Foulkes like correction to forces

   POTIM  = 0.5000    time-step for ionic-motion
   TEIN   =    0.0    initial temperature
   TEBEG  =    0.0;   TEEND  =   0.0 temperature during run
   SMASS  =  -3.00    Nose mass-parameter (am)
   estimated Nose-frequenzy (Omega)   =  0.10E-29 period in steps =****** mass=  -0.206E-25a.u.
   SCALEE = 1.0000    scale energy and forces
   NPACO  =    256;   APACO  = 16.0  distance and # of slots for P.C.
   PSTRESS=    0.0 pullay stress

  Mass of Ions in am
   POMASS = 106.42 12.01 16.00
  Ionic Valenz
   ZVAL   =  10.00  4.00  6.00
  Atomic Wigner-Seitz radii
   RWIGS  =  -1.00 -1.00 -1.00
  virtual crystal weights 
   VCA    =   1.00  1.00  1.00
   NELECT =     560.0000    total number of electrons
   NUPDOWN=      -1.0000    fix difference up-down

 DOS related values:
   EMIN   =  10.00;   EMAX   =-10.00  energy-range for DOS
   EFERMI =   0.00
   ISMEAR =     2;   SIGMA  =   0.20  broadening in eV -4-tet -1-fermi 0-gaus

 Electronic relaxation 2 (details)
   IALGO  =     68    algorithm
   LDIAG  =      T    sub-space diagonalisation (order eigenvalues)
   LSUBROT=      F    optimize rotation matrix (better conditioning)
   TURBO    =      0    0=normal 1=particle mesh
   IRESTART =      0    0=no restart 2=restart with 2 vectors
   NREBOOT  =      0    no. of reboots
   NMIN     =      0    reboot dimension
   EREF     =   0.00    reference energy to select bands
   IMIX   =      4    mixing-type and parameters
     AMIX     =   0.40;   BMIX     =  1.00
     AMIX_MAG =   1.60;   BMIX_MAG =  1.00
     AMIN     =   0.10
     WC   =   100.;   INIMIX=   1;  MIXPRE=   1;  MAXMIX= -45

 Intra band minimization:
   WEIMIN = 0.0000     energy-eigenvalue tresh-hold
   EBREAK =  0.74E-07  absolut break condition
   DEPER  =   0.30     relativ break condition  

   TIME   =   0.40     timestep for ELM

  volume/ion in A,a.u.               =     473.68      3196.58
  Fermi-wavevector in a.u.,A,eV,Ry     =   0.449797  0.849992  2.752691  0.202317
  Thomas-Fermi vector in A             =   1.430086
 
 Write flags
   LWAVE        =      F    write WAVECAR
   LDOWNSAMPLE  =      F    k-point downsampling of WAVECAR
   LCHARG       =      F    write CHGCAR
   LVTOT        =      F    write LOCPOT, total local potential
   LVHAR        =      F    write LOCPOT, Hartree potential only
   LELF         =      F    write electronic localiz. function (ELF)
   LORBIT       =      0    0 simple, 1 ext, 2 COOP (PROOUT), +10 PAW based schemes


 Dipole corrections
   LMONO  =      F    monopole corrections only (constant potential shift)
   LDIPOL =      F    correct potential (dipole corrections)
   IDIPOL =      0    1-x, 2-y, 3-z, 4-all directions 
   EPSILON=  1.0000000 bulk dielectric constant

 Exchange correlation treatment:
   GGA     =    RP    GGA type
   LEXCH   =     9    internal setting for exchange type
   VOSKOWN=      0    Vosko Wilk Nusair interpolation
   LHFCALC =     F    Hartree Fock is set to
   LHFONE  =     F    Hartree Fock one center treatment
   AEXX    =    0.0000 exact exchange contribution

 Linear response parameters
   LEPSILON=     F    determine dielectric tensor
   LRPA    =     F    only Hartree local field effects (RPA)
   LNABLA  =     F    use nabla operator in PAW spheres
   LVEL    =     F    velocity operator in full k-point grid
   LINTERFAST=   F  fast interpolation
   KINTER  =     0    interpolate to denser k-point grid
   CSHIFT  =0.1000    complex shift for real part using Kramers Kronig
   OMEGAMAX=  -1.0    maximum frequency
   DEG_THRESHOLD= 0.2000000E-02 threshold for treating states as degnerate
   RTIME   =   -0.100 relaxation time in fs
  (WPLASMAI=    0.000 imaginary part of plasma frequency in eV, 0.658/RTIME)
   DFIELD  = 0.0000000 0.0000000 0.0000000 field for delta impulse in time
 
 Orbital magnetization related:
   ORBITALMAG=     F  switch on orbital magnetization
   LCHIMAG   =     F  perturbation theory with respect to B field
   DQ        =  0.001000  dq finite difference perturbation B field
   LLRAUG    =     F  two centre corrections for induced B field



--------------------------------------------------------------------------------------------------------


 Static calculation
 charge density and potential will be updated during run
 non-spin polarized calculation
 RMM-DIIS sequential band-by-band and
  variant of blocked Davidson during initial phase
 perform sub-space diagonalisation
    before iterative eigenvector-optimisation
 modified Broyden-mixing scheme, WC =      100.0
 initial mixing is a Kerker type mixing with AMIX =  0.4000 and BMIX =      1.0000
 Hartree-type preconditioning will be used
 using additional bands           56
 real space projection scheme for non local part
 use partial core corrections
 calculate Harris-corrections to forces 
   (improved forces if not selfconsistent)
 use gradient corrections 
 use of overlap-Matrix (Vanderbilt PP)
 Methfessel and Paxton  Order N= 2 SIGMA  =   0.20


--------------------------------------------------------------------------------------------------------


  energy-cutoff  :      400.00
  volume of cell :    27000.00
      direct lattice vectors                 reciprocal lattice vectors
    30.000000000  0.000000000  0.000000000     0.033333333  0.000000000  0.000000000
     0.000000000 30.000000000  0.000000000     0.000000000  0.033333333  0.000000000
     0.000000000  0.000000000 30.000000000     0.000000000  0.000000000  0.033333333

  length of vectors
    30.000000000 30.000000000 30.000000000     0.033333333  0.033333333  0.033333333


 
 k-points in units of 2pi/SCALE and weight: K-points                                
   0.00000000  0.00000000  0.00000000       1.000
 
 k-points in reciprocal lattice and weights: K-points                                
   0.00000000  0.00000000  0.00000000       1.000
 
 position of ions in fractional coordinates (direct lattice) 
   0.44576020  0.32826710  0.41691983
   0.67173288  0.55423978  0.41691983
   0.55423980  0.32826710  0.41691983
   0.32826712  0.55423978  0.41691983
   0.50000000  0.38250690  0.34021317
   0.50000000  0.38250690  0.65978680
   0.50000000  0.27609440  0.50000000
   0.27609443  0.49999998  0.50000000
   0.72390557  0.49999998  0.50000000
   0.50000000  0.72390555  0.50000000
   0.61195280  0.38804720  0.34167483
   0.61195280  0.38804720  0.65832513
   0.38804722  0.61195278  0.34167483
   0.38804722  0.61195278  0.65832513
   0.38804720  0.38804720  0.34167483
   0.38804720  0.38804720  0.65832513
   0.61195278  0.61195278  0.34167483
   0.61195278  0.61195278  0.65832513
   0.44576020  0.32826710  0.58308023
   0.67173288  0.55423978  0.58308023
   0.55791699  0.44208301  0.41809300
   0.32826705  0.44576024  0.41691983
   0.55423973  0.67173293  0.41691983
   0.55423980  0.32826710  0.58308023
   0.32826712  0.55423978  0.58308023
   0.67173295  0.44576024  0.41691983
   0.44576027  0.67173293  0.41691983
   0.44208301  0.44208301  0.41809300
   0.50000000  0.38416601  0.50000000
   0.61749315  0.50000005  0.34021317
   0.61749315  0.50000005  0.65978680
   0.38250685  0.50000005  0.34021317
   0.38250685  0.50000005  0.65978680
   0.38317830  0.38317830  0.50000000
   0.61682172  0.61682172  0.50000000
   0.61682170  0.38317830  0.50000000
   0.38317828  0.61682172  0.50000000
   0.50000000  0.50000000  0.33478917
   0.50000000  0.50000000  0.66521087
   0.32826705  0.44576024  0.58308023
   0.55423973  0.67173293  0.58308023
   0.55791699  0.44208301  0.58190703
   0.44208298  0.55791702  0.41809300
   0.44208301  0.44208301  0.58190703
   0.67173295  0.44576024  0.58308023
   0.44576027  0.67173293  0.58308023
   0.55791702  0.55791702  0.41809300
   0.38416599  0.50000002  0.50000000
   0.61583401  0.50000002  0.50000000
   0.50000000  0.61749319  0.34021317
   0.50000000  0.61749319  0.65978680
   0.50000000  0.50000000  0.50000000
   0.44208298  0.55791702  0.58190703
   0.55791702  0.55791702  0.58190703
   0.50000000  0.61583404  0.50000000
   0.64410453  0.34096430  0.47636330
   0.66919987  0.31326877  0.47224707
 
 position of ions in cartesian coordinates  (Angst):
  13.37280588  9.84801292 12.50759500
  20.15198637 16.62719342 12.50759500
  16.62719412  9.84801292 12.50759500
   9.84801363 16.62719342 12.50759500
  15.00000000 11.47520705 10.20639500
  15.00000000 11.47520705 19.79360400
  15.00000000  8.28283206 15.00000000
   8.28283277 14.99999929 15.00000000
  21.71716723 14.99999929 15.00000000
  15.00000000 21.71716652 14.99999999
  18.35858397 11.64141603 10.25024500
  18.35858397 11.64141603 19.74975399
  11.64141674 18.35858326 10.25024500
  11.64141674 18.35858326 19.74975400
  11.64141603 11.64141603 10.25024500
  11.64141603 11.64141603 19.74975400
  18.35858326 18.35858326 10.25024500
  18.35858326 18.35858326 19.74975400
  13.37280588  9.84801291 17.49240700
  20.15198638 16.62719341 17.49240700
  16.73750985 13.26249015 12.54279000
   9.84801151 13.37280729 12.50759500
  16.62719200 20.15198779 12.50759500
  16.62719412  9.84801292 17.49240700
   9.84801363 16.62719342 17.49240700
  20.15198849 13.37280729 12.50759500
  13.37280800 20.15198779 12.50759500
  13.26249015 13.26249015 12.54279000
  15.00000000 11.52498029 15.00000000
  18.52479437 15.00000140 10.20639500
  18.52479437 15.00000141 19.79360400
  11.47520562 15.00000141 10.20639501
  11.47520563 15.00000141 19.79360400
  11.49534898 11.49534898 15.00000000
  18.50465172 18.50465172 15.00000000
  18.50465102 11.49534898 15.00000000
  11.49534828 18.50465172 15.00000000
  15.00000000 15.00000000 10.04367500
  15.00000000 15.00000000 19.95632599
   9.84801151 13.37280729 17.49240700
  16.62719200 20.15198779 17.49240700
  16.73750985 13.26249015 17.45721100
  13.26248944 16.73751056 12.54279001
  13.26249015 13.26249015 17.45721100
  20.15198849 13.37280729 17.49240699
  13.37280800 20.15198779 17.49240700
  16.73751056 16.73751056 12.54279000
  11.52497959 15.00000071 15.00000000
  18.47502041 15.00000071 15.00000000
  14.99999999 18.52479579 10.20639500
  15.00000000 18.52479578 19.79360400
  15.00000000 15.00000000 15.00000000
  13.26248944 16.73751057 17.45721101
  16.73751056 16.73751057 17.45721100
  15.00000000 18.47502112 15.00000000
  19.32313600 10.22892900 14.29089900
  20.07599600  9.39806300 14.16741200
 


--------------------------------------------------------------------------------------------------------


 k-point  1 :   0.0000 0.0000 0.0000  plane waves:  490521

 maximum and minimum number of plane-waves per node :    490521   490521

 maximum number of plane-waves:    490521
 maximum index in each direction: 
   IXMAX=   48   IYMAX=   48   IZMAX=   48
   IXMIN=  -48   IYMIN=  -48   IZMIN=  -48


 serial   3D FFT for wavefunctions
 parallel 3D FFT for charge:
    minimum data exchange during FFTs selected (reduces bandwidth)


 total amount of memory used by VASP MPI-rank0  5486941. kBytes
=======================================================================

   base      :      30000. kBytes
   nonlr-proj:      17126. kBytes
   fftplans  :     924480. kBytes
   grid      :    1872000. kBytes
   one-center:        886. kBytes
   wavefun   :    2642449. kBytes
 
     INWAV:  cpu time    0.0001: real time    0.0004
 Broyden mixing: mesh for mixing (old mesh)
   NGX = 97   NGY = 97   NGZ = 97
  (NGX  =300   NGY  =300   NGZ  =300)
  gives a total of 912673 points

 initial charge density was supplied:
 charge density of overlapping atoms calculated
 number of electron     560.0000000 magnetization 
 keeping initial charge density in first step


--------------------------------------------------------------------------------------------------------


 Maximum index for non-local projection operator         1763
 Maximum index for augmentation-charges         5898 (set IRDMAX)


--------------------------------------------------------------------------------------------------------


 First call to EWALD:  gamma=   0.059
 Maximum number of real-space cells 3x 3x 3
 Maximum number of reciprocal cells 3x 3x 3

    FEWALD:  cpu time    0.0126: real time    0.0126


--------------------------------------- Iteration      1(   1)  ---------------------------------------


    POTLOK:  cpu time   11.4234: real time   11.4262
    SETDIJ:  cpu time    0.0978: real time    0.0979
     EDDAV:  cpu time  307.4984: real time  307.5267
       DOS:  cpu time    0.0011: real time    0.0011
    --------------------------------------------
      LOOP:  cpu time  319.0207: real time  319.0518

 eigenvalue-minimisations  :   688
 total energy-change (2. order) : 0.4396773E+04  (-0.1005366E+05)
 number of electron     560.0000000 magnetization 
 augmentation part      560.0000000 magnetization 

 Free energy of the ion-electron system (eV)
  ---------------------------------------------------
  alpha Z        PSCENC =        75.25431677
  Ewald energy   TEWEN  =    139039.51036423
  -Hartree energ DENC   =   -182390.72750668
  -exchange      EXHF   =         0.00000000
  -V(xc)+E(xc)   XCENC  =     -1702.43498372
  PAW double counting   =     44873.02882129   -41398.84523641
  entropy T*S    EENTRO =        -0.02235192
  eigenvalues    EBANDS =       814.50429341
  atomic energy  EATOM  =     45086.50549395
  Solvation  Ediel_sol  =         0.00000000
  ---------------------------------------------------
  free energy    TOTEN  =      4396.77321092 eV

  energy without entropy =     4396.79556284  energy(sigma->0) =     4396.77879890


--------------------------------------------------------------------------------------------------------




--------------------------------------- Iteration      1(   2)  ---------------------------------------


     EDDAV:  cpu time  492.9734: real time  492.9805
       DOS:  cpu time    0.0011: real time    0.0011
    --------------------------------------------
      LOOP:  cpu time  492.9744: real time  492.9816

 eigenvalue-minimisations  :  1224
 total energy-change (2. order) :-0.2386527E+04  (-0.2147402E+04)
 number of electron     560.0000000 magnetization 
 augmentation part      560.0000000 magnetization 

 Free energy of the ion-electron system (eV)
  ---------------------------------------------------
  alpha Z        PSCENC =        75.25431677
  Ewald energy   TEWEN  =    139039.51036423
  -Hartree energ DENC   =   -182390.72750668
  -exchange      EXHF   =         0.00000000
  -V(xc)+E(xc)   XCENC  =     -1702.43498372
  PAW double counting   =     44873.02882129   -41398.84523641
  entropy T*S    EENTRO =        -0.07116630
  eigenvalues    EBANDS =     -1571.97433752
  atomic energy  EATOM  =     45086.50549395
  Solvation  Ediel_sol  =         0.00000000
  ---------------------------------------------------
  free energy    TOTEN  =      2010.24576562 eV

  energy without entropy =     2010.31693192  energy(sigma->0) =     2010.26355719


--------------------------------------------------------------------------------------------------------




--------------------------------------- Iteration      1(   3)  ---------------------------------------


     EDDAV:  cpu time  407.4052: real time  407.4146
       DOS:  cpu time    0.0009: real time    0.0009
    --------------------------------------------
      LOOP:  cpu time  407.4061: real time  407.4155

 eigenvalue-minimisations  :   976
 total energy-change (2. order) :-0.1775565E+04  (-0.1671006E+04)
 number of electron     560.0000000 magnetization 
 augmentation part      560.0000000 magnetization 

 Free energy of the ion-electron system (eV)
  ---------------------------------------------------
  alpha Z        PSCENC =        75.25431677
  Ewald energy   TEWEN  =    139039.51036423
  -Hartree energ DENC   =   -182390.72750668
  -exchange      EXHF   =         0.00000000
  -V(xc)+E(xc)   XCENC  =     -1702.43498372
  PAW double counting   =     44873.02882129   -41398.84523641
  entropy T*S    EENTRO =         0.02538544
  eigenvalues    EBANDS =     -3347.63546116
  atomic energy  EATOM  =     45086.50549395
  Solvation  Ediel_sol  =         0.00000000
  ---------------------------------------------------
  free energy    TOTEN  =       234.68119371 eV

  energy without entropy =      234.65580828  energy(sigma->0) =      234.67484735


--------------------------------------------------------------------------------------------------------




--------------------------------------- Iteration      1(   4)  ---------------------------------------


     EDDAV:  cpu time  359.1078: real time  359.1141
       DOS:  cpu time    0.0010: real time    0.0010
    --------------------------------------------
      LOOP:  cpu time  359.1087: real time  359.1151

 eigenvalue-minimisations  :   832
 total energy-change (2. order) :-0.3690278E+03  (-0.3155526E+03)
 number of electron     560.0000000 magnetization 
 augmentation part      560.0000000 magnetization 

 Free energy of the ion-electron system (eV)
  ---------------------------------------------------
  alpha Z        PSCENC =        75.25431677
  Ewald energy   TEWEN  =    139039.51036423
  -Hartree energ DENC   =   -182390.72750668
  -exchange      EXHF   =         0.00000000
  -V(xc)+E(xc)   XCENC  =     -1702.43498372
  PAW double counting   =     44873.02882129   -41398.84523641
  entropy T*S    EENTRO =        -0.03384348
  eigenvalues    EBANDS =     -3716.60407704
  atomic energy  EATOM  =     45086.50549395
  Solvation  Ediel_sol  =         0.00000000
  ---------------------------------------------------
  free energy    TOTEN  =      -134.34665108 eV

  energy without entropy =     -134.31280761  energy(sigma->0) =     -134.33819021


--------------------------------------------------------------------------------------------------------




--------------------------------------- Iteration      1(   5)  ---------------------------------------


     EDDAV:  cpu time  436.7055: real time  436.7039
       DOS:  cpu time    0.0012: real time    0.0012
    CHARGE:  cpu time   21.7188: real time   21.7184
    MIXING:  cpu time    0.3700: real time    0.3700
    --------------------------------------------
      LOOP:  cpu time  458.7955: real time  458.7936

 eigenvalue-minimisations  :  1056
 total energy-change (2. order) :-0.4618576E+02  (-0.3818695E+02)
 number of electron     559.9999870 magnetization 
 augmentation part      244.8998004 magnetization 

 Broyden mixing:
  rms(total) = 0.19923E+01    rms(broyden)= 0.19916E+01
  rms(prec ) = 0.20815E+01
  weight for this iteration     100.00

 Free energy of the ion-electron system (eV)
  ---------------------------------------------------
  alpha Z        PSCENC =        75.25431677
  Ewald energy   TEWEN  =    139039.51036423
  -Hartree energ DENC   =   -182390.72750668
  -exchange      EXHF   =         0.00000000
  -V(xc)+E(xc)   XCENC  =     -1702.43498372
  PAW double counting   =     44873.02882129   -41398.84523641
  entropy T*S    EENTRO =         0.47399165
  eigenvalues    EBANDS =     -3763.29767097
  atomic energy  EATOM  =     45086.50549395
  Solvation  Ediel_sol  =         0.00000000
  ---------------------------------------------------
  free energy    TOTEN  =      -180.53240989 eV

  energy without entropy =     -181.00640153  energy(sigma->0) =     -180.65090780


--------------------------------------------------------------------------------------------------------




--------------------------------------- Iteration      1(   6)  ---------------------------------------


    POTLOK:  cpu time   10.6376: real time   10.6401
    SETDIJ:  cpu time    0.1024: real time    0.1024
    EDDIAG:  cpu time   57.6249: real time   57.6257
  RMM-DIIS:  cpu time  156.8606: real time  156.8594
    ORTHCH:  cpu time   11.1971: real time   11.1970
       DOS:  cpu time    0.0012: real time    0.0012
    CHARGE:  cpu time   21.6606: real time   21.6603
    MIXING:  cpu time    0.3948: real time    0.3948
    --------------------------------------------
      LOOP:  cpu time  258.4792: real time  258.4808

 eigenvalue-minimisations  :   716
 total energy-change (2. order) : 0.1448950E+01  (-0.6783954E+01)
 number of electron     559.9999897 magnetization 
 augmentation part      240.6738021 magnetization 

 Broyden mixing:
  rms(total) = 0.22192E+01    rms(broyden)= 0.22190E+01
  rms(prec ) = 0.24765E+01
  weight for this iteration     100.00

 eigenvalues of (default mixing * dielectric matrix)
  average eigenvalue GAMMA=   0.4561
  0.4561

 Free energy of the ion-electron system (eV)
  ---------------------------------------------------
  alpha Z        PSCENC =        75.25431677
  Ewald energy   TEWEN  =    139039.51036423
  -Hartree energ DENC   =   -182789.01687780
  -exchange      EXHF   =         0.00000000
  -V(xc)+E(xc)   XCENC  =     -1695.96980116
  PAW double counting   =     45711.49805934   -42211.70675961
  entropy T*S    EENTRO =        -0.22986663
  eigenvalues    EBANDS =     -3394.92838903
  atomic energy  EATOM  =     45086.50549395
  Solvation  Ediel_sol  =         0.00000000
  ---------------------------------------------------
  free energy    TOTEN  =      -179.08345995 eV

  energy without entropy =     -178.85359331  energy(sigma->0) =     -179.02599329


--------------------------------------------------------------------------------------------------------




--------------------------------------- Iteration      1(   7)  ---------------------------------------


    POTLOK:  cpu time   10.5851: real time   10.5886
    SETDIJ:  cpu time    0.1017: real time    0.1016
    EDDIAG:  cpu time   57.7442: real time   57.7444
  RMM-DIIS:  cpu time  183.3924: real time  183.3930
    ORTHCH:  cpu time   11.2128: real time   11.2127
       DOS:  cpu time    0.0012: real time    0.0012
    CHARGE:  cpu time   21.6885: real time   21.6881
    MIXING:  cpu time    0.4098: real time    0.4098
    --------------------------------------------
      LOOP:  cpu time  285.1356: real time  285.1394

 eigenvalue-minimisations  :   841
 total energy-change (2. order) :-0.4023925E+01  (-0.2386016E+01)
 number of electron     559.9999862 magnetization 
 augmentation part      240.0254288 magnetization 

 Broyden mixing:
  rms(total) = 0.22530E+01    rms(broyden)= 0.22528E+01
  rms(prec ) = 0.25856E+01
  weight for this iteration     100.00

 eigenvalues of (default mixing * dielectric matrix)
  average eigenvalue GAMMA=   0.4861
  0.7644  0.2079

 Free energy of the ion-electron system (eV)
  ---------------------------------------------------
  alpha Z        PSCENC =        75.25431677
  Ewald energy   TEWEN  =    139039.51036423
  -Hartree energ DENC   =   -182905.71352883
  -exchange      EXHF   =         0.00000000
  -V(xc)+E(xc)   XCENC  =     -1696.21313910
  PAW double counting   =     45833.65080503   -42330.35902517
  entropy T*S    EENTRO =        -0.15224815
  eigenvalues    EBANDS =     -3285.59042370
  atomic energy  EATOM  =     45086.50549395
  Solvation  Ediel_sol  =         0.00000000
  ---------------------------------------------------
  free energy    TOTEN  =      -183.10738498 eV

  energy without entropy =     -182.95513682  energy(sigma->0) =     -183.06932294


--------------------------------------------------------------------------------------------------------




--------------------------------------- Iteration      1(   8)  ---------------------------------------


    POTLOK:  cpu time   10.5406: real time   10.5431
    SETDIJ:  cpu time    0.1018: real time    0.1018
    EDDIAG:  cpu time   57.4920: real time   57.4916
  RMM-DIIS:  cpu time  161.7109: real time  161.7093
    ORTHCH:  cpu time   11.2060: real time   11.2059
       DOS:  cpu time    0.0012: real time    0.0012
    CHARGE:  cpu time   21.6549: real time   21.6545
    MIXING:  cpu time    0.4348: real time    0.4348
    --------------------------------------------
      LOOP:  cpu time  263.1422: real time  263.1421

 eigenvalue-minimisations  :   739
 total energy-change (2. order) :-0.2590877E+01  (-0.1216885E+01)
 number of electron     559.9999887 magnetization 
 augmentation part      240.4431399 magnetization 

 Broyden mixing:
  rms(total) = 0.28039E+01    rms(broyden)= 0.28036E+01
  rms(prec ) = 0.32942E+01
  weight for this iteration     100.00

 eigenvalues of (default mixing * dielectric matrix)
  average eigenvalue GAMMA=   0.4453
  0.9452  0.2291  0.1616

 Free energy of the ion-electron system (eV)
  ---------------------------------------------------
  alpha Z        PSCENC =        75.25431677
  Ewald energy   TEWEN  =    139039.51036423
  -Hartree energ DENC   =   -182918.73848475
  -exchange      EXHF   =         0.00000000
  -V(xc)+E(xc)   XCENC  =     -1696.13982908
  PAW double counting   =     45960.19319916   -42453.37704428
  entropy T*S    EENTRO =        -0.25798916
  eigenvalues    EBANDS =     -3278.64828888
  atomic energy  EATOM  =     45086.50549395
  Solvation  Ediel_sol  =         0.00000000
  ---------------------------------------------------
  free energy    TOTEN  =      -185.69826205 eV

  energy without entropy =     -185.44027289  energy(sigma->0) =     -185.63376476


--------------------------------------------------------------------------------------------------------




--------------------------------------- Iteration      1(   9)  ---------------------------------------


    POTLOK:  cpu time   10.5217: real time   10.5250
    SETDIJ:  cpu time    0.1014: real time    0.1014
    EDDIAG:  cpu time   57.3407: real time   57.3400
  RMM-DIIS:  cpu time  160.4210: real time  160.4219
    ORTHCH:  cpu time   11.1347: real time   11.1347
       DOS:  cpu time    0.0012: real time    0.0012
    CHARGE:  cpu time   21.3471: real time   21.3471
    MIXING:  cpu time    0.4559: real time    0.4558
    --------------------------------------------
      LOOP:  cpu time  261.3237: real time  261.3272

 eigenvalue-minimisations  :   729
 total energy-change (2. order) : 0.1870310E+01  (-0.8117864E+00)
 number of electron     559.9999876 magnetization 
 augmentation part      240.8760692 magnetization 

 Broyden mixing:
  rms(total) = 0.28103E+01    rms(broyden)= 0.28100E+01
  rms(prec ) = 0.33322E+01
  weight for this iteration     100.00

 eigenvalues of (default mixing * dielectric matrix)
  average eigenvalue GAMMA=   0.3930
  1.0237  0.2548  0.1753  0.1182

 Free energy of the ion-electron system (eV)
  ---------------------------------------------------
  alpha Z        PSCENC =        75.25431677
  Ewald energy   TEWEN  =    139039.51036423
  -Hartree energ DENC   =   -182951.81719016
  -exchange      EXHF   =         0.00000000
  -V(xc)+E(xc)   XCENC  =     -1696.02572876
  PAW double counting   =     46047.16934360   -42538.10726744
  entropy T*S    EENTRO =        -0.07717168
  eigenvalues    EBANDS =     -3246.24011282
  atomic energy  EATOM  =     45086.50549395
  Solvation  Ediel_sol  =         0.00000000
  ---------------------------------------------------
  free energy    TOTEN  =      -183.82795231 eV

  energy without entropy =     -183.75078063  energy(sigma->0) =     -183.80865939


--------------------------------------------------------------------------------------------------------




--------------------------------------- Iteration      1(  10)  ---------------------------------------


    POTLOK:  cpu time   10.7294: real time   10.7323
    SETDIJ:  cpu time    0.1007: real time    0.1008
    EDDIAG:  cpu time   57.4515: real time   57.4520
  RMM-DIIS:  cpu time  160.2682: real time  160.2711
    ORTHCH:  cpu time   11.0594: real time   11.0594
       DOS:  cpu time    0.0012: real time    0.0012
    CHARGE:  cpu time   21.3881: real time   21.3883
    MIXING:  cpu time    0.4819: real time    0.4819
    --------------------------------------------
      LOOP:  cpu time  261.4805: real time  261.4871

 eigenvalue-minimisations  :   733
 total energy-change (2. order) : 0.3658888E+01  (-0.4185693E+00)
 number of electron     559.9999883 magnetization 
 augmentation part      241.4765247 magnetization 

 Broyden mixing:
  rms(total) = 0.21653E+01    rms(broyden)= 0.21648E+01
  rms(prec ) = 0.25409E+01
  weight for this iteration     100.00

 eigenvalues of (default mixing * dielectric matrix)
  average eigenvalue GAMMA=   0.3650
  1.1010  0.2477  0.2477  0.1281  0.1005

 Free energy of the ion-electron system (eV)
  ---------------------------------------------------
  alpha Z        PSCENC =        75.25431677
  Ewald energy   TEWEN  =    139039.51036423
  -Hartree energ DENC   =   -182989.49632225
  -exchange      EXHF   =         0.00000000
  -V(xc)+E(xc)   XCENC  =     -1695.95984315
  PAW double counting   =     46094.44900777   -42584.10946249
  entropy T*S    EENTRO =        -0.04578710
  eigenvalues    EBANDS =     -3206.27683181
  atomic energy  EATOM  =     45086.50549395
  Solvation  Ediel_sol  =         0.00000000
  ---------------------------------------------------
  free energy    TOTEN  =      -180.16906408 eV

  energy without entropy =     -180.12327698  energy(sigma->0) =     -180.15761731


--------------------------------------------------------------------------------------------------------




--------------------------------------- Iteration      1(  11)  ---------------------------------------


    POTLOK:  cpu time   10.4053: real time   10.4077
    SETDIJ:  cpu time    0.1007: real time    0.1007
    EDDIAG:  cpu time   57.4566: real time   57.4580
  RMM-DIIS:  cpu time  159.9508: real time  159.9528
    ORTHCH:  cpu time   11.1363: real time   11.1363
       DOS:  cpu time    0.0012: real time    0.0012
    CHARGE:  cpu time   21.5364: real time   21.5361
    MIXING:  cpu time    0.5060: real time    0.5060
    --------------------------------------------
      LOOP:  cpu time  261.0933: real time  261.0988

 eigenvalue-minimisations  :   729
 total energy-change (2. order) : 0.1810579E+01  (-0.3021961E+00)
 number of electron     559.9999882 magnetization 
 augmentation part      241.5473437 magnetization 

 Broyden mixing:
  rms(total) = 0.17542E+01    rms(broyden)= 0.17538E+01
  rms(prec ) = 0.20955E+01
  weight for this iteration     100.00

 eigenvalues of (default mixing * dielectric matrix)
  average eigenvalue GAMMA=   0.3590
  1.2194  0.2907  0.2907  0.1314  0.1314  0.0905

 Free energy of the ion-electron system (eV)
  ---------------------------------------------------
  alpha Z        PSCENC =        75.25431677
  Ewald energy   TEWEN  =    139039.51036423
  -Hartree energ DENC   =   -183019.18817078
  -exchange      EXHF   =         0.00000000
  -V(xc)+E(xc)   XCENC  =     -1695.75398111
  PAW double counting   =     46137.81411844   -42626.05712869
  entropy T*S    EENTRO =        -0.07402052
  eigenvalues    EBANDS =     -3176.36947762
  atomic energy  EATOM  =     45086.50549395
  Solvation  Ediel_sol  =         0.00000000
  ---------------------------------------------------
  free energy    TOTEN  =      -178.35848532 eV

  energy without entropy =     -178.28446480  energy(sigma->0) =     -178.33998019


--------------------------------------------------------------------------------------------------------




--------------------------------------- Iteration      1(  12)  ---------------------------------------


    POTLOK:  cpu time   10.6130: real time   10.6165
    SETDIJ:  cpu time    0.1028: real time    0.1028
    EDDIAG:  cpu time   57.7654: real time   57.7648
  RMM-DIIS:  cpu time  158.2532: real time  158.2525
    ORTHCH:  cpu time   11.1477: real time   11.1475
       DOS:  cpu time    0.0013: real time    0.0013
    CHARGE:  cpu time   21.5446: real time   21.5443
    MIXING:  cpu time    0.5429: real time    0.5429
    --------------------------------------------
      LOOP:  cpu time  259.9709: real time  259.9725

 eigenvalue-minimisations  :   721
 total energy-change (2. order) : 0.1777791E+00  (-0.2748874E+00)
 number of electron     559.9999879 magnetization 
 augmentation part      241.5614827 magnetization 

 Broyden mixing:
  rms(total) = 0.18731E+01    rms(broyden)= 0.18727E+01
  rms(prec ) = 0.22330E+01
  weight for this iteration     100.00

 eigenvalues of (default mixing * dielectric matrix)
  average eigenvalue GAMMA=   0.3613
  1.3508  0.3494  0.3494  0.1510  0.1510  0.0887  0.0887

 Free energy of the ion-electron system (eV)
  ---------------------------------------------------
  alpha Z        PSCENC =        75.25431677
  Ewald energy   TEWEN  =    139039.51036423
  -Hartree energ DENC   =   -183039.28391769
  -exchange      EXHF   =         0.00000000
  -V(xc)+E(xc)   XCENC  =     -1695.39545481
  PAW double counting   =     46190.30854212   -42676.60026041
  entropy T*S    EENTRO =        -0.10098382
  eigenvalues    EBANDS =     -3158.37880656
  atomic energy  EATOM  =     45086.50549395
  Solvation  Ediel_sol  =         0.00000000
  ---------------------------------------------------
  free energy    TOTEN  =      -178.18070622 eV

  energy without entropy =     -178.07972240  energy(sigma->0) =     -178.15546027


--------------------------------------------------------------------------------------------------------




--------------------------------------- Iteration      1(  13)  ---------------------------------------


    POTLOK:  cpu time   10.5132: real time   10.5164
    SETDIJ:  cpu time    0.1007: real time    0.1007
    EDDIAG:  cpu time   57.7026: real time   57.7019
  RMM-DIIS:  cpu time  155.4389: real time  155.4533
    ORTHCH:  cpu time   11.1721: real time   11.1733
       DOS:  cpu time    0.0013: real time    0.0013
    CHARGE:  cpu time   21.3194: real time   21.3219
    MIXING:  cpu time    0.5725: real time    0.5725
    --------------------------------------------
      LOOP:  cpu time  256.8207: real time  256.8414

 eigenvalue-minimisations  :   711
 total energy-change (2. order) : 0.5490055E+00  (-0.2558407E+00)
 number of electron     559.9999840 magnetization 
 augmentation part      241.5155951 magnetization 

 Broyden mixing:
  rms(total) = 0.21433E+01    rms(broyden)= 0.21430E+01
  rms(prec ) = 0.24753E+01
  weight for this iteration     100.00

 eigenvalues of (default mixing * dielectric matrix)
  average eigenvalue GAMMA=   0.3551
  1.4530  0.3985  0.3985  0.1559  0.1559  0.1034  0.1034  0.0722

 Free energy of the ion-electron system (eV)
  ---------------------------------------------------
  alpha Z        PSCENC =        75.25431677
  Ewald energy   TEWEN  =    139039.51036423
  -Hartree energ DENC   =   -183074.29130022
  -exchange      EXHF   =         0.00000000
  -V(xc)+E(xc)   XCENC  =     -1694.87673863
  PAW double counting   =     46255.47847032   -42739.31339645
  entropy T*S    EENTRO =         0.05406148
  eigenvalues    EBANDS =     -3125.95297221
  atomic energy  EATOM  =     45086.50549395
  Solvation  Ediel_sol  =         0.00000000
  ---------------------------------------------------
  free energy    TOTEN  =      -177.63170076 eV

  energy without entropy =     -177.68576224  energy(sigma->0) =     -177.64521613


--------------------------------------------------------------------------------------------------------




--------------------------------------- Iteration      1(  14)  ---------------------------------------


    POTLOK:  cpu time   10.3956: real time   10.3993
    SETDIJ:  cpu time    0.1009: real time    0.1009
    EDDIAG:  cpu time   57.3940: real time   57.4014
  RMM-DIIS:  cpu time  157.4814: real time  157.4985
    ORTHCH:  cpu time   11.0713: real time   11.0726
       DOS:  cpu time    0.0012: real time    0.0012
    CHARGE:  cpu time   21.3582: real time   21.3585
    MIXING:  cpu time    0.6003: real time    0.6003
    --------------------------------------------
      LOOP:  cpu time  258.4028: real time  258.4327

 eigenvalue-minimisations  :   721
 total energy-change (2. order) : 0.1007102E+01  (-0.1868174E+00)
 number of electron     559.9999872 magnetization 
 augmentation part      241.3295141 magnetization 

 Broyden mixing:
  rms(total) = 0.14898E+01    rms(broyden)= 0.14895E+01
  rms(prec ) = 0.17430E+01
  weight for this iteration     100.00

 eigenvalues of (default mixing * dielectric matrix)
  average eigenvalue GAMMA=   0.3431
  1.5493  0.4850  0.3146  0.1662  0.1479  0.1479  0.1032  0.1032  0.0707

 Free energy of the ion-electron system (eV)
  ---------------------------------------------------
  alpha Z        PSCENC =        75.25431677
  Ewald energy   TEWEN  =    139039.51036423
  -Hartree energ DENC   =   -183107.64925728
  -exchange      EXHF   =         0.00000000
  -V(xc)+E(xc)   XCENC  =     -1694.42589468
  PAW double counting   =     46308.66344186   -42790.42940114
  entropy T*S    EENTRO =         0.00217391
  eigenvalues    EBANDS =     -3094.05583630
  atomic energy  EATOM  =     45086.50549395
  Solvation  Ediel_sol  =         0.00000000
  ---------------------------------------------------
  free energy    TOTEN  =      -176.62459868 eV

  energy without entropy =     -176.62677259  energy(sigma->0) =     -176.62514216


--------------------------------------------------------------------------------------------------------




--------------------------------------- Iteration      1(  15)  ---------------------------------------


    POTLOK:  cpu time   10.3066: real time   10.3094
    SETDIJ:  cpu time    0.1006: real time    0.1006
    EDDIAG:  cpu time   57.3723: real time   57.3803
  RMM-DIIS:  cpu time  157.4546: real time  157.4734
    ORTHCH:  cpu time   11.0461: real time   11.0473
       DOS:  cpu time    0.0012: real time    0.0012
    CHARGE:  cpu time   21.4369: real time   21.4394
    MIXING:  cpu time    0.6429: real time    0.6439
    --------------------------------------------
      LOOP:  cpu time  258.3612: real time  258.3957

 eigenvalue-minimisations  :   720
 total energy-change (2. order) :-0.1155018E+00  (-0.1060675E+00)
 number of electron     559.9999886 magnetization 
 augmentation part      241.2678065 magnetization 

 Broyden mixing:
  rms(total) = 0.15707E+01    rms(broyden)= 0.15704E+01
  rms(prec ) = 0.19452E+01
  weight for this iteration     100.00

 eigenvalues of (default mixing * dielectric matrix)
  average eigenvalue GAMMA=   0.3280
  1.5875  0.5103  0.2755  0.2755  0.1470  0.1470  0.1011  0.1011  0.0742  0.0605

 Free energy of the ion-electron system (eV)
  ---------------------------------------------------
  alpha Z        PSCENC =        75.25431677
  Ewald energy   TEWEN  =    139039.51036423
  -Hartree energ DENC   =   -183121.90712374
  -exchange      EXHF   =         0.00000000
  -V(xc)+E(xc)   XCENC  =     -1694.11994276
  PAW double counting   =     46342.11009464   -42822.47227241
  entropy T*S    EENTRO =        -0.05932934
  eigenvalues    EBANDS =     -3081.56170178
  atomic energy  EATOM  =     45086.50549395
  Solvation  Ediel_sol  =         0.00000000
  ---------------------------------------------------
  free energy    TOTEN  =      -176.74010044 eV

  energy without entropy =     -176.68077111  energy(sigma->0) =     -176.72526811


--------------------------------------------------------------------------------------------------------




--------------------------------------- Iteration      1(  16)  ---------------------------------------


    POTLOK:  cpu time   10.4938: real time   10.4988
    SETDIJ:  cpu time    0.1005: real time    0.1005
    EDDIAG:  cpu time   57.4244: real time   57.4309
  RMM-DIIS:  cpu time  158.6138: real time  158.6362
    ORTHCH:  cpu time   11.1163: real time   11.1162
       DOS:  cpu time    0.0013: real time    0.0013
    CHARGE:  cpu time   21.6084: real time   21.6085
    MIXING:  cpu time    0.6920: real time    0.6921
    --------------------------------------------
      LOOP:  cpu time  260.0506: real time  260.0846

 eigenvalue-minimisations  :   726
 total energy-change (2. order) : 0.1185315E+01  (-0.4935643E-01)
 number of electron     559.9999892 magnetization 
 augmentation part      241.3178116 magnetization 

 Broyden mixing:
  rms(total) = 0.10378E+01    rms(broyden)= 0.10374E+01
  rms(prec ) = 0.12033E+01
  weight for this iteration     100.00

 eigenvalues of (default mixing * dielectric matrix)
  average eigenvalue GAMMA=   0.3354
  1.6681  0.6041  0.3404  0.3404  0.1505  0.1505  0.1068  0.1068  0.0958  0.0717
  0.0538

 Free energy of the ion-electron system (eV)
  ---------------------------------------------------
  alpha Z        PSCENC =        75.25431677
  Ewald energy   TEWEN  =    139039.51036423
  -Hartree energ DENC   =   -183134.62226447
  -exchange      EXHF   =         0.00000000
  -V(xc)+E(xc)   XCENC  =     -1693.95064355
  PAW double counting   =     46358.53103999   -42838.12138479
  entropy T*S    EENTRO =        -0.00845776
  eigenvalues    EBANDS =     -3068.65324985
  atomic energy  EATOM  =     45086.50549395
  Solvation  Ediel_sol  =         0.00000000
  ---------------------------------------------------
  free energy    TOTEN  =      -175.55478547 eV

  energy without entropy =     -175.54632771  energy(sigma->0) =     -175.55267103


--------------------------------------------------------------------------------------------------------




--------------------------------------- Iteration      1(  17)  ---------------------------------------


    POTLOK:  cpu time   10.5406: real time   10.5442
    SETDIJ:  cpu time    0.1008: real time    0.1008
    EDDIAG:  cpu time   57.3417: real time   57.3424
  RMM-DIIS:  cpu time  152.0123: real time  152.0160
    ORTHCH:  cpu time   11.0861: real time   11.0861
       DOS:  cpu time    0.0012: real time    0.0012
    CHARGE:  cpu time   21.4373: real time   21.4374
    MIXING:  cpu time    0.7164: real time    0.7164
    --------------------------------------------
      LOOP:  cpu time  253.2363: real time  253.2445

 eigenvalue-minimisations  :   697
 total energy-change (2. order) : 0.2031821E+00  (-0.5629488E-01)
 number of electron     559.9999891 magnetization 
 augmentation part      241.2250847 magnetization 

 Broyden mixing:
  rms(total) = 0.93558E+00    rms(broyden)= 0.93525E+00
  rms(prec ) = 0.10802E+01
  weight for this iteration     100.00

 eigenvalues of (default mixing * dielectric matrix)
  average eigenvalue GAMMA=   0.3385
  1.7126  0.6896  0.3980  0.3980  0.1573  0.1573  0.1151  0.1151  0.0993  0.0993
  0.0679  0.0526

 Free energy of the ion-electron system (eV)
  ---------------------------------------------------
  alpha Z        PSCENC =        75.25431677
  Ewald energy   TEWEN  =    139039.51036423
  -Hartree energ DENC   =   -183156.49670937
  -exchange      EXHF   =         0.00000000
  -V(xc)+E(xc)   XCENC  =     -1693.62487895
  PAW double counting   =     46386.78291056   -42864.91586507
  entropy T*S    EENTRO =         0.04207721
  eigenvalues    EBANDS =     -3048.40931267
  atomic energy  EATOM  =     45086.50549395
  Solvation  Ediel_sol  =         0.00000000
  ---------------------------------------------------
  free energy    TOTEN  =      -175.35160335 eV

  energy without entropy =     -175.39368056  energy(sigma->0) =     -175.36212265


--------------------------------------------------------------------------------------------------------




--------------------------------------- Iteration      1(  18)  ---------------------------------------


    POTLOK:  cpu time   10.2883: real time   10.2899
    SETDIJ:  cpu time    0.1005: real time    0.1005
    EDDIAG:  cpu time   57.2470: real time   57.2477
  RMM-DIIS:  cpu time  153.1242: real time  153.1275
    ORTHCH:  cpu time   11.0161: real time   11.0161
       DOS:  cpu time    0.0013: real time    0.0013
    CHARGE:  cpu time   21.2556: real time   21.2555
    MIXING:  cpu time    0.7598: real time    0.7598
    --------------------------------------------
      LOOP:  cpu time  253.7927: real time  253.7984

 eigenvalue-minimisations  :   700
 total energy-change (2. order) : 0.1032790E+00  (-0.2950557E-01)
 number of electron     559.9999882 magnetization 
 augmentation part      241.1442916 magnetization 

 Broyden mixing:
  rms(total) = 0.85565E+00    rms(broyden)= 0.85544E+00
  rms(prec ) = 0.99878E+00
  weight for this iteration     100.00

 eigenvalues of (default mixing * dielectric matrix)
  average eigenvalue GAMMA=   0.3449
  1.7690  0.8401  0.4407  0.4407  0.1566  0.1566  0.1358  0.1358  0.1071  0.1071
  0.0702  0.0702  0.0534

 Free energy of the ion-electron system (eV)
  ---------------------------------------------------
  alpha Z        PSCENC =        75.25431677
  Ewald energy   TEWEN  =    139039.51036423
  -Hartree energ DENC   =   -183175.00281354
  -exchange      EXHF   =         0.00000000
  -V(xc)+E(xc)   XCENC  =     -1693.40025978
  PAW double counting   =     46401.59248574   -42878.67976583
  entropy T*S    EENTRO =         0.01082692
  eigenvalues    EBANDS =     -3031.03897282
  atomic energy  EATOM  =     45086.50549395
  Solvation  Ediel_sol  =         0.00000000
  ---------------------------------------------------
  free energy    TOTEN  =      -175.24832436 eV

  energy without entropy =     -175.25915128  energy(sigma->0) =     -175.25103109


--------------------------------------------------------------------------------------------------------




--------------------------------------- Iteration      1(  19)  ---------------------------------------


    POTLOK:  cpu time   10.3643: real time   10.3666
    SETDIJ:  cpu time    0.1006: real time    0.1006
    EDDIAG:  cpu time   57.6510: real time   57.6515
  RMM-DIIS:  cpu time  154.2529: real time  154.2549
    ORTHCH:  cpu time   11.1689: real time   11.1689
       DOS:  cpu time    0.0013: real time    0.0013
    CHARGE:  cpu time   21.3622: real time   21.3622
    MIXING:  cpu time    0.8055: real time    0.8055
    --------------------------------------------
      LOOP:  cpu time  255.7066: real time  255.7115

 eigenvalue-minimisations  :   706
 total energy-change (2. order) : 0.1647758E+00  (-0.2416517E-01)
 number of electron     559.9999882 magnetization 
 augmentation part      241.1028498 magnetization 

 Broyden mixing:
  rms(total) = 0.76690E+00    rms(broyden)= 0.76668E+00
  rms(prec ) = 0.89694E+00
  weight for this iteration     100.00

 eigenvalues of (default mixing * dielectric matrix)
  average eigenvalue GAMMA=   0.3508
  1.8341  0.9584  0.4796  0.4796  0.2109  0.1610  0.1610  0.1220  0.1220  0.0972
  0.0972  0.0680  0.0675  0.0528

 Free energy of the ion-electron system (eV)
  ---------------------------------------------------
  alpha Z        PSCENC =        75.25431677
  Ewald energy   TEWEN  =    139039.51036423
  -Hartree energ DENC   =   -183195.79970300
  -exchange      EXHF   =         0.00000000
  -V(xc)+E(xc)   XCENC  =     -1693.12964215
  PAW double counting   =     46416.04593369   -42891.89979383
  entropy T*S    EENTRO =        -0.00538606
  eigenvalues    EBANDS =     -3011.56513214
  atomic energy  EATOM  =     45086.50549395
  Solvation  Ediel_sol  =         0.00000000
  ---------------------------------------------------
  free energy    TOTEN  =      -175.08354855 eV

  energy without entropy =     -175.07816249  energy(sigma->0) =     -175.08220203


--------------------------------------------------------------------------------------------------------




--------------------------------------- Iteration      1(  20)  ---------------------------------------


    POTLOK:  cpu time   10.3792: real time   10.3818
    SETDIJ:  cpu time    0.1006: real time    0.1006
    EDDIAG:  cpu time   57.3474: real time   57.3485
  RMM-DIIS:  cpu time  153.1927: real time  153.1957
    ORTHCH:  cpu time   11.0415: real time   11.0415
       DOS:  cpu time    0.0013: real time    0.0013
    CHARGE:  cpu time   21.3261: real time   21.3262
    MIXING:  cpu time    0.8522: real time    0.8522
    --------------------------------------------
      LOOP:  cpu time  254.2409: real time  254.2479

 eigenvalue-minimisations  :   702
 total energy-change (2. order) : 0.9339572E-01  (-0.2337815E-01)
 number of electron     559.9999884 magnetization 
 augmentation part      241.1079890 magnetization 

 Broyden mixing:
  rms(total) = 0.65523E+00    rms(broyden)= 0.65502E+00
  rms(prec ) = 0.75819E+00
  weight for this iteration     100.00

 eigenvalues of (default mixing * dielectric matrix)
  average eigenvalue GAMMA=   0.3556
  1.8762  1.0627  0.4966  0.4966  0.3457  0.1565  0.1565  0.1350  0.1350  0.1013
  0.1013  0.0858  0.0710  0.0615  0.0528

 Free energy of the ion-electron system (eV)
  ---------------------------------------------------
  alpha Z        PSCENC =        75.25431677
  Ewald energy   TEWEN  =    139039.51036423
  -Hartree energ DENC   =   -183211.56371270
  -exchange      EXHF   =         0.00000000
  -V(xc)+E(xc)   XCENC  =     -1692.90457022
  PAW double counting   =     46424.45900821   -42899.31640947
  entropy T*S    EENTRO =        -0.02770903
  eigenvalues    EBANDS =     -2996.90693457
  atomic energy  EATOM  =     45086.50549395
  Solvation  Ediel_sol  =         0.00000000
  ---------------------------------------------------
  free energy    TOTEN  =      -174.99015283 eV

  energy without entropy =     -174.96244380  energy(sigma->0) =     -174.98322557


--------------------------------------------------------------------------------------------------------




--------------------------------------- Iteration      1(  21)  ---------------------------------------


    POTLOK:  cpu time   10.3271: real time   10.3289
    SETDIJ:  cpu time    0.1005: real time    0.1005
    EDDIAG:  cpu time   57.0452: real time   57.0457
  RMM-DIIS:  cpu time  153.1008: real time  153.1027
    ORTHCH:  cpu time   11.0970: real time   11.0970
       DOS:  cpu time    0.0013: real time    0.0013
    CHARGE:  cpu time   21.4794: real time   21.4795
    MIXING:  cpu time    0.9077: real time    0.9077
    --------------------------------------------
      LOOP:  cpu time  254.0590: real time  254.0634

 eigenvalue-minimisations  :   701
 total energy-change (2. order) :-0.1977929E-01  (-0.1949398E-01)
 number of electron     559.9999885 magnetization 
 augmentation part      241.0430877 magnetization 

 Broyden mixing:
  rms(total) = 0.64301E+00    rms(broyden)= 0.64286E+00
  rms(prec ) = 0.75630E+00
  weight for this iteration     100.00

 eigenvalues of (default mixing * dielectric matrix)
  average eigenvalue GAMMA=   0.3733
  2.0185  1.2377  0.7001  0.4208  0.4208  0.1565  0.1565  0.1589  0.1178  0.1178
  0.1035  0.1035  0.0732  0.0732  0.0529  0.0610

 Free energy of the ion-electron system (eV)
  ---------------------------------------------------
  alpha Z        PSCENC =        75.25431677
  Ewald energy   TEWEN  =    139039.51036423
  -Hartree energ DENC   =   -183227.10473320
  -exchange      EXHF   =         0.00000000
  -V(xc)+E(xc)   XCENC  =     -1692.73096565
  PAW double counting   =     46428.01160161   -42902.14348775
  entropy T*S    EENTRO =        -0.04370320
  eigenvalues    EBANDS =     -2982.26881887
  atomic energy  EATOM  =     45086.50549395
  Solvation  Ediel_sol  =         0.00000000
  ---------------------------------------------------
  free energy    TOTEN  =      -175.00993212 eV

  energy without entropy =     -174.96622892  energy(sigma->0) =     -174.99900632


--------------------------------------------------------------------------------------------------------




--------------------------------------- Iteration      1(  22)  ---------------------------------------


    POTLOK:  cpu time   10.5332: real time   10.5364
    SETDIJ:  cpu time    0.1022: real time    0.1022
    EDDIAG:  cpu time   57.5639: real time   57.5655
  RMM-DIIS:  cpu time  152.9347: real time  152.9388
    ORTHCH:  cpu time   10.9933: real time   10.9934
       DOS:  cpu time    0.0013: real time    0.0013
    CHARGE:  cpu time   21.3721: real time   21.3721
    MIXING:  cpu time    0.9488: real time    0.9488
    --------------------------------------------
      LOOP:  cpu time  254.4494: real time  254.4584

 eigenvalue-minimisations  :   702
 total energy-change (2. order) : 0.4789659E-01  (-0.1878126E-01)
 number of electron     559.9999891 magnetization 
 augmentation part      241.0491102 magnetization 

 Broyden mixing:
  rms(total) = 0.66346E+00    rms(broyden)= 0.66329E+00
  rms(prec ) = 0.77623E+00
  weight for this iteration     100.00

 eigenvalues of (default mixing * dielectric matrix)
  average eigenvalue GAMMA=   0.3809
  2.1062  1.3982  0.7820  0.4381  0.4381  0.1964  0.1584  0.1584  0.1180  0.1180
  0.1105  0.1011  0.1011  0.0688  0.0688  0.0527  0.0606

 Free energy of the ion-electron system (eV)
  ---------------------------------------------------
  alpha Z        PSCENC =        75.25431677
  Ewald energy   TEWEN  =    139039.51036423
  -Hartree energ DENC   =   -183246.10573556
  -exchange      EXHF   =         0.00000000
  -V(xc)+E(xc)   XCENC  =     -1692.47111564
  PAW double counting   =     46431.33607682   -42904.48466615
  entropy T*S    EENTRO =        -0.02213479
  eigenvalues    EBANDS =     -2964.48463517
  atomic energy  EATOM  =     45086.50549395
  Solvation  Ediel_sol  =         0.00000000
  ---------------------------------------------------
  free energy    TOTEN  =      -174.96203554 eV

  energy without entropy =     -174.93990075  energy(sigma->0) =     -174.95650184


--------------------------------------------------------------------------------------------------------




--------------------------------------- Iteration      1(  23)  ---------------------------------------


    POTLOK:  cpu time   10.2999: real time   10.3015
    SETDIJ:  cpu time    0.1007: real time    0.1007
    EDDIAG:  cpu time   57.2326: real time   57.2332
  RMM-DIIS:  cpu time  152.0280: real time  152.0298
    ORTHCH:  cpu time   11.1837: real time   11.1837
       DOS:  cpu time    0.0013: real time    0.0013
    CHARGE:  cpu time   20.9738: real time   20.9741
    MIXING:  cpu time    0.9585: real time    0.9586
    --------------------------------------------
      LOOP:  cpu time  252.7784: real time  252.7827

 eigenvalue-minimisations  :   698
 total energy-change (2. order) : 0.1429105E+00  (-0.1357583E-01)
 number of electron     559.9999884 magnetization 
 augmentation part      241.0116947 magnetization 

 Broyden mixing:
  rms(total) = 0.44126E+00    rms(broyden)= 0.44107E+00
  rms(prec ) = 0.51612E+00
  weight for this iteration     100.00

 eigenvalues of (default mixing * dielectric matrix)
  average eigenvalue GAMMA=   0.3872
  2.2537  1.4599  0.7855  0.4537  0.4537  0.3193  0.1577  0.1577  0.1293  0.1293
[...]
 -0.007  -0.012   0.004   0.003   0.005  -0.006  -0.012   0.004
 -0.011  -0.021   0.007   0.006   0.008  -0.011  -0.020   0.007
 -0.014  -0.005   0.013   0.000   0.022  -0.014  -0.005   0.012
  0.000  -0.023  -0.006  -0.015  -0.000   0.000  -0.022  -0.006
 -0.022   0.000   0.008  -0.005  -0.015  -0.021   0.000   0.008
 -0.017  -0.006   0.015   0.000   0.027  -0.016  -0.006   0.015
  0.000  -0.027  -0.007  -0.018   0.000   0.000  -0.027  -0.007
 -0.027   0.000   0.010  -0.006  -0.018  -0.026   0.000   0.010
 total augmentation occupancy for first ion, spin component:           1
  1.534  -0.035   0.006   0.025   0.023   0.077  -0.007  -0.002   0.034  -0.009   0.097  -0.032   0.012   0.001   0.003  -0.019
 -0.035   1.401   0.028   0.071   0.008  -0.006   0.070   0.011  -0.014  -0.009   0.219  -0.066   0.019   0.002   0.002  -0.006
  0.006   0.028   1.543  -0.013   0.005  -0.003   0.013   0.075  -0.009   0.013  -0.067   0.022  -0.002  -0.007  -0.008   0.016
  0.025   0.071  -0.013   1.334   0.061   0.032  -0.014  -0.009   0.091  -0.026  -0.064   0.016   0.001  -0.010  -0.007   0.001
  0.023   0.008   0.005   0.061   1.432  -0.009  -0.010   0.012  -0.025   0.074  -0.069   0.023  -0.006  -0.009  -0.004   0.027
  0.077  -0.006  -0.003   0.032  -0.009   0.217   0.018  -0.001  -0.044   0.003  -0.049   0.002   0.017  -0.010   0.034  -0.004
 -0.007   0.070   0.013  -0.014  -0.010   0.018   0.262  -0.023  -0.003   0.006  -0.110   0.007  -0.001   0.051  -0.010  -0.000
 -0.002   0.011   0.075  -0.009   0.012  -0.001  -0.023   0.214   0.012  -0.019   0.028  -0.001  -0.012   0.009  -0.017   0.003
  0.034  -0.014  -0.009   0.091  -0.025  -0.044  -0.003   0.012   0.261   0.009   0.040  -0.004  -0.009   0.036   0.005   0.000
 -0.009  -0.009   0.013  -0.026   0.074   0.003   0.006  -0.019   0.009   0.256   0.046  -0.003  -0.037   0.002   0.048   0.007
  0.097   0.219  -0.067  -0.064  -0.069  -0.049  -0.110   0.028   0.040   0.046   0.958  -0.141   0.084   0.014   0.064  -0.012
 -0.032  -0.066   0.022   0.016   0.023   0.002   0.007  -0.001  -0.004  -0.003  -0.141   0.023  -0.014  -0.003  -0.010   0.003
  0.012   0.019  -0.002   0.001  -0.006   0.017  -0.001  -0.012  -0.009  -0.037   0.084  -0.014   0.029  -0.008  -0.004  -0.003
  0.001   0.002  -0.007  -0.010  -0.009  -0.010   0.051   0.009   0.036   0.002   0.014  -0.003  -0.008   0.036   0.004   0.000
  0.003   0.002  -0.008  -0.007  -0.004   0.034  -0.010  -0.017   0.005   0.048   0.064  -0.010  -0.004   0.004   0.034  -0.000
 -0.019  -0.006   0.016   0.001   0.027  -0.004  -0.000   0.003   0.000   0.007  -0.012   0.003  -0.003   0.000  -0.000   0.001
  0.001  -0.028  -0.006  -0.018   0.000   0.001  -0.008  -0.001  -0.006   0.000  -0.003   0.001   0.000  -0.003  -0.000   0.000
 -0.028   0.001   0.012  -0.005  -0.020  -0.006   0.001   0.003  -0.001  -0.007  -0.008   0.001  -0.000  -0.000  -0.003   0.000


------------------------ aborting loop because EDIFF is reached ----------------------------------------


    CHARGE:  cpu time   21.4906: real time   21.4906
    FORLOC:  cpu time    5.8291: real time    5.8290
    FORNL :  cpu time   56.0012: real time   56.0007
    STRESS:  cpu time  169.8452: real time  169.8422
    FORCOR:  cpu time   18.0068: real time   18.0074
    FORHAR:  cpu time    8.1390: real time    8.1389
    MIXING:  cpu time    2.9659: real time    2.9659
    OFIELD:  cpu time    0.0000: real time    0.0000

  FORCE on cell =-STRESS in cart. coord.  units (eV):
  Direction    XX          YY          ZZ          XY          YZ          ZX
  --------------------------------------------------------------------------------------
  Alpha Z    75.25432    75.25432    75.25432
  Ewald   46929.57424 47507.90662 44601.92368 -1950.42180   390.23948  -319.65794
  Hartree 61690.96791 62182.34358 59513.59680 -1728.97577   304.28728  -263.30019
  E(xc)   -2905.81546 -2905.31201 -2906.63541    -1.26505     0.56663    -0.32368
  Local  ************************************  3647.23098  -679.78788   573.16438
  n-local  -878.57272  -876.29632  -876.79493     0.08002     2.19030    -1.51520
  augment  4103.62668  4099.94937  4105.45433     5.12892    -3.75412     2.36132
  Kinetic  7807.36715  7797.10935  7820.07156    21.67039   -10.21334     6.62884
  Fock        0.00000     0.00000     0.00000     0.00000     0.00000     0.00000
  -------------------------------------------------------------------------------------
  Total    -108.15675  -104.10635  -111.44110    -6.55231     3.52835    -2.64246
  in kB      -6.41801    -6.17766    -6.61290    -0.38881     0.20937    -0.15680
  external pressure =       -6.40 kB  Pullay stress =        0.00 kB


 VOLUME and BASIS-vectors are now :
 -----------------------------------------------------------------------------
  energy-cutoff  :      400.00
  volume of cell :    27000.00
      direct lattice vectors                 reciprocal lattice vectors
    30.000000000  0.000000000  0.000000000     0.033333333  0.000000000  0.000000000
     0.000000000 30.000000000  0.000000000     0.000000000  0.033333333  0.000000000
     0.000000000  0.000000000 30.000000000     0.000000000  0.000000000  0.033333333

  length of vectors
    30.000000000 30.000000000 30.000000000     0.033333333  0.033333333  0.033333333


 FORCES acting on ions
    electron-ion (+dipol)            ewald-force                    non-local-force                 convergence-correction
 -----------------------------------------------------------------------------------------------
   0.424E+03 0.970E+03 0.424E+03   -.421E+03 -.967E+03 -.423E+03   -.153E+01 -.186E+01 -.180E+00   0.148E-02 0.140E-02 0.181E-02
   -.972E+03 -.419E+03 0.422E+03   0.969E+03 0.417E+03 -.422E+03   0.184E+01 0.154E+01 -.192E+00   0.205E-02 -.469E-02 0.178E-02
   -.297E+03 0.969E+03 0.470E+03   0.295E+03 -.967E+03 -.470E+03   0.160E+01 -.158E+01 0.499E-02   -.515E-02 0.116E-02 0.197E-02
   0.976E+03 -.398E+03 0.417E+03   -.973E+03 0.396E+03 -.416E+03   -.183E+01 0.151E+01 -.220E+00   -.244E-02 -.455E-02 0.335E-02
   0.241E+02 0.577E+03 0.984E+03   -.242E+02 -.576E+03 -.980E+03   0.500E-01 -.301E+00 -.239E+01   -.199E-02 -.412E-02 0.505E-02
   0.150E+02 0.580E+03 -.981E+03   -.150E+02 -.579E+03 0.977E+03   -.382E-02 -.281E+00 0.239E+01   -.244E-02 -.212E-03 -.423E-02
   0.515E+02 0.115E+04 -.848E+01   -.515E+02 -.114E+04 0.849E+01   0.609E-01 -.311E+01 -.547E-02   -.184E-02 0.501E-02 -.444E-03
   0.114E+04 -.331E+01 -.530E+00   -.113E+04 0.330E+01 0.517E+00   -.311E+01 0.667E-02 0.618E-02   0.186E-02 -.392E-02 0.385E-02
   -.115E+04 -.399E+02 -.597E+01   0.114E+04 0.399E+02 0.598E+01   0.313E+01 -.312E-01 -.517E-02   -.353E-03 -.325E-02 0.865E-03
   0.292E+01 -.114E+04 -.510E+00   -.290E+01 0.113E+04 0.497E+00   -.786E-02 0.311E+01 0.643E-02   0.349E-03 0.321E-02 0.387E-02
   -.558E+03 0.551E+03 0.868E+03   0.556E+03 -.549E+03 -.865E+03   0.158E+01 -.159E+01 -.213E+01   -.246E-02 -.325E-02 0.159E-02
   -.569E+03 0.566E+03 -.847E+03   0.566E+03 -.563E+03 0.843E+03   0.158E+01 -.158E+01 0.222E+01   -.393E-02 -.200E-02 -.172E-02
   0.582E+03 -.582E+03 0.814E+03   -.580E+03 0.580E+03 -.811E+03   -.156E+01 0.156E+01 -.220E+01   -.289E-02 -.115E-02 -.363E-02
   0.581E+03 -.581E+03 -.814E+03   -.579E+03 0.579E+03 0.811E+03   -.156E+01 0.157E+01 0.220E+01   0.120E-02 -.568E-02 0.903E-03
   0.590E+03 0.574E+03 0.818E+03   -.588E+03 -.572E+03 -.815E+03   -.159E+01 -.151E+01 -.219E+01   0.360E-02 -.546E-02 0.388E-02
   0.587E+03 0.575E+03 -.819E+03   -.585E+03 -.573E+03 0.815E+03   -.157E+01 -.153E+01 0.220E+01   0.311E-02 0.154E-02 -.337E-02
   -.575E+03 -.589E+03 0.817E+03   0.573E+03 0.587E+03 -.814E+03   0.152E+01 0.159E+01 -.219E+01   0.263E-02 -.210E-02 -.228E-02
   -.576E+03 -.587E+03 -.818E+03   0.573E+03 0.584E+03 0.815E+03   0.154E+01 0.157E+01 0.220E+01   -.166E-02 -.182E-02 0.242E-02
   0.417E+03 0.970E+03 -.428E+03   -.415E+03 -.967E+03 0.427E+03   -.151E+01 -.185E+01 0.205E+00   0.195E-02 0.419E-02 -.519E-03
   -.971E+03 -.414E+03 -.426E+03   0.968E+03 0.412E+03 0.425E+03   0.184E+01 0.152E+01 0.214E+00   -.588E-03 -.397E-02 0.624E-03
   -.284E+03 0.279E+03 0.473E+03   0.285E+03 -.279E+03 -.474E+03   -.194E+00 0.150E+00 0.572E+00   -.382E-02 -.598E-02 0.401E-02
   0.979E+03 0.390E+03 0.418E+03   -.976E+03 -.388E+03 -.417E+03   -.180E+01 -.153E+01 -.239E+00   0.324E-02 -.622E-02 0.266E-02
   -.391E+03 -.978E+03 0.417E+03   0.388E+03 0.975E+03 -.417E+03   0.152E+01 0.181E+01 -.242E+00   0.384E-02 -.380E-03 -.796E-03
   -.347E+03 0.970E+03 -.465E+03   0.344E+03 -.967E+03 0.465E+03   0.163E+01 -.184E+01 0.922E-01   -.429E-02 0.283E-02 -.719E-03
   0.975E+03 -.398E+03 -.418E+03   -.972E+03 0.395E+03 0.417E+03   -.183E+01 0.153E+01 0.212E+00   0.378E-02 -.625E-02 0.357E-02
   -.980E+03 0.316E+03 0.453E+03   0.977E+03 -.314E+03 -.453E+03   0.168E+01 -.168E+01 -.539E-01   -.167E-02 -.376E-02 0.163E-02
   0.398E+03 -.975E+03 0.417E+03   -.395E+03 0.973E+03 -.416E+03   -.151E+01 0.183E+01 -.215E+00   -.203E-02 -.238E-05 -.315E-03
   0.341E+03 0.309E+03 0.458E+03   -.341E+03 -.310E+03 -.458E+03   0.300E+00 0.412E+00 0.507E+00   0.260E-02 -.888E-02 0.519E-02
   0.502E+02 0.620E+03 -.821E+01   -.504E+02 -.620E+03 0.830E+01   0.100E+00 0.601E+00 -.675E-01   -.262E-02 -.800E-03 0.148E-02
   -.580E+03 -.235E+02 0.982E+03   0.579E+03 0.236E+02 -.978E+03   0.309E+00 -.398E-01 -.238E+01   0.100E-04 -.634E-02 0.570E-03
   -.582E+03 -.150E+02 -.979E+03   0.581E+03 0.150E+02 0.976E+03   0.293E+00 0.588E-02 0.238E+01   -.286E-02 -.386E-02 -.106E-02
   0.594E+03 -.548E+01 0.968E+03   -.593E+03 0.553E+01 -.964E+03   -.292E+00 -.384E-01 -.235E+01   0.666E-03 -.840E-02 0.956E-03
   0.592E+03 -.446E+01 -.968E+03   -.591E+03 0.451E+01 0.965E+03   -.311E+00 -.268E-01 0.236E+01   0.218E-02 -.429E-02 -.336E-02
   0.777E+03 0.756E+03 -.173E+01   -.775E+03 -.754E+03 0.173E+01   -.117E+01 -.113E+01 -.303E-02   0.601E-02 -.492E-03 0.192E-02
   -.757E+03 -.775E+03 -.150E+01   0.755E+03 0.773E+03 0.150E+01   0.114E+01 0.113E+01 -.166E-02   0.169E-02 -.490E-02 0.282E-02
   -.587E+03 0.507E+03 -.127E+03   0.590E+03 -.513E+03 0.123E+03   -.675E+01 0.109E+02 0.656E+01   -.468E-02 -.135E-02 0.131E-02
   0.765E+03 -.765E+03 -.608E+00   -.763E+03 0.763E+03 0.571E+00   -.115E+01 0.116E+01 0.210E-01   -.202E-02 -.623E-02 0.678E-02
   0.114E+02 -.125E+02 0.108E+04   -.114E+02 0.125E+02 -.108E+04   -.378E-01 0.349E-01 -.163E+01   0.947E-03 -.797E-02 0.180E-02
   0.814E+01 -.894E+01 -.108E+04   -.818E+01 0.899E+01 0.107E+04   0.239E-01 -.246E-01 0.159E+01   -.416E-02 -.378E-02 -.448E-02
   0.978E+03 0.390E+03 -.419E+03   -.975E+03 -.388E+03 0.418E+03   -.181E+01 -.153E+01 0.232E+00   0.594E-02 -.177E-02 0.245E-02
   -.391E+03 -.977E+03 -.419E+03   0.389E+03 0.974E+03 0.418E+03   0.153E+01 0.182E+01 0.233E+00   0.262E-03 -.362E-02 0.599E-02
   -.297E+03 0.293E+03 -.479E+03   0.297E+03 -.293E+03 0.479E+03   -.551E+00 0.500E+00 -.223E+00   -.606E-02 -.369E-02 -.134E-02
   0.329E+03 -.330E+03 0.455E+03   -.330E+03 0.330E+03 -.456E+03   0.384E+00 -.384E+00 0.504E+00   0.201E-02 -.110E-01 0.561E-02
   0.337E+03 0.311E+03 -.461E+03   -.337E+03 -.312E+03 0.461E+03   0.327E+00 0.388E+00 -.503E+00   0.713E-03 -.174E-02 0.744E-04
   -.976E+03 0.351E+03 -.455E+03   0.973E+03 -.348E+03 0.454E+03   0.193E+01 -.161E+01 0.200E+00   -.293E-02 -.318E-02 -.483E-03
   0.397E+03 -.975E+03 -.418E+03   -.395E+03 0.972E+03 0.417E+03   -.154E+01 0.183E+01 0.206E+00   -.174E-02 -.524E-02 0.659E-02
   -.312E+03 -.340E+03 0.457E+03   0.312E+03 0.340E+03 -.458E+03   -.397E+00 -.309E+00 0.507E+00   -.552E-03 -.950E-02 0.398E-02
   0.648E+03 -.716E+01 -.110E+01   -.649E+03 0.718E+01 0.110E+01   0.729E+00 -.185E-01 -.673E-03   0.516E-02 -.765E-02 0.717E-02
   -.627E+03 -.460E+02 -.676E+01   0.628E+03 0.459E+02 0.686E+01   -.648E+00 0.158E+00 -.721E-01   -.380E-02 -.628E-02 0.245E-02
   0.478E+01 -.594E+03 0.968E+03   -.482E+01 0.593E+03 -.964E+03   0.324E-01 0.295E+00 -.236E+01   0.137E-02 -.345E-02 -.437E-02
   0.393E+01 -.592E+03 -.968E+03   -.395E+01 0.591E+03 0.964E+03   0.202E-01 0.311E+00 0.237E+01   -.201E-02 -.506E-02 0.161E-02
   0.182E+02 -.200E+02 -.301E+01   -.181E+02 0.200E+02 0.300E+01   -.375E-01 0.372E-01 -.223E-03   -.231E-02 -.877E-02 0.571E-02
   0.328E+03 -.329E+03 -.457E+03   -.329E+03 0.329E+03 0.457E+03   0.359E+00 -.359E+00 -.526E+00   0.392E-03 -.987E-02 0.315E-02
   -.313E+03 -.337E+03 -.460E+03   0.314E+03 0.337E+03 0.461E+03   -.375E+00 -.341E+00 -.507E+00   -.530E-02 -.754E-02 0.150E-02
   0.621E+01 -.648E+03 -.105E+01   -.620E+01 0.649E+03 0.104E+01   0.603E-03 -.726E+00 -.615E-03   -.273E-03 -.113E-01 0.705E-02
   -.223E+03 0.262E+03 0.670E+02   0.212E+03 -.251E+03 -.668E+02   0.998E+01 -.109E+02 -.132E+01   -.114E-02 -.479E-03 0.201E-03
   -.578E+03 0.628E+03 0.845E+02   0.623E+03 -.677E+03 -.915E+02   -.406E+02 0.445E+02 0.593E+01   -.152E-02 0.419E-04 0.404E-03
 -----------------------------------------------------------------------------------------------
   0.383E+02 -.455E+02 -.118E+02   0.227E-12 -.682E-12 -.313E-12   -.383E+02 0.457E+02 0.117E+02   -.225E-01 -.207E+00 0.875E-01
 
 
 POSITION                                       TOTAL-FORCE (eV/Angst)
 -----------------------------------------------------------------------------------
     13.37281      9.84801     12.50759         0.688836      1.107806      0.281044
     20.15199     16.62719     12.50759        -1.105175     -0.703266      0.286193
     16.62719      9.84801     12.50759        -0.656194      1.145654      0.349346
      9.84801     16.62719     12.50759         1.104369     -0.704594      0.287444
     15.00000     11.47521     10.20639        -0.020830      0.416739      1.267290
     15.00000     11.47521     19.79360         0.001964      0.408546     -1.279703
     15.00000      8.28283     15.00000        -0.028320      1.486250      0.001473
      8.28283     15.00000     15.00000         1.513801     -0.004964     -0.002525
     21.71717     15.00000     15.00000        -1.500585      0.014212      0.000759
     15.00000     21.71717     15.00000         0.006700     -1.513442     -0.002825
     18.35858     11.64142     10.25025        -0.754288      0.756001      1.016594
     18.35858     11.64142     19.74975        -0.754174      0.754041     -1.060402
     11.64142     18.35858     10.25025         0.755929     -0.757539      1.067779
     11.64142     18.35858     19.74975         0.757535     -0.759660     -1.064853
     11.64142     11.64142     10.25025         0.766900      0.735180      1.061165
     11.64142     11.64142     19.74975         0.757815      0.739738     -1.069538
     18.35858     18.35858     10.25025        -0.740654     -0.765256      1.059925
     18.35858     18.35858     19.74975        -0.745292     -0.757392     -1.068413
     13.37281      9.84801     17.49241         0.692433      1.108834     -0.288237
     20.15199     16.62719     17.49241        -1.104549     -0.699081     -0.293717
     16.73751     13.26249     12.54279         0.067583     -0.052785     -0.233946
      9.84801     13.37281     12.50759         1.100645      0.708539      0.301187
     16.62719     20.15199     12.50759        -0.706527     -1.099541      0.301418
     16.62719      9.84801     17.49241        -0.742038      1.137544     -0.258018
      9.84801     16.62719     17.49241         1.101170     -0.709679     -0.286106
     20.15199     13.37281     12.50759        -1.121999      0.750578      0.298407
     13.37281     20.15199     12.50759         0.705198     -1.104277      0.285115
     13.26249     13.26249     12.54279        -0.105161     -0.105867     -0.149358
     15.00000     11.52498     15.00000        -0.091160     -0.235224      0.023654
     18.52479     15.00000     10.20639        -0.417545      0.016152      1.270754
     18.52479     15.00000     19.79360        -0.412551     -0.003647     -1.277380
     11.47521     15.00000     10.20640         0.414042      0.010910      1.279775
     11.47521     15.00000     19.79360         0.415393      0.010344     -1.276218
     11.49535     11.49535     15.00000         0.824980      0.828053      0.003193
     18.50465     18.50465     15.00000        -0.830922     -0.803704      0.003297
     18.50465     11.49535     15.00000        -3.653472      5.076018      2.219575
     11.49535     18.50465     15.00000         0.830800     -0.837381     -0.010059
     15.00000     15.00000     10.04368         0.006154     -0.004159      1.181834
     15.00000     15.00000     19.95633        -0.019355      0.021730     -1.154315
      9.84801     13.37281     17.49241         1.101841      0.704990     -0.297146
     16.62719     20.15199     17.49241        -0.703764     -1.100870     -0.297081
     16.73751     13.26249     17.45721         0.139033     -0.115128      0.119871
     13.26249     16.73751     12.54279        -0.107836      0.109334     -0.159122
     13.26249     13.26249     17.45721        -0.103464     -0.103479      0.145517
     20.15199     13.37281     17.49241        -1.134194      0.745873     -0.270976
     13.37281     20.15199     17.49241         0.711397     -1.100486     -0.282650
     16.73751     16.73751     12.54279         0.104579      0.104222     -0.148109
     11.52498     15.00000     15.00000        -0.227193     -0.005430      0.001598
     18.47502     15.00000     15.00000         0.226212      0.037053      0.029934
     15.00000     18.52480     10.20639        -0.008539     -0.414086      1.278856
     15.00000     18.52480     19.79360        -0.007922     -0.414865     -1.275780
     15.00000     15.00000     15.00000         0.007996     -0.006883      0.001261
     13.26249     16.73751     17.45721        -0.105130      0.104804      0.161317
     16.73751     16.73751     17.45721         0.102069      0.101314      0.143132
     15.00000     18.47502     15.00000         0.008149      0.226120      0.000225
     19.32314     10.22893     14.29090        -0.568770     -0.281401     -1.155183
     20.07600      9.39806     14.16741         3.564082     -4.202493     -1.067273
 -----------------------------------------------------------------------------------
    total drift:                                0.002789     -0.005590     -0.000808


--------------------------------------------------------------------------------------------------------



  FREE ENERGIE OF THE ION-ELECTRON SYSTEM (eV)
  ---------------------------------------------------
  free  energy   TOTEN  =      -174.70446104 eV

  energy  without entropy=     -174.66647497  energy(sigma->0) =     -174.69496452
 


--------------------------------------------------------------------------------------------------------


    POTLOK:  cpu time   11.0921: real time   11.0919


--------------------------------------------------------------------------------------------------------


     LOOP+:  cpu time14304.3684: real time14304.9877
    4ORBIT:  cpu time    0.0000: real time    0.0000

 total amount of memory used by VASP MPI-rank0  5486941. kBytes
=======================================================================

   base      :      30000. kBytes
   nonlr-proj:      17126. kBytes
   fftplans  :     924480. kBytes
   grid      :    1872000. kBytes
   one-center:        886. kBytes
   wavefun   :    2642449. kBytes
 
  
  
 General timing and accounting informations for this job:
 ========================================================
  
                  Total CPU time used (sec):    14367.389
                            User time (sec):    13533.041
                          System time (sec):      834.348
                         Elapsed time (sec):    14368.957
  
                   Maximum memory used (kb):     7179176.
                   Average memory used (kb):           0.
  
                          Minor page faults:    777038321
                          Major page faults:            0
                 Voluntary context switches:          668
