<?xml version="1.0" encoding="ISO-8859-1"?>
<modeling>
 <generator>
  <i name="program" type="string">vasp </i>
  <i name="version" type="string">5.4.4.18Apr17-6-g9f103f2a35  </i>
  <i name="subversion" type="string">(build Sep 03 2018 23:53:05) complex            parallel </i>
  <i name="platform" type="string">LinuxIFC </i>
  <i name="date" type="string">2021 12 01 </i>
  <i name="time" type="string">21:04:45 </i>
 </generator>
 <incar>
  <i type="string" name="SYSTEM"> 6_Pd100_top_free_z(O)</i>
  <i type="int" name="ISTART">     0</i>
  <i type="string" name="PREC">normal   			! encut=max(enmax), ngx,y,z</i>
  <i type="string" name="ALGO"> Fast     			! Mix RMM-DIIS and Dav</i>
  <i type="logical" name="ADDGRID"> F  </i>
  <i type="int" name="ISPIN">     1</i>
  <i type="int" name="ICHARG">     2</i>
  <i type="int" name="NELM">   100</i>
  <i type="int" name="NELMIN">     6</i>
  <i type="int" name="IBRION">     2</i>
  <i name="EDIFF">      0.00010000</i>
  <i name="EDIFFG">     -0.05000000</i>
  <i type="int" name="NSW">     0</i>
  <i type="int" name="ISIF">     2</i>
  <i type="int" name="ISYM">     2</i>
  <i name="ENCUT">    400.00000000</i>
  <i type="string" name="LREAL"> Auto     			! Auto or A projection done</i>
  <i type="int" name="ISMEAR">     2</i>
  <i name="SIGMA">      0.20000000</i>
  <i type="logical" name="LWAVE"> F  </i>
  <i type="logical" name="LCHARG"> F  </i>
  <v type="int" name="KPOINT_BSE">    -1     0     0     0</v>
  <i type="int" name="MAXMEM"> 10000</i>
  <i type="int" name="NELM">   100</i>
  <i type="string" name="GGA"> RP         			! Revised PBE</i>
 </incar>
 <structure name="primitive_cell" >
  <crystal>
   <varray name="basis" >
    <v>      30.00000000       0.00000000       0.00000000 </v>
    <v>       0.00000000      30.00000000       0.00000000 </v>
    <v>       0.00000000       0.00000000      30.00000000 </v>
   </varray>
   <i name="volume">  27000.00000000 </i>
   <varray name="rec_basis" >
    <v>       0.03333333       0.00000000       0.00000000 </v>
    <v>       0.00000000       0.03333333       0.00000000 </v>
    <v>       0.00000000       0.00000000       0.03333333 </v>
   </varray>
  </crystal>
  <varray name="positions" >
   <v>       0.44576020       0.32826710       0.41691983 </v>
   <v>      -0.44576020       0.32826710       0.41691983 </v>
   <v>      -0.50000000       0.38250690       0.34021317 </v>
   <v>      -0.50000000       0.27609440      -0.50000000 </v>
   <v>       0.38804720       0.38804720       0.34167483 </v>
   <v>      -0.50000000       0.38416601      -0.50000000 </v>
   <v>       0.44208300       0.44208300       0.41809300 </v>
   <v>       0.38317830       0.38317830      -0.50000000 </v>
   <v>      -0.44208300       0.44208300       0.41809300 </v>
   <v>       0.44576020       0.32826710      -0.41691977 </v>
   <v>       0.32826705       0.44576024       0.41691983 </v>
   <v>      -0.38804720       0.38804720       0.34167483 </v>
   <v>      -0.38317830       0.38317830      -0.50000000 </v>
   <v>      -0.50000000      -0.50000000       0.33478917 </v>
   <v>      -0.50000000      -0.50000000      -0.50000000 </v>
   <v>      -0.44576020       0.32826710      -0.41691977 </v>
   <v>       0.38250685      -0.49999995       0.34021317 </v>
   <v>       0.44208300       0.44208300      -0.41809297 </v>
   <v>       0.38416599      -0.49999998      -0.50000000 </v>
   <v>      -0.44208300       0.44208300      -0.41809297 </v>
   <v>       0.44208298      -0.44208298       0.41809300 </v>
   <v>       0.32826705       0.44576024      -0.41691977 </v>
   <v>      -0.50000000       0.38250690      -0.34021320 </v>
   <v>       0.32826712      -0.44576022       0.41691983 </v>
   <v>      -0.38250685      -0.49999995       0.34021317 </v>
   <v>      -0.32826705       0.44576024       0.41691983 </v>
   <v>       0.27609443       0.49999998      -0.50000000 </v>
   <v>       0.38804720       0.38804720      -0.34167487 </v>
   <v>      -0.38416599      -0.49999998      -0.50000000 </v>
   <v>      -0.44208298      -0.44208298       0.41809300 </v>
   <v>       0.44208298      -0.44208298      -0.41809297 </v>
   <v>      -0.38804720       0.38804720      -0.34167487 </v>
   <v>       0.38804722      -0.38804722       0.34167483 </v>
   <v>       0.38250685      -0.49999995      -0.34021320 </v>
   <v>       0.32826712      -0.44576022      -0.41691977 </v>
   <v>      -0.32826705       0.44576024      -0.41691977 </v>
   <v>       0.50000000      -0.38250681       0.34021317 </v>
   <v>      -0.50000000      -0.38416596      -0.50000000 </v>
   <v>      -0.44208298      -0.44208298      -0.41809297 </v>
   <v>      -0.50000000      -0.50000000      -0.33478913 </v>
   <v>       0.38317828      -0.38317828      -0.50000000 </v>
   <v>      -0.32826712      -0.44576022       0.41691983 </v>
   <v>      -0.27609443       0.49999998      -0.50000000 </v>
   <v>      -0.38804722      -0.38804722       0.34167483 </v>
   <v>      -0.38250685      -0.49999995      -0.34021320 </v>
   <v>       0.44576027      -0.32826707       0.41691983 </v>
   <v>      -0.38317828      -0.38317828      -0.50000000 </v>
   <v>      -0.32826712      -0.44576022      -0.41691977 </v>
   <v>      -0.44576027      -0.32826707       0.41691983 </v>
   <v>       0.38804722      -0.38804722      -0.34167487 </v>
   <v>      -0.50000000      -0.38250681      -0.34021320 </v>
   <v>       0.44576027      -0.32826707      -0.41691977 </v>
   <v>      -0.44576027      -0.32826707      -0.41691977 </v>
   <v>      -0.50000000      -0.27609445       0.50000000 </v>
   <v>      -0.38804722      -0.38804722      -0.34167487 </v>
   <v>      -0.34669617      -0.34650627      -0.27919847 </v>
   <v>      -0.32807430      -0.32786137      -0.25237767 </v>
  </varray>
 </structure>
 <varray name="primitive_index" >
  <v type="int" >        1 </v>
  <v type="int" >        3 </v>
  <v type="int" >        5 </v>
  <v type="int" >        7 </v>
  <v type="int" >       15 </v>
  <v type="int" >       29 </v>
  <v type="int" >       28 </v>
  <v type="int" >       34 </v>
  <v type="int" >       21 </v>
  <v type="int" >       19 </v>
  <v type="int" >       22 </v>
  <v type="int" >       11 </v>
  <v type="int" >       36 </v>
  <v type="int" >       38 </v>
  <v type="int" >       52 </v>
  <v type="int" >       24 </v>
  <v type="int" >       32 </v>
  <v type="int" >       44 </v>
  <v type="int" >       48 </v>
  <v type="int" >       42 </v>
  <v type="int" >       43 </v>
  <v type="int" >       40 </v>
  <v type="int" >        6 </v>
  <v type="int" >        4 </v>
  <v type="int" >       30 </v>
  <v type="int" >       26 </v>
  <v type="int" >        8 </v>
  <v type="int" >       16 </v>
  <v type="int" >       49 </v>
  <v type="int" >       47 </v>
  <v type="int" >       53 </v>
  <v type="int" >       12 </v>
  <v type="int" >       13 </v>
  <v type="int" >       33 </v>
  <v type="int" >       25 </v>
  <v type="int" >       45 </v>
  <v type="int" >       50 </v>
  <v type="int" >       55 </v>
  <v type="int" >       54 </v>
  <v type="int" >       39 </v>
  <v type="int" >       37 </v>
  <v type="int" >        2 </v>
  <v type="int" >        9 </v>
  <v type="int" >       17 </v>
  <v type="int" >       31 </v>
  <v type="int" >       27 </v>
  <v type="int" >       35 </v>
  <v type="int" >       20 </v>
  <v type="int" >       23 </v>
  <v type="int" >       14 </v>
  <v type="int" >       51 </v>
  <v type="int" >       46 </v>
  <v type="int" >       41 </v>
  <v type="int" >       10 </v>
  <v type="int" >       18 </v>
  <v type="int" >       56 </v>
  <v type="int" >       57 </v>
 </varray>
 <kpoints>
  <generation param="Monkhorst-Pack">
   <v type="int" name="divisions">       1        1        1 </v>
   <v name="usershift">      0.00000000       0.00000000       0.00000000 </v>
   <v name="genvec1">      1.00000000       0.00000000       0.00000000 </v>
   <v name="genvec2">      0.00000000       1.00000000       0.00000000 </v>
   <v name="genvec3">      0.00000000       0.00000000       1.00000000 </v>
   <v name="shift">      0.00000000       0.00000000       0.00000000 </v>
  </generation>
  <varray name="kpointlist" >
   <v>       0.00000000       0.00000000       0.00000000 </v>
  </varray>
  <varray name="weights" >
   <v>       1.00000000 </v>
  </varray>
 </kpoints>
 <parameters>
  <separator name="general" >
   <i type="string" name="SYSTEM">6_Pd100_top_free_z(O)</i>
   <i type="logical" name="LCOMPAT"> F  </i>
  </separator>
  <separator name="electronic" >
   <i type="string" name="PREC">normal</i>
   <i name="ENMAX">    400.00000000</i>
   <i name="ENAUG">    644.87300000</i>
   <i name="EDIFF">      0.00010000</i>
   <i type="int" name="IALGO">    68</i>
   <i type="int" name="IWAVPR">    10</i>
   <i type="int" name="NBANDS">   336</i>
   <i name="NELECT">    560.00000000</i>
   <i type="int" name="TURBO">     0</i>
   <i type="int" name="IRESTART">     0</i>
   <i type="int" name="NREBOOT">     0</i>
   <i type="int" name="NMIN">     0</i>
   <i name="EREF">      0.00000000</i>
   <separator name="electronic smearing" >
    <i type="int" name="ISMEAR">     2</i>
    <i name="SIGMA">      0.20000000</i>
    <i name="KSPACING">      0.50000000</i>
    <i type="logical" name="KGAMMA"> T  </i>
   </separator>
   <separator name="electronic projectors" >
    <i type="logical" name="LREAL"> T  </i>
    <v name="ROPT">     -0.00050000     -0.00050000     -0.00050000</v>
    <i type="int" name="LMAXPAW">  -100</i>
    <i type="int" name="LMAXMIX">     2</i>
    <i type="logical" name="NLSPLINE"> F  </i>
   </separator>
   <separator name="electronic startup" >
    <i type="int" name="ISTART">     0</i>
    <i type="int" name="ICHARG">     2</i>
    <i type="int" name="INIWAV">     1</i>
   </separator>
   <separator name="electronic spin" >
    <i type="int" name="ISPIN">     1</i>
    <i type="logical" name="LNONCOLLINEAR"> F  </i>
    <v name="MAGMOM">      1.00000000      1.00000000      1.00000000      1.00000000      1.00000000      1.00000000      1.00000000      1.00000000      1.00000000      1.00000000      1.00000000      1.00000000      1.00000000      1.00000000      1.00000000      1.00000000      1.00000000      1.00000000      1.00000000      1.00000000
      1.00000000      1.00000000      1.00000000      1.00000000      1.00000000      1.00000000      1.00000000      1.00000000      1.00000000      1.00000000      1.00000000      1.00000000      1.00000000      1.00000000      1.00000000      1.00000000      1.00000000      1.00000000      1.00000000      1.00000000
      1.00000000      1.00000000      1.00000000      1.00000000      1.00000000      1.00000000      1.00000000      1.00000000      1.00000000      1.00000000      1.00000000      1.00000000      1.00000000      1.00000000      1.00000000      1.00000000      1.00000000</v>
    <i name="NUPDOWN">     -1.00000000</i>
    <i type="logical" name="LSORBIT"> F  </i>
    <v name="SAXIS">      0.00000000      0.00000000      1.00000000</v>
    <i type="logical" name="LSPIRAL"> F  </i>
    <v name="QSPIRAL">      0.00000000      0.00000000      0.00000000</v>
    <i type="logical" name="LZEROZ"> F  </i>
   </separator>
   <separator name="electronic exchange-correlation" >
    <i type="logical" name="LASPH"> F  </i>
    <i type="logical" name="LMETAGGA"> F  </i>
   </separator>
   <separator name="electronic convergence" >
    <i type="int" name="NELM">   100</i>
    <i type="int" name="NELMDL">    -5</i>
    <i type="int" name="NELMIN">     6</i>
    <i name="ENINI">    400.00000000</i>
    <separator name="electronic convergence detail" >
     <i type="logical" name="LDIAG"> T  </i>
     <i type="logical" name="LSUBROT"> F  </i>
     <i name="WEIMIN">      0.00000000</i>
     <i name="EBREAK">      0.00000007</i>
     <i name="DEPER">      0.30000000</i>
     <i type="int" name="NRMM">     4</i>
     <i name="TIME">      0.40000000</i>
    </separator>
   </separator>
   <separator name="electronic mixer" >
    <i name="AMIX">      0.40000000</i>
    <i name="BMIX">      1.00000000</i>
    <i name="AMIN">      0.10000000</i>
    <i name="AMIX_MAG">      1.60000000</i>
    <i name="BMIX_MAG">      1.00000000</i>
    <separator name="electronic mixer details" >
     <i type="int" name="IMIX">     4</i>
     <i type="logical" name="MIXFIRST"> F  </i>
     <i type="int" name="MAXMIX">   -45</i>
     <i name="WC">    100.00000000</i>
     <i type="int" name="INIMIX">     1</i>
     <i type="int" name="MIXPRE">     1</i>
     <i type="int" name="MREMOVE">     5</i>
    </separator>
   </separator>
   <separator name="electronic dipolcorrection" >
    <i type="logical" name="LDIPOL"> F  </i>
    <i type="logical" name="LMONO"> F  </i>
    <i type="int" name="IDIPOL">     0</i>
    <i name="EPSILON">      1.00000000</i>
    <v name="DIPOL">   -100.00000000   -100.00000000   -100.00000000</v>
    <i name="EFIELD">      0.00000000</i>
   </separator>
  </separator>
  <separator name="grids" >
   <i type="int" name="NGX">   150</i>
   <i type="int" name="NGY">   150</i>
   <i type="int" name="NGZ">   150</i>
   <i type="int" name="NGXF">   300</i>
   <i type="int" name="NGYF">   300</i>
   <i type="int" name="NGZF">   300</i>
   <i type="logical" name="ADDGRID"> F  </i>
  </separator>
  <separator name="ionic" >
   <i type="int" name="NSW">     0</i>
   <i type="int" name="IBRION">    -1</i>
   <i type="int" name="MDALGO">     0</i>
   <i type="int" name="ISIF">     2</i>
   <i name="PSTRESS">      0.00000000</i>
   <i name="EDIFFG">     -0.05000000</i>
   <i type="int" name="NFREE">     1</i>
   <i name="POTIM">      0.50000000</i>
   <i name="SMASS">     -3.00000000</i>
   <i name="SCALEE">      1.00000000</i>
  </separator>
  <separator name="ionic md" >
   <i name="TEBEG">      0.00010000</i>
   <i name="TEEND">      0.00010000</i>
   <i type="int" name="NBLOCK">     1</i>
   <i type="int" name="KBLOCK">     1</i>
   <i type="int" name="NPACO">   256</i>
   <i name="APACO">     16.00000000</i>
  </separator>
  <separator name="symmetry" >
   <i type="int" name="ISYM">     2</i>
   <i name="SYMPREC">      0.00001000</i>
  </separator>
  <separator name="dos" >
   <i type="int" name="LORBIT">     0</i>
   <v name="RWIGS">     -1.00000000     -1.00000000     -1.00000000</v>
   <i type="int" name="NEDOS">   301</i>
   <i name="EMIN">     10.00000000</i>
   <i name="EMAX">    -10.00000000</i>
   <i name="EFERMI">      0.00000000</i>
  </separator>
  <separator name="writing" >
   <i type="int" name="NWRITE">     2</i>
   <i type="logical" name="LWAVE"> F  </i>
   <i type="logical" name="LDOWNSAMPLE"> F  </i>
   <i type="logical" name="LCHARG"> F  </i>
   <i type="logical" name="LPARD"> F  </i>
   <i type="logical" name="LVTOT"> F  </i>
   <i type="logical" name="LVHAR"> F  </i>
   <i type="logical" name="LELF"> F  </i>
   <i type="logical" name="LOPTICS"> F  </i>
   <v name="STM">      0.00000000      0.00000000      0.00000000      0.00000000      0.00000000      0.00000000      0.00000000</v>
  </separator>
  <separator name="performance" >
   <i type="int" name="NPAR">     1</i>
   <i type="int" name="NSIM">     4</i>
   <i type="int" name="NBLK">    -1</i>
   <i type="logical" name="LPLANE"> T  </i>
   <i type="logical" name="LSCALAPACK"> T  </i>
   <i type="logical" name="LSCAAWARE"> F  </i>
   <i type="logical" name="LSCALU"> F  </i>
   <i type="logical" name="LASYNC"> F  </i>
   <i type="logical" name="LORBITALREAL"> F  </i>
  </separator>
  <separator name="miscellaneous" >
   <i type="int" name="IDIOT">     3</i>
   <i type="int" name="ISPECIAL">     0</i>
   <i type="logical" name="LMUSIC"> F  </i>
   <v name="POMASS">    106.42000000     12.01100000     16.00000000</v>
   <v name="DARWINR">      0.00000000      0.00000000      0.00000000</v>
   <v name="DARWINV">      1.00000000      1.00000000      1.00000000</v>
   <i type="logical" name="LCORR"> T  </i>
  </separator>
  <i type="logical" name="GGA_COMPAT"> T  </i>
  <i type="logical" name="LBERRY"> F  </i>
  <i type="int" name="ICORELEVEL">     0</i>
  <i type="logical" name="LDAU"> F  </i>
  <i type="int" name="I_CONSTRAINED_M">     0</i>
  <separator name="electronic exchange-correlation" >
   <i type="string" name="GGA">RP</i>
   <i type="int" name="VOSKOWN">     0</i>
   <i type="logical" name="LHFCALC"> F  </i>
   <i type="string" name="PRECFOCK"></i>
   <i type="logical" name="LSYMGRAD"> F  </i>
   <i type="logical" name="LHFONE"> F  </i>
   <i type="logical" name="LRHFCALC"> F  </i>
   <i type="logical" name="LTHOMAS"> F  </i>
   <i type="logical" name="LMODELHF"> F  </i>
   <i name="ENCUT4O">     -1.00000000</i>
   <i type="int" name="EXXOEP">     0</i>
   <i type="int" name="FOURORBIT">     0</i>
   <i name="AEXX">      0.00000000</i>
   <i name="HFALPHA">      0.00000000</i>
   <i name="MCALPHA">      0.00000000</i>
   <i name="ALDAX">      1.00000000</i>
   <i name="AGGAX">      1.00000000</i>
   <i name="ALDAC">      1.00000000</i>
   <i name="AGGAC">      1.00000000</i>
   <i type="int" name="NKREDX">     1</i>
   <i type="int" name="NKREDY">     1</i>
   <i type="int" name="NKREDZ">     1</i>
   <i type="logical" name="SHIFTRED"> F  </i>
   <i type="logical" name="ODDONLY"> F  </i>
   <i type="logical" name="EVENONLY"> F  </i>
   <i type="int" name="LMAXFOCK">     0</i>
   <i type="int" name="NMAXFOCKAE">     0</i>
   <i type="logical" name="LFOCKAEDFT"> F  </i>
   <i name="HFSCREEN">      0.00000000</i>
   <i name="HFSCREENC">      0.00000000</i>
   <i type="int" name="NBANDSGWLOW">     0</i>
  </separator>
  <separator name="vdW DFT" >
   <i type="logical" name="LUSE_VDW"> F  </i>
   <i name="Zab_VDW">     -0.84910000</i>
   <i name="PARAM1">      0.12340000</i>
   <i name="PARAM2">      1.00000000</i>
   <i name="PARAM3">      0.00000000</i>
  </separator>
  <separator name="model GW" >
   <i type="int" name="MODEL_GW">     0</i>
   <i name="MODEL_EPS0">    284.21052632</i>
   <i name="MODEL_ALPHA">      1.00000000</i>
  </separator>
  <separator name="linear response parameters" >
   <i type="logical" name="LEPSILON"> F  </i>
   <i type="logical" name="LRPA"> F  </i>
   <i type="logical" name="LNABLA"> F  </i>
   <i type="logical" name="LVEL"> F  </i>
   <i type="int" name="KINTER">     0</i>
   <i name="CSHIFT">      0.10000000</i>
   <i name="OMEGAMAX">     -1.00000000</i>
   <i name="DEG_THRESHOLD">      0.00200000</i>
   <i name="RTIME">     -0.10000000</i>
   <i name="WPLASMAI">      0.00000000</i>
   <v name="DFIELD">      0.00000000      0.00000000      0.00000000</v>
   <v name="WPLASMA">      0.00000000      0.00000000      0.00000000      0.00000000      0.00000000      0.00000000      0.00000000      0.00000000      0.00000000</v>
  </separator>
  <separator name="orbital magnetization" >
   <i type="logical" name="NUCIND"> F  </i>
   <v name="MAGPOS">      0.00000000      0.00000000      0.00000000</v>
   <i type="logical" name="LNICSALL"> T  </i>
   <i type="logical" name="ORBITALMAG"> F  </i>
   <i type="logical" name="LMAGBLOCH"> F  </i>
   <i type="logical" name="LCHIMAG"> F  </i>
   <i type="logical" name="LGAUGE"> T  </i>
   <i type="int" name="MAGATOM">     0</i>
   <v name="MAGDIPOL">      0.00000000      0.00000000      0.00000000</v>
   <v name="AVECCONST">      0.00000000      0.00000000      0.00000000</v>
  </separator>
  <separator name="response functions" >
   <i type="logical" name="LADDER"> F  </i>
   <i type="logical" name="LRPAFORCE"> F  </i>
   <i type="logical" name="LFXC"> F  </i>
   <i type="logical" name="LHARTREE"> T  </i>
   <i type="int" name="IBSE">     0</i>
   <v type="int" name="KPOINT">    -1     0     0     0</v>
   <i type="logical" name="LTCTE"> F  </i>
   <i type="logical" name="LTETE"> F  </i>
   <i type="logical" name="LTRIPLET"> F  </i>
   <i type="logical" name="LFXCEPS"> F  </i>
   <i type="logical" name="LFXHEG"> F  </i>
   <i type="int" name="NATURALO">     2</i>
   <i type="logical" name="L2ORDER"> F  </i>
   <i type="logical" name="LMP2LT"> F  </i>
   <i type="logical" name="LUSEW"> F  </i>
   <i name="ENCUTGW">     -2.00000000</i>
   <i name="ENCUTGWSOFT">     -2.00000000</i>
   <i name="ENCUTLF">     -1.00000000</i>
   <i type="int" name="LMAXMP2">    -1</i>
   <i name="SCISSOR">      0.00000000</i>
   <i type="int" name="NOMEGA">     0</i>
   <i type="int" name="NOMEGAR">     0</i>
   <i type="int" name="NBANDSGW">    -1</i>
   <i type="int" name="NBANDSO">    -1</i>
   <i type="int" name="NBANDSV">    -1</i>
   <i type="int" name="NELM">   100</i>
   <i type="int" name="NELMHF">     1</i>
   <i type="int" name="DIM">     3</i>
   <i type="int" name="ANTIRES">     0</i>
   <i name="OMEGAMAX">    -30.00000000</i>
   <i name="OMEGAMIN">    -30.00000000</i>
   <i name="OMEGATL">   -200.00000000</i>
   <i type="int" name="OMEGAGRID">   140</i>
   <i name="CSHIFT">     -0.10000000</i>
   <i type="logical" name="SELFENERGY"> F  </i>
   <i type="logical" name="LSPECTRAL"> F  </i>
   <i type="logical" name="LSPECTRALGW"> F  </i>
   <i type="logical" name="LSINGLES"> F  </i>
   <i type="logical" name="LFERMIGW"> F  </i>
   <i type="logical" name="ODDONLYGW"> F  </i>
   <i type="logical" name="EVENONLYGW"> F  </i>
   <i type="int" name="NKREDLFX">     1</i>
   <i type="int" name="NKREDLFY">     1</i>
   <i type="int" name="NKREDLFZ">     1</i>
   <i type="int" name="MAXMEM"> 10000</i>
   <i type="int" name="TELESCOPE">     0</i>
   <i type="int" name="TAUPAR">     1</i>
   <i type="int" name="OMEGAPAR">    -1</i>
   <i name="LAMBDA">      1.00000000</i>
  </separator>
  <separator name="External order field" >
   <i name="OFIELD_KAPPA">      0.00000000</i>
   <v name="OFIELD_K">      0.00000000      0.00000000      0.00000000</v>
   <i name="OFIELD_Q6_NEAR">      0.00000000</i>
   <i name="OFIELD_Q6_FAR">      0.00000000</i>
   <i name="OFIELD_A">      0.00000000</i>
  </separator>
 </parameters>
 <atominfo>
  <atoms>      57 </atoms>
  <types>       3 </types>
  <array name="atoms" >
   <dimension dim="1">ion</dimension>
   <field type="string">element</field>
   <field type="int">atomtype</field>
   <set>
    <rc><c>Pd</c><c>   1</c></rc>
    <rc><c>Pd</c><c>   1</c></rc>
    <rc><c>Pd</c><c>   1</c></rc>
    <rc><c>Pd</c><c>   1</c></rc>
    <rc><c>Pd</c><c>   1</c></rc>
    <rc><c>Pd</c><c>   1</c></rc>
    <rc><c>Pd</c><c>   1</c></rc>
    <rc><c>Pd</c><c>   1</c></rc>
    <rc><c>Pd</c><c>   1</c></rc>
    <rc><c>Pd</c><c>   1</c></rc>
    <rc><c>Pd</c><c>   1</c></rc>
    <rc><c>Pd</c><c>   1</c></rc>
    <rc><c>Pd</c><c>   1</c></rc>
    <rc><c>Pd</c><c>   1</c></rc>
    <rc><c>Pd</c><c>   1</c></rc>
    <rc><c>Pd</c><c>   1</c></rc>
    <rc><c>Pd</c><c>   1</c></rc>
    <rc><c>Pd</c><c>   1</c></rc>
    <rc><c>Pd</c><c>   1</c></rc>
    <rc><c>Pd</c><c>   1</c></rc>
    <rc><c>Pd</c><c>   1</c></rc>
    <rc><c>Pd</c><c>   1</c></rc>
    <rc><c>Pd</c><c>   1</c></rc>
    <rc><c>Pd</c><c>   1</c></rc>
    <rc><c>Pd</c><c>   1</c></rc>
    <rc><c>Pd</c><c>   1</c></rc>
    <rc><c>Pd</c><c>   1</c></rc>
    <rc><c>Pd</c><c>   1</c></rc>
    <rc><c>Pd</c><c>   1</c></rc>
    <rc><c>Pd</c><c>   1</c></rc>
    <rc><c>Pd</c><c>   1</c></rc>
    <rc><c>Pd</c><c>   1</c></rc>
    <rc><c>Pd</c><c>   1</c></rc>
    <rc><c>Pd</c><c>   1</c></rc>
    <rc><c>Pd</c><c>   1</c></rc>
    <rc><c>Pd</c><c>   1</c></rc>
    <rc><c>Pd</c><c>   1</c></rc>
    <rc><c>Pd</c><c>   1</c></rc>
    <rc><c>Pd</c><c>   1</c></rc>
    <rc><c>Pd</c><c>   1</c></rc>
    <rc><c>Pd</c><c>   1</c></rc>
    <rc><c>Pd</c><c>   1</c></rc>
    <rc><c>Pd</c><c>   1</c></rc>
    <rc><c>Pd</c><c>   1</c></rc>
    <rc><c>Pd</c><c>   1</c></rc>
    <rc><c>Pd</c><c>   1</c></rc>
    <rc><c>Pd</c><c>   1</c></rc>
    <rc><c>Pd</c><c>   1</c></rc>
    <rc><c>Pd</c><c>   1</c></rc>
    <rc><c>Pd</c><c>   1</c></rc>
    <rc><c>Pd</c><c>   1</c></rc>
    <rc><c>Pd</c><c>   1</c></rc>
    <rc><c>Pd</c><c>   1</c></rc>
    <rc><c>Pd</c><c>   1</c></rc>
    <rc><c>Pd</c><c>   1</c></rc>
    <rc><c>C </c><c>   2</c></rc>
    <rc><c>O </c><c>   3</c></rc>
   </set>
  </array>
  <array name="atomtypes" >
   <dimension dim="1">type</dimension>
   <field type="int">atomspertype</field>
   <field type="string">element</field>
   <field>mass</field>
   <field>valence</field>
   <field type="string">pseudopotential</field>
   <set>
    <rc><c>  55</c><c>Pd</c><c>    106.42000000</c><c>     10.00000000</c><c>  PAW_PBE Pd 04Jan2005                  </c></rc>
    <rc><c>   1</c><c>C </c><c>     12.01100000</c><c>      4.00000000</c><c>  PAW_PBE C 08Apr2002                   </c></rc>
    <rc><c>   1</c><c>O </c><c>     16.00000000</c><c>      6.00000000</c><c>  PAW_PBE O 08Apr2002                   </c></rc>
   </set>
  </array>
 </atominfo>
 <structure name="initialpos" >
  <crystal>
   <varray name="basis" >
    <v>      30.00000000       0.00000000       0.00000000 </v>
    <v>       0.00000000      30.00000000       0.00000000 </v>
    <v>       0.00000000       0.00000000      30.00000000 </v>
   </varray>
   <i name="volume">  27000.00000000 </i>
   <varray name="rec_basis" >
    <v>       0.03333333       0.00000000       0.00000000 </v>
    <v>       0.00000000       0.03333333       0.00000000 </v>
    <v>       0.00000000       0.00000000       0.03333333 </v>
   </varray>
  </crystal>
  <varray name="positions" >
   <v>       0.44576020       0.32826710       0.41691983 </v>
   <v>       0.67173288       0.55423978       0.41691983 </v>
   <v>       0.55423980       0.32826710       0.41691983 </v>
   <v>       0.32826712       0.55423978       0.41691983 </v>
   <v>       0.50000000       0.38250690       0.34021317 </v>
   <v>       0.50000000       0.38250690       0.65978680 </v>
   <v>       0.50000000       0.27609440       0.50000000 </v>
   <v>       0.27609443       0.49999998       0.50000000 </v>
   <v>       0.72390557       0.49999998       0.50000000 </v>
   <v>       0.50000000       0.72390555       0.50000000 </v>
   <v>       0.61195280       0.38804720       0.34167483 </v>
   <v>       0.61195280       0.38804720       0.65832513 </v>
   <v>       0.38804722       0.61195278       0.34167483 </v>
   <v>       0.38804722       0.61195278       0.65832513 </v>
   <v>       0.38804720       0.38804720       0.34167483 </v>
   <v>       0.38804720       0.38804720       0.65832513 </v>
   <v>       0.61195278       0.61195278       0.34167483 </v>
   <v>       0.61195278       0.61195278       0.65832513 </v>
   <v>       0.44576020       0.32826710       0.58308023 </v>
   <v>       0.67173288       0.55423978       0.58308023 </v>
   <v>       0.55791699       0.44208301       0.41809300 </v>
   <v>       0.32826705       0.44576024       0.41691983 </v>
   <v>       0.55423973       0.67173293       0.41691983 </v>
   <v>       0.55423980       0.32826710       0.58308023 </v>
   <v>       0.32826712       0.55423978       0.58308023 </v>
   <v>       0.67173295       0.44576024       0.41691983 </v>
   <v>       0.44576027       0.67173293       0.41691983 </v>
   <v>       0.44208301       0.44208301       0.41809300 </v>
   <v>       0.50000000       0.38416601       0.50000000 </v>
   <v>       0.61749315       0.50000005       0.34021317 </v>
   <v>       0.61749315       0.50000005       0.65978680 </v>
   <v>       0.38250685       0.50000005       0.34021317 </v>
   <v>       0.38250685       0.50000005       0.65978680 </v>
   <v>       0.38317830       0.38317830       0.50000000 </v>
   <v>       0.61682172       0.61682172       0.50000000 </v>
   <v>       0.61682170       0.38317830       0.50000000 </v>
   <v>       0.38317828       0.61682172       0.50000000 </v>
   <v>       0.50000000       0.50000000       0.33478917 </v>
   <v>       0.50000000       0.50000000       0.66521087 </v>
   <v>       0.32826705       0.44576024       0.58308023 </v>
   <v>       0.55423973       0.67173293       0.58308023 </v>
   <v>       0.55791699       0.44208301       0.58190703 </v>
   <v>       0.44208298       0.55791702       0.41809300 </v>
   <v>       0.44208301       0.44208301       0.58190703 </v>
   <v>       0.67173295       0.44576024       0.58308023 </v>
   <v>       0.44576027       0.67173293       0.58308023 </v>
   <v>       0.55791702       0.55791702       0.41809300 </v>
   <v>       0.38416599       0.50000002       0.50000000 </v>
   <v>       0.61583401       0.50000002       0.50000000 </v>
   <v>       0.50000000       0.61749319       0.34021317 </v>
   <v>       0.50000000       0.61749319       0.65978680 </v>
   <v>       0.50000000       0.50000000       0.50000000 </v>
   <v>       0.44208298       0.55791702       0.58190703 </v>
   <v>       0.55791702       0.55791702       0.58190703 </v>
   <v>       0.50000000       0.61583404       0.50000000 </v>
   <v>       0.65330383       0.65349373       0.72080153 </v>
   <v>       0.67192570       0.67213863       0.74762233 </v>
  </varray>
  <varray name="selective"  type="logical" >
   <v type="logical" >  F  F  F </v>
   <v type="logical" >  F  F  F </v>
   <v type="logical" >  F  F  F </v>
   <v type="logical" >  F  F  F </v>
   <v type="logical" >  F  F  F </v>
   <v type="logical" >  F  F  F </v>
   <v type="logical" >  F  F  F </v>
   <v type="logical" >  F  F  F </v>
   <v type="logical" >  F  F  F </v>
   <v type="logical" >  F  F  F </v>
   <v type="logical" >  F  F  F </v>
   <v type="logical" >  F  F  F </v>
   <v type="logical" >  F  F  F </v>
   <v type="logical" >  F  F  F </v>
   <v type="logical" >  F  F  F </v>
   <v type="logical" >  F  F  F </v>
   <v type="logical" >  F  F  F </v>
   <v type="logical" >  F  F  F </v>
   <v type="logical" >  F  F  F </v>
   <v type="logical" >  F  F  F </v>
   <v type="logical" >  F  F  F </v>
   <v type="logical" >  F  F  F </v>
   <v type="logical" >  F  F  F </v>
   <v type="logical" >  F  F  F </v>
   <v type="logical" >  F  F  F </v>
   <v type="logical" >  F  F  F </v>
   <v type="logical" >  F  F  F </v>
   <v type="logical" >  F  F  F </v>
   <v type="logical" >  F  F  F </v>
   <v type="logical" >  F  F  F </v>
   <v type="logical" >  F  F  F </v>
   <v type="logical" >  F  F  F </v>
   <v type="logical" >  F  F  F </v>
   <v type="logical" >  F  F  F </v>
   <v type="logical" >  F  F  F </v>
   <v type="logical" >  F  F  F </v>
   <v type="logical" >  F  F  F </v>
   <v type="logical" >  F  F  F </v>
   <v type="logical" >  F  F  F </v>
   <v type="logical" >  F  F  F </v>
   <v type="logical" >  F  F  F </v>
   <v type="logical" >  F  F  F </v>
   <v type="logical" >  F  F  F </v>
   <v type="logical" >  F  F  F </v>
   <v type="logical" >  F  F  F </v>
   <v type="logical" >  F  F  F </v>
   <v type="logical" >  F  F  F </v>
   <v type="logical" >  F  F  F </v>
   <v type="logical" >  F  F  F </v>
   <v type="logical" >  F  F  F </v>
   <v type="logical" >  F  F  F </v>
   <v type="logical" >  F  F  F </v>
   <v type="logical" >  F  F  F </v>
   <v type="logical" >  F  F  F </v>
   <v type="logical" >  F  F  F </v>
   <v type="logical" >  F  F  F </v>
   <v type="logical" >  F  F  F </v>
  </varray>
  <nose>
   <v>      -3.00000000       0.00000000       0.00010000       0.00010000 </v>
  </nose>
 </structure>
 <calculation>
  <scstep>
   <time name="dav">  366.78  366.87</time>
   <time name="total">  381.35  381.44</time>
   <energy>
    <i name="alphaZ">     75.25431677 </i>
    <i name="ewald"> 136668.35326198 </i>
    <i name="hartreedc">-180036.07649451 </i>
    <i name="XCdc">  -1703.97629351 </i>
    <i name="pawpsdc">  44873.02882129 </i>
    <i name="pawaedc"> -41398.84523641 </i>
    <i name="eentropy">     -0.01630943 </i>
    <i name="bandstr">    814.71796881 </i>
    <i name="atom">  45086.50549395 </i>
    <i name="e_fr_energy">   4378.94552895 </i>
    <i name="e_wo_entrp">   4378.96183837 </i>
    <i name="e_0_energy">   4378.94960630 </i>
   </energy>
  </scstep>
  <scstep>
   <time name="dav">  585.90  585.91</time>
   <time name="total">  585.90  585.91</time>
   <energy>
    <i name="e_fr_energy">   2026.64476822 </i>
    <i name="e_wo_entrp">   2026.67096546 </i>
    <i name="e_0_energy">   2026.65131753 </i>
   </energy>
  </scstep>
  <scstep>
   <time name="dav">  499.95  499.96</time>
   <time name="total">  499.95  499.96</time>
   <energy>
    <i name="e_fr_energy">    241.19114480 </i>
    <i name="e_wo_entrp">    241.20895343 </i>
    <i name="e_0_energy">    241.19559696 </i>
   </energy>
  </scstep>
  <scstep>
   <time name="dav">  434.05  434.06</time>
   <time name="total">  434.05  434.06</time>
   <energy>
    <i name="e_fr_energy">   -131.95293703 </i>
    <i name="e_wo_entrp">   -131.92730161 </i>
    <i name="e_0_energy">   -131.94652818 </i>
   </energy>
  </scstep>
  <scstep>
   <time name="dav">  536.61  536.61</time>
   <time name="total">  564.75  564.76</time>
   <energy>
    <i name="e_fr_energy">   -178.26792052 </i>
    <i name="e_wo_entrp">   -178.76053045 </i>
    <i name="e_0_energy">   -178.39107300 </i>
   </energy>
  </scstep>
  <scstep>
   <time name="diag">   72.67   72.68</time>
   <time name="diis">  196.10  196.10</time>
   <time name="orth">   13.94   13.94</time>
   <time name="total">  324.64  324.65</time>
   <energy>
    <i name="e_fr_energy">   -178.06574950 </i>
    <i name="e_wo_entrp">   -177.79635983 </i>
    <i name="e_0_energy">   -177.99840208 </i>
   </energy>
  </scstep>
  <scstep>
   <time name="diag">   72.31   72.31</time>
   <time name="diis">  228.89  228.90</time>
   <time name="orth">   14.39   14.39</time>
   <time name="total">  358.40  358.41</time>
   <energy>
    <i name="e_fr_energy">   -180.21041848 </i>
    <i name="e_wo_entrp">   -180.12183359 </i>
    <i name="e_0_energy">   -180.18827226 </i>
   </energy>
  </scstep>
  <scstep>
   <time name="diag">   72.22   72.23</time>
   <time name="diis">  216.14  216.14</time>
   <time name="orth">   14.49   14.49</time>
   <time name="total">  346.67  346.68</time>
   <energy>
    <i name="e_fr_energy">   -183.17294198 </i>
    <i name="e_wo_entrp">   -183.10357544 </i>
    <i name="e_0_energy">   -183.15560034 </i>
   </energy>
  </scstep>
  <scstep>
   <time name="diag">   71.78   71.79</time>
   <time name="diis">  201.19  201.20</time>
   <time name="orth">   14.43   14.43</time>
   <time name="total">  330.64  330.65</time>
   <energy>
    <i name="e_fr_energy">   -181.97508198 </i>
    <i name="e_wo_entrp">   -181.85334213 </i>
    <i name="e_0_energy">   -181.94464702 </i>
   </energy>
  </scstep>
  <scstep>
   <time name="diag">   72.08   72.08</time>
   <time name="diis">  204.21  204.21</time>
   <time name="orth">   14.46   14.46</time>
   <time name="total">  334.07  334.07</time>
   <energy>
    <i name="e_fr_energy">   -179.64375895 </i>
    <i name="e_wo_entrp">   -179.49847703 </i>
    <i name="e_0_energy">   -179.60743847 </i>
   </energy>
  </scstep>
  <scstep>
   <time name="diag">   71.55   71.55</time>
   <time name="diis">  202.68  202.68</time>
   <time name="orth">   14.47   14.47</time>
   <time name="total">  331.70  331.70</time>
   <energy>
    <i name="e_fr_energy">   -177.34725224 </i>
    <i name="e_wo_entrp">   -177.19036386 </i>
    <i name="e_0_energy">   -177.30803014 </i>
   </energy>
  </scstep>
  <scstep>
   <time name="diag">   71.58   71.59</time>
   <time name="diis">  199.76  199.76</time>
   <time name="orth">   14.51   14.51</time>
   <time name="total">  328.65  328.66</time>
   <energy>
    <i name="e_fr_energy">   -176.14497365 </i>
    <i name="e_wo_entrp">   -176.07747928 </i>
    <i name="e_0_energy">   -176.12810006 </i>
   </energy>
  </scstep>
  <scstep>
   <time name="diag">   71.03   71.03</time>
   <time name="diis">  200.46  200.46</time>
   <time name="orth">   14.51   14.51</time>
   <time name="total">  328.84  328.84</time>
   <energy>
    <i name="e_fr_energy">   -175.56781718 </i>
    <i name="e_wo_entrp">   -175.48037719 </i>
    <i name="e_0_energy">   -175.54595718 </i>
   </energy>
  </scstep>
  <scstep>
   <time name="diag">   71.16   71.16</time>
   <time name="diis">  199.22  199.22</time>
   <time name="orth">   14.58   14.58</time>
   <time name="total">  327.54  327.54</time>
   <energy>
    <i name="e_fr_energy">   -175.61839969 </i>
    <i name="e_wo_entrp">   -175.47989470 </i>
    <i name="e_0_energy">   -175.58377344 </i>
   </energy>
  </scstep>
  <scstep>
   <time name="diag">   71.47   71.47</time>
   <time name="diis">  197.24  197.24</time>
   <time name="orth">   14.61   14.61</time>
   <time name="total">  325.86  325.86</time>
   <energy>
    <i name="e_fr_energy">   -176.03527913 </i>
    <i name="e_wo_entrp">   -176.06569469 </i>
    <i name="e_0_energy">   -176.04288302 </i>
   </energy>
  </scstep>
  <scstep>
   <time name="diag">   71.35   71.35</time>
   <time name="diis">  198.00  198.00</time>
   <time name="orth">   14.54   14.54</time>
   <time name="total">  326.31  326.31</time>
   <energy>
    <i name="e_fr_energy">   -175.40550233 </i>
    <i name="e_wo_entrp">   -175.34481322 </i>
    <i name="e_0_energy">   -175.39033005 </i>
   </energy>
  </scstep>
  <scstep>
   <time name="diag">   71.11   71.11</time>
   <time name="diis">  196.68  196.68</time>
   <time name="orth">   14.53   14.53</time>
   <time name="total">  324.97  324.97</time>
   <energy>
    <i name="e_fr_energy">   -175.08133223 </i>
    <i name="e_wo_entrp">   -175.01462126 </i>
    <i name="e_0_energy">   -175.06465449 </i>
   </energy>
  </scstep>
  <scstep>
   <time name="diag">   71.28   71.28</time>
   <time name="diis">  198.17  198.17</time>
   <time name="orth">   14.24   14.24</time>
   <time name="total">  325.98  325.98</time>
   <energy>
    <i name="e_fr_energy">   -174.78470479 </i>
    <i name="e_wo_entrp">   -174.79570602 </i>
    <i name="e_0_energy">   -174.78745509 </i>
   </energy>
  </scstep>
  <scstep>
   <time name="diag">   71.04   71.04</time>
   <time name="diis">  199.92  199.92</time>
   <time name="orth">   13.89   13.89</time>
   <time name="total">  327.13  327.13</time>
   <energy>
    <i name="e_fr_energy">   -175.00380285 </i>
    <i name="e_wo_entrp">   -175.04968970 </i>
    <i name="e_0_energy">   -175.01527456 </i>
   </energy>
  </scstep>
  <scstep>
   <time name="diag">   70.55   70.55</time>
   <time name="diis">  199.58  199.58</time>
   <time name="orth">   14.17   14.17</time>
   <time name="total">  326.66  326.66</time>
   <energy>
    <i name="e_fr_energy">   -174.78908927 </i>
    <i name="e_wo_entrp">   -174.77553139 </i>
    <i name="e_0_energy">   -174.78569980 </i>
   </energy>
  </scstep>
  <scstep>
   <time name="diag">   70.85   70.85</time>
   <time name="diis">  200.09  200.09</time>
   <time name="orth">   14.20   14.20</time>
   <time name="total">  327.28  327.28</time>
   <energy>
    <i name="e_fr_energy">   -174.54541300 </i>
    <i name="e_wo_entrp">   -174.47523967 </i>
    <i name="e_0_energy">   -174.52786967 </i>
   </energy>
  </scstep>
  <scstep>
   <time name="diag">   70.37   70.37</time>
   <time name="diis">  199.21  199.21</time>
   <time name="orth">   14.20   14.20</time>
   <time name="total">  326.16  326.16</time>
   <energy>
    <i name="e_fr_energy">   -174.39507832 </i>
    <i name="e_wo_entrp">   -174.27507824 </i>
    <i name="e_0_energy">   -174.36507830 </i>
   </energy>
  </scstep>
  <scstep>
   <time name="diag">   70.38   70.38</time>
   <time name="diis">  198.38  198.38</time>
   <time name="orth">   14.08   14.08</time>
   <time name="total">  325.30  325.30</time>
   <energy>
    <i name="e_fr_energy">   -174.31870198 </i>
    <i name="e_wo_entrp">   -174.20800828 </i>
    <i name="e_0_energy">   -174.29102856 </i>
   </energy>
  </scstep>
  <scstep>
   <time name="diag">   70.21   70.21</time>
   <time name="diis">  200.13  200.13</time>
   <time name="orth">   13.85   13.85</time>
   <time name="total">  326.74  326.74</time>
   <energy>
    <i name="e_fr_energy">   -174.25038877 </i>
    <i name="e_wo_entrp">   -174.13725211 </i>
    <i name="e_0_energy">   -174.22210460 </i>
   </energy>
  </scstep>
  <scstep>
   <time name="diag">   69.89   69.89</time>
   <time name="diis">  198.44  198.43</time>
   <time name="orth">   14.04   14.04</time>
   <time name="total">  324.61  324.61</time>
   <energy>
    <i name="e_fr_energy">   -174.16665936 </i>
    <i name="e_wo_entrp">   -174.05664135 </i>
    <i name="e_0_energy">   -174.13915486 </i>
   </energy>
  </scstep>
  <scstep>
   <time name="diag">   69.74   69.75</time>
   <time name="diis">  199.61  199.61</time>
   <time name="orth">   14.13   14.13</time>
   <time name="total">  326.12  326.12</time>
   <energy>
    <i name="e_fr_energy">   -174.17413490 </i>
    <i name="e_wo_entrp">   -174.08177015 </i>
    <i name="e_0_energy">   -174.15104371 </i>
   </energy>
  </scstep>
  <scstep>
   <time name="diag">   69.92   69.92</time>
   <time name="diis">  198.73  198.74</time>
   <time name="orth">   14.13   14.13</time>
   <time name="total">  325.34  325.34</time>
   <energy>
    <i name="e_fr_energy">   -174.12759642 </i>
    <i name="e_wo_entrp">   -174.04124368 </i>
    <i name="e_0_energy">   -174.10600823 </i>
   </energy>
  </scstep>
  <scstep>
   <time name="diag">   69.90   69.90</time>
   <time name="diis">  198.96  198.96</time>
   <time name="orth">   14.05   14.05</time>
   <time name="total">  325.53  325.53</time>
   <energy>
    <i name="e_fr_energy">   -174.11741123 </i>
    <i name="e_wo_entrp">   -174.03102059 </i>
    <i name="e_0_energy">   -174.09581357 </i>
   </energy>
  </scstep>
  <scstep>
   <time name="diag">   69.89   69.89</time>
   <time name="diis">  197.92  197.92</time>
   <time name="orth">   14.15   14.15</time>
   <time name="total">  324.46  324.45</time>
   <energy>
    <i name="e_fr_energy">   -174.09938067 </i>
    <i name="e_wo_entrp">   -174.01437169 </i>
    <i name="e_0_energy">   -174.07812843 </i>
   </energy>
  </scstep>
  <scstep>
   <time name="diag">   70.13   70.13</time>
   <time name="diis">  198.25  198.27</time>
   <time name="orth">   14.17   14.17</time>
   <time name="total">  324.95  324.97</time>
   <energy>
    <i name="e_fr_energy">   -174.07557520 </i>
    <i name="e_wo_entrp">   -173.98812189 </i>
    <i name="e_0_energy">   -174.05371187 </i>
   </energy>
  </scstep>
  <scstep>
   <time name="diag">   70.13   70.13</time>
   <time name="diis">  197.16  197.17</time>
   <time name="orth">   14.14   14.14</time>
   <time name="total">  324.36  324.38</time>
   <energy>
    <i name="e_fr_energy">   -174.06826534 </i>
    <i name="e_wo_entrp">   -173.97502794 </i>
    <i name="e_0_energy">   -174.04495599 </i>
   </energy>
  </scstep>
  <scstep>
   <time name="diag">   70.37   70.38</time>
   <time name="diis">  198.51  198.52</time>
   <time name="orth">   14.14   14.14</time>
   <time name="total">  325.53  325.56</time>
   <energy>
    <i name="e_fr_energy">   -174.06631642 </i>
    <i name="e_wo_entrp">   -173.96707893 </i>
    <i name="e_0_energy">   -174.04150705 </i>
   </energy>
  </scstep>
  <scstep>
   <time name="diag">   70.22   70.23</time>
   <time name="diis">  196.32  196.34</time>
   <time name="orth">   13.97   13.97</time>
   <time name="total">  323.04  323.07</time>
   <energy>
    <i name="e_fr_energy">   -174.06496005 </i>
    <i name="e_wo_entrp">   -173.96268072 </i>
    <i name="e_0_energy">   -174.03939022 </i>
   </energy>
  </scstep>
  <scstep>
   <time name="diag">   70.33   70.33</time>
   <time name="diis">  196.94  196.96</time>
   <time name="orth">   13.99   13.99</time>
   <time name="total">  324.02  324.04</time>
   <energy>
    <i name="e_fr_energy">   -174.06404409 </i>
    <i name="e_wo_entrp">   -173.96529448 </i>
    <i name="e_0_energy">   -174.03935669 </i>
   </energy>
  </scstep>
  <scstep>
   <time name="diag">   70.31   70.31</time>
   <time name="diis">  196.21  196.22</time>
   <time name="orth">   13.96   13.96</time>
   <time name="total">  323.23  323.25</time>
   <energy>
    <i name="e_fr_energy">   -174.06336808 </i>
    <i name="e_wo_entrp">   -173.96740701 </i>
    <i name="e_0_energy">   -174.03937782 </i>
   </energy>
  </scstep>
  <scstep>
   <time name="diag">   70.51   70.52</time>
   <time name="diis">  195.99  196.00</time>
   <time name="orth">   14.21   14.22</time>
   <time name="total">  323.75  323.78</time>
   <energy>
    <i name="e_fr_energy">   -174.06543653 </i>
    <i name="e_wo_entrp">   -173.97155333 </i>
    <i name="e_0_energy">   -174.04196573 </i>
   </energy>
  </scstep>
  <scstep>
   <time name="diag">   69.88   69.89</time>
   <time name="diis">  194.77  194.79</time>
   <time name="orth">   13.61   13.61</time>
   <time name="total">  320.93  320.96</time>
   <energy>
    <i name="e_fr_energy">   -174.06836806 </i>
    <i name="e_wo_entrp">   -173.97226856 </i>
    <i name="e_0_energy">   -174.04434318 </i>
   </energy>
  </scstep>
  <scstep>
   <time name="diag">   69.51   69.52</time>
   <time name="diis">  190.97  190.98</time>
   <time name="orth">   13.84   13.84</time>
   <time name="total">  316.97  316.99</time>
   <energy>
    <i name="e_fr_energy">   -174.06941033 </i>
    <i name="e_wo_entrp">   -173.97165717 </i>
    <i name="e_0_energy">   -174.04497204 </i>
   </energy>
  </scstep>
  <scstep>
   <time name="diag">   70.28   70.28</time>
   <time name="diis">  167.38  167.39</time>
   <time name="orth">   13.73   13.73</time>
   <time name="total">  294.10  294.13</time>
   <energy>
    <i name="e_fr_energy">   -174.07135537 </i>
    <i name="e_wo_entrp">   -173.97300721 </i>
    <i name="e_0_energy">   -174.04676833 </i>
   </energy>
  </scstep>
  <scstep>
   <time name="diag">   70.26   70.26</time>
   <time name="diis">  143.83  143.84</time>
   <time name="orth">   13.83   13.83</time>
   <time name="total">  271.10  271.11</time>
   <energy>
    <i name="e_fr_energy">   -174.07359040 </i>
    <i name="e_wo_entrp">   -173.97595843 </i>
    <i name="e_0_energy">   -174.04918241 </i>
   </energy>
  </scstep>
  <scstep>
   <time name="diag">   70.44   70.45</time>
   <time name="diis">  124.42  124.43</time>
   <time name="orth">   13.81   13.81</time>
   <time name="total">  252.64  252.66</time>
   <energy>
    <i name="e_fr_energy">   -174.07482057 </i>
    <i name="e_wo_entrp">   -173.97705964 </i>
    <i name="e_0_energy">   -174.05038034 </i>
   </energy>
  </scstep>
  <scstep>
   <time name="diag">   70.52   70.53</time>
   <time name="diis">  151.31  151.32</time>
   <time name="orth">   14.08   14.08</time>
   <time name="total">  279.92  279.94</time>
   <energy>
    <i name="e_fr_energy">   -174.07836147 </i>
    <i name="e_wo_entrp">   -173.98168005 </i>
    <i name="e_0_energy">   -174.05419111 </i>
   </energy>
  </scstep>
  <scstep>
   <time name="diag">   70.98   70.99</time>
   <time name="diis">  134.70  134.70</time>
   <time name="orth">   13.53   13.53</time>
   <time name="total">  263.12  263.14</time>
   <energy>
    <i name="e_fr_energy">   -174.08062808 </i>
    <i name="e_wo_entrp">   -173.98405495 </i>
    <i name="e_0_energy">   -174.05648479 </i>
   </energy>
  </scstep>
  <scstep>
   <time name="diag">   71.53   71.53</time>
   <time name="diis">  126.17  126.18</time>
   <time name="orth">   13.56   13.56</time>
   <time name="total">  255.42  255.44</time>
   <energy>
    <i name="e_fr_energy">   -174.08225924 </i>
    <i name="e_wo_entrp">   -173.98493860 </i>
    <i name="e_0_energy">   -174.05792908 </i>
   </energy>
  </scstep>
  <scstep>
   <time name="diag">   71.25   71.25</time>
   <time name="diis">  126.38  126.38</time>
   <time name="orth">   13.59   13.59</time>
   <time name="total">  255.24  255.24</time>
   <energy>
    <i name="e_fr_energy">   -174.08430703 </i>
    <i name="e_wo_entrp">   -173.98754379 </i>
    <i name="e_0_energy">   -174.06011622 </i>
   </energy>
  </scstep>
  <scstep>
   <time name="diag">   71.37   71.37</time>
   <time name="diis">  122.00  122.01</time>
   <time name="orth">   13.60   13.60</time>
   <time name="total">  251.32  251.33</time>
   <energy>
    <i name="e_fr_energy">   -174.08557331 </i>
    <i name="e_wo_entrp">   -173.98819648 </i>
    <i name="e_0_energy">   -174.06122910 </i>
   </energy>
  </scstep>
  <scstep>
   <time name="diag">   71.57   71.58</time>
   <time name="diis">  121.90  121.91</time>
   <time name="orth">   13.64   13.65</time>
   <time name="total">  251.56  251.57</time>
   <energy>
    <i name="e_fr_energy">   -174.08658335 </i>
    <i name="e_wo_entrp">   -173.98970275 </i>
    <i name="e_0_energy">   -174.06236320 </i>
   </energy>
  </scstep>
  <scstep>
   <time name="diag">   71.56   71.56</time>
   <time name="diis">  120.84  120.84</time>
   <time name="orth">   13.63   13.63</time>
   <time name="total">  250.95  250.95</time>
   <energy>
    <i name="e_fr_energy">   -174.08854656 </i>
    <i name="e_wo_entrp">   -173.99157047 </i>
    <i name="e_0_energy">   -174.06430253 </i>
   </energy>
  </scstep>
  <scstep>
   <time name="diag">   71.33   71.33</time>
   <time name="diis">  119.30  119.30</time>
   <time name="orth">   13.52   13.52</time>
   <time name="total">  248.88  248.88</time>
   <energy>
    <i name="e_fr_energy">   -174.08896278 </i>
    <i name="e_wo_entrp">   -173.99192005 </i>
    <i name="e_0_energy">   -174.06470210 </i>
   </energy>
  </scstep>
  <scstep>
   <time name="diag">   71.05   71.05</time>
   <time name="diis">  118.82  118.82</time>
   <time name="orth">   13.75   13.75</time>
   <time name="total">  247.96  247.96</time>
   <energy>
    <i name="e_fr_energy">   -174.08978911 </i>
    <i name="e_wo_entrp">   -173.99298366 </i>
    <i name="e_0_energy">   -174.06558775 </i>
   </energy>
  </scstep>
  <scstep>
   <time name="diag">   70.69   70.69</time>
   <time name="diis">  114.62  114.62</time>
   <time name="orth">   13.66   13.66</time>
   <time name="total">  243.27  243.28</time>
   <energy>
    <i name="e_fr_energy">   -174.08993678 </i>
    <i name="e_wo_entrp">   -173.99323384 </i>
    <i name="e_0_energy">   -174.06576104 </i>
   </energy>
  </scstep>
  <scstep>
   <time name="diag">   70.21   70.21</time>
   <time name="diis">  108.67  108.67</time>
   <time name="orth">   13.45   13.45</time>
   <time name="total">  237.81  237.82</time>
   <energy>
    <i name="e_fr_energy">   -174.09052994 </i>
    <i name="e_wo_entrp">   -173.99374558 </i>
    <i name="e_0_energy">   -174.06633385 </i>
   </energy>
  </scstep>
  <scstep>
   <time name="diag">   69.72   69.72</time>
   <time name="diis">   89.91   89.91</time>
   <time name="orth">   13.45   13.45</time>
   <time name="total">  217.98  217.98</time>
   <energy>
    <i name="e_fr_energy">   -174.09079791 </i>
    <i name="e_wo_entrp">   -173.99400101 </i>
    <i name="e_0_energy">   -174.06659869 </i>
   </energy>
  </scstep>
  <scstep>
   <time name="diag">   69.49   69.49</time>
   <time name="diis">  100.78  100.78</time>
   <time name="orth">   13.82   13.82</time>
   <time name="total">  228.52  228.53</time>
   <energy>
    <i name="e_fr_energy">   -174.09127587 </i>
    <i name="e_wo_entrp">   -173.99454328 </i>
    <i name="e_0_energy">   -174.06709272 </i>
   </energy>
  </scstep>
  <scstep>
   <time name="diag">   69.28   69.28</time>
   <time name="diis">   92.84   92.84</time>
   <time name="orth">   13.58   13.58</time>
   <time name="total">  220.02  220.02</time>
   <energy>
    <i name="e_fr_energy">   -174.09169212 </i>
    <i name="e_wo_entrp">   -173.99496633 </i>
    <i name="e_0_energy">   -174.06751067 </i>
   </energy>
  </scstep>
  <scstep>
   <time name="diag">   68.97   68.97</time>
   <time name="diis">   86.63   86.63</time>
   <time name="orth">   13.57   13.57</time>
   <time name="total">  213.13  213.13</time>
   <energy>
    <i name="e_fr_energy">   -174.09182997 </i>
    <i name="e_wo_entrp">   -173.99503600 </i>
    <i name="e_0_energy">   -174.06763148 </i>
   </energy>
  </scstep>
  <scstep>
   <time name="diag">   68.74   68.74</time>
   <time name="diis">   84.41   84.41</time>
   <time name="orth">   13.58   13.58</time>
   <time name="total">  210.44  210.43</time>
   <energy>
    <i name="e_fr_energy">   -174.09205825 </i>
    <i name="e_wo_entrp">   -173.99534330 </i>
    <i name="e_0_energy">   -174.06787951 </i>
   </energy>
  </scstep>
  <scstep>
   <time name="diag">   68.15   68.15</time>
   <time name="diis">   79.10   79.10</time>
   <time name="orth">   12.88   12.88</time>
   <time name="total">  201.44  201.45</time>
   <energy>
    <i name="e_fr_energy">   -174.09224241 </i>
    <i name="e_wo_entrp">   -173.99543484 </i>
    <i name="e_0_energy">   -174.06804052 </i>
   </energy>
  </scstep>
  <scstep>
   <time name="diag">   64.64   64.64</time>
   <time name="diis">   81.79   81.79</time>
   <time name="orth">   12.81   12.81</time>
   <time name="total">  199.89  199.90</time>
   <energy>
    <i name="e_fr_energy">   -174.09240687 </i>
    <i name="e_wo_entrp">   -173.99564158 </i>
    <i name="e_0_energy">   -174.06821555 </i>
   </energy>
  </scstep>
  <scstep>
   <time name="diag">   65.24   65.24</time>
   <time name="diis">   81.15   81.15</time>
   <time name="orth">   12.96   12.96</time>
   <time name="total">  200.25  200.25</time>
   <energy>
    <i name="e_fr_energy">   -174.09257028 </i>
    <i name="e_wo_entrp">   -173.99580558 </i>
    <i name="e_0_energy">   -174.06837911 </i>
   </energy>
  </scstep>
  <scstep>
   <time name="diag">   65.37   65.37</time>
   <time name="diis">   78.78   78.78</time>
   <time name="orth">   12.92   12.92</time>
   <time name="total">  170.41  170.41</time>
   <energy>
    <i name="alphaZ">     75.25431677 </i>
    <i name="ewald"> 136668.35326198 </i>
    <i name="hartreedc">-181040.65402436 </i>
    <i name="XCdc">  -1693.36678930 </i>
    <i name="pawpsdc">  46043.82078260 </i>
    <i name="pawaedc"> -42513.49545264 </i>
    <i name="eentropy">     -0.09676968 </i>
    <i name="bandstr">  -2800.41347546 </i>
    <i name="atom">  45086.50549395 </i>
    <i name="e_fr_energy">   -174.09265614 </i>
    <i name="e_wo_entrp">   -173.99588645 </i>
    <i name="e_0_energy">   -174.06846372 </i>
   </energy>
  </scstep>
  <structure>
   <crystal>
    <varray name="basis" >
     <v>      30.00000000       0.00000000       0.00000000 </v>
     <v>       0.00000000      30.00000000       0.00000000 </v>
     <v>       0.00000000       0.00000000      30.00000000 </v>
    </varray>
    <i name="volume">  27000.00000000 </i>
    <varray name="rec_basis" >
     <v>       0.03333333       0.00000000       0.00000000 </v>
     <v>       0.00000000       0.03333333       0.00000000 </v>
     <v>       0.00000000       0.00000000       0.03333333 </v>
    </varray>
   </crystal>
   <varray name="positions" >
    <v>       0.44576020       0.32826710       0.41691983 </v>
    <v>       0.67173288       0.55423978       0.41691983 </v>
    <v>       0.55423980       0.32826710       0.41691983 </v>
    <v>       0.32826712       0.55423978       0.41691983 </v>
    <v>       0.50000000       0.38250690       0.34021317 </v>
    <v>       0.50000000       0.38250690       0.65978680 </v>
    <v>       0.50000000       0.27609440       0.50000000 </v>
    <v>       0.27609443       0.49999998       0.50000000 </v>
    <v>       0.72390557       0.49999998       0.50000000 </v>
    <v>       0.50000000       0.72390555       0.50000000 </v>
    <v>       0.61195280       0.38804720       0.34167483 </v>
    <v>       0.61195280       0.38804720       0.65832513 </v>
    <v>       0.38804722       0.61195278       0.34167483 </v>
    <v>       0.38804722       0.61195278       0.65832513 </v>
    <v>       0.38804720       0.38804720       0.34167483 </v>
    <v>       0.38804720       0.38804720       0.65832513 </v>
    <v>       0.61195278       0.61195278       0.34167483 </v>
    <v>       0.61195278       0.61195278       0.65832513 </v>
    <v>       0.44576020       0.32826710       0.58308023 </v>
    <v>       0.67173288       0.55423978       0.58308023 </v>
    <v>       0.55791699       0.44208301       0.41809300 </v>
    <v>       0.32826705       0.44576024       0.41691983 </v>
    <v>       0.55423973       0.67173293       0.41691983 </v>
    <v>       0.55423980       0.32826710       0.58308023 </v>
    <v>       0.32826712       0.55423978       0.58308023 </v>
    <v>       0.67173295       0.44576024       0.41691983 </v>
    <v>       0.44576027       0.67173293       0.41691983 </v>
    <v>       0.44208301       0.44208301       0.41809300 </v>
    <v>       0.50000000       0.38416601       0.50000000 </v>
    <v>       0.61749315       0.50000005       0.34021317 </v>
    <v>       0.61749315       0.50000005       0.65978680 </v>
    <v>       0.38250685       0.50000005       0.34021317 </v>
    <v>       0.38250685       0.50000005       0.65978680 </v>
    <v>       0.38317830       0.38317830       0.50000000 </v>
    <v>       0.61682172       0.61682172       0.50000000 </v>
    <v>       0.61682170       0.38317830       0.50000000 </v>
    <v>       0.38317828       0.61682172       0.50000000 </v>
    <v>       0.50000000       0.50000000       0.33478917 </v>
    <v>       0.50000000       0.50000000       0.66521087 </v>
    <v>       0.32826705       0.44576024       0.58308023 </v>
    <v>       0.55423973       0.67173293       0.58308023 </v>
    <v>       0.55791699       0.44208301       0.58190703 </v>
    <v>       0.44208298       0.55791702       0.41809300 </v>
    <v>       0.44208301       0.44208301       0.58190703 </v>
    <v>       0.67173295       0.44576024       0.58308023 </v>
    <v>       0.44576027       0.67173293       0.58308023 </v>
    <v>       0.55791702       0.55791702       0.41809300 </v>
    <v>       0.38416599       0.50000002       0.50000000 </v>
    <v>       0.61583401       0.50000002       0.50000000 </v>
    <v>       0.50000000       0.61749319       0.34021317 </v>
    <v>       0.50000000       0.61749319       0.65978680 </v>
    <v>       0.50000000       0.50000000       0.50000000 </v>
    <v>       0.44208298       0.55791702       0.58190703 </v>
    <v>       0.55791702       0.55791702       0.58190703 </v>
    <v>       0.50000000       0.61583404       0.50000000 </v>
    <v>       0.65330383       0.65349373       0.72080153 </v>
    <v>       0.67192570       0.67213863       0.74762233 </v>
   </varray>
  </structure>
  <varray name="forces" >
   <v>       0.70173117       1.10805036       0.29261136 </v>
   <v>      -1.10918108      -0.70399118       0.29185727 </v>
   <v>      -0.70087844       1.10574112       0.29197028 </v>
   <v>       1.10568654      -0.70077112       0.29196983 </v>
   <v>      -0.00030537       0.41512307       1.27972780 </v>
   <v>      -0.00033688       0.41442878      -1.28190406 </v>
   <v>       0.00007541       1.51681209       0.00032089 </v>
   <v>       1.51716386       0.00003190       0.00032456 </v>
   <v>      -1.51422125       0.00130956      -0.00131173 </v>
   <v>       0.00136935      -1.51444629      -0.00123159 </v>
   <v>      -0.75598882       0.75664246       1.07248782 </v>
   <v>      -0.75614770       0.75547471      -1.06981948 </v>
   <v>       0.75682721      -0.75619402       1.07274976 </v>
   <v>       0.75552148      -0.75605748      -1.06966562 </v>
   <v>       0.75783157       0.75781574       1.07448112 </v>
   <v>       0.75592143       0.75597197      -1.07176482 </v>
   <v>      -0.75570012      -0.75569523       1.07142129 </v>
   <v>      -0.10362724      -0.10026752      -0.07094575 </v>
   <v>       0.70210943       1.10791338      -0.29357976 </v>
   <v>      -1.09161582      -0.74224920      -0.31259650 </v>
   <v>       0.11289254      -0.11290060      -0.16025723 </v>
   <v>       1.10815489       0.70180128       0.29270906 </v>
   <v>      -0.70401069      -1.10927109       0.29190529 </v>
   <v>      -0.70526188       1.10734131      -0.29389620 </v>
   <v>       1.10723535      -0.70525648      -0.29396465 </v>
   <v>      -1.10992333       0.70287576       0.28975830 </v>
   <v>       0.70266820      -1.10978229       0.28974553 </v>
   <v>      -0.11321390      -0.11324926      -0.15903079 </v>
   <v>      -0.00132435      -0.23217390      -0.00020050 </v>
   <v>      -0.41533606      -0.00047342       1.27972888 </v>
   <v>      -0.40121049      -0.04218420      -1.29705230 </v>
   <v>       0.41513762      -0.00021731       1.27958650 </v>
   <v>       0.41445667      -0.00044127      -1.28197988 </v>
   <v>       0.82957383       0.82959691       0.00090900 </v>
   <v>      -0.83399688      -0.83401108      -0.00294391 </v>
   <v>      -0.83129677       0.83160754       0.00028541 </v>
   <v>       0.83172554      -0.83137994       0.00030295 </v>
   <v>       0.00077546       0.00074739       1.17903598 </v>
   <v>      -0.00243840      -0.00244990      -1.18559393 </v>
   <v>       1.10795652       0.70211392      -0.29361025 </v>
   <v>      -0.74216552      -1.09136778      -0.31267658 </v>
   <v>       0.11205081      -0.10668376       0.15907916 </v>
   <v>      -0.11290980       0.11287878      -0.16023997 </v>
   <v>      -0.11028779      -0.11026775       0.15657880 </v>
   <v>      -1.10974582       0.70643894      -0.29088158 </v>
   <v>       0.70644596      -1.10980628      -0.29100163 </v>
   <v>       0.11155864       0.11153837      -0.15491124 </v>
   <v>      -0.23227067      -0.00132813      -0.00021527 </v>
   <v>       0.22809297       0.00469610       0.00435857 </v>
   <v>      -0.00051473      -0.41537965       1.27970800 </v>
   <v>      -0.04225243      -0.40126782      -1.29713882 </v>
   <v>      -0.01554701      -0.01551184      -0.02164912 </v>
   <v>      -0.10667479       0.11200745       0.15901543 </v>
   <v>       0.16122517       0.16091189       0.22114642 </v>
   <v>       0.00465609       0.22810255       0.00431692 </v>
   <v>      -1.98211702      -1.98671077      -2.91364710 </v>
   <v>       1.35165732       1.35381326       1.95561810 </v>
  </varray>
  <varray name="stress" >
   <v>      -6.75214128      -0.00859223      -0.00374949 </v>
   <v>      -0.00859223      -6.75247218      -0.00399090 </v>
   <v>      -0.00374948      -0.00399092      -6.77214156 </v>
  </varray>
  <energy>
   <i name="e_fr_energy">   -174.09265614 </i>
   <i name="e_wo_entrp">   -174.06846372 </i>
   <i name="e_0_energy">     -0.09676968 </i>
  </energy>
  <time name="totalsc">19070.8419071.37</time>
  <eigenvalues>
   <array>
    <dimension dim="1">band</dimension>
    <dimension dim="2">kpoint</dimension>
    <dimension dim="3">spin</dimension>
    <field>eigene</field>
    <field>occ</field>
    <set>
     <set comment="spin 1">
      <set comment="kpoint 1">
       <r>  -29.3382    1.0000 </r>
       <r>  -13.8521    1.0000 </r>
       <r>  -11.6325    1.0000 </r>
       <r>  -11.6313    1.0000 </r>
       <r>   -9.6025    1.0000 </r>
       <r>   -6.6249    1.0000 </r>
       <r>   -6.1050    1.0000 </r>
       <r>   -6.1050    1.0000 </r>
       <r>   -6.1004    1.0000 </r>
       <r>   -5.7899    1.0000 </r>
       <r>   -5.7893    1.0000 </r>
       <r>   -5.7847    1.0000 </r>
       <r>   -5.7236    1.0000 </r>
       <r>   -5.6848    1.0000 </r>
       <r>   -5.6678    1.0000 </r>
       <r>   -5.6625    1.0000 </r>
       <r>   -5.6621    1.0000 </r>
       <r>   -5.5994    1.0000 </r>
       <r>   -5.5979    1.0000 </r>
       <r>   -5.5879    1.0000 </r>
       <r>   -5.5838    1.0000 </r>
       <r>   -5.5737    1.0000 </r>
       <r>   -5.5726    1.0000 </r>
       <r>   -5.5295    1.0000 </r>
       <r>   -5.5262    1.0000 </r>
       <r>   -5.5246    1.0000 </r>
       <r>   -5.5242    1.0000 </r>
       <r>   -5.5006    1.0000 </r>
       <r>   -5.4993    1.0000 </r>
       <r>   -5.4975    1.0000 </r>
       <r>   -5.4951    1.0000 </r>
       <r>   -5.4920    1.0000 </r>
       <r>   -5.4911    1.0000 </r>
       <r>   -5.4909    1.0000 </r>
       <r>   -5.4814    1.0000 </r>
       <r>   -5.4671    1.0000 </r>
       <r>   -5.4559    1.0000 </r>
       <r>   -5.4506    1.0000 </r>
       <r>   -5.4491    1.0000 </r>
       <r>   -5.4476    1.0000 </r>
       <r>   -5.4458    1.0000 </r>
       <r>   -5.4457    1.0000 </r>
       <r>   -5.4453    1.0000 </r>
       <r>   -5.4167    1.0000 </r>
       <r>   -5.4092    1.0000 </r>
       <r>   -5.4076    1.0000 </r>
       <r>   -5.4059    1.0000 </r>
       <r>   -5.4054    1.0000 </r>
       <r>   -5.3999    1.0000 </r>
       <r>   -5.3993    1.0000 </r>
       <r>   -5.3991    1.0000 </r>
       <r>   -5.3831    1.0000 </r>
       <r>   -5.3827    1.0000 </r>
       <r>   -5.3820    1.0000 </r>
       <r>   -5.3669    1.0000 </r>
       <r>   -5.3072    1.0000 </r>
       <r>   -5.3065    1.0000 </r>
       <r>   -5.3052    1.0000 </r>
       <r>   -5.3044    1.0000 </r>
       <r>   -5.2955    1.0000 </r>
       <r>   -5.2952    1.0000 </r>
       <r>   -5.2946    1.0000 </r>
       <r>   -5.2785    1.0000 </r>
       <r>   -5.2783    1.0000 </r>
       <r>   -5.2779    1.0000 </r>
       <r>   -5.2661    1.0000 </r>
       <r>   -5.2653    1.0000 </r>
       <r>   -5.2030    1.0000 </r>
       <r>   -5.1826    1.0000 </r>
       <r>   -5.1820    1.0000 </r>
       <r>   -5.1816    1.0000 </r>
       <r>   -5.1737    1.0000 </r>
       <r>   -5.1608    1.0000 </r>
       <r>   -5.1583    1.0000 </r>
       <r>   -5.1578    1.0000 </r>
       <r>   -5.1557    1.0000 </r>
       <r>   -5.1404    1.0000 </r>
       <r>   -5.1395    1.0000 </r>
       <r>   -5.1391    1.0000 </r>
       <r>   -5.1292    1.0000 </r>
       <r>   -5.1052    1.0000 </r>
       <r>   -5.1024    1.0000 </r>
       <r>   -5.1017    1.0000 </r>
       <r>   -5.0920    1.0000 </r>
       <r>   -5.0901    1.0000 </r>
       <r>   -5.0804    1.0000 </r>
       <r>   -5.0801    1.0000 </r>
       <r>   -5.0426    1.0000 </r>
       <r>   -5.0408    1.0000 </r>
       <r>   -5.0388    1.0000 </r>
       <r>   -5.0343    1.0000 </r>
       <r>   -5.0329    1.0000 </r>
       <r>   -5.0288    1.0000 </r>
       <r>   -5.0281    1.0000 </r>
       <r>   -5.0266    1.0000 </r>
       <r>   -5.0079    1.0000 </r>
       <r>   -5.0078    1.0000 </r>
       <r>   -5.0066    1.0000 </r>
       <r>   -4.9974    1.0000 </r>
       <r>   -4.9954    1.0000 </r>
       <r>   -4.9857    1.0000 </r>
       <r>   -4.9851    1.0000 </r>
       <r>   -4.9832    1.0000 </r>
       <r>   -4.9697    1.0000 </r>
       <r>   -4.9694    1.0000 </r>
       <r>   -4.9689    1.0000 </r>
       <r>   -4.9595    1.0000 </r>
       <r>   -4.9588    1.0000 </r>
       <r>   -4.9565    1.0000 </r>
       <r>   -4.9468    1.0000 </r>
       <r>   -4.9458    1.0000 </r>
       <r>   -4.9365    1.0000 </r>
       <r>   -4.9335    1.0000 </r>
       <r>   -4.9302    1.0000 </r>
       <r>   -4.9294    1.0000 </r>
       <r>   -4.9282    1.0000 </r>
       <r>   -4.9143    1.0000 </r>
       <r>   -4.9027    1.0000 </r>
       <r>   -4.8956    1.0000 </r>
       <r>   -4.8944    1.0000 </r>
       <r>   -4.8884    1.0000 </r>
       <r>   -4.8859    1.0000 </r>
       <r>   -4.8799    1.0000 </r>
       <r>   -4.8785    1.0000 </r>
       <r>   -4.8772    1.0000 </r>
       <r>   -4.8769    1.0000 </r>
       <r>   -4.8273    1.0000 </r>
       <r>   -4.8222    1.0000 </r>
       <r>   -4.8205    1.0000 </r>
       <r>   -4.8186    1.0000 </r>
       <r>   -4.8183    1.0000 </r>
       <r>   -4.8173    1.0000 </r>
       <r>   -4.8094    1.0000 </r>
       <r>   -4.8080    1.0000 </r>
       <r>   -4.8073    1.0000 </r>
       <r>   -4.7853    0.9999 </r>
       <r>   -4.7700    0.9999 </r>
       <r>   -4.7699    0.9999 </r>
       <r>   -4.7694    0.9999 </r>
       <r>   -4.7502    0.9998 </r>
       <r>   -4.7471    0.9998 </r>
       <r>   -4.7431    0.9998 </r>
       <r>   -4.7398    0.9998 </r>
       <r>   -4.7341    0.9998 </r>
       <r>   -4.7193    0.9997 </r>
       <r>   -4.7051    0.9995 </r>
       <r>   -4.7010    0.9995 </r>
       <r>   -4.6897    0.9993 </r>
       <r>   -4.6837    0.9993 </r>
       <r>   -4.6750    0.9991 </r>
       <r>   -4.6666    0.9990 </r>
       <r>   -4.6637    0.9989 </r>
       <r>   -4.6620    0.9989 </r>
       <r>   -4.6600    0.9988 </r>
       <r>   -4.6595    0.9988 </r>
       <r>   -4.6574    0.9988 </r>
       <r>   -4.6500    0.9986 </r>
       <r>   -4.6489    0.9986 </r>
       <r>   -4.6404    0.9984 </r>
       <r>   -4.6380    0.9983 </r>
       <r>   -4.6327    0.9981 </r>
       <r>   -4.6299    0.9981 </r>
       <r>   -4.6248    0.9979 </r>
       <r>   -4.6244    0.9979 </r>
       <r>   -4.6238    0.9979 </r>
       <r>   -4.6237    0.9979 </r>
       <r>   -4.6228    0.9978 </r>
       <r>   -4.6228    0.9978 </r>
       <r>   -4.6136    0.9975 </r>
       <r>   -4.6111    0.9974 </r>
       <r>   -4.5979    0.9970 </r>
       <r>   -4.5906    0.9967 </r>
       <r>   -4.5830    0.9964 </r>
       <r>   -4.5734    0.9960 </r>
       <r>   -4.5733    0.9960 </r>
       <r>   -4.5728    0.9960 </r>
       <r>   -4.5708    0.9959 </r>
       <r>   -4.5698    0.9959 </r>
       <r>   -4.5542    0.9954 </r>
       <r>   -4.5523    0.9954 </r>
       <r>   -4.5523    0.9954 </r>
       <r>   -4.5453    0.9952 </r>
       <r>   -4.5391    0.9951 </r>
       <r>   -4.5345    0.9951 </r>
       <r>   -4.5302    0.9951 </r>
       <r>   -4.5294    0.9951 </r>
       <r>   -4.5292    0.9951 </r>
       <r>   -4.5252    0.9951 </r>
       <r>   -4.5252    0.9951 </r>
       <r>   -4.5252    0.9951 </r>
       <r>   -4.4918    0.9965 </r>
       <r>   -4.4816    0.9976 </r>
       <r>   -4.4813    0.9976 </r>
       <r>   -4.4813    0.9977 </r>
       <r>   -4.4805    0.9977 </r>
       <r>   -4.4750    0.9985 </r>
       <r>   -4.4672    0.9998 </r>
       <r>   -4.4626    1.0006 </r>
       <r>   -4.4614    1.0009 </r>
       <r>   -4.4477    1.0041 </r>
       <r>   -4.4451    1.0048 </r>
       <r>   -4.4394    1.0064 </r>
       <r>   -4.4371    1.0071 </r>
       <r>   -4.4347    1.0079 </r>
       <r>   -4.4268    1.0106 </r>
       <r>   -4.4250    1.0112 </r>
       <r>   -4.4247    1.0113 </r>
       <r>   -4.4238    1.0117 </r>
       <r>   -4.4176    1.0140 </r>
       <r>   -4.4172    1.0142 </r>
       <r>   -4.4022    1.0206 </r>
       <r>   -4.4002    1.0215 </r>
       <r>   -4.3998    1.0217 </r>
       <r>   -4.3872    1.0276 </r>
       <r>   -4.3861    1.0281 </r>
       <r>   -4.3860    1.0281 </r>
       <r>   -4.3799    1.0311 </r>
       <r>   -4.3790    1.0315 </r>
       <r>   -4.3778    1.0321 </r>
       <r>   -4.3460    1.0460 </r>
       <r>   -4.3447    1.0464 </r>
       <r>   -4.3432    1.0469 </r>
       <r>   -4.3324    1.0499 </r>
       <r>   -4.3231    1.0514 </r>
       <r>   -4.3159    1.0516 </r>
       <r>   -4.3143    1.0515 </r>
       <r>   -4.3141    1.0515 </r>
       <r>   -4.3141    1.0515 </r>
       <r>   -4.3112    1.0513 </r>
       <r>   -4.3108    1.0512 </r>
       <r>   -4.3085    1.0509 </r>
       <r>   -4.3036    1.0498 </r>
       <r>   -4.3027    1.0496 </r>
       <r>   -4.3020    1.0493 </r>
       <r>   -4.2993    1.0485 </r>
       <r>   -4.2988    1.0483 </r>
       <r>   -4.2981    1.0480 </r>
       <r>   -4.2942    1.0462 </r>
       <r>   -4.2940    1.0462 </r>
       <r>   -4.2924    1.0453 </r>
       <r>   -4.2782    1.0350 </r>
       <r>   -4.2771    1.0339 </r>
       <r>   -4.2686    1.0245 </r>
       <r>   -4.2618    1.0153 </r>
       <r>   -4.2614    1.0147 </r>
       <r>   -4.2607    1.0138 </r>
       <r>   -4.2600    1.0127 </r>
       <r>   -4.2598    1.0124 </r>
       <r>   -4.2555    1.0055 </r>
       <r>   -4.2412    0.9775 </r>
       <r>   -4.2407    0.9764 </r>
       <r>   -4.2308    0.9523 </r>
       <r>   -4.2305    0.9516 </r>
       <r>   -4.2304    0.9512 </r>
       <r>   -4.2264    0.9404 </r>
       <r>   -4.2255    0.9380 </r>
       <r>   -4.2239    0.9335 </r>
       <r>   -4.2230    0.9307 </r>
       <r>   -4.2193    0.9196 </r>
       <r>   -4.2183    0.9166 </r>
       <r>   -4.2164    0.9105 </r>
       <r>   -4.2148    0.9054 </r>
       <r>   -4.2141    0.9033 </r>
       <r>   -4.2132    0.9003 </r>
       <r>   -4.2106    0.8915 </r>
       <r>   -4.2097    0.8883 </r>
       <r>   -4.1978    0.8449 </r>
       <r>   -4.1974    0.8434 </r>
       <r>   -4.1947    0.8329 </r>
       <r>   -4.1943    0.8314 </r>
       <r>   -4.1936    0.8286 </r>
       <r>   -4.1919    0.8217 </r>
       <r>   -4.1763    0.7544 </r>
       <r>   -4.1698    0.7244 </r>
       <r>   -4.1631    0.6921 </r>
       <r>   -4.1553    0.6532 </r>
       <r>   -4.1532    0.6429 </r>
       <r>   -4.1529    0.6414 </r>
       <r>   -4.1478    0.6151 </r>
       <r>   -4.1472    0.6124 </r>
       <r>   -4.1467    0.6097 </r>
       <r>   -4.1319    0.5324 </r>
       <r>   -4.1036    0.3839 </r>
       <r>   -4.1036    0.3838 </r>
       <r>   -4.1027    0.3792 </r>
       <r>   -4.1019    0.3749 </r>
       <r>   -4.0882    0.3064 </r>
       <r>   -4.0880    0.3054 </r>
       <r>   -4.0819    0.2763 </r>
       <r>   -3.9486   -0.0497 </r>
       <r>   -3.8790   -0.0346 </r>
       <r>   -3.7917   -0.0012 </r>
       <r>   -3.7916   -0.0012 </r>
       <r>   -3.7404    0.0046 </r>
       <r>   -3.4703    0.0001 </r>
       <r>   -3.4668    0.0001 </r>
       <r>   -3.4549    0.0000 </r>
       <r>   -3.0359    0.0000 </r>
       <r>   -3.0312    0.0000 </r>
       <r>   -3.0118    0.0000 </r>
       <r>   -3.0020    0.0000 </r>
       <r>   -2.9870    0.0000 </r>
       <r>   -2.9600    0.0000 </r>
       <r>   -2.9087    0.0000 </r>
       <r>   -2.8283    0.0000 </r>
       <r>   -2.5132    0.0000 </r>
       <r>   -2.5103    0.0000 </r>
       <r>   -2.4954    0.0000 </r>
       <r>   -2.3179    0.0000 </r>
       <r>   -2.1087    0.0000 </r>
       <r>   -2.0932    0.0000 </r>
       <r>   -2.0391    0.0000 </r>
       <r>   -2.0191    0.0000 </r>
       <r>   -1.9603    0.0000 </r>
       <r>   -1.8875    0.0000 </r>
       <r>   -1.8670    0.0000 </r>
       <r>   -1.8537    0.0000 </r>
       <r>   -1.8258    0.0000 </r>
       <r>   -1.7056    0.0000 </r>
       <r>   -1.6211    0.0000 </r>
       <r>   -1.6172    0.0000 </r>
       <r>   -1.5896    0.0000 </r>
       <r>   -1.5451    0.0000 </r>
       <r>   -1.4869    0.0000 </r>
       <r>   -1.4549    0.0000 </r>
       <r>   -1.2135    0.0000 </r>
       <r>   -1.2130    0.0000 </r>
       <r>   -1.1887    0.0000 </r>
       <r>   -0.9633    0.0000 </r>
       <r>   -0.9539    0.0000 </r>
       <r>   -0.9313    0.0000 </r>
       <r>   -0.9105    0.0000 </r>
       <r>   -0.8977    0.0000 </r>
       <r>   -0.8540    0.0000 </r>
       <r>   -0.7788    0.0000 </r>
       <r>   -0.7735    0.0000 </r>
      </set>
     </set>
    </set>
   </array>
  </eigenvalues>
  <separator name="orbital magnetization" >
   <v name="MAGDIPOLOUT">      0.00000000      0.00000000      0.00000000</v>
  </separator>
  <dos>
   <i name="efermi">     -4.12579518 </i>
   <total>
    <array>
     <dimension dim="1">gridpoints</dimension>
     <dimension dim="2">spin</dimension>
     <field>energy</field>
     <field>total</field>
     <field>integrated</field>
     <set>
      <set comment="spin 1">
       <r>   -31.3382     0.0000     0.0000 </r>
       <r>   -31.2297     0.0000     0.0000 </r>
       <r>   -31.1211     0.0000     0.0000 </r>
       <r>   -31.0126     0.0000     0.0000 </r>
       <r>   -30.9040     0.0000     0.0000 </r>
       <r>   -30.7955     0.0000     0.0000 </r>
       <r>   -30.6869     0.0000     0.0000 </r>
       <r>   -30.5784     0.0000     0.0000 </r>
       <r>   -30.4698     0.0000     0.0000 </r>
       <r>   -30.3613     0.0000     0.0000 </r>
       <r>   -30.2527     0.0000     0.0000 </r>
       <r>   -30.1442     0.0000     0.0000 </r>
       <r>   -30.0356     0.0004     0.0000 </r>
       <r>   -29.9271     0.0067     0.0008 </r>
       <r>   -29.8185     0.0435     0.0055 </r>
       <r>   -29.7100     0.0216     0.0078 </r>
       <r>   -29.6014    -0.5641    -0.0534 </r>
       <r>   -29.4929    -0.1898    -0.0740 </r>
       <r>   -29.3843     5.5805     0.5317 </r>
       <r>   -29.2758     9.9602     1.6129 </r>
       <r>   -29.1672     4.4402     2.0949 </r>
       <r>   -29.0587    -0.5207     2.0384 </r>
       <r>   -28.9501    -0.4403     1.9906 </r>
       <r>   -28.8416     0.0466     1.9956 </r>
       <r>   -28.7330     0.0354     1.9995 </r>
       <r>   -28.6245     0.0046     2.0000 </r>
       <r>   -28.5159     0.0002     2.0000 </r>
       <r>   -28.4074     0.0000     2.0000 </r>
       <r>   -28.2988     0.0000     2.0000 </r>
       <r>   -28.1903     0.0000     2.0000 </r>
       <r>   -28.0817     0.0000     2.0000 </r>
       <r>   -27.9732     0.0000     2.0000 </r>
       <r>   -27.8646     0.0000     2.0000 </r>
       <r>   -27.7561     0.0000     2.0000 </r>
       <r>   -27.6476     0.0000     2.0000 </r>
       <r>   -27.5390     0.0000     2.0000 </r>
       <r>   -27.4305     0.0000     2.0000 </r>
       <r>   -27.3219     0.0000     2.0000 </r>
       <r>   -27.2134     0.0000     2.0000 </r>
       <r>   -27.1048     0.0000     2.0000 </r>
       <r>   -26.9963     0.0000     2.0000 </r>
       <r>   -26.8877     0.0000     2.0000 </r>
       <r>   -26.7792     0.0000     2.0000 </r>
       <r>   -26.6706     0.0000     2.0000 </r>
       <r>   -26.5621     0.0000     2.0000 </r>
       <r>   -26.4535     0.0000     2.0000 </r>
       <r>   -26.3450     0.0000     2.0000 </r>
       <r>   -26.2364     0.0000     2.0000 </r>
       <r>   -26.1279     0.0000     2.0000 </r>
       <r>   -26.0193     0.0000     2.0000 </r>
       <r>   -25.9108     0.0000     2.0000 </r>
       <r>   -25.8022     0.0000     2.0000 </r>
       <r>   -25.6937     0.0000     2.0000 </r>
       <r>   -25.5851     0.0000     2.0000 </r>
       <r>   -25.4766     0.0000     2.0000 </r>
       <r>   -25.3680     0.0000     2.0000 </r>
       <r>   -25.2595     0.0000     2.0000 </r>
       <r>   -25.1509     0.0000     2.0000 </r>
       <r>   -25.0424     0.0000     2.0000 </r>
       <r>   -24.9338     0.0000     2.0000 </r>
       <r>   -24.8253     0.0000     2.0000 </r>
       <r>   -24.7167     0.0000     2.0000 </r>
       <r>   -24.6082     0.0000     2.0000 </r>
       <r>   -24.4996     0.0000     2.0000 </r>
       <r>   -24.3911     0.0000     2.0000 </r>
       <r>   -24.2825     0.0000     2.0000 </r>
       <r>   -24.1740     0.0000     2.0000 </r>
       <r>   -24.0654     0.0000     2.0000 </r>
       <r>   -23.9569     0.0000     2.0000 </r>
       <r>   -23.8483     0.0000     2.0000 </r>
       <r>   -23.7398     0.0000     2.0000 </r>
       <r>   -23.6312     0.0000     2.0000 </r>
       <r>   -23.5227     0.0000     2.0000 </r>
       <r>   -23.4141     0.0000     2.0000 </r>
       <r>   -23.3056     0.0000     2.0000 </r>
       <r>   -23.1970     0.0000     2.0000 </r>
       <r>   -23.0885     0.0000     2.0000 </r>
       <r>   -22.9799     0.0000     2.0000 </r>
       <r>   -22.8714     0.0000     2.0000 </r>
       <r>   -22.7628     0.0000     2.0000 </r>
       <r>   -22.6543     0.0000     2.0000 </r>
       <r>   -22.5457     0.0000     2.0000 </r>
       <r>   -22.4372     0.0000     2.0000 </r>
       <r>   -22.3287     0.0000     2.0000 </r>
       <r>   -22.2201     0.0000     2.0000 </r>
       <r>   -22.1116     0.0000     2.0000 </r>
       <r>   -22.0030     0.0000     2.0000 </r>
       <r>   -21.8945     0.0000     2.0000 </r>
       <r>   -21.7859     0.0000     2.0000 </r>
       <r>   -21.6774     0.0000     2.0000 </r>
       <r>   -21.5688     0.0000     2.0000 </r>
       <r>   -21.4603     0.0000     2.0000 </r>
       <r>   -21.3517     0.0000     2.0000 </r>
       <r>   -21.2432     0.0000     2.0000 </r>
       <r>   -21.1346     0.0000     2.0000 </r>
       <r>   -21.0261     0.0000     2.0000 </r>
       <r>   -20.9175     0.0000     2.0000 </r>
       <r>   -20.8090     0.0000     2.0000 </r>
       <r>   -20.7004     0.0000     2.0000 </r>
       <r>   -20.5919     0.0000     2.0000 </r>
       <r>   -20.4833     0.0000     2.0000 </r>
       <r>   -20.3748     0.0000     2.0000 </r>
       <r>   -20.2662     0.0000     2.0000 </r>
       <r>   -20.1577     0.0000     2.0000 </r>
       <r>   -20.0491     0.0000     2.0000 </r>
       <r>   -19.9406     0.0000     2.0000 </r>
       <r>   -19.8320     0.0000     2.0000 </r>
       <r>   -19.7235     0.0000     2.0000 </r>
       <r>   -19.6149     0.0000     2.0000 </r>
       <r>   -19.5064     0.0000     2.0000 </r>
       <r>   -19.3978     0.0000     2.0000 </r>
       <r>   -19.2893     0.0000     2.0000 </r>
       <r>   -19.1807     0.0000     2.0000 </r>
       <r>   -19.0722     0.0000     2.0000 </r>
       <r>   -18.9636     0.0000     2.0000 </r>
       <r>   -18.8551     0.0000     2.0000 </r>
       <r>   -18.7465     0.0000     2.0000 </r>
       <r>   -18.6380     0.0000     2.0000 </r>
       <r>   -18.5294     0.0000     2.0000 </r>
       <r>   -18.4209     0.0000     2.0000 </r>
       <r>   -18.3123     0.0000     2.0000 </r>
       <r>   -18.2038     0.0000     2.0000 </r>
       <r>   -18.0952     0.0000     2.0000 </r>
       <r>   -17.9867     0.0000     2.0000 </r>
       <r>   -17.8781     0.0000     2.0000 </r>
       <r>   -17.7696     0.0000     2.0000 </r>
       <r>   -17.6610     0.0000     2.0000 </r>
       <r>   -17.5525     0.0000     2.0000 </r>
       <r>   -17.4439     0.0000     2.0000 </r>
       <r>   -17.3354     0.0000     2.0000 </r>
       <r>   -17.2268     0.0000     2.0000 </r>
       <r>   -17.1183     0.0000     2.0000 </r>
       <r>   -17.0098     0.0000     2.0000 </r>
       <r>   -16.9012     0.0000     2.0000 </r>
       <r>   -16.7927     0.0000     2.0000 </r>
       <r>   -16.6841     0.0000     2.0000 </r>
       <r>   -16.5756     0.0000     2.0000 </r>
       <r>   -16.4670     0.0000     2.0000 </r>
       <r>   -16.3585     0.0000     2.0000 </r>
       <r>   -16.2499     0.0000     2.0000 </r>
       <r>   -16.1414     0.0000     2.0000 </r>
       <r>   -16.0328     0.0000     2.0000 </r>
       <r>   -15.9243     0.0000     2.0000 </r>
       <r>   -15.8157     0.0000     2.0000 </r>
       <r>   -15.7072     0.0000     2.0000 </r>
       <r>   -15.5986     0.0000     2.0000 </r>
       <r>   -15.4901     0.0000     2.0000 </r>
       <r>   -15.3815     0.0000     2.0000 </r>
       <r>   -15.2730     0.0000     2.0000 </r>
       <r>   -15.1644     0.0000     2.0000 </r>
       <r>   -15.0559     0.0000     2.0000 </r>
       <r>   -14.9473     0.0000     2.0000 </r>
       <r>   -14.8388     0.0000     2.0000 </r>
       <r>   -14.7302     0.0000     2.0000 </r>
       <r>   -14.6217     0.0000     2.0000 </r>
       <r>   -14.5131     0.0011     2.0001 </r>
       <r>   -14.4046     0.0141     2.0017 </r>
       <r>   -14.2960     0.0600     2.0082 </r>
       <r>   -14.1875    -0.0922     1.9982 </r>
       <r>   -14.0789    -0.7841     1.9130 </r>
       <r>   -13.9704     1.1006     2.0325 </r>
       <r>   -13.8618     7.9666     2.8973 </r>
       <r>   -13.7533     8.9686     3.8708 </r>
       <r>   -13.6447     2.1067     4.0995 </r>
       <r>   -13.5362    -0.8112     4.0114 </r>
       <r>   -13.4276    -0.1915     3.9907 </r>
       <r>   -13.3191     0.0640     3.9976 </r>
       <r>   -13.2105     0.0201     3.9998 </r>
       <r>   -13.1020     0.0019     4.0000 </r>
       <r>   -12.9934     0.0001     4.0000 </r>
       <r>   -12.8849     0.0000     4.0000 </r>
       <r>   -12.7763     0.0000     4.0000 </r>
       <r>   -12.6678     0.0000     4.0000 </r>
       <r>   -12.5592     0.0000     4.0000 </r>
       <r>   -12.4507     0.0000     4.0000 </r>
       <r>   -12.3421     0.0006     4.0001 </r>
       <r>   -12.2336     0.0100     4.0011 </r>
       <r>   -12.1250     0.0741     4.0092 </r>
       <r>   -12.0165     0.0848     4.0184 </r>
       <r>   -11.9079    -0.9337     3.9170 </r>
       <r>   -11.7994    -0.9234     3.8168 </r>
       <r>   -11.6909     9.3657     4.8334 </r>
       <r>   -11.5823    19.9683     7.0010 </r>
       <r>   -11.4738    10.6719     8.1594 </r>
       <r>   -11.3652    -0.5454     8.1002 </r>
       <r>   -11.2567    -1.0757     7.9834 </r>
       <r>   -11.1481     0.0562     7.9895 </r>
       <r>   -11.0396     0.0834     7.9986 </r>
       <r>   -10.9310     0.0123     7.9999 </r>
       <r>   -10.8225     0.0007     8.0000 </r>
       <r>   -10.7139     0.0000     8.0000 </r>
       <r>   -10.6054     0.0000     8.0000 </r>
       <r>   -10.4968     0.0000     8.0000 </r>
       <r>   -10.3883     0.0000     8.0000 </r>
       <r>   -10.2797     0.0007     8.0001 </r>
       <r>   -10.1712     0.0102     8.0012 </r>
       <r>   -10.0626     0.0534     8.0070 </r>
       <r>    -9.9541    -0.0307     8.0037 </r>
       <r>    -9.8455    -0.7040     7.9272 </r>
       <r>    -9.7370     0.4299     7.9739 </r>
       <r>    -9.6284     6.9618     8.7296 </r>
       <r>    -9.5199     9.5686     9.7683 </r>
       <r>    -9.4113     3.0860    10.1032 </r>
       <r>    -9.3028    -0.7482    10.0220 </r>
       <r>    -9.1942    -0.2937     9.9902 </r>
       <r>    -9.0857     0.0615     9.9968 </r>
       <r>    -8.9771     0.0262     9.9997 </r>
       <r>    -8.8686     0.0028    10.0000 </r>
       <r>    -8.7600     0.0001    10.0000 </r>
       <r>    -8.6515     0.0000    10.0000 </r>
       <r>    -8.5429     0.0000    10.0000 </r>
       <r>    -8.4344     0.0000    10.0000 </r>
       <r>    -8.3258     0.0000    10.0000 </r>
       <r>    -8.2173     0.0000    10.0000 </r>
       <r>    -8.1087     0.0000    10.0000 </r>
       <r>    -8.0002     0.0000    10.0000 </r>
       <r>    -7.8916     0.0000    10.0000 </r>
       <r>    -7.7831     0.0000    10.0000 </r>
       <r>    -7.6745     0.0000    10.0000 </r>
       <r>    -7.5660     0.0000    10.0000 </r>
       <r>    -7.4574     0.0000    10.0000 </r>
       <r>    -7.3489     0.0002    10.0000 </r>
       <r>    -7.2403     0.0036    10.0004 </r>
       <r>    -7.1318     0.0306    10.0037 </r>
       <r>    -7.0232     0.0561    10.0098 </r>
       <r>    -6.9147    -0.3642     9.9703 </r>
       <r>    -6.8061    -0.6578     9.8989 </r>
       <r>    -6.6976     3.7594    10.3070 </r>
       <r>    -6.5890     9.9374    11.3857 </r>
       <r>    -6.4805     6.3846    12.0787 </r>
       <r>    -6.3720    -1.4542    11.9208 </r>
       <r>    -6.2634    -1.3862    11.7704 </r>
       <r>    -6.1549    15.9787    13.5048 </r>
       <r>    -6.0463    28.7735    16.6282 </r>
       <r>    -5.9378    12.4232    17.9767 </r>
       <r>    -5.8292    12.2916    19.3109 </r>
       <r>    -5.7207    46.1397    24.3194 </r>
       <r>    -5.6121   109.3476    36.1889 </r>
       <r>    -5.5036   229.7959    61.1330 </r>
       <r>    -5.3950   309.3086    94.7082 </r>
       <r>    -5.2865   254.5215   122.3362 </r>
       <r>    -5.1779   205.2741   144.6185 </r>
       <r>    -5.0694   269.4108   173.8628 </r>
       <r>    -4.9608   358.1723   212.7420 </r>
       <r>    -4.8523   345.4276   250.2378 </r>
       <r>    -4.7437   301.5428   282.9700 </r>
       <r>    -4.6352   363.5907   322.4374 </r>
       <r>    -4.5266   423.6660   368.4259 </r>
       <r>    -4.4181   416.4448   413.6306 </r>
       <r>    -4.3095   487.8842   466.5899 </r>
       <r>    -4.2010   561.0413   527.4904 </r>
       <r>    -4.0924   385.5984   569.3467 </r>
       <r>    -3.9839   107.5226   581.0182 </r>
       <r>    -3.8753     8.3193   581.9212 </r>
       <r>    -3.7668    27.5066   584.9070 </r>
       <r>    -3.6582    23.6728   587.4767 </r>
       <r>    -3.5497    12.8730   588.8740 </r>
       <r>    -3.4411    26.6929   591.7715 </r>
       <r>    -3.3326    20.3819   593.9840 </r>
       <r>    -3.2240    -2.6733   593.6938 </r>
       <r>    -3.1155     6.5901   594.4091 </r>
       <r>    -3.0069    50.5100   599.8919 </r>
       <r>    -2.8984    63.3883   606.7727 </r>
       <r>    -2.7898    27.8399   609.7947 </r>
       <r>    -2.6813     1.2136   609.9264 </r>
       <r>    -2.5727    10.2186   611.0356 </r>
       <r>    -2.4642    29.4985   614.2376 </r>
       <r>    -2.3556    22.5815   616.6888 </r>
       <r>    -2.2471     8.0283   617.5603 </r>
       <r>    -2.1385    15.3016   619.2213 </r>
       <r>    -2.0300    38.2907   623.3777 </r>
       <r>    -1.9214    50.8316   628.8954 </r>
       <r>    -1.8129    45.6442   633.8500 </r>
       <r>    -1.7043    34.0694   637.5482 </r>
       <r>    -1.5958    41.8183   642.0876 </r>
       <r>    -1.4872    46.3540   647.1192 </r>
       <r>    -1.3787    24.0018   649.7246 </r>
       <r>    -1.2701    14.9129   651.3434 </r>
       <r>    -1.1616    23.7160   653.9177 </r>
       <r>    -1.0531    20.9266   656.1893 </r>
       <r>    -0.9445    39.5985   660.4877 </r>
       <r>    -0.8360    61.1293   667.1232 </r>
       <r>    -0.7274    39.6875   671.4312 </r>
       <r>    -0.6189     8.1401   672.3148 </r>
       <r>    -0.5103    -2.3845   672.0560 </r>
       <r>    -0.4018    -0.8616   671.9625 </r>
       <r>    -0.2932     0.2223   671.9866 </r>
       <r>    -0.1847     0.1085   671.9984 </r>
       <r>    -0.0761     0.0141   671.9999 </r>
       <r>     0.0324     0.0008   672.0000 </r>
       <r>     0.1410     0.0000   672.0000 </r>
       <r>     0.2495     0.0000   672.0000 </r>
       <r>     0.3581     0.0000   672.0000 </r>
       <r>     0.4666     0.0000   672.0000 </r>
       <r>     0.5752     0.0000   672.0000 </r>
       <r>     0.6837     0.0000   672.0000 </r>
       <r>     0.7923     0.0000   672.0000 </r>
       <r>     0.9008     0.0000   672.0000 </r>
       <r>     1.0094     0.0000   672.0000 </r>
       <r>     1.1179     0.0000   672.0000 </r>
       <r>     1.2265     0.0000   672.0000 </r>
      </set>
     </set>
    </array>
   </total>
  </dos>
 </calculation>
 <structure name="finalpos" >
  <crystal>
   <varray name="basis" >
    <v>      30.00000000       0.00000000       0.00000000 </v>
    <v>       0.00000000      30.00000000       0.00000000 </v>
    <v>       0.00000000       0.00000000      30.00000000 </v>
   </varray>
   <i name="volume">  27000.00000000 </i>
   <varray name="rec_basis" >
    <v>       0.03333333       0.00000000       0.00000000 </v>
    <v>       0.00000000       0.03333333       0.00000000 </v>
    <v>       0.00000000       0.00000000       0.03333333 </v>
   </varray>
  </crystal>
  <varray name="positions" >
   <v>       0.44576020       0.32826710       0.41691983 </v>
   <v>       0.67173288       0.55423978       0.41691983 </v>
   <v>       0.55423980       0.32826710       0.41691983 </v>
   <v>       0.32826712       0.55423978       0.41691983 </v>
   <v>       0.50000000       0.38250690       0.34021317 </v>
   <v>       0.50000000       0.38250690       0.65978680 </v>
   <v>       0.50000000       0.27609440       0.50000000 </v>
   <v>       0.27609443       0.49999998       0.50000000 </v>
   <v>       0.72390557       0.49999998       0.50000000 </v>
   <v>       0.50000000       0.72390555       0.50000000 </v>
   <v>       0.61195280       0.38804720       0.34167483 </v>
   <v>       0.61195280       0.38804720       0.65832513 </v>
   <v>       0.38804722       0.61195278       0.34167483 </v>
   <v>       0.38804722       0.61195278       0.65832513 </v>
   <v>       0.38804720       0.38804720       0.34167483 </v>
   <v>       0.38804720       0.38804720       0.65832513 </v>
   <v>       0.61195278       0.61195278       0.34167483 </v>
   <v>       0.61195278       0.61195278       0.65832513 </v>
   <v>       0.44576020       0.32826710       0.58308023 </v>
   <v>       0.67173288       0.55423978       0.58308023 </v>
   <v>       0.55791699       0.44208301       0.41809300 </v>
   <v>       0.32826705       0.44576024       0.41691983 </v>
   <v>       0.55423973       0.67173293       0.41691983 </v>
   <v>       0.55423980       0.32826710       0.58308023 </v>
   <v>       0.32826712       0.55423978       0.58308023 </v>
   <v>       0.67173295       0.44576024       0.41691983 </v>
   <v>       0.44576027       0.67173293       0.41691983 </v>
   <v>       0.44208301       0.44208301       0.41809300 </v>
   <v>       0.50000000       0.38416601       0.50000000 </v>
   <v>       0.61749315       0.50000005       0.34021317 </v>
   <v>       0.61749315       0.50000005       0.65978680 </v>
   <v>       0.38250685       0.50000005       0.34021317 </v>
   <v>       0.38250685       0.50000005       0.65978680 </v>
   <v>       0.38317830       0.38317830       0.50000000 </v>
   <v>       0.61682172       0.61682172       0.50000000 </v>
   <v>       0.61682170       0.38317830       0.50000000 </v>
   <v>       0.38317828       0.61682172       0.50000000 </v>
   <v>       0.50000000       0.50000000       0.33478917 </v>
   <v>       0.50000000       0.50000000       0.66521087 </v>
   <v>       0.32826705       0.44576024       0.58308023 </v>
   <v>       0.55423973       0.67173293       0.58308023 </v>
   <v>       0.55791699       0.44208301       0.58190703 </v>
   <v>       0.44208298       0.55791702       0.41809300 </v>
   <v>       0.44208301       0.44208301       0.58190703 </v>
   <v>       0.67173295       0.44576024       0.58308023 </v>
   <v>       0.44576027       0.67173293       0.58308023 </v>
   <v>       0.55791702       0.55791702       0.41809300 </v>
   <v>       0.38416599       0.50000002       0.50000000 </v>
   <v>       0.61583401       0.50000002       0.50000000 </v>
   <v>       0.50000000       0.61749319       0.34021317 </v>
   <v>       0.50000000       0.61749319       0.65978680 </v>
   <v>       0.50000000       0.50000000       0.50000000 </v>
   <v>       0.44208298       0.55791702       0.58190703 </v>
   <v>       0.55791702       0.55791702       0.58190703 </v>
   <v>       0.50000000       0.61583404       0.50000000 </v>
   <v>       0.65330383       0.65349373       0.72080153 </v>
   <v>       0.67192570       0.67213863       0.74762233 </v>
  </varray>
  <varray name="selective"  type="logical" >
   <v type="logical" >  F  F  F </v>
   <v type="logical" >  F  F  F </v>
   <v type="logical" >  F  F  F </v>
   <v type="logical" >  F  F  F </v>
   <v type="logical" >  F  F  F </v>
   <v type="logical" >  F  F  F </v>
   <v type="logical" >  F  F  F </v>
   <v type="logical" >  F  F  F </v>
   <v type="logical" >  F  F  F </v>
   <v type="logical" >  F  F  F </v>
   <v type="logical" >  F  F  F </v>
   <v type="logical" >  F  F  F </v>
   <v type="logical" >  F  F  F </v>
   <v type="logical" >  F  F  F </v>
   <v type="logical" >  F  F  F </v>
   <v type="logical" >  F  F  F </v>
   <v type="logical" >  F  F  F </v>
   <v type="logical" >  F  F  F </v>
   <v type="logical" >  F  F  F </v>
   <v type="logical" >  F  F  F </v>
   <v type="logical" >  F  F  F </v>
   <v type="logical" >  F  F  F </v>
   <v type="logical" >  F  F  F </v>
   <v type="logical" >  F  F  F </v>
   <v type="logical" >  F  F  F </v>
   <v type="logical" >  F  F  F </v>
   <v type="logical" >  F  F  F </v>
   <v type="logical" >  F  F  F </v>
   <v type="logical" >  F  F  F </v>
   <v type="logical" >  F  F  F </v>
   <v type="logical" >  F  F  F </v>
   <v type="logical" >  F  F  F </v>
   <v type="logical" >  F  F  F </v>
   <v type="logical" >  F  F  F </v>
   <v type="logical" >  F  F  F </v>
   <v type="logical" >  F  F  F </v>
   <v type="logical" >  F  F  F </v>
   <v type="logical" >  F  F  F </v>
   <v type="logical" >  F  F  F </v>
   <v type="logical" >  F  F  F </v>
   <v type="logical" >  F  F  F </v>
   <v type="logical" >  F  F  F </v>
   <v type="logical" >  F  F  F </v>
   <v type="logical" >  F  F  F </v>
   <v type="logical" >  F  F  F </v>
   <v type="logical" >  F  F  F </v>
   <v type="logical" >  F  F  F </v>
   <v type="logical" >  F  F  F </v>
   <v type="logical" >  F  F  F </v>
   <v type="logical" >  F  F  F </v>
   <v type="logical" >  F  F  F </v>
   <v type="logical" >  F  F  F </v>
   <v type="logical" >  F  F  F </v>
   <v type="logical" >  F  F  F </v>
   <v type="logical" >  F  F  F </v>
   <v type="logical" >  F  F  F </v>
   <v type="logical" >  F  F  F </v>
  </varray>
  <nose>
   <v>      -3.00000000       0.00000000       0.00010000       0.00010000 </v>
  </nose>
 </structure>
</modeling>
