<?xml version="1.0" encoding="ISO-8859-1"?>
<modeling>
 <generator>
  <i name="program" type="string">vasp </i>
  <i name="version" type="string">5.4.4.18Apr17-6-g9f103f2a35  </i>
  <i name="subversion" type="string">(build Sep 03 2018 23:53:05) complex            parallel </i>
  <i name="platform" type="string">LinuxIFC </i>
  <i name="date" type="string">2021 12 02 </i>
  <i name="time" type="string">23:09:03 </i>
 </generator>
 <incar>
  <i type="string" name="SYSTEM"> 6_Pd100_top_free_z(O)</i>
  <i type="int" name="ISTART">     0</i>
  <i type="string" name="PREC">normal   			! encut=max(enmax), ngx,y,z</i>
  <i type="string" name="ALGO"> Fast     			! Mix RMM-DIIS and Dav</i>
  <i type="logical" name="ADDGRID"> F  </i>
  <i type="int" name="ISPIN">     1</i>
  <i type="int" name="ICHARG">     2</i>
  <i type="int" name="NELM">   100</i>
  <i type="int" name="NELMIN">     6</i>
  <i type="int" name="IBRION">     2</i>
  <i name="EDIFF">      0.00010000</i>
  <i name="EDIFFG">     -0.05000000</i>
  <i type="int" name="NSW">     0</i>
  <i type="int" name="ISIF">     2</i>
  <i type="int" name="ISYM">     2</i>
  <i name="ENCUT">    400.00000000</i>
  <i type="string" name="LREAL"> Auto     			! Auto or A projection done</i>
  <i type="int" name="ISMEAR">     2</i>
  <i name="SIGMA">      0.20000000</i>
  <i type="logical" name="LWAVE"> F  </i>
  <i type="logical" name="LCHARG"> F  </i>
  <v type="int" name="KPOINT_BSE">    -1     0     0     0</v>
  <i type="int" name="MAXMEM"> 10000</i>
  <i type="int" name="NELM">   100</i>
  <i type="string" name="GGA"> RP         			! Revised PBE</i>
 </incar>
 <structure name="primitive_cell" >
  <crystal>
   <varray name="basis" >
    <v>      30.00000000       0.00000000       0.00000000 </v>
    <v>       0.00000000      30.00000000       0.00000000 </v>
    <v>       0.00000000       0.00000000      30.00000000 </v>
   </varray>
   <i name="volume">  27000.00000000 </i>
   <varray name="rec_basis" >
    <v>       0.03333333       0.00000000       0.00000000 </v>
    <v>       0.00000000       0.03333333       0.00000000 </v>
    <v>       0.00000000       0.00000000       0.03333333 </v>
   </varray>
  </crystal>
  <varray name="positions" >
   <v>       0.44576020       0.32826710       0.41691983 </v>
   <v>      -0.44576020       0.32826710       0.41691983 </v>
   <v>      -0.50000000       0.38250690       0.34021317 </v>
   <v>      -0.50000000       0.27609440      -0.50000000 </v>
   <v>       0.38804720       0.38804720       0.34167483 </v>
   <v>      -0.50000000       0.38416601      -0.50000000 </v>
   <v>       0.44208300       0.44208300       0.41809300 </v>
   <v>       0.38317830       0.38317830      -0.50000000 </v>
   <v>      -0.44208300       0.44208300       0.41809300 </v>
   <v>       0.44576020       0.32826710      -0.41691977 </v>
   <v>       0.32826705       0.44576024       0.41691983 </v>
   <v>      -0.38804720       0.38804720       0.34167483 </v>
   <v>      -0.38317830       0.38317830      -0.50000000 </v>
   <v>      -0.50000000      -0.50000000       0.33478917 </v>
   <v>      -0.50000000      -0.50000000      -0.50000000 </v>
   <v>      -0.44576020       0.32826710      -0.41691977 </v>
   <v>       0.38250685      -0.49999995       0.34021317 </v>
   <v>       0.44208300       0.44208300      -0.41809297 </v>
   <v>       0.38416599      -0.49999998      -0.50000000 </v>
   <v>      -0.44208300       0.44208300      -0.41809297 </v>
   <v>       0.44208298      -0.44208298       0.41809300 </v>
   <v>       0.32826705       0.44576024      -0.41691977 </v>
   <v>      -0.50000000       0.38250690      -0.34021320 </v>
   <v>       0.32826712      -0.44576022       0.41691983 </v>
   <v>      -0.38250685      -0.49999995       0.34021317 </v>
   <v>      -0.32826705       0.44576024       0.41691983 </v>
   <v>       0.27609443       0.49999998      -0.50000000 </v>
   <v>       0.38804720       0.38804720      -0.34167487 </v>
   <v>      -0.38416599      -0.49999998      -0.50000000 </v>
   <v>      -0.44208298      -0.44208298       0.41809300 </v>
   <v>       0.44208298      -0.44208298      -0.41809297 </v>
   <v>      -0.38804720       0.38804720      -0.34167487 </v>
   <v>       0.38804722      -0.38804722       0.34167483 </v>
   <v>       0.38250685      -0.49999995      -0.34021320 </v>
   <v>       0.32826712      -0.44576022      -0.41691977 </v>
   <v>      -0.32826705       0.44576024      -0.41691977 </v>
   <v>       0.50000000      -0.38250681       0.34021317 </v>
   <v>      -0.50000000      -0.38416596      -0.50000000 </v>
   <v>      -0.44208298      -0.44208298      -0.41809297 </v>
   <v>      -0.50000000      -0.50000000      -0.33478913 </v>
   <v>       0.38317828      -0.38317828      -0.50000000 </v>
   <v>      -0.32826712      -0.44576022       0.41691983 </v>
   <v>      -0.27609443       0.49999998      -0.50000000 </v>
   <v>      -0.38804722      -0.38804722       0.34167483 </v>
   <v>      -0.38250685      -0.49999995      -0.34021320 </v>
   <v>       0.44576027      -0.32826707       0.41691983 </v>
   <v>      -0.38317828      -0.38317828      -0.50000000 </v>
   <v>      -0.32826712      -0.44576022      -0.41691977 </v>
   <v>      -0.44576027      -0.32826707       0.41691983 </v>
   <v>       0.48180290      -0.32161847       0.30497790 </v>
   <v>       0.38804722      -0.38804722      -0.34167487 </v>
   <v>      -0.50000000      -0.38250681      -0.34021320 </v>
   <v>       0.44576027      -0.32826707      -0.41691977 </v>
   <v>      -0.44576027      -0.32826707      -0.41691977 </v>
   <v>       0.47922023      -0.29630123       0.27729890 </v>
   <v>      -0.50000000      -0.27609445       0.50000000 </v>
   <v>      -0.38804722      -0.38804722      -0.34167487 </v>
  </varray>
 </structure>
 <varray name="primitive_index" >
  <v type="int" >        1 </v>
  <v type="int" >        3 </v>
  <v type="int" >        5 </v>
  <v type="int" >        7 </v>
  <v type="int" >       15 </v>
  <v type="int" >       29 </v>
  <v type="int" >       28 </v>
  <v type="int" >       34 </v>
  <v type="int" >       21 </v>
  <v type="int" >       19 </v>
  <v type="int" >       22 </v>
  <v type="int" >       11 </v>
  <v type="int" >       36 </v>
  <v type="int" >       38 </v>
  <v type="int" >       52 </v>
  <v type="int" >       24 </v>
  <v type="int" >       32 </v>
  <v type="int" >       44 </v>
  <v type="int" >       48 </v>
  <v type="int" >       42 </v>
  <v type="int" >       43 </v>
  <v type="int" >       40 </v>
  <v type="int" >        6 </v>
  <v type="int" >        4 </v>
  <v type="int" >       30 </v>
  <v type="int" >       26 </v>
  <v type="int" >        8 </v>
  <v type="int" >       16 </v>
  <v type="int" >       49 </v>
  <v type="int" >       47 </v>
  <v type="int" >       53 </v>
  <v type="int" >       12 </v>
  <v type="int" >       13 </v>
  <v type="int" >       33 </v>
  <v type="int" >       25 </v>
  <v type="int" >       45 </v>
  <v type="int" >       50 </v>
  <v type="int" >       55 </v>
  <v type="int" >       54 </v>
  <v type="int" >       39 </v>
  <v type="int" >       37 </v>
  <v type="int" >        2 </v>
  <v type="int" >        9 </v>
  <v type="int" >       17 </v>
  <v type="int" >       31 </v>
  <v type="int" >       27 </v>
  <v type="int" >       35 </v>
  <v type="int" >       20 </v>
  <v type="int" >       23 </v>
  <v type="int" >       56 </v>
  <v type="int" >       14 </v>
  <v type="int" >       51 </v>
  <v type="int" >       46 </v>
  <v type="int" >       41 </v>
  <v type="int" >       57 </v>
  <v type="int" >       10 </v>
  <v type="int" >       18 </v>
 </varray>
 <kpoints>
  <generation param="Monkhorst-Pack">
   <v type="int" name="divisions">       1        1        1 </v>
   <v name="usershift">      0.00000000       0.00000000       0.00000000 </v>
   <v name="genvec1">      1.00000000       0.00000000       0.00000000 </v>
   <v name="genvec2">      0.00000000       1.00000000       0.00000000 </v>
   <v name="genvec3">      0.00000000       0.00000000       1.00000000 </v>
   <v name="shift">      0.00000000       0.00000000       0.00000000 </v>
  </generation>
  <varray name="kpointlist" >
   <v>       0.00000000       0.00000000       0.00000000 </v>
  </varray>
  <varray name="weights" >
   <v>       1.00000000 </v>
  </varray>
 </kpoints>
 <parameters>
  <separator name="general" >
   <i type="string" name="SYSTEM">6_Pd100_top_free_z(O)</i>
   <i type="logical" name="LCOMPAT"> F  </i>
  </separator>
  <separator name="electronic" >
   <i type="string" name="PREC">normal</i>
   <i name="ENMAX">    400.00000000</i>
   <i name="ENAUG">    644.87300000</i>
   <i name="EDIFF">      0.00010000</i>
   <i type="int" name="IALGO">    68</i>
   <i type="int" name="IWAVPR">    10</i>
   <i type="int" name="NBANDS">   336</i>
   <i name="NELECT">    560.00000000</i>
   <i type="int" name="TURBO">     0</i>
   <i type="int" name="IRESTART">     0</i>
   <i type="int" name="NREBOOT">     0</i>
   <i type="int" name="NMIN">     0</i>
   <i name="EREF">      0.00000000</i>
   <separator name="electronic smearing" >
    <i type="int" name="ISMEAR">     2</i>
    <i name="SIGMA">      0.20000000</i>
    <i name="KSPACING">      0.50000000</i>
    <i type="logical" name="KGAMMA"> T  </i>
   </separator>
   <separator name="electronic projectors" >
    <i type="logical" name="LREAL"> T  </i>
    <v name="ROPT">     -0.00050000     -0.00050000     -0.00050000</v>
    <i type="int" name="LMAXPAW">  -100</i>
    <i type="int" name="LMAXMIX">     2</i>
    <i type="logical" name="NLSPLINE"> F  </i>
   </separator>
   <separator name="electronic startup" >
    <i type="int" name="ISTART">     0</i>
    <i type="int" name="ICHARG">     2</i>
    <i type="int" name="INIWAV">     1</i>
   </separator>
   <separator name="electronic spin" >
    <i type="int" name="ISPIN">     1</i>
    <i type="logical" name="LNONCOLLINEAR"> F  </i>
    <v name="MAGMOM">      1.00000000      1.00000000      1.00000000      1.00000000      1.00000000      1.00000000      1.00000000      1.00000000      1.00000000      1.00000000      1.00000000      1.00000000      1.00000000      1.00000000      1.00000000      1.00000000      1.00000000      1.00000000      1.00000000      1.00000000
      1.00000000      1.00000000      1.00000000      1.00000000      1.00000000      1.00000000      1.00000000      1.00000000      1.00000000      1.00000000      1.00000000      1.00000000      1.00000000      1.00000000      1.00000000      1.00000000      1.00000000      1.00000000      1.00000000      1.00000000
      1.00000000      1.00000000      1.00000000      1.00000000      1.00000000      1.00000000      1.00000000      1.00000000      1.00000000      1.00000000      1.00000000      1.00000000      1.00000000      1.00000000      1.00000000      1.00000000      1.00000000</v>
    <i name="NUPDOWN">     -1.00000000</i>
    <i type="logical" name="LSORBIT"> F  </i>
    <v name="SAXIS">      0.00000000      0.00000000      1.00000000</v>
    <i type="logical" name="LSPIRAL"> F  </i>
    <v name="QSPIRAL">      0.00000000      0.00000000      0.00000000</v>
    <i type="logical" name="LZEROZ"> F  </i>
   </separator>
   <separator name="electronic exchange-correlation" >
    <i type="logical" name="LASPH"> F  </i>
    <i type="logical" name="LMETAGGA"> F  </i>
   </separator>
   <separator name="electronic convergence" >
    <i type="int" name="NELM">   100</i>
    <i type="int" name="NELMDL">    -5</i>
    <i type="int" name="NELMIN">     6</i>
    <i name="ENINI">    400.00000000</i>
    <separator name="electronic convergence detail" >
     <i type="logical" name="LDIAG"> T  </i>
     <i type="logical" name="LSUBROT"> F  </i>
     <i name="WEIMIN">      0.00000000</i>
     <i name="EBREAK">      0.00000007</i>
     <i name="DEPER">      0.30000000</i>
     <i type="int" name="NRMM">     4</i>
     <i name="TIME">      0.40000000</i>
    </separator>
   </separator>
   <separator name="electronic mixer" >
    <i name="AMIX">      0.40000000</i>
    <i name="BMIX">      1.00000000</i>
    <i name="AMIN">      0.10000000</i>
    <i name="AMIX_MAG">      1.60000000</i>
    <i name="BMIX_MAG">      1.00000000</i>
    <separator name="electronic mixer details" >
     <i type="int" name="IMIX">     4</i>
     <i type="logical" name="MIXFIRST"> F  </i>
     <i type="int" name="MAXMIX">   -45</i>
     <i name="WC">    100.00000000</i>
     <i type="int" name="INIMIX">     1</i>
     <i type="int" name="MIXPRE">     1</i>
     <i type="int" name="MREMOVE">     5</i>
    </separator>
   </separator>
   <separator name="electronic dipolcorrection" >
    <i type="logical" name="LDIPOL"> F  </i>
    <i type="logical" name="LMONO"> F  </i>
    <i type="int" name="IDIPOL">     0</i>
    <i name="EPSILON">      1.00000000</i>
    <v name="DIPOL">   -100.00000000   -100.00000000   -100.00000000</v>
    <i name="EFIELD">      0.00000000</i>
   </separator>
  </separator>
  <separator name="grids" >
   <i type="int" name="NGX">   150</i>
   <i type="int" name="NGY">   150</i>
   <i type="int" name="NGZ">   150</i>
   <i type="int" name="NGXF">   300</i>
   <i type="int" name="NGYF">   300</i>
   <i type="int" name="NGZF">   300</i>
   <i type="logical" name="ADDGRID"> F  </i>
  </separator>
  <separator name="ionic" >
   <i type="int" name="NSW">     0</i>
   <i type="int" name="IBRION">    -1</i>
   <i type="int" name="MDALGO">     0</i>
   <i type="int" name="ISIF">     2</i>
   <i name="PSTRESS">      0.00000000</i>
   <i name="EDIFFG">     -0.05000000</i>
   <i type="int" name="NFREE">     1</i>
   <i name="POTIM">      0.50000000</i>
   <i name="SMASS">     -3.00000000</i>
   <i name="SCALEE">      1.00000000</i>
  </separator>
  <separator name="ionic md" >
   <i name="TEBEG">      0.00010000</i>
   <i name="TEEND">      0.00010000</i>
   <i type="int" name="NBLOCK">     1</i>
   <i type="int" name="KBLOCK">     1</i>
   <i type="int" name="NPACO">   256</i>
   <i name="APACO">     16.00000000</i>
  </separator>
  <separator name="symmetry" >
   <i type="int" name="ISYM">     2</i>
   <i name="SYMPREC">      0.00001000</i>
  </separator>
  <separator name="dos" >
   <i type="int" name="LORBIT">     0</i>
   <v name="RWIGS">     -1.00000000     -1.00000000     -1.00000000</v>
   <i type="int" name="NEDOS">   301</i>
   <i name="EMIN">     10.00000000</i>
   <i name="EMAX">    -10.00000000</i>
   <i name="EFERMI">      0.00000000</i>
  </separator>
  <separator name="writing" >
   <i type="int" name="NWRITE">     2</i>
   <i type="logical" name="LWAVE"> F  </i>
   <i type="logical" name="LDOWNSAMPLE"> F  </i>
   <i type="logical" name="LCHARG"> F  </i>
   <i type="logical" name="LPARD"> F  </i>
   <i type="logical" name="LVTOT"> F  </i>
   <i type="logical" name="LVHAR"> F  </i>
   <i type="logical" name="LELF"> F  </i>
   <i type="logical" name="LOPTICS"> F  </i>
   <v name="STM">      0.00000000      0.00000000      0.00000000      0.00000000      0.00000000      0.00000000      0.00000000</v>
  </separator>
  <separator name="performance" >
   <i type="int" name="NPAR">     1</i>
   <i type="int" name="NSIM">     4</i>
   <i type="int" name="NBLK">    -1</i>
   <i type="logical" name="LPLANE"> T  </i>
   <i type="logical" name="LSCALAPACK"> T  </i>
   <i type="logical" name="LSCAAWARE"> F  </i>
   <i type="logical" name="LSCALU"> F  </i>
   <i type="logical" name="LASYNC"> F  </i>
   <i type="logical" name="LORBITALREAL"> F  </i>
  </separator>
  <separator name="miscellaneous" >
   <i type="int" name="IDIOT">     3</i>
   <i type="int" name="ISPECIAL">     0</i>
   <i type="logical" name="LMUSIC"> F  </i>
   <v name="POMASS">    106.42000000     12.01100000     16.00000000</v>
   <v name="DARWINR">      0.00000000      0.00000000      0.00000000</v>
   <v name="DARWINV">      1.00000000      1.00000000      1.00000000</v>
   <i type="logical" name="LCORR"> T  </i>
  </separator>
  <i type="logical" name="GGA_COMPAT"> T  </i>
  <i type="logical" name="LBERRY"> F  </i>
  <i type="int" name="ICORELEVEL">     0</i>
  <i type="logical" name="LDAU"> F  </i>
  <i type="int" name="I_CONSTRAINED_M">     0</i>
  <separator name="electronic exchange-correlation" >
   <i type="string" name="GGA">RP</i>
   <i type="int" name="VOSKOWN">     0</i>
   <i type="logical" name="LHFCALC"> F  </i>
   <i type="string" name="PRECFOCK"></i>
   <i type="logical" name="LSYMGRAD"> F  </i>
   <i type="logical" name="LHFONE"> F  </i>
   <i type="logical" name="LRHFCALC"> F  </i>
   <i type="logical" name="LTHOMAS"> F  </i>
   <i type="logical" name="LMODELHF"> F  </i>
   <i name="ENCUT4O">     -1.00000000</i>
   <i type="int" name="EXXOEP">     0</i>
   <i type="int" name="FOURORBIT">     0</i>
   <i name="AEXX">      0.00000000</i>
   <i name="HFALPHA">      0.00000000</i>
   <i name="MCALPHA">      0.00000000</i>
   <i name="ALDAX">      1.00000000</i>
   <i name="AGGAX">      1.00000000</i>
   <i name="ALDAC">      1.00000000</i>
   <i name="AGGAC">      1.00000000</i>
   <i type="int" name="NKREDX">     1</i>
   <i type="int" name="NKREDY">     1</i>
   <i type="int" name="NKREDZ">     1</i>
   <i type="logical" name="SHIFTRED"> F  </i>
   <i type="logical" name="ODDONLY"> F  </i>
   <i type="logical" name="EVENONLY"> F  </i>
   <i type="int" name="LMAXFOCK">     0</i>
   <i type="int" name="NMAXFOCKAE">     0</i>
   <i type="logical" name="LFOCKAEDFT"> F  </i>
   <i name="HFSCREEN">      0.00000000</i>
   <i name="HFSCREENC">      0.00000000</i>
   <i type="int" name="NBANDSGWLOW">     0</i>
  </separator>
  <separator name="vdW DFT" >
   <i type="logical" name="LUSE_VDW"> F  </i>
   <i name="Zab_VDW">     -0.84910000</i>
   <i name="PARAM1">      0.12340000</i>
   <i name="PARAM2">      1.00000000</i>
   <i name="PARAM3">      0.00000000</i>
  </separator>
  <separator name="model GW" >
   <i type="int" name="MODEL_GW">     0</i>
   <i name="MODEL_EPS0">    284.21052632</i>
   <i name="MODEL_ALPHA">      1.00000000</i>
  </separator>
  <separator name="linear response parameters" >
   <i type="logical" name="LEPSILON"> F  </i>
   <i type="logical" name="LRPA"> F  </i>
   <i type="logical" name="LNABLA"> F  </i>
   <i type="logical" name="LVEL"> F  </i>
   <i type="int" name="KINTER">     0</i>
   <i name="CSHIFT">      0.10000000</i>
   <i name="OMEGAMAX">     -1.00000000</i>
   <i name="DEG_THRESHOLD">      0.00200000</i>
   <i name="RTIME">     -0.10000000</i>
   <i name="WPLASMAI">      0.00000000</i>
   <v name="DFIELD">      0.00000000      0.00000000      0.00000000</v>
   <v name="WPLASMA">      0.00000000      0.00000000      0.00000000      0.00000000      0.00000000      0.00000000      0.00000000      0.00000000      0.00000000</v>
  </separator>
  <separator name="orbital magnetization" >
   <i type="logical" name="NUCIND"> F  </i>
   <v name="MAGPOS">      0.00000000      0.00000000      0.00000000</v>
   <i type="logical" name="LNICSALL"> T  </i>
   <i type="logical" name="ORBITALMAG"> F  </i>
   <i type="logical" name="LMAGBLOCH"> F  </i>
   <i type="logical" name="LCHIMAG"> F  </i>
   <i type="logical" name="LGAUGE"> T  </i>
   <i type="int" name="MAGATOM">     0</i>
   <v name="MAGDIPOL">      0.00000000      0.00000000      0.00000000</v>
   <v name="AVECCONST">      0.00000000      0.00000000      0.00000000</v>
  </separator>
  <separator name="response functions" >
   <i type="logical" name="LADDER"> F  </i>
   <i type="logical" name="LRPAFORCE"> F  </i>
   <i type="logical" name="LFXC"> F  </i>
   <i type="logical" name="LHARTREE"> T  </i>
   <i type="int" name="IBSE">     0</i>
   <v type="int" name="KPOINT">    -1     0     0     0</v>
   <i type="logical" name="LTCTE"> F  </i>
   <i type="logical" name="LTETE"> F  </i>
   <i type="logical" name="LTRIPLET"> F  </i>
   <i type="logical" name="LFXCEPS"> F  </i>
   <i type="logical" name="LFXHEG"> F  </i>
   <i type="int" name="NATURALO">     2</i>
   <i type="logical" name="L2ORDER"> F  </i>
   <i type="logical" name="LMP2LT"> F  </i>
   <i type="logical" name="LUSEW"> F  </i>
   <i name="ENCUTGW">     -2.00000000</i>
   <i name="ENCUTGWSOFT">     -2.00000000</i>
   <i name="ENCUTLF">     -1.00000000</i>
   <i type="int" name="LMAXMP2">    -1</i>
   <i name="SCISSOR">      0.00000000</i>
   <i type="int" name="NOMEGA">     0</i>
   <i type="int" name="NOMEGAR">     0</i>
   <i type="int" name="NBANDSGW">    -1</i>
   <i type="int" name="NBANDSO">    -1</i>
   <i type="int" name="NBANDSV">    -1</i>
   <i type="int" name="NELM">   100</i>
   <i type="int" name="NELMHF">     1</i>
   <i type="int" name="DIM">     3</i>
   <i type="int" name="ANTIRES">     0</i>
   <i name="OMEGAMAX">    -30.00000000</i>
   <i name="OMEGAMIN">    -30.00000000</i>
   <i name="OMEGATL">   -200.00000000</i>
   <i type="int" name="OMEGAGRID">   140</i>
   <i name="CSHIFT">     -0.10000000</i>
   <i type="logical" name="SELFENERGY"> F  </i>
   <i type="logical" name="LSPECTRAL"> F  </i>
   <i type="logical" name="LSPECTRALGW"> F  </i>
   <i type="logical" name="LSINGLES"> F  </i>
   <i type="logical" name="LFERMIGW"> F  </i>
   <i type="logical" name="ODDONLYGW"> F  </i>
   <i type="logical" name="EVENONLYGW"> F  </i>
   <i type="int" name="NKREDLFX">     1</i>
   <i type="int" name="NKREDLFY">     1</i>
   <i type="int" name="NKREDLFZ">     1</i>
   <i type="int" name="MAXMEM"> 10000</i>
   <i type="int" name="TELESCOPE">     0</i>
   <i type="int" name="TAUPAR">     1</i>
   <i type="int" name="OMEGAPAR">    -1</i>
   <i name="LAMBDA">      1.00000000</i>
  </separator>
  <separator name="External order field" >
   <i name="OFIELD_KAPPA">      0.00000000</i>
   <v name="OFIELD_K">      0.00000000      0.00000000      0.00000000</v>
   <i name="OFIELD_Q6_NEAR">      0.00000000</i>
   <i name="OFIELD_Q6_FAR">      0.00000000</i>
   <i name="OFIELD_A">      0.00000000</i>
  </separator>
 </parameters>
 <atominfo>
  <atoms>      57 </atoms>
  <types>       3 </types>
  <array name="atoms" >
   <dimension dim="1">ion</dimension>
   <field type="string">element</field>
   <field type="int">atomtype</field>
   <set>
    <rc><c>Pd</c><c>   1</c></rc>
    <rc><c>Pd</c><c>   1</c></rc>
    <rc><c>Pd</c><c>   1</c></rc>
    <rc><c>Pd</c><c>   1</c></rc>
    <rc><c>Pd</c><c>   1</c></rc>
    <rc><c>Pd</c><c>   1</c></rc>
    <rc><c>Pd</c><c>   1</c></rc>
    <rc><c>Pd</c><c>   1</c></rc>
    <rc><c>Pd</c><c>   1</c></rc>
    <rc><c>Pd</c><c>   1</c></rc>
    <rc><c>Pd</c><c>   1</c></rc>
    <rc><c>Pd</c><c>   1</c></rc>
    <rc><c>Pd</c><c>   1</c></rc>
    <rc><c>Pd</c><c>   1</c></rc>
    <rc><c>Pd</c><c>   1</c></rc>
    <rc><c>Pd</c><c>   1</c></rc>
    <rc><c>Pd</c><c>   1</c></rc>
    <rc><c>Pd</c><c>   1</c></rc>
    <rc><c>Pd</c><c>   1</c></rc>
    <rc><c>Pd</c><c>   1</c></rc>
    <rc><c>Pd</c><c>   1</c></rc>
    <rc><c>Pd</c><c>   1</c></rc>
    <rc><c>Pd</c><c>   1</c></rc>
    <rc><c>Pd</c><c>   1</c></rc>
    <rc><c>Pd</c><c>   1</c></rc>
    <rc><c>Pd</c><c>   1</c></rc>
    <rc><c>Pd</c><c>   1</c></rc>
    <rc><c>Pd</c><c>   1</c></rc>
    <rc><c>Pd</c><c>   1</c></rc>
    <rc><c>Pd</c><c>   1</c></rc>
    <rc><c>Pd</c><c>   1</c></rc>
    <rc><c>Pd</c><c>   1</c></rc>
    <rc><c>Pd</c><c>   1</c></rc>
    <rc><c>Pd</c><c>   1</c></rc>
    <rc><c>Pd</c><c>   1</c></rc>
    <rc><c>Pd</c><c>   1</c></rc>
    <rc><c>Pd</c><c>   1</c></rc>
    <rc><c>Pd</c><c>   1</c></rc>
    <rc><c>Pd</c><c>   1</c></rc>
    <rc><c>Pd</c><c>   1</c></rc>
    <rc><c>Pd</c><c>   1</c></rc>
    <rc><c>Pd</c><c>   1</c></rc>
    <rc><c>Pd</c><c>   1</c></rc>
    <rc><c>Pd</c><c>   1</c></rc>
    <rc><c>Pd</c><c>   1</c></rc>
    <rc><c>Pd</c><c>   1</c></rc>
    <rc><c>Pd</c><c>   1</c></rc>
    <rc><c>Pd</c><c>   1</c></rc>
    <rc><c>Pd</c><c>   1</c></rc>
    <rc><c>Pd</c><c>   1</c></rc>
    <rc><c>Pd</c><c>   1</c></rc>
    <rc><c>Pd</c><c>   1</c></rc>
    <rc><c>Pd</c><c>   1</c></rc>
    <rc><c>Pd</c><c>   1</c></rc>
    <rc><c>Pd</c><c>   1</c></rc>
    <rc><c>C </c><c>   2</c></rc>
    <rc><c>O </c><c>   3</c></rc>
   </set>
  </array>
  <array name="atomtypes" >
   <dimension dim="1">type</dimension>
   <field type="int">atomspertype</field>
   <field type="string">element</field>
   <field>mass</field>
   <field>valence</field>
   <field type="string">pseudopotential</field>
   <set>
    <rc><c>  55</c><c>Pd</c><c>    106.42000000</c><c>     10.00000000</c><c>  PAW_PBE Pd 04Jan2005                  </c></rc>
    <rc><c>   1</c><c>C </c><c>     12.01100000</c><c>      4.00000000</c><c>  PAW_PBE C 08Apr2002                   </c></rc>
    <rc><c>   1</c><c>O </c><c>     16.00000000</c><c>      6.00000000</c><c>  PAW_PBE O 08Apr2002                   </c></rc>
   </set>
  </array>
 </atominfo>
 <structure name="initialpos" >
  <crystal>
   <varray name="basis" >
    <v>      30.00000000       0.00000000       0.00000000 </v>
    <v>       0.00000000      30.00000000       0.00000000 </v>
    <v>       0.00000000       0.00000000      30.00000000 </v>
   </varray>
   <i name="volume">  27000.00000000 </i>
   <varray name="rec_basis" >
    <v>       0.03333333       0.00000000       0.00000000 </v>
    <v>       0.00000000       0.03333333       0.00000000 </v>
    <v>       0.00000000       0.00000000       0.03333333 </v>
   </varray>
  </crystal>
  <varray name="positions" >
   <v>       0.44576020       0.32826710       0.41691983 </v>
   <v>       0.67173288       0.55423978       0.41691983 </v>
   <v>       0.55423980       0.32826710       0.41691983 </v>
   <v>       0.32826712       0.55423978       0.41691983 </v>
   <v>       0.50000000       0.38250690       0.34021317 </v>
   <v>       0.50000000       0.38250690       0.65978680 </v>
   <v>       0.50000000       0.27609440       0.50000000 </v>
   <v>       0.27609443       0.49999998       0.50000000 </v>
   <v>       0.72390557       0.49999998       0.50000000 </v>
   <v>       0.50000000       0.72390555       0.50000000 </v>
   <v>       0.61195280       0.38804720       0.34167483 </v>
   <v>       0.61195280       0.38804720       0.65832513 </v>
   <v>       0.38804722       0.61195278       0.34167483 </v>
   <v>       0.38804722       0.61195278       0.65832513 </v>
   <v>       0.38804720       0.38804720       0.34167483 </v>
   <v>       0.38804720       0.38804720       0.65832513 </v>
   <v>       0.61195278       0.61195278       0.34167483 </v>
   <v>       0.61195278       0.61195278       0.65832513 </v>
   <v>       0.44576020       0.32826710       0.58308023 </v>
   <v>       0.67173288       0.55423978       0.58308023 </v>
   <v>       0.55791699       0.44208301       0.41809300 </v>
   <v>       0.32826705       0.44576024       0.41691983 </v>
   <v>       0.55423973       0.67173293       0.41691983 </v>
   <v>       0.55423980       0.32826710       0.58308023 </v>
   <v>       0.32826712       0.55423978       0.58308023 </v>
   <v>       0.67173295       0.44576024       0.41691983 </v>
   <v>       0.44576027       0.67173293       0.41691983 </v>
   <v>       0.44208301       0.44208301       0.41809300 </v>
   <v>       0.50000000       0.38416601       0.50000000 </v>
   <v>       0.61749315       0.50000005       0.34021317 </v>
   <v>       0.61749315       0.50000005       0.65978680 </v>
   <v>       0.38250685       0.50000005       0.34021317 </v>
   <v>       0.38250685       0.50000005       0.65978680 </v>
   <v>       0.38317830       0.38317830       0.50000000 </v>
   <v>       0.61682172       0.61682172       0.50000000 </v>
   <v>       0.61682170       0.38317830       0.50000000 </v>
   <v>       0.38317828       0.61682172       0.50000000 </v>
   <v>       0.50000000       0.50000000       0.33478917 </v>
   <v>       0.50000000       0.50000000       0.66521087 </v>
   <v>       0.32826705       0.44576024       0.58308023 </v>
   <v>       0.55423973       0.67173293       0.58308023 </v>
   <v>       0.55791699       0.44208301       0.58190703 </v>
   <v>       0.44208298       0.55791702       0.41809300 </v>
   <v>       0.44208301       0.44208301       0.58190703 </v>
   <v>       0.67173295       0.44576024       0.58308023 </v>
   <v>       0.44576027       0.67173293       0.58308023 </v>
   <v>       0.55791702       0.55791702       0.41809300 </v>
   <v>       0.38416599       0.50000002       0.50000000 </v>
   <v>       0.61583401       0.50000002       0.50000000 </v>
   <v>       0.50000000       0.61749319       0.34021317 </v>
   <v>       0.50000000       0.61749319       0.65978680 </v>
   <v>       0.50000000       0.50000000       0.50000000 </v>
   <v>       0.44208298       0.55791702       0.58190703 </v>
   <v>       0.55791702       0.55791702       0.58190703 </v>
   <v>       0.50000000       0.61583404       0.50000000 </v>
   <v>       0.48180290       0.67838153       0.30497790 </v>
   <v>       0.47922023       0.70369877       0.27729890 </v>
  </varray>
  <varray name="selective"  type="logical" >
   <v type="logical" >  F  F  F </v>
   <v type="logical" >  F  F  F </v>
   <v type="logical" >  F  F  F </v>
   <v type="logical" >  F  F  F </v>
   <v type="logical" >  F  F  F </v>
   <v type="logical" >  F  F  F </v>
   <v type="logical" >  F  F  F </v>
   <v type="logical" >  F  F  F </v>
   <v type="logical" >  F  F  F </v>
   <v type="logical" >  F  F  F </v>
   <v type="logical" >  F  F  F </v>
   <v type="logical" >  F  F  F </v>
   <v type="logical" >  F  F  F </v>
   <v type="logical" >  F  F  F </v>
   <v type="logical" >  F  F  F </v>
   <v type="logical" >  F  F  F </v>
   <v type="logical" >  F  F  F </v>
   <v type="logical" >  F  F  F </v>
   <v type="logical" >  F  F  F </v>
   <v type="logical" >  F  F  F </v>
   <v type="logical" >  F  F  F </v>
   <v type="logical" >  F  F  F </v>
   <v type="logical" >  F  F  F </v>
   <v type="logical" >  F  F  F </v>
   <v type="logical" >  F  F  F </v>
   <v type="logical" >  F  F  F </v>
   <v type="logical" >  F  F  F </v>
   <v type="logical" >  F  F  F </v>
   <v type="logical" >  F  F  F </v>
   <v type="logical" >  F  F  F </v>
   <v type="logical" >  F  F  F </v>
   <v type="logical" >  F  F  F </v>
   <v type="logical" >  F  F  F </v>
   <v type="logical" >  F  F  F </v>
   <v type="logical" >  F  F  F </v>
   <v type="logical" >  F  F  F </v>
   <v type="logical" >  F  F  F </v>
   <v type="logical" >  F  F  F </v>
   <v type="logical" >  F  F  F </v>
   <v type="logical" >  F  F  F </v>
   <v type="logical" >  F  F  F </v>
   <v type="logical" >  F  F  F </v>
   <v type="logical" >  F  F  F </v>
   <v type="logical" >  F  F  F </v>
   <v type="logical" >  F  F  F </v>
   <v type="logical" >  F  F  F </v>
   <v type="logical" >  F  F  F </v>
   <v type="logical" >  F  F  F </v>
   <v type="logical" >  F  F  F </v>
   <v type="logical" >  F  F  F </v>
   <v type="logical" >  F  F  F </v>
   <v type="logical" >  F  F  F </v>
   <v type="logical" >  F  F  F </v>
   <v type="logical" >  F  F  F </v>
   <v type="logical" >  F  F  F </v>
   <v type="logical" >  F  F  F </v>
   <v type="logical" >  F  F  F </v>
  </varray>
  <nose>
   <v>      -3.00000000       0.00000000       0.00010000       0.00010000 </v>
  </nose>
 </structure>
 <calculation>
  <scstep>
   <time name="dav">  371.36  371.42</time>
   <time name="total">  385.42  385.48</time>
   <energy>
    <i name="alphaZ">     75.25431677 </i>
    <i name="ewald"> 137776.44594571 </i>
    <i name="hartreedc">-181141.11725853 </i>
    <i name="XCdc">  -1703.48880998 </i>
    <i name="pawpsdc">  44873.02882129 </i>
    <i name="pawaedc"> -41398.84523641 </i>
    <i name="eentropy">     -0.00981344 </i>
    <i name="bandstr">    818.28001664 </i>
    <i name="atom">  45086.50549395 </i>
    <i name="e_fr_energy">   4386.05347599 </i>
    <i name="e_wo_entrp">   4386.06328944 </i>
    <i name="e_0_energy">   4386.05592935 </i>
   </energy>
  </scstep>
  <scstep>
   <time name="dav">  579.54  579.54</time>
   <time name="total">  579.54  579.54</time>
   <energy>
    <i name="e_fr_energy">   2026.46770547 </i>
    <i name="e_wo_entrp">   2026.47311248 </i>
    <i name="e_0_energy">   2026.46905723 </i>
   </energy>
  </scstep>
  <scstep>
   <time name="dav">  503.79  503.79</time>
   <time name="total">  503.79  503.79</time>
   <energy>
    <i name="e_fr_energy">    239.70728472 </i>
    <i name="e_wo_entrp">    239.75039730 </i>
    <i name="e_0_energy">    239.71806287 </i>
   </energy>
  </scstep>
  <scstep>
   <time name="dav">  429.59  429.59</time>
   <time name="total">  429.59  429.59</time>
   <energy>
    <i name="e_fr_energy">   -133.99199653 </i>
    <i name="e_wo_entrp">   -134.01710364 </i>
    <i name="e_0_energy">   -133.99827331 </i>
   </energy>
  </scstep>
  <scstep>
   <time name="dav">  519.36  519.37</time>
   <time name="total">  545.76  545.76</time>
   <energy>
    <i name="e_fr_energy">   -179.35531774 </i>
    <i name="e_wo_entrp">   -179.84822333 </i>
    <i name="e_0_energy">   -179.47854414 </i>
   </energy>
  </scstep>
  <scstep>
   <time name="diag">   68.22   68.22</time>
   <time name="diis">  190.50  190.50</time>
   <time name="orth">   12.71   12.71</time>
   <time name="total">  311.67  311.68</time>
   <energy>
    <i name="e_fr_energy">   -179.62695708 </i>
    <i name="e_wo_entrp">   -179.39324563 </i>
    <i name="e_0_energy">   -179.56852922 </i>
   </energy>
  </scstep>
  <scstep>
   <time name="diag">   67.44   67.44</time>
   <time name="diis">  225.70  225.71</time>
   <time name="orth">   12.89   12.89</time>
   <time name="total">  345.81  345.81</time>
   <energy>
    <i name="e_fr_energy">   -181.90430487 </i>
    <i name="e_wo_entrp">   -181.81363793 </i>
    <i name="e_0_energy">   -181.88163813 </i>
   </energy>
  </scstep>
  <scstep>
   <time name="diag">   66.39   66.39</time>
   <time name="diis">  201.95  201.95</time>
   <time name="orth">   13.05   13.05</time>
   <time name="total">  320.35  320.35</time>
   <energy>
    <i name="e_fr_energy">   -183.92541135 </i>
    <i name="e_wo_entrp">   -183.77907358 </i>
    <i name="e_0_energy">   -183.88882690 </i>
   </energy>
  </scstep>
  <scstep>
   <time name="diag">   67.20   67.20</time>
   <time name="diis">  192.59  192.60</time>
   <time name="orth">   12.63   12.63</time>
   <time name="total">  312.02  312.03</time>
   <energy>
    <i name="e_fr_energy">   -182.02486778 </i>
    <i name="e_wo_entrp">   -181.97457957 </i>
    <i name="e_0_energy">   -182.01229572 </i>
   </energy>
  </scstep>
  <scstep>
   <time name="diag">   67.80   67.80</time>
   <time name="diis">  197.74  197.74</time>
   <time name="orth">   12.79   12.79</time>
   <time name="total">  317.62  317.62</time>
   <energy>
    <i name="e_fr_energy">   -180.25486754 </i>
    <i name="e_wo_entrp">   -180.16141140 </i>
    <i name="e_0_energy">   -180.23150351 </i>
   </energy>
  </scstep>
  <scstep>
   <time name="diag">   68.33   68.33</time>
   <time name="diis">  194.21  194.21</time>
   <time name="orth">   12.81   12.81</time>
   <time name="total">  315.03  315.03</time>
   <energy>
    <i name="e_fr_energy">   -178.11974409 </i>
    <i name="e_wo_entrp">   -177.94390229 </i>
    <i name="e_0_energy">   -178.07578364 </i>
   </energy>
  </scstep>
  <scstep>
   <time name="diag">   65.88   65.88</time>
   <time name="diis">  193.98  193.99</time>
   <time name="orth">   12.77   12.77</time>
   <time name="total">  311.29  311.29</time>
   <energy>
    <i name="e_fr_energy">   -177.35691233 </i>
    <i name="e_wo_entrp">   -177.26203992 </i>
    <i name="e_0_energy">   -177.33319422 </i>
   </energy>
  </scstep>
  <scstep>
   <time name="diag">   66.32   66.32</time>
   <time name="diis">  191.16  191.15</time>
   <time name="orth">   12.60   12.60</time>
   <time name="total">  309.09  309.09</time>
   <energy>
    <i name="e_fr_energy">   -176.79692103 </i>
    <i name="e_wo_entrp">   -176.64092814 </i>
    <i name="e_0_energy">   -176.75792281 </i>
   </energy>
  </scstep>
  <scstep>
   <time name="diag">   68.27   68.27</time>
   <time name="diis">  192.40  192.40</time>
   <time name="orth">   13.13   13.13</time>
   <time name="total">  313.36  313.37</time>
   <energy>
    <i name="e_fr_energy">   -177.19562055 </i>
    <i name="e_wo_entrp">   -177.18901058 </i>
    <i name="e_0_energy">   -177.19396806 </i>
   </energy>
  </scstep>
  <scstep>
   <time name="diag">   66.07   66.08</time>
   <time name="diis">  188.61  188.61</time>
   <time name="orth">   12.82   12.82</time>
   <time name="total">  306.30  306.30</time>
   <energy>
    <i name="e_fr_energy">   -177.00326030 </i>
    <i name="e_wo_entrp">   -176.93178035 </i>
    <i name="e_0_energy">   -176.98539031 </i>
   </energy>
  </scstep>
  <scstep>
   <time name="diag">   65.32   65.32</time>
   <time name="diis">  188.11  188.11</time>
   <time name="orth">   12.47   12.46</time>
   <time name="total">  304.58  304.58</time>
   <energy>
    <i name="e_fr_energy">   -175.82800231 </i>
    <i name="e_wo_entrp">   -175.70250772 </i>
    <i name="e_0_energy">   -175.79662866 </i>
   </energy>
  </scstep>
  <scstep>
   <time name="diag">   66.27   66.27</time>
   <time name="diis">  178.82  178.82</time>
   <time name="orth">   12.91   12.91</time>
   <time name="total">  297.12  297.12</time>
   <energy>
    <i name="e_fr_energy">   -175.44228006 </i>
    <i name="e_wo_entrp">   -175.38629897 </i>
    <i name="e_0_energy">   -175.42828479 </i>
   </energy>
  </scstep>
  <scstep>
   <time name="diag">   65.41   65.41</time>
   <time name="diis">  188.08  188.09</time>
   <time name="orth">   12.40   12.40</time>
   <time name="total">  304.68  304.69</time>
   <energy>
    <i name="e_fr_energy">   -175.48627188 </i>
    <i name="e_wo_entrp">   -175.45640398 </i>
    <i name="e_0_energy">   -175.47880491 </i>
   </energy>
  </scstep>
  <scstep>
   <time name="diag">   65.72   65.72</time>
   <time name="diis">  186.84  186.85</time>
   <time name="orth">   12.71   12.71</time>
   <time name="total">  304.16  304.17</time>
   <energy>
    <i name="e_fr_energy">   -175.33973595 </i>
    <i name="e_wo_entrp">   -175.34001158 </i>
    <i name="e_0_energy">   -175.33980486 </i>
   </energy>
  </scstep>
  <scstep>
   <time name="diag">   65.80   65.80</time>
   <time name="diis">  183.62  183.62</time>
   <time name="orth">   12.55   12.55</time>
   <time name="total">  301.00  301.01</time>
   <energy>
    <i name="e_fr_energy">   -175.20118932 </i>
    <i name="e_wo_entrp">   -175.20467572 </i>
    <i name="e_0_energy">   -175.20206092 </i>
   </energy>
  </scstep>
  <scstep>
   <time name="diag">   64.84   64.84</time>
   <time name="diis">  182.93  182.94</time>
   <time name="orth">   12.47   12.47</time>
   <time name="total">  298.63  298.65</time>
   <energy>
    <i name="e_fr_energy">   -174.96132315 </i>
    <i name="e_wo_entrp">   -174.89784473 </i>
    <i name="e_0_energy">   -174.94545354 </i>
   </energy>
  </scstep>
  <scstep>
   <time name="diag">   65.00   65.00</time>
   <time name="diis">  174.11  174.12</time>
   <time name="orth">   11.77   11.77</time>
   <time name="total">  287.87  287.89</time>
   <energy>
    <i name="e_fr_energy">   -174.95028790 </i>
    <i name="e_wo_entrp">   -174.80848508 </i>
    <i name="e_0_energy">   -174.91483719 </i>
   </energy>
  </scstep>
  <scstep>
   <time name="diag">   62.27   62.28</time>
   <time name="diis">  180.78  180.79</time>
   <time name="orth">   12.45   12.45</time>
   <time name="total">  293.92  293.93</time>
   <energy>
    <i name="e_fr_energy">   -174.92235714 </i>
    <i name="e_wo_entrp">   -174.77204006 </i>
    <i name="e_0_energy">   -174.88477787 </i>
   </energy>
  </scstep>
  <scstep>
   <time name="diag">   64.74   64.74</time>
   <time name="diis">  180.43  180.43</time>
   <time name="orth">   12.48   12.48</time>
   <time name="total">  296.69  296.71</time>
   <energy>
    <i name="e_fr_energy">   -174.85955167 </i>
    <i name="e_wo_entrp">   -174.72048866 </i>
    <i name="e_0_energy">   -174.82478592 </i>
   </energy>
  </scstep>
  <scstep>
   <time name="diag">   64.80   64.80</time>
   <time name="diis">  181.49  181.50</time>
   <time name="orth">   12.39   12.39</time>
   <time name="total">  297.76  297.77</time>
   <energy>
    <i name="e_fr_energy">   -174.77475909 </i>
    <i name="e_wo_entrp">   -174.65312283 </i>
    <i name="e_0_energy">   -174.74435003 </i>
   </energy>
  </scstep>
  <scstep>
   <time name="diag">   65.25   65.25</time>
   <time name="diis">  183.90  183.91</time>
   <time name="orth">   12.51   12.51</time>
   <time name="total">  300.07  300.08</time>
   <energy>
    <i name="e_fr_energy">   -174.73711420 </i>
    <i name="e_wo_entrp">   -174.61203871 </i>
    <i name="e_0_energy">   -174.70584533 </i>
   </energy>
  </scstep>
  <scstep>
   <time name="diag">   64.79   64.79</time>
   <time name="diis">  185.54  185.55</time>
   <time name="orth">   12.16   12.16</time>
   <time name="total">  301.11  301.13</time>
   <energy>
    <i name="e_fr_energy">   -174.66735091 </i>
    <i name="e_wo_entrp">   -174.54334423 </i>
    <i name="e_0_energy">   -174.63634924 </i>
   </energy>
  </scstep>
  <scstep>
   <time name="diag">   64.11   64.11</time>
   <time name="diis">  185.98  185.98</time>
   <time name="orth">   12.70   12.70</time>
   <time name="total">  301.29  301.30</time>
   <energy>
    <i name="e_fr_energy">   -174.65930369 </i>
    <i name="e_wo_entrp">   -174.53438893 </i>
    <i name="e_0_energy">   -174.62807500 </i>
   </energy>
  </scstep>
  <scstep>
   <time name="diag">   64.44   64.45</time>
   <time name="diis">  183.53  183.54</time>
   <time name="orth">   12.48   12.48</time>
   <time name="total">  299.75  299.76</time>
   <energy>
    <i name="e_fr_energy">   -174.63670046 </i>
    <i name="e_wo_entrp">   -174.51834982 </i>
    <i name="e_0_energy">   -174.60711280 </i>
   </energy>
  </scstep>
  <scstep>
   <time name="diag">   65.55   65.55</time>
   <time name="diis">  183.28  183.28</time>
   <time name="orth">   12.60   12.60</time>
   <time name="total">  301.34  301.35</time>
   <energy>
    <i name="e_fr_energy">   -174.62609194 </i>
    <i name="e_wo_entrp">   -174.50105776 </i>
    <i name="e_0_energy">   -174.59483339 </i>
   </energy>
  </scstep>
  <scstep>
   <time name="diag">   65.72   65.72</time>
   <time name="diis">  183.22  183.23</time>
   <time name="orth">   12.92   12.92</time>
   <time name="total">  303.07  303.08</time>
   <energy>
    <i name="e_fr_energy">   -174.61069286 </i>
    <i name="e_wo_entrp">   -174.48177835 </i>
    <i name="e_0_energy">   -174.57846423 </i>
   </energy>
  </scstep>
  <scstep>
   <time name="diag">   67.39   67.40</time>
   <time name="diis">  184.96  184.97</time>
   <time name="orth">   12.82   12.82</time>
   <time name="total">  307.07  307.09</time>
   <energy>
    <i name="e_fr_energy">   -174.60670562 </i>
    <i name="e_wo_entrp">   -174.48282195 </i>
    <i name="e_0_energy">   -174.57573470 </i>
   </energy>
  </scstep>
  <scstep>
   <time name="diag">   67.59   67.59</time>
   <time name="diis">  188.00  188.01</time>
   <time name="orth">   12.88   12.88</time>
   <time name="total">  309.36  309.38</time>
   <energy>
    <i name="e_fr_energy">   -174.60051252 </i>
    <i name="e_wo_entrp">   -174.47201974 </i>
    <i name="e_0_energy">   -174.56838932 </i>
   </energy>
  </scstep>
  <scstep>
   <time name="diag">   67.30   67.30</time>
   <time name="diis">  186.76  186.77</time>
   <time name="orth">   12.58   12.58</time>
   <time name="total">  307.47  307.48</time>
   <energy>
    <i name="e_fr_energy">   -174.59933336 </i>
    <i name="e_wo_entrp">   -174.47408727 </i>
    <i name="e_0_energy">   -174.56802183 </i>
   </energy>
  </scstep>
  <scstep>
   <time name="diag">   67.77   67.77</time>
   <time name="diis">  186.77  186.77</time>
   <time name="orth">   12.85   12.85</time>
   <time name="total">  308.71  308.71</time>
   <energy>
    <i name="e_fr_energy">   -174.59887473 </i>
    <i name="e_wo_entrp">   -174.47771492 </i>
    <i name="e_0_energy">   -174.56858477 </i>
   </energy>
  </scstep>
  <scstep>
   <time name="diag">   67.53   67.53</time>
   <time name="diis">  186.43  186.43</time>
   <time name="orth">   12.99   12.99</time>
   <time name="total">  307.98  307.98</time>
   <energy>
    <i name="e_fr_energy">   -174.59822690 </i>
    <i name="e_wo_entrp">   -174.47322343 </i>
    <i name="e_0_energy">   -174.56697603 </i>
   </energy>
  </scstep>
  <scstep>
   <time name="diag">   66.28   66.28</time>
   <time name="diis">  186.09  186.10</time>
   <time name="orth">   12.68   12.68</time>
   <time name="total">  306.34  306.36</time>
   <energy>
    <i name="e_fr_energy">   -174.60033714 </i>
    <i name="e_wo_entrp">   -174.47506620 </i>
    <i name="e_0_energy">   -174.56901941 </i>
   </energy>
  </scstep>
  <scstep>
   <time name="diag">   67.04   67.04</time>
   <time name="diis">  184.91  184.92</time>
   <time name="orth">   12.42   12.43</time>
   <time name="total">  305.63  305.65</time>
   <energy>
    <i name="e_fr_energy">   -174.60247550 </i>
    <i name="e_wo_entrp">   -174.47922407 </i>
    <i name="e_0_energy">   -174.57166264 </i>
   </energy>
  </scstep>
  <scstep>
   <time name="diag">   67.42   67.42</time>
   <time name="diis">  184.96  184.98</time>
   <time name="orth">   12.62   12.62</time>
   <time name="total">  306.70  306.73</time>
   <energy>
    <i name="e_fr_energy">   -174.60384827 </i>
    <i name="e_wo_entrp">   -174.47803451 </i>
    <i name="e_0_energy">   -174.57239483 </i>
   </energy>
  </scstep>
  <scstep>
   <time name="diag">   66.25   66.26</time>
   <time name="diis">  185.49  185.51</time>
   <time name="orth">   12.50   12.50</time>
   <time name="total">  305.65  305.67</time>
   <energy>
    <i name="e_fr_energy">   -174.60727781 </i>
    <i name="e_wo_entrp">   -174.48336149 </i>
    <i name="e_0_energy">   -174.57629873 </i>
   </energy>
  </scstep>
  <scstep>
   <time name="diag">   66.95   66.95</time>
   <time name="diis">  151.61  151.62</time>
   <time name="orth">   12.96   12.97</time>
   <time name="total">  273.67  273.69</time>
   <energy>
    <i name="e_fr_energy">   -174.60868076 </i>
    <i name="e_wo_entrp">   -174.48554859 </i>
    <i name="e_0_energy">   -174.57789772 </i>
   </energy>
  </scstep>
  <scstep>
   <time name="diag">   66.11   66.11</time>
   <time name="diis">  138.10  138.12</time>
   <time name="orth">   12.62   12.62</time>
   <time name="total">  258.66  258.69</time>
   <energy>
    <i name="e_fr_energy">   -174.61064009 </i>
    <i name="e_wo_entrp">   -174.48724098 </i>
    <i name="e_0_energy">   -174.57979031 </i>
   </energy>
  </scstep>
  <scstep>
   <time name="diag">   65.43   65.43</time>
   <time name="diis">  122.90  122.91</time>
   <time name="orth">   12.89   12.89</time>
   <time name="total">  244.37  244.38</time>
   <energy>
    <i name="e_fr_energy">   -174.61244461 </i>
    <i name="e_wo_entrp">   -174.48863578 </i>
    <i name="e_0_energy">   -174.58149240 </i>
   </energy>
  </scstep>
  <scstep>
   <time name="diag">   66.58   66.59</time>
   <time name="diis">  116.33  116.34</time>
   <time name="orth">   12.63   12.63</time>
   <time name="total">  238.58  238.60</time>
   <energy>
    <i name="e_fr_energy">   -174.61387820 </i>
    <i name="e_wo_entrp">   -174.48954948 </i>
    <i name="e_0_energy">   -174.58279602 </i>
   </energy>
  </scstep>
  <scstep>
   <time name="diag">   66.73   66.73</time>
   <time name="diis">  124.48  124.48</time>
   <time name="orth">   12.97   12.97</time>
   <time name="total">  247.19  247.20</time>
   <energy>
    <i name="e_fr_energy">   -174.61656844 </i>
    <i name="e_wo_entrp">   -174.49268743 </i>
    <i name="e_0_energy">   -174.58559819 </i>
   </energy>
  </scstep>
  <scstep>
   <time name="diag">   66.70   66.71</time>
   <time name="diis">  117.90  117.91</time>
   <time name="orth">   12.64   12.64</time>
   <time name="total">  237.95  237.97</time>
   <energy>
    <i name="e_fr_energy">   -174.61789617 </i>
    <i name="e_wo_entrp">   -174.49381202 </i>
    <i name="e_0_energy">   -174.58687513 </i>
   </energy>
  </scstep>
  <scstep>
   <time name="diag">   63.88   63.89</time>
   <time name="diis">  125.47  125.47</time>
   <time name="orth">   12.79   12.79</time>
   <time name="total">  244.89  244.90</time>
   <energy>
    <i name="e_fr_energy">   -174.62046065 </i>
    <i name="e_wo_entrp">   -174.49519869 </i>
    <i name="e_0_energy">   -174.58914516 </i>
   </energy>
  </scstep>
  <scstep>
   <time name="diag">   66.69   66.70</time>
   <time name="diis">  118.01  118.01</time>
   <time name="orth">   12.76   12.76</time>
   <time name="total">  241.27  241.28</time>
   <energy>
    <i name="e_fr_energy">   -174.62178521 </i>
    <i name="e_wo_entrp">   -174.49717242 </i>
    <i name="e_0_energy">   -174.59063201 </i>
   </energy>
  </scstep>
  <scstep>
   <time name="diag">   67.26   67.26</time>
   <time name="diis">  116.43  116.43</time>
   <time name="orth">   12.84   12.84</time>
   <time name="total">  240.77  240.78</time>
   <energy>
    <i name="e_fr_energy">   -174.62254670 </i>
    <i name="e_wo_entrp">   -174.49793956 </i>
    <i name="e_0_energy">   -174.59139492 </i>
   </energy>
  </scstep>
  <scstep>
   <time name="diag">   67.21   67.21</time>
   <time name="diis">  114.57  114.57</time>
   <time name="orth">   12.72   12.72</time>
   <time name="total">  237.91  237.91</time>
   <energy>
    <i name="e_fr_energy">   -174.62334645 </i>
    <i name="e_wo_entrp">   -174.49887673 </i>
    <i name="e_0_energy">   -174.59222902 </i>
   </energy>
  </scstep>
  <scstep>
   <time name="diag">   66.81   66.81</time>
   <time name="diis">  115.66  115.65</time>
   <time name="orth">   12.96   12.96</time>
   <time name="total">  237.75  237.75</time>
   <energy>
    <i name="e_fr_energy">   -174.62365803 </i>
    <i name="e_wo_entrp">   -174.49928875 </i>
    <i name="e_0_energy">   -174.59256571 </i>
   </energy>
  </scstep>
  <scstep>
   <time name="diag">   66.21   66.21</time>
   <time name="diis">  114.72  114.72</time>
   <time name="orth">   13.11   13.11</time>
   <time name="total">  237.59  237.60</time>
   <energy>
    <i name="e_fr_energy">   -174.62438435 </i>
    <i name="e_wo_entrp">   -174.50003332 </i>
    <i name="e_0_energy">   -174.59329659 </i>
   </energy>
  </scstep>
  <scstep>
   <time name="diag">   66.67   66.67</time>
   <time name="diis">  107.26  107.26</time>
   <time name="orth">   12.76   12.76</time>
   <time name="total">  230.59  230.59</time>
   <energy>
    <i name="e_fr_energy">   -174.62471049 </i>
    <i name="e_wo_entrp">   -174.50048743 </i>
    <i name="e_0_energy">   -174.59365472 </i>
   </energy>
  </scstep>
  <scstep>
   <time name="diag">   67.95   67.95</time>
   <time name="diis">  102.37  102.37</time>
   <time name="orth">   12.80   12.80</time>
   <time name="total">  226.12  226.13</time>
   <energy>
    <i name="e_fr_energy">   -174.62525331 </i>
    <i name="e_wo_entrp">   -174.50088224 </i>
    <i name="e_0_energy">   -174.59416055 </i>
   </energy>
  </scstep>
  <scstep>
   <time name="diag">   66.66   66.66</time>
   <time name="diis">   93.09   93.09</time>
   <time name="orth">   12.68   12.68</time>
   <time name="total">  214.83  214.83</time>
   <energy>
    <i name="e_fr_energy">   -174.62565747 </i>
    <i name="e_wo_entrp">   -174.50140542 </i>
    <i name="e_0_energy">   -174.59459446 </i>
   </energy>
  </scstep>
  <scstep>
   <time name="diag">   66.23   66.23</time>
   <time name="diis">   87.63   87.63</time>
   <time name="orth">   12.70   12.70</time>
   <time name="total">  210.23  210.24</time>
   <energy>
    <i name="e_fr_energy">   -174.62589736 </i>
    <i name="e_wo_entrp">   -174.50176233 </i>
    <i name="e_0_energy">   -174.59486360 </i>
   </energy>
  </scstep>
  <scstep>
   <time name="diag">   66.93   66.93</time>
   <time name="diis">   85.97   85.97</time>
   <time name="orth">   12.63   12.63</time>
   <time name="total">  208.53  208.54</time>
   <energy>
    <i name="e_fr_energy">   -174.62624307 </i>
    <i name="e_wo_entrp">   -174.50209580 </i>
    <i name="e_0_energy">   -174.59520625 </i>
   </energy>
  </scstep>
  <scstep>
   <time name="diag">   67.38   67.38</time>
   <time name="diis">   86.04   86.04</time>
   <time name="orth">   12.73   12.73</time>
   <time name="total">  209.36  209.37</time>
   <energy>
    <i name="e_fr_energy">   -174.62646878 </i>
    <i name="e_wo_entrp">   -174.50220868 </i>
    <i name="e_0_energy">   -174.59540375 </i>
   </energy>
  </scstep>
  <scstep>
   <time name="diag">   67.17   67.17</time>
   <time name="diis">   95.83   95.83</time>
   <time name="orth">   13.04   13.04</time>
   <time name="total">  219.41  219.42</time>
   <energy>
    <i name="e_fr_energy">   -174.62677577 </i>
    <i name="e_wo_entrp">   -174.50255751 </i>
    <i name="e_0_energy">   -174.59572121 </i>
   </energy>
  </scstep>
  <scstep>
   <time name="diag">   66.22   66.22</time>
   <time name="diis">   83.17   83.18</time>
   <time name="orth">   12.87   12.87</time>
   <time name="total">  206.25  206.26</time>
   <energy>
    <i name="e_fr_energy">   -174.62688371 </i>
    <i name="e_wo_entrp">   -174.50270268 </i>
    <i name="e_0_energy">   -174.59583845 </i>
   </energy>
  </scstep>
  <scstep>
   <time name="diag">   68.16   68.16</time>
   <time name="diis">   79.55   79.55</time>
   <time name="orth">   12.39   12.39</time>
   <time name="total">  174.07  174.07</time>
   <energy>
    <i name="alphaZ">     75.25431677 </i>
    <i name="ewald"> 137776.44594571 </i>
    <i name="hartreedc">-182135.74713294 </i>
    <i name="XCdc">  -1692.95960168 </i>
    <i name="pawpsdc">  46089.84945476 </i>
    <i name="pawaedc"> -42560.31599038 </i>
    <i name="eentropy">     -0.12422426 </i>
    <i name="bandstr">  -2813.53522279 </i>
    <i name="atom">  45086.50549395 </i>
    <i name="e_fr_energy">   -174.62696086 </i>
    <i name="e_wo_entrp">   -174.50273660 </i>
    <i name="e_0_energy">   -174.59590479 </i>
   </energy>
  </scstep>
  <structure>
   <crystal>
    <varray name="basis" >
     <v>      30.00000000       0.00000000       0.00000000 </v>
     <v>       0.00000000      30.00000000       0.00000000 </v>
     <v>       0.00000000       0.00000000      30.00000000 </v>
    </varray>
    <i name="volume">  27000.00000000 </i>
    <varray name="rec_basis" >
     <v>       0.03333333       0.00000000       0.00000000 </v>
     <v>       0.00000000       0.03333333       0.00000000 </v>
     <v>       0.00000000       0.00000000       0.03333333 </v>
    </varray>
   </crystal>
   <varray name="positions" >
    <v>       0.44576020       0.32826710       0.41691983 </v>
    <v>       0.67173288       0.55423978       0.41691983 </v>
    <v>       0.55423980       0.32826710       0.41691983 </v>
    <v>       0.32826712       0.55423978       0.41691983 </v>
    <v>       0.50000000       0.38250690       0.34021317 </v>
    <v>       0.50000000       0.38250690       0.65978680 </v>
    <v>       0.50000000       0.27609440       0.50000000 </v>
    <v>       0.27609443       0.49999998       0.50000000 </v>
    <v>       0.72390557       0.49999998       0.50000000 </v>
    <v>       0.50000000       0.72390555       0.50000000 </v>
    <v>       0.61195280       0.38804720       0.34167483 </v>
    <v>       0.61195280       0.38804720       0.65832513 </v>
    <v>       0.38804722       0.61195278       0.34167483 </v>
    <v>       0.38804722       0.61195278       0.65832513 </v>
    <v>       0.38804720       0.38804720       0.34167483 </v>
    <v>       0.38804720       0.38804720       0.65832513 </v>
    <v>       0.61195278       0.61195278       0.34167483 </v>
    <v>       0.61195278       0.61195278       0.65832513 </v>
    <v>       0.44576020       0.32826710       0.58308023 </v>
    <v>       0.67173288       0.55423978       0.58308023 </v>
    <v>       0.55791699       0.44208301       0.41809300 </v>
    <v>       0.32826705       0.44576024       0.41691983 </v>
    <v>       0.55423973       0.67173293       0.41691983 </v>
    <v>       0.55423980       0.32826710       0.58308023 </v>
    <v>       0.32826712       0.55423978       0.58308023 </v>
    <v>       0.67173295       0.44576024       0.41691983 </v>
    <v>       0.44576027       0.67173293       0.41691983 </v>
    <v>       0.44208301       0.44208301       0.41809300 </v>
    <v>       0.50000000       0.38416601       0.50000000 </v>
    <v>       0.61749315       0.50000005       0.34021317 </v>
    <v>       0.61749315       0.50000005       0.65978680 </v>
    <v>       0.38250685       0.50000005       0.34021317 </v>
    <v>       0.38250685       0.50000005       0.65978680 </v>
    <v>       0.38317830       0.38317830       0.50000000 </v>
    <v>       0.61682172       0.61682172       0.50000000 </v>
    <v>       0.61682170       0.38317830       0.50000000 </v>
    <v>       0.38317828       0.61682172       0.50000000 </v>
    <v>       0.50000000       0.50000000       0.33478917 </v>
    <v>       0.50000000       0.50000000       0.66521087 </v>
    <v>       0.32826705       0.44576024       0.58308023 </v>
    <v>       0.55423973       0.67173293       0.58308023 </v>
    <v>       0.55791699       0.44208301       0.58190703 </v>
    <v>       0.44208298       0.55791702       0.41809300 </v>
    <v>       0.44208301       0.44208301       0.58190703 </v>
    <v>       0.67173295       0.44576024       0.58308023 </v>
    <v>       0.44576027       0.67173293       0.58308023 </v>
    <v>       0.55791702       0.55791702       0.41809300 </v>
    <v>       0.38416599       0.50000002       0.50000000 </v>
    <v>       0.61583401       0.50000002       0.50000000 </v>
    <v>       0.50000000       0.61749319       0.34021317 </v>
    <v>       0.50000000       0.61749319       0.65978680 </v>
    <v>       0.50000000       0.50000000       0.50000000 </v>
    <v>       0.44208298       0.55791702       0.58190703 </v>
    <v>       0.55791702       0.55791702       0.58190703 </v>
    <v>       0.50000000       0.61583404       0.50000000 </v>
    <v>       0.48180290       0.67838153       0.30497790 </v>
    <v>       0.47922023       0.70369877       0.27729890 </v>
   </varray>
  </structure>
  <varray name="forces" >
   <v>       0.71250594       1.11158111       0.28590192 </v>
   <v>      -1.11368404      -0.69763019       0.28057321 </v>
   <v>      -0.71196019       1.11008109       0.28658437 </v>
   <v>       1.10869645      -0.70396606       0.27774842 </v>
   <v>       0.00098753       0.38052787       1.30183670 </v>
   <v>       0.00040463       0.41080970      -1.28418463 </v>
   <v>      -0.00019876       1.51936263      -0.00869092 </v>
   <v>       1.52080003      -0.00466017       0.01666562 </v>
   <v>      -1.52345088      -0.00325867       0.01312458 </v>
   <v>      -0.00697540      -1.53782275      -0.00366479 </v>
   <v>      -0.75998213       0.75189174       1.07763666 </v>
   <v>      -0.75670412       0.75552953      -1.07174386 </v>
   <v>       0.72178032      -0.76123850       1.07698993 </v>
   <v>       0.75350815      -0.76382508      -1.07477321 </v>
   <v>       0.76013961       0.75215556       1.07822483 </v>
   <v>       0.75487269       0.75961426      -1.07398030 </v>
   <v>      -0.72487495      -0.78846991       1.10047593 </v>
   <v>      -0.75410145      -0.76276954      -1.07547505 </v>
   <v>       0.70601913       1.10859396      -0.28901812 </v>
   <v>      -1.10457704      -0.71273503      -0.28617172 </v>
   <v>       0.10911111      -0.10374817      -0.16704339 </v>
   <v>       1.11066942       0.70893387       0.28668940 </v>
   <v>      -0.63393371      -1.09025239       0.39290307 </v>
   <v>      -0.70675666       1.11156935      -0.28958889 </v>
   <v>       1.10615335      -0.71620238      -0.28397972 </v>
   <v>      -1.11027926       0.70458985       0.29057215 </v>
   <v>       0.66482645      -1.04984089       0.35248791 </v>
   <v>      -0.11088279      -0.10561249      -0.16281405 </v>
   <v>       0.00117222      -0.23106083      -0.00149266 </v>
   <v>      -0.41083826       0.00570225       1.28242436 </v>
   <v>      -0.41360043       0.01188047      -1.28808602 </v>
   <v>       0.39917482      -0.00743068       1.28314915 </v>
   <v>       0.40899886       0.00707051      -1.28689128 </v>
   <v>       0.82647924       0.82501043       0.00081108 </v>
   <v>      -0.84007262      -0.81394269      -0.01039598 </v>
   <v>      -0.82815167       0.82691231      -0.00197461 </v>
   <v>       0.83919734      -0.81483163      -0.00295554 </v>
   <v>       0.01565810       0.01659042       1.21674751 </v>
   <v>      -0.00053364       0.00008970      -1.17592863 </v>
   <v>       1.10452854       0.71572582      -0.29889693 </v>
   <v>      -0.70505561      -1.10625104      -0.29462876 </v>
   <v>       0.10473112      -0.11506764       0.15537437 </v>
   <v>      -0.10622485       0.05348217      -0.12291784 </v>
   <v>      -0.10851988      -0.11418430       0.15905796 </v>
   <v>      -1.10251079       0.71454045      -0.30051131 </v>
   <v>       0.70519018      -1.10393810      -0.29401383 </v>
   <v>       0.06865638       0.11138969      -0.20882506 </v>
   <v>      -0.24152237      -0.00820894       0.02136048 </v>
   <v>       0.25056226      -0.00893591       0.02221134 </v>
   <v>      -0.51927675       1.40393438       0.16709051 </v>
   <v>       0.00037305      -0.41494442      -1.27996856 </v>
   <v>      -0.00215687       0.01817780      -0.01105421 </v>
   <v>      -0.11438242       0.11268944       0.15612225 </v>
   <v>       0.11726606       0.10839638       0.16146788 </v>
   <v>       0.00101517       0.22555432       0.00372665 </v>
   <v>       0.86029885      -4.36043144       3.44034566 </v>
   <v>      -0.32256949       2.55887278      -2.53863399 </v>
  </varray>
  <varray name="stress" >
   <v>      -6.75730674       0.04787412      -0.02007283 </v>
   <v>       0.04787414      -6.82736764      -0.01049143 </v>
   <v>      -0.02007282      -0.01049140      -6.68200347 </v>
  </varray>
  <energy>
   <i name="e_fr_energy">   -174.62696086 </i>
   <i name="e_wo_entrp">   -174.59590479 </i>
   <i name="e_0_energy">     -0.12422426 </i>
  </energy>
  <time name="totalsc">18353.3218353.99</time>
  <eigenvalues>
   <array>
    <dimension dim="1">band</dimension>
    <dimension dim="2">kpoint</dimension>
    <dimension dim="3">spin</dimension>
    <field>eigene</field>
    <field>occ</field>
    <set>
     <set comment="spin 1">
      <set comment="kpoint 1">
       <r>  -28.9228    1.0000 </r>
       <r>  -13.5486    1.0000 </r>
       <r>  -11.2923    1.0000 </r>
       <r>  -11.2674    1.0000 </r>
       <r>  -10.1183    1.0000 </r>
       <r>   -6.6455    1.0000 </r>
       <r>   -6.1299    1.0000 </r>
       <r>   -6.1277    1.0000 </r>
       <r>   -6.1251    1.0000 </r>
       <r>   -5.8462    1.0000 </r>
       <r>   -5.8300    1.0000 </r>
       <r>   -5.8162    1.0000 </r>
       <r>   -5.7930    1.0000 </r>
       <r>   -5.7430    1.0000 </r>
       <r>   -5.7198    1.0000 </r>
       <r>   -5.6944    1.0000 </r>
       <r>   -5.6884    1.0000 </r>
       <r>   -5.6845    1.0000 </r>
       <r>   -5.6711    1.0000 </r>
       <r>   -5.6272    1.0000 </r>
       <r>   -5.6228    1.0000 </r>
       <r>   -5.6085    1.0000 </r>
       <r>   -5.5981    1.0000 </r>
       <r>   -5.5921    1.0000 </r>
       <r>   -5.5713    1.0000 </r>
       <r>   -5.5493    1.0000 </r>
       <r>   -5.5489    1.0000 </r>
       <r>   -5.5480    1.0000 </r>
       <r>   -5.5459    1.0000 </r>
       <r>   -5.5360    1.0000 </r>
       <r>   -5.5321    1.0000 </r>
       <r>   -5.5212    1.0000 </r>
       <r>   -5.5187    1.0000 </r>
       <r>   -5.5134    1.0000 </r>
       <r>   -5.5126    1.0000 </r>
       <r>   -5.5053    1.0000 </r>
       <r>   -5.5037    1.0000 </r>
       <r>   -5.4933    1.0000 </r>
       <r>   -5.4854    1.0000 </r>
       <r>   -5.4794    1.0000 </r>
       <r>   -5.4733    1.0000 </r>
       <r>   -5.4707    1.0000 </r>
       <r>   -5.4697    1.0000 </r>
       <r>   -5.4674    1.0000 </r>
       <r>   -5.4619    1.0000 </r>
       <r>   -5.4410    1.0000 </r>
       <r>   -5.4299    1.0000 </r>
       <r>   -5.4290    1.0000 </r>
       <r>   -5.4271    1.0000 </r>
       <r>   -5.4255    1.0000 </r>
       <r>   -5.4222    1.0000 </r>
       <r>   -5.4183    1.0000 </r>
       <r>   -5.4072    1.0000 </r>
       <r>   -5.4060    1.0000 </r>
       <r>   -5.4014    1.0000 </r>
       <r>   -5.3859    1.0000 </r>
       <r>   -5.3756    1.0000 </r>
       <r>   -5.3285    1.0000 </r>
       <r>   -5.3265    1.0000 </r>
       <r>   -5.3260    1.0000 </r>
       <r>   -5.3233    1.0000 </r>
       <r>   -5.3214    1.0000 </r>
       <r>   -5.3170    1.0000 </r>
       <r>   -5.3029    1.0000 </r>
       <r>   -5.3001    1.0000 </r>
       <r>   -5.2945    1.0000 </r>
       <r>   -5.2914    1.0000 </r>
       <r>   -5.2719    1.0000 </r>
       <r>   -5.2645    1.0000 </r>
       <r>   -5.2130    1.0000 </r>
       <r>   -5.2054    1.0000 </r>
       <r>   -5.2033    1.0000 </r>
       <r>   -5.1902    1.0000 </r>
       <r>   -5.1819    1.0000 </r>
       <r>   -5.1803    1.0000 </r>
       <r>   -5.1797    1.0000 </r>
       <r>   -5.1730    1.0000 </r>
       <r>   -5.1660    1.0000 </r>
       <r>   -5.1595    1.0000 </r>
       <r>   -5.1556    1.0000 </r>
       <r>   -5.1426    1.0000 </r>
       <r>   -5.1394    1.0000 </r>
       <r>   -5.1271    1.0000 </r>
       <r>   -5.1242    1.0000 </r>
       <r>   -5.1196    1.0000 </r>
       <r>   -5.1093    1.0000 </r>
       <r>   -5.1040    1.0000 </r>
       <r>   -5.0909    1.0000 </r>
       <r>   -5.0747    1.0000 </r>
       <r>   -5.0640    1.0000 </r>
       <r>   -5.0561    1.0000 </r>
       <r>   -5.0549    1.0000 </r>
       <r>   -5.0541    1.0000 </r>
       <r>   -5.0519    1.0000 </r>
       <r>   -5.0501    1.0000 </r>
       <r>   -5.0432    1.0000 </r>
       <r>   -5.0382    1.0000 </r>
       <r>   -5.0338    1.0000 </r>
       <r>   -5.0285    1.0000 </r>
       <r>   -5.0263    1.0000 </r>
       <r>   -5.0209    1.0000 </r>
       <r>   -5.0169    1.0000 </r>
       <r>   -5.0076    1.0000 </r>
       <r>   -5.0014    1.0000 </r>
       <r>   -5.0004    1.0000 </r>
       <r>   -4.9956    1.0000 </r>
       <r>   -4.9925    1.0000 </r>
       <r>   -4.9904    1.0000 </r>
       <r>   -4.9849    1.0000 </r>
       <r>   -4.9770    1.0000 </r>
       <r>   -4.9756    1.0000 </r>
       <r>   -4.9659    1.0000 </r>
       <r>   -4.9611    1.0000 </r>
       <r>   -4.9568    1.0000 </r>
       <r>   -4.9535    1.0000 </r>
       <r>   -4.9521    1.0000 </r>
       <r>   -4.9492    1.0000 </r>
       <r>   -4.9287    1.0000 </r>
       <r>   -4.9257    1.0000 </r>
       <r>   -4.9229    1.0000 </r>
       <r>   -4.9156    1.0000 </r>
       <r>   -4.9080    1.0000 </r>
       <r>   -4.9067    1.0000 </r>
       <r>   -4.9023    1.0000 </r>
       <r>   -4.9020    1.0000 </r>
       <r>   -4.9001    1.0000 </r>
       <r>   -4.8739    1.0000 </r>
       <r>   -4.8634    1.0000 </r>
       <r>   -4.8495    1.0000 </r>
       <r>   -4.8420    1.0000 </r>
       <r>   -4.8416    1.0000 </r>
       <r>   -4.8392    1.0000 </r>
       <r>   -4.8362    1.0000 </r>
       <r>   -4.8338    1.0000 </r>
       <r>   -4.8300    1.0000 </r>
       <r>   -4.8101    0.9999 </r>
       <r>   -4.7981    0.9999 </r>
       <r>   -4.7923    0.9999 </r>
       <r>   -4.7846    0.9999 </r>
       <r>   -4.7753    0.9998 </r>
       <r>   -4.7709    0.9998 </r>
       <r>   -4.7642    0.9998 </r>
       <r>   -4.7465    0.9997 </r>
       <r>   -4.7417    0.9996 </r>
       <r>   -4.7384    0.9996 </r>
       <r>   -4.7362    0.9996 </r>
       <r>   -4.7257    0.9995 </r>
       <r>   -4.7148    0.9994 </r>
       <r>   -4.7110    0.9993 </r>
       <r>   -4.6997    0.9991 </r>
       <r>   -4.6873    0.9989 </r>
       <r>   -4.6854    0.9989 </r>
       <r>   -4.6795    0.9987 </r>
       <r>   -4.6736    0.9986 </r>
       <r>   -4.6713    0.9985 </r>
       <r>   -4.6706    0.9985 </r>
       <r>   -4.6691    0.9985 </r>
       <r>   -4.6689    0.9985 </r>
       <r>   -4.6662    0.9984 </r>
       <r>   -4.6549    0.9981 </r>
       <r>   -4.6501    0.9979 </r>
       <r>   -4.6475    0.9978 </r>
       <r>   -4.6459    0.9978 </r>
       <r>   -4.6451    0.9978 </r>
       <r>   -4.6446    0.9978 </r>
       <r>   -4.6427    0.9977 </r>
       <r>   -4.6407    0.9976 </r>
       <r>   -4.6322    0.9973 </r>
       <r>   -4.6306    0.9973 </r>
       <r>   -4.6182    0.9968 </r>
       <r>   -4.6067    0.9964 </r>
       <r>   -4.6017    0.9962 </r>
       <r>   -4.6008    0.9962 </r>
       <r>   -4.5954    0.9960 </r>
       <r>   -4.5930    0.9959 </r>
       <r>   -4.5918    0.9958 </r>
       <r>   -4.5903    0.9958 </r>
       <r>   -4.5869    0.9957 </r>
       <r>   -4.5820    0.9955 </r>
       <r>   -4.5766    0.9954 </r>
       <r>   -4.5748    0.9953 </r>
       <r>   -4.5671    0.9952 </r>
       <r>   -4.5611    0.9951 </r>
       <r>   -4.5545    0.9951 </r>
       <r>   -4.5541    0.9951 </r>
       <r>   -4.5511    0.9951 </r>
       <r>   -4.5493    0.9951 </r>
       <r>   -4.5479    0.9951 </r>
       <r>   -4.5471    0.9951 </r>
       <r>   -4.5415    0.9952 </r>
       <r>   -4.5262    0.9958 </r>
       <r>   -4.5155    0.9966 </r>
       <r>   -4.5080    0.9973 </r>
       <r>   -4.5058    0.9976 </r>
       <r>   -4.5042    0.9978 </r>
       <r>   -4.4968    0.9988 </r>
       <r>   -4.4892    1.0001 </r>
       <r>   -4.4876    1.0004 </r>
       <r>   -4.4768    1.0028 </r>
       <r>   -4.4743    1.0034 </r>
       <r>   -4.4689    1.0048 </r>
       <r>   -4.4635    1.0064 </r>
       <r>   -4.4604    1.0074 </r>
       <r>   -4.4574    1.0083 </r>
       <r>   -4.4521    1.0101 </r>
       <r>   -4.4491    1.0112 </r>
       <r>   -4.4463    1.0123 </r>
       <r>   -4.4435    1.0133 </r>
       <r>   -4.4418    1.0140 </r>
       <r>   -4.4387    1.0152 </r>
       <r>   -4.4231    1.0220 </r>
       <r>   -4.4193    1.0238 </r>
       <r>   -4.4136    1.0265 </r>
       <r>   -4.4080    1.0291 </r>
       <r>   -4.4069    1.0297 </r>
       <r>   -4.4048    1.0307 </r>
       <r>   -4.4039    1.0311 </r>
       <r>   -4.4029    1.0316 </r>
       <r>   -4.4016    1.0322 </r>
       <r>   -4.3738    1.0446 </r>
       <r>   -4.3652    1.0476 </r>
       <r>   -4.3648    1.0477 </r>
       <r>   -4.3576    1.0497 </r>
       <r>   -4.3519    1.0508 </r>
       <r>   -4.3412    1.0516 </r>
       <r>   -4.3373    1.0515 </r>
       <r>   -4.3358    1.0513 </r>
       <r>   -4.3345    1.0512 </r>
       <r>   -4.3336    1.0511 </r>
       <r>   -4.3317    1.0507 </r>
       <r>   -4.3310    1.0506 </r>
       <r>   -4.3300    1.0504 </r>
       <r>   -4.3277    1.0498 </r>
       <r>   -4.3252    1.0491 </r>
       <r>   -4.3236    1.0485 </r>
       <r>   -4.3229    1.0483 </r>
       <r>   -4.3204    1.0472 </r>
       <r>   -4.3192    1.0467 </r>
       <r>   -4.3157    1.0449 </r>
       <r>   -4.3116    1.0424 </r>
       <r>   -4.3038    1.0363 </r>
       <r>   -4.3028    1.0355 </r>
       <r>   -4.2925    1.0244 </r>
       <r>   -4.2899    1.0210 </r>
       <r>   -4.2869    1.0169 </r>
       <r>   -4.2849    1.0140 </r>
       <r>   -4.2824    1.0101 </r>
       <r>   -4.2795    1.0053 </r>
       <r>   -4.2791    1.0047 </r>
       <r>   -4.2691    0.9857 </r>
       <r>   -4.2641    0.9750 </r>
       <r>   -4.2581    0.9607 </r>
       <r>   -4.2571    0.9580 </r>
       <r>   -4.2541    0.9504 </r>
       <r>   -4.2530    0.9473 </r>
       <r>   -4.2484    0.9345 </r>
       <r>   -4.2470    0.9306 </r>
       <r>   -4.2462    0.9281 </r>
       <r>   -4.2435    0.9200 </r>
       <r>   -4.2423    0.9165 </r>
       <r>   -4.2406    0.9111 </r>
       <r>   -4.2382    0.9033 </r>
       <r>   -4.2368    0.8985 </r>
       <r>   -4.2358    0.8954 </r>
       <r>   -4.2348    0.8919 </r>
       <r>   -4.2249    0.8564 </r>
       <r>   -4.2223    0.8467 </r>
       <r>   -4.2209    0.8412 </r>
       <r>   -4.2192    0.8346 </r>
       <r>   -4.2176    0.8281 </r>
       <r>   -4.2152    0.8185 </r>
       <r>   -4.2131    0.8097 </r>
       <r>   -4.1969    0.7382 </r>
       <r>   -4.1907    0.7093 </r>
       <r>   -4.1806    0.6598 </r>
       <r>   -4.1797    0.6551 </r>
       <r>   -4.1775    0.6438 </r>
       <r>   -4.1752    0.6323 </r>
       <r>   -4.1727    0.6196 </r>
       <r>   -4.1689    0.5997 </r>
       <r>   -4.1673    0.5915 </r>
       <r>   -4.1579    0.5424 </r>
       <r>   -4.1325    0.4087 </r>
       <r>   -4.1271    0.3808 </r>
       <r>   -4.1270    0.3802 </r>
       <r>   -4.1259    0.3745 </r>
       <r>   -4.1243    0.3665 </r>
       <r>   -4.1140    0.3152 </r>
       <r>   -4.1092    0.2916 </r>
       <r>   -3.9598   -0.0516 </r>
       <r>   -3.8523   -0.0118 </r>
       <r>   -3.8230   -0.0028 </r>
       <r>   -3.8129   -0.0006 </r>
       <r>   -3.7621    0.0047 </r>
       <r>   -3.4959    0.0001 </r>
       <r>   -3.4845    0.0001 </r>
       <r>   -3.4072    0.0000 </r>
       <r>   -3.0639    0.0000 </r>
       <r>   -3.0535    0.0000 </r>
       <r>   -3.0500    0.0000 </r>
       <r>   -3.0273    0.0000 </r>
       <r>   -3.0142    0.0000 </r>
       <r>   -2.9394    0.0000 </r>
       <r>   -2.9317    0.0000 </r>
       <r>   -2.8599    0.0000 </r>
       <r>   -2.5360    0.0000 </r>
       <r>   -2.5155    0.0000 </r>
       <r>   -2.5090    0.0000 </r>
       <r>   -2.3237    0.0000 </r>
       <r>   -2.1156    0.0000 </r>
       <r>   -2.1108    0.0000 </r>
       <r>   -2.0601    0.0000 </r>
       <r>   -2.0377    0.0000 </r>
       <r>   -1.9554    0.0000 </r>
       <r>   -1.9378    0.0000 </r>
       <r>   -1.8756    0.0000 </r>
       <r>   -1.7881    0.0000 </r>
       <r>   -1.7249    0.0000 </r>
       <r>   -1.6942    0.0000 </r>
       <r>   -1.6559    0.0000 </r>
       <r>   -1.6355    0.0000 </r>
       <r>   -1.6055    0.0000 </r>
       <r>   -1.5470    0.0000 </r>
       <r>   -1.4021    0.0000 </r>
       <r>   -1.3087    0.0000 </r>
       <r>   -1.2322    0.0000 </r>
       <r>   -1.1733    0.0000 </r>
       <r>   -1.0940    0.0000 </r>
       <r>   -0.9890    0.0000 </r>
       <r>   -0.9729    0.0000 </r>
       <r>   -0.9540    0.0000 </r>
       <r>   -0.9269    0.0000 </r>
       <r>   -0.9225    0.0000 </r>
       <r>   -0.9073    0.0000 </r>
       <r>   -0.8136    0.0000 </r>
       <r>   -0.6463    0.0000 </r>
      </set>
     </set>
    </set>
   </array>
  </eigenvalues>
  <separator name="orbital magnetization" >
   <v name="MAGDIPOLOUT">      0.00000000      0.00000000      0.00000000</v>
  </separator>
  <dos>
   <i name="efermi">     -4.14987003 </i>
   <total>
    <array>
     <dimension dim="1">gridpoints</dimension>
     <dimension dim="2">spin</dimension>
     <field>energy</field>
     <field>total</field>
     <field>integrated</field>
     <set>
      <set comment="spin 1">
       <r>   -30.9228     0.0000     0.0000 </r>
       <r>   -30.8152     0.0000     0.0000 </r>
       <r>   -30.7076     0.0000     0.0000 </r>
       <r>   -30.6000     0.0000     0.0000 </r>
       <r>   -30.4925     0.0000     0.0000 </r>
       <r>   -30.3849     0.0000     0.0000 </r>
       <r>   -30.2773     0.0000     0.0000 </r>
       <r>   -30.1697     0.0000     0.0000 </r>
       <r>   -30.0621     0.0000     0.0000 </r>
       <r>   -29.9545     0.0000     0.0000 </r>
       <r>   -29.8469     0.0000     0.0000 </r>
       <r>   -29.7393     0.0000     0.0000 </r>
       <r>   -29.6318     0.0003     0.0000 </r>
       <r>   -29.5242     0.0051     0.0006 </r>
       <r>   -29.4166     0.0370     0.0046 </r>
       <r>   -29.3090     0.0442     0.0093 </r>
       <r>   -29.2014    -0.4509    -0.0392 </r>
       <r>   -29.0938    -0.5178    -0.0949 </r>
       <r>   -28.9862     4.4040     0.3789 </r>
       <r>   -28.8786     9.9560     1.4501 </r>
       <r>   -28.7710     5.7504     2.0687 </r>
       <r>   -28.6635    -0.1081     2.0571 </r>
       <r>   -28.5559    -0.5966     1.9929 </r>
       <r>   -28.4483     0.0108     1.9941 </r>
       <r>   -28.3407     0.0466     1.9991 </r>
       <r>   -28.2331     0.0078     1.9999 </r>
       <r>   -28.1255     0.0005     2.0000 </r>
       <r>   -28.0179     0.0000     2.0000 </r>
       <r>   -27.9103     0.0000     2.0000 </r>
       <r>   -27.8028     0.0000     2.0000 </r>
       <r>   -27.6952     0.0000     2.0000 </r>
       <r>   -27.5876     0.0000     2.0000 </r>
       <r>   -27.4800     0.0000     2.0000 </r>
       <r>   -27.3724     0.0000     2.0000 </r>
       <r>   -27.2648     0.0000     2.0000 </r>
       <r>   -27.1572     0.0000     2.0000 </r>
       <r>   -27.0496     0.0000     2.0000 </r>
       <r>   -26.9420     0.0000     2.0000 </r>
       <r>   -26.8345     0.0000     2.0000 </r>
       <r>   -26.7269     0.0000     2.0000 </r>
       <r>   -26.6193     0.0000     2.0000 </r>
       <r>   -26.5117     0.0000     2.0000 </r>
       <r>   -26.4041     0.0000     2.0000 </r>
       <r>   -26.2965     0.0000     2.0000 </r>
       <r>   -26.1889     0.0000     2.0000 </r>
       <r>   -26.0813     0.0000     2.0000 </r>
       <r>   -25.9738     0.0000     2.0000 </r>
       <r>   -25.8662     0.0000     2.0000 </r>
       <r>   -25.7586     0.0000     2.0000 </r>
       <r>   -25.6510     0.0000     2.0000 </r>
       <r>   -25.5434     0.0000     2.0000 </r>
       <r>   -25.4358     0.0000     2.0000 </r>
       <r>   -25.3282     0.0000     2.0000 </r>
       <r>   -25.2206     0.0000     2.0000 </r>
       <r>   -25.1130     0.0000     2.0000 </r>
       <r>   -25.0055     0.0000     2.0000 </r>
       <r>   -24.8979     0.0000     2.0000 </r>
       <r>   -24.7903     0.0000     2.0000 </r>
       <r>   -24.6827     0.0000     2.0000 </r>
       <r>   -24.5751     0.0000     2.0000 </r>
       <r>   -24.4675     0.0000     2.0000 </r>
       <r>   -24.3599     0.0000     2.0000 </r>
       <r>   -24.2523     0.0000     2.0000 </r>
       <r>   -24.1447     0.0000     2.0000 </r>
       <r>   -24.0372     0.0000     2.0000 </r>
       <r>   -23.9296     0.0000     2.0000 </r>
       <r>   -23.8220     0.0000     2.0000 </r>
       <r>   -23.7144     0.0000     2.0000 </r>
       <r>   -23.6068     0.0000     2.0000 </r>
       <r>   -23.4992     0.0000     2.0000 </r>
       <r>   -23.3916     0.0000     2.0000 </r>
       <r>   -23.2840     0.0000     2.0000 </r>
       <r>   -23.1765     0.0000     2.0000 </r>
       <r>   -23.0689     0.0000     2.0000 </r>
       <r>   -22.9613     0.0000     2.0000 </r>
       <r>   -22.8537     0.0000     2.0000 </r>
       <r>   -22.7461     0.0000     2.0000 </r>
       <r>   -22.6385     0.0000     2.0000 </r>
       <r>   -22.5309     0.0000     2.0000 </r>
       <r>   -22.4233     0.0000     2.0000 </r>
       <r>   -22.3157     0.0000     2.0000 </r>
       <r>   -22.2082     0.0000     2.0000 </r>
       <r>   -22.1006     0.0000     2.0000 </r>
       <r>   -21.9930     0.0000     2.0000 </r>
       <r>   -21.8854     0.0000     2.0000 </r>
       <r>   -21.7778     0.0000     2.0000 </r>
       <r>   -21.6702     0.0000     2.0000 </r>
       <r>   -21.5626     0.0000     2.0000 </r>
       <r>   -21.4550     0.0000     2.0000 </r>
       <r>   -21.3475     0.0000     2.0000 </r>
       <r>   -21.2399     0.0000     2.0000 </r>
       <r>   -21.1323     0.0000     2.0000 </r>
       <r>   -21.0247     0.0000     2.0000 </r>
       <r>   -20.9171     0.0000     2.0000 </r>
       <r>   -20.8095     0.0000     2.0000 </r>
       <r>   -20.7019     0.0000     2.0000 </r>
       <r>   -20.5943     0.0000     2.0000 </r>
       <r>   -20.4867     0.0000     2.0000 </r>
       <r>   -20.3792     0.0000     2.0000 </r>
       <r>   -20.2716     0.0000     2.0000 </r>
       <r>   -20.1640     0.0000     2.0000 </r>
       <r>   -20.0564     0.0000     2.0000 </r>
       <r>   -19.9488     0.0000     2.0000 </r>
       <r>   -19.8412     0.0000     2.0000 </r>
       <r>   -19.7336     0.0000     2.0000 </r>
       <r>   -19.6260     0.0000     2.0000 </r>
       <r>   -19.5185     0.0000     2.0000 </r>
       <r>   -19.4109     0.0000     2.0000 </r>
       <r>   -19.3033     0.0000     2.0000 </r>
       <r>   -19.1957     0.0000     2.0000 </r>
       <r>   -19.0881     0.0000     2.0000 </r>
       <r>   -18.9805     0.0000     2.0000 </r>
       <r>   -18.8729     0.0000     2.0000 </r>
       <r>   -18.7653     0.0000     2.0000 </r>
       <r>   -18.6577     0.0000     2.0000 </r>
       <r>   -18.5502     0.0000     2.0000 </r>
       <r>   -18.4426     0.0000     2.0000 </r>
       <r>   -18.3350     0.0000     2.0000 </r>
       <r>   -18.2274     0.0000     2.0000 </r>
       <r>   -18.1198     0.0000     2.0000 </r>
       <r>   -18.0122     0.0000     2.0000 </r>
       <r>   -17.9046     0.0000     2.0000 </r>
       <r>   -17.7970     0.0000     2.0000 </r>
       <r>   -17.6895     0.0000     2.0000 </r>
       <r>   -17.5819     0.0000     2.0000 </r>
       <r>   -17.4743     0.0000     2.0000 </r>
       <r>   -17.3667     0.0000     2.0000 </r>
       <r>   -17.2591     0.0000     2.0000 </r>
       <r>   -17.1515     0.0000     2.0000 </r>
       <r>   -17.0439     0.0000     2.0000 </r>
       <r>   -16.9363     0.0000     2.0000 </r>
       <r>   -16.8287     0.0000     2.0000 </r>
       <r>   -16.7212     0.0000     2.0000 </r>
       <r>   -16.6136     0.0000     2.0000 </r>
       <r>   -16.5060     0.0000     2.0000 </r>
       <r>   -16.3984     0.0000     2.0000 </r>
       <r>   -16.2908     0.0000     2.0000 </r>
       <r>   -16.1832     0.0000     2.0000 </r>
       <r>   -16.0756     0.0000     2.0000 </r>
       <r>   -15.9680     0.0000     2.0000 </r>
       <r>   -15.8605     0.0000     2.0000 </r>
       <r>   -15.7529     0.0000     2.0000 </r>
       <r>   -15.6453     0.0000     2.0000 </r>
       <r>   -15.5377     0.0000     2.0000 </r>
       <r>   -15.4301     0.0000     2.0000 </r>
       <r>   -15.3225     0.0000     2.0000 </r>
       <r>   -15.2149     0.0000     2.0000 </r>
       <r>   -15.1073     0.0000     2.0000 </r>
       <r>   -14.9997     0.0000     2.0000 </r>
       <r>   -14.8922     0.0000     2.0000 </r>
       <r>   -14.7846     0.0000     2.0000 </r>
       <r>   -14.6770     0.0000     2.0000 </r>
       <r>   -14.5694     0.0000     2.0000 </r>
       <r>   -14.4618     0.0000     2.0000 </r>
       <r>   -14.3542     0.0000     2.0000 </r>
       <r>   -14.2466     0.0004     2.0000 </r>
       <r>   -14.1390     0.0065     2.0007 </r>
       <r>   -14.0315     0.0424     2.0053 </r>
       <r>   -13.9239     0.0278     2.0083 </r>
       <r>   -13.8163    -0.5339     1.9509 </r>
       <r>   -13.7087    -0.3110     1.9174 </r>
       <r>   -13.6011     5.1640     2.4730 </r>
       <r>   -13.4935    10.0051     3.5494 </r>
       <r>   -13.3859     4.9876     4.0860 </r>
       <r>   -13.2783    -0.3644     4.0468 </r>
       <r>   -13.1707    -0.5148     3.9914 </r>
       <r>   -13.0632     0.0321     3.9949 </r>
       <r>   -12.9556     0.0411     3.9993 </r>
       <r>   -12.8480     0.0061     4.0000 </r>
       <r>   -12.7404     0.0004     4.0000 </r>
       <r>   -12.6328     0.0000     4.0000 </r>
       <r>   -12.5252     0.0000     4.0000 </r>
       <r>   -12.4176     0.0000     4.0000 </r>
       <r>   -12.3100     0.0000     4.0000 </r>
       <r>   -12.2024     0.0000     4.0000 </r>
       <r>   -12.0949     0.0000     4.0000 </r>
       <r>   -11.9873     0.0006     4.0001 </r>
       <r>   -11.8797     0.0109     4.0012 </r>
       <r>   -11.7721     0.0757     4.0094 </r>
       <r>   -11.6645     0.0771     4.0177 </r>
       <r>   -11.5569    -0.9262     3.9180 </r>
       <r>   -11.4493    -0.9063     3.8205 </r>
       <r>   -11.3417     9.0379     4.7929 </r>
       <r>   -11.2342    19.7746     6.9204 </r>
       <r>   -11.1266    11.2777     8.1338 </r>
       <r>   -11.0190    -0.2063     8.1116 </r>
       <r>   -10.9114    -1.1646     7.9863 </r>
       <r>   -10.8038     0.0198     7.9884 </r>
       <r>   -10.6962     0.1001     7.9992 </r>
       <r>   -10.5886     0.0643     8.0061 </r>
       <r>   -10.4810     0.0017     8.0063 </r>
       <r>   -10.3734    -0.6273     7.9388 </r>
       <r>   -10.2659     0.0105     7.9399 </r>
       <r>   -10.1583     6.0463     8.5904 </r>
       <r>   -10.0507     9.9023     9.6558 </r>
       <r>    -9.9431     4.1111    10.0981 </r>
       <r>    -9.8355    -0.5820    10.0355 </r>
       <r>    -9.7279    -0.4187     9.9904 </r>
       <r>    -9.6203     0.0491     9.9957 </r>
       <r>    -9.5127     0.0349     9.9995 </r>
       <r>    -9.4052     0.0046    10.0000 </r>
       <r>    -9.2976     0.0003    10.0000 </r>
       <r>    -9.1900     0.0000    10.0000 </r>
       <r>    -9.0824     0.0000    10.0000 </r>
       <r>    -8.9748     0.0000    10.0000 </r>
       <r>    -8.8672     0.0000    10.0000 </r>
       <r>    -8.7596     0.0000    10.0000 </r>
       <r>    -8.6520     0.0000    10.0000 </r>
       <r>    -8.5444     0.0000    10.0000 </r>
       <r>    -8.4369     0.0000    10.0000 </r>
       <r>    -8.3293     0.0000    10.0000 </r>
       <r>    -8.2217     0.0000    10.0000 </r>
       <r>    -8.1141     0.0000    10.0000 </r>
       <r>    -8.0065     0.0000    10.0000 </r>
       <r>    -7.8989     0.0000    10.0000 </r>
       <r>    -7.7913     0.0000    10.0000 </r>
       <r>    -7.6837     0.0000    10.0000 </r>
       <r>    -7.5762     0.0000    10.0000 </r>
       <r>    -7.4686     0.0000    10.0000 </r>
       <r>    -7.3610     0.0002    10.0000 </r>
       <r>    -7.2534     0.0044    10.0005 </r>
       <r>    -7.1458     0.0338    10.0041 </r>
       <r>    -7.0382     0.0513    10.0097 </r>
       <r>    -6.9306    -0.4018     9.9664 </r>
       <r>    -6.8230    -0.6112     9.9007 </r>
       <r>    -6.7154     3.9780    10.3287 </r>
       <r>    -6.6079     9.9974    11.4043 </r>
       <r>    -6.5003     6.2737    12.0792 </r>
       <r>    -6.3927    -1.5380    11.9138 </r>
       <r>    -6.2851    -1.1362    11.7915 </r>
       <r>    -6.1775    16.2673    13.5417 </r>
       <r>    -6.0699    27.9887    16.5529 </r>
       <r>    -5.9623    13.5131    18.0068 </r>
       <r>    -5.8547    20.0780    20.1670 </r>
       <r>    -5.7472    57.4867    26.3519 </r>
       <r>    -5.6396   116.2528    38.8593 </r>
       <r>    -5.5320   227.7935    63.3672 </r>
       <r>    -5.4244   304.1066    96.0855 </r>
       <r>    -5.3168   252.8273   123.2868 </r>
       <r>    -5.2092   200.5009   144.8583 </r>
       <r>    -5.1016   261.3457   172.9761 </r>
       <r>    -4.9940   355.1057   211.1813 </r>
       <r>    -4.8864   344.1289   248.2055 </r>
       <r>    -4.7789   285.0683   278.8755 </r>
       <r>    -4.6713   339.9565   315.4508 </r>
       <r>    -4.5637   426.6084   361.3489 </r>
       <r>    -4.4561   425.5462   407.1327 </r>
       <r>    -4.3485   474.2808   458.1598 </r>
       <r>    -4.2409   563.5355   518.7896 </r>
       <r>    -4.1333   430.2334   565.0776 </r>
       <r>    -4.0257   142.0644   580.3621 </r>
       <r>    -3.9182     7.1630   581.1328 </r>
       <r>    -3.8106    25.3117   583.8560 </r>
       <r>    -3.7030    31.1020   587.2022 </r>
       <r>    -3.5954    11.0130   588.3871 </r>
       <r>    -3.4878    18.4894   590.3763 </r>
       <r>    -3.3802    25.4503   593.1145 </r>
       <r>    -3.2726     6.3775   593.8006 </r>
       <r>    -3.1650     2.0539   594.0216 </r>
       <r>    -3.0574    38.0307   598.1133 </r>
       <r>    -2.9499    63.8487   604.9826 </r>
       <r>    -2.8423    40.3337   609.3221 </r>
       <r>    -2.7347     6.4671   610.0178 </r>
       <r>    -2.6271     2.8891   610.3287 </r>
       <r>    -2.5195    24.0686   612.9182 </r>
       <r>    -2.4119    27.8087   615.9101 </r>
       <r>    -2.3043    11.7852   617.1780 </r>
       <r>    -2.1967     9.9336   618.2468 </r>
       <r>    -2.0892    30.8689   621.5679 </r>
       <r>    -1.9816    45.9847   626.5153 </r>
       <r>    -1.8740    37.6346   630.5644 </r>
       <r>    -1.7664    33.7515   634.1956 </r>
       <r>    -1.6588    47.9498   639.3544 </r>
       <r>    -1.5512    45.5535   644.2555 </r>
       <r>    -1.4436    22.7022   646.6980 </r>
       <r>    -1.3360    16.7535   648.5004 </r>
       <r>    -1.2284    23.8452   651.0659 </r>
       <r>    -1.1209    25.5795   653.8180 </r>
       <r>    -1.0133    39.4990   658.0676 </r>
       <r>    -0.9057    60.5876   664.5861 </r>
       <r>    -0.7981    43.8243   669.3011 </r>
       <r>    -0.6905    14.7396   670.8869 </r>
       <r>    -0.5829     7.3625   671.6790 </r>
       <r>    -0.4753     3.5170   672.0574 </r>
       <r>    -0.3677    -0.3079   672.0243 </r>
       <r>    -0.2601    -0.3322   671.9886 </r>
       <r>    -0.1526     0.0627   671.9953 </r>
       <r>    -0.0450     0.0383   671.9994 </r>
       <r>     0.0626     0.0051   672.0000 </r>
       <r>     0.1702     0.0003   672.0000 </r>
       <r>     0.2778     0.0000   672.0000 </r>
       <r>     0.3854     0.0000   672.0000 </r>
       <r>     0.4930     0.0000   672.0000 </r>
       <r>     0.6006     0.0000   672.0000 </r>
       <r>     0.7081     0.0000   672.0000 </r>
       <r>     0.8157     0.0000   672.0000 </r>
       <r>     0.9233     0.0000   672.0000 </r>
       <r>     1.0309     0.0000   672.0000 </r>
       <r>     1.1385     0.0000   672.0000 </r>
       <r>     1.2461     0.0000   672.0000 </r>
       <r>     1.3537     0.0000   672.0000 </r>
      </set>
     </set>
    </array>
   </total>
  </dos>
 </calculation>
 <structure name="finalpos" >
  <crystal>
   <varray name="basis" >
    <v>      30.00000000       0.00000000       0.00000000 </v>
    <v>       0.00000000      30.00000000       0.00000000 </v>
    <v>       0.00000000       0.00000000      30.00000000 </v>
   </varray>
   <i name="volume">  27000.00000000 </i>
   <varray name="rec_basis" >
    <v>       0.03333333       0.00000000       0.00000000 </v>
    <v>       0.00000000       0.03333333       0.00000000 </v>
    <v>       0.00000000       0.00000000       0.03333333 </v>
   </varray>
  </crystal>
  <varray name="positions" >
   <v>       0.44576020       0.32826710       0.41691983 </v>
   <v>       0.67173288       0.55423978       0.41691983 </v>
   <v>       0.55423980       0.32826710       0.41691983 </v>
   <v>       0.32826712       0.55423978       0.41691983 </v>
   <v>       0.50000000       0.38250690       0.34021317 </v>
   <v>       0.50000000       0.38250690       0.65978680 </v>
   <v>       0.50000000       0.27609440       0.50000000 </v>
   <v>       0.27609443       0.49999998       0.50000000 </v>
   <v>       0.72390557       0.49999998       0.50000000 </v>
   <v>       0.50000000       0.72390555       0.50000000 </v>
   <v>       0.61195280       0.38804720       0.34167483 </v>
   <v>       0.61195280       0.38804720       0.65832513 </v>
   <v>       0.38804722       0.61195278       0.34167483 </v>
   <v>       0.38804722       0.61195278       0.65832513 </v>
   <v>       0.38804720       0.38804720       0.34167483 </v>
   <v>       0.38804720       0.38804720       0.65832513 </v>
   <v>       0.61195278       0.61195278       0.34167483 </v>
   <v>       0.61195278       0.61195278       0.65832513 </v>
   <v>       0.44576020       0.32826710       0.58308023 </v>
   <v>       0.67173288       0.55423978       0.58308023 </v>
   <v>       0.55791699       0.44208301       0.41809300 </v>
   <v>       0.32826705       0.44576024       0.41691983 </v>
   <v>       0.55423973       0.67173293       0.41691983 </v>
   <v>       0.55423980       0.32826710       0.58308023 </v>
   <v>       0.32826712       0.55423978       0.58308023 </v>
   <v>       0.67173295       0.44576024       0.41691983 </v>
   <v>       0.44576027       0.67173293       0.41691983 </v>
   <v>       0.44208301       0.44208301       0.41809300 </v>
   <v>       0.50000000       0.38416601       0.50000000 </v>
   <v>       0.61749315       0.50000005       0.34021317 </v>
   <v>       0.61749315       0.50000005       0.65978680 </v>
   <v>       0.38250685       0.50000005       0.34021317 </v>
   <v>       0.38250685       0.50000005       0.65978680 </v>
   <v>       0.38317830       0.38317830       0.50000000 </v>
   <v>       0.61682172       0.61682172       0.50000000 </v>
   <v>       0.61682170       0.38317830       0.50000000 </v>
   <v>       0.38317828       0.61682172       0.50000000 </v>
   <v>       0.50000000       0.50000000       0.33478917 </v>
   <v>       0.50000000       0.50000000       0.66521087 </v>
   <v>       0.32826705       0.44576024       0.58308023 </v>
   <v>       0.55423973       0.67173293       0.58308023 </v>
   <v>       0.55791699       0.44208301       0.58190703 </v>
   <v>       0.44208298       0.55791702       0.41809300 </v>
   <v>       0.44208301       0.44208301       0.58190703 </v>
   <v>       0.67173295       0.44576024       0.58308023 </v>
   <v>       0.44576027       0.67173293       0.58308023 </v>
   <v>       0.55791702       0.55791702       0.41809300 </v>
   <v>       0.38416599       0.50000002       0.50000000 </v>
   <v>       0.61583401       0.50000002       0.50000000 </v>
   <v>       0.50000000       0.61749319       0.34021317 </v>
   <v>       0.50000000       0.61749319       0.65978680 </v>
   <v>       0.50000000       0.50000000       0.50000000 </v>
   <v>       0.44208298       0.55791702       0.58190703 </v>
   <v>       0.55791702       0.55791702       0.58190703 </v>
   <v>       0.50000000       0.61583404       0.50000000 </v>
   <v>       0.48180290       0.67838153       0.30497790 </v>
   <v>       0.47922023       0.70369877       0.27729890 </v>
  </varray>
  <varray name="selective"  type="logical" >
   <v type="logical" >  F  F  F </v>
   <v type="logical" >  F  F  F </v>
   <v type="logical" >  F  F  F </v>
   <v type="logical" >  F  F  F </v>
   <v type="logical" >  F  F  F </v>
   <v type="logical" >  F  F  F </v>
   <v type="logical" >  F  F  F </v>
   <v type="logical" >  F  F  F </v>
   <v type="logical" >  F  F  F </v>
   <v type="logical" >  F  F  F </v>
   <v type="logical" >  F  F  F </v>
   <v type="logical" >  F  F  F </v>
   <v type="logical" >  F  F  F </v>
   <v type="logical" >  F  F  F </v>
   <v type="logical" >  F  F  F </v>
   <v type="logical" >  F  F  F </v>
   <v type="logical" >  F  F  F </v>
   <v type="logical" >  F  F  F </v>
   <v type="logical" >  F  F  F </v>
   <v type="logical" >  F  F  F </v>
   <v type="logical" >  F  F  F </v>
   <v type="logical" >  F  F  F </v>
   <v type="logical" >  F  F  F </v>
   <v type="logical" >  F  F  F </v>
   <v type="logical" >  F  F  F </v>
   <v type="logical" >  F  F  F </v>
   <v type="logical" >  F  F  F </v>
   <v type="logical" >  F  F  F </v>
   <v type="logical" >  F  F  F </v>
   <v type="logical" >  F  F  F </v>
   <v type="logical" >  F  F  F </v>
   <v type="logical" >  F  F  F </v>
   <v type="logical" >  F  F  F </v>
   <v type="logical" >  F  F  F </v>
   <v type="logical" >  F  F  F </v>
   <v type="logical" >  F  F  F </v>
   <v type="logical" >  F  F  F </v>
   <v type="logical" >  F  F  F </v>
   <v type="logical" >  F  F  F </v>
   <v type="logical" >  F  F  F </v>
   <v type="logical" >  F  F  F </v>
   <v type="logical" >  F  F  F </v>
   <v type="logical" >  F  F  F </v>
   <v type="logical" >  F  F  F </v>
   <v type="logical" >  F  F  F </v>
   <v type="logical" >  F  F  F </v>
   <v type="logical" >  F  F  F </v>
   <v type="logical" >  F  F  F </v>
   <v type="logical" >  F  F  F </v>
   <v type="logical" >  F  F  F </v>
   <v type="logical" >  F  F  F </v>
   <v type="logical" >  F  F  F </v>
   <v type="logical" >  F  F  F </v>
   <v type="logical" >  F  F  F </v>
   <v type="logical" >  F  F  F </v>
   <v type="logical" >  F  F  F </v>
   <v type="logical" >  F  F  F </v>
  </varray>
  <nose>
   <v>      -3.00000000       0.00000000       0.00010000       0.00010000 </v>
  </nose>
 </structure>
</modeling>
