  57  57   0   0
  0.4736842E+03  0.3000000E-08  0.3000000E-08  0.3000000E-08  0.5000000E-15
  1.000000000000000E-004
  CAR 
 6_Pd100_top_free_z(O)                   
      1.26186464    -30.95522498  301     -4.12070295      1.00000000
    -30.955  0.0000E+00  0.0000E+00
    -30.848  0.0000E+00  0.0000E+00
    -30.740  0.0000E+00  0.0000E+00
    -30.633  0.4016E-27  0.4312E-28
    -30.526  0.2003E-23  0.2151E-24
    -30.418  0.5524E-20  0.5935E-21
    -30.311  0.8401E-17  0.9028E-18
    -30.203  0.7018E-14  0.7546E-15
    -30.096  0.3210E-11  0.3455E-12
    -29.989  0.7964E-09  0.8588E-10
    -29.881  0.1062E-06  0.1149E-07
    -29.774  0.7484E-05  0.8152E-06
    -29.667  0.2714E-03  0.2996E-04
    -29.559  0.4789E-02  0.5443E-03
    -29.452  0.3565E-01  0.4372E-02
    -29.344  0.4765E-01  0.9489E-02
    -29.237 -0.4275E+00 -0.3642E-01
    -29.130 -0.5689E+00 -0.9752E-01
    -29.022  0.4164E+01  0.3497E+00
    -28.915  0.9913E+01  0.1414E+01
    -28.807  0.6020E+01  0.2061E+01
    -28.700  0.3821E-02  0.2061E+01
    -28.593 -0.6275E+00  0.1994E+01
    -28.485  0.2415E-03  0.1994E+01
    -28.378  0.4896E-01  0.1999E+01
    -28.270  0.8610E-02  0.2000E+01
    -28.163  0.5920E-03  0.2000E+01
    -28.056  0.1938E-04  0.2000E+01
    -27.948  0.3230E-06  0.2000E+01
    -27.841  0.2831E-08  0.2000E+01
    -27.734  0.1329E-10  0.2000E+01
    -27.626  0.3308E-13  0.2000E+01
    -27.519  0.0000E+00  0.2000E+01
    -27.411  0.0000E+00  0.2000E+01
    -27.304  0.0000E+00  0.2000E+01
    -27.197  0.0000E+00  0.2000E+01
    -27.089  0.0000E+00  0.2000E+01
    -26.982  0.0000E+00  0.2000E+01
    -26.874  0.0000E+00  0.2000E+01
    -26.767  0.0000E+00  0.2000E+01
    -26.660  0.0000E+00  0.2000E+01
    -26.552  0.0000E+00  0.2000E+01
    -26.445  0.0000E+00  0.2000E+01
    -26.337  0.0000E+00  0.2000E+01
    -26.230  0.0000E+00  0.2000E+01
    -26.123  0.0000E+00  0.2000E+01
    -26.015  0.0000E+00  0.2000E+01
    -25.908  0.0000E+00  0.2000E+01
    -25.800  0.0000E+00  0.2000E+01
    -25.693  0.0000E+00  0.2000E+01
    -25.586  0.0000E+00  0.2000E+01
    -25.478  0.0000E+00  0.2000E+01
    -25.371  0.0000E+00  0.2000E+01
    -25.264  0.0000E+00  0.2000E+01
    -25.156  0.0000E+00  0.2000E+01
    -25.049  0.0000E+00  0.2000E+01
    -24.941  0.0000E+00  0.2000E+01
    -24.834  0.0000E+00  0.2000E+01
    -24.727  0.0000E+00  0.2000E+01
    -24.619  0.0000E+00  0.2000E+01
    -24.512  0.0000E+00  0.2000E+01
    -24.404  0.0000E+00  0.2000E+01
    -24.297  0.0000E+00  0.2000E+01
    -24.190  0.0000E+00  0.2000E+01
    -24.082  0.0000E+00  0.2000E+01
    -23.975  0.0000E+00  0.2000E+01
    -23.867  0.0000E+00  0.2000E+01
    -23.760  0.0000E+00  0.2000E+01
    -23.653  0.0000E+00  0.2000E+01
    -23.545  0.0000E+00  0.2000E+01
    -23.438  0.0000E+00  0.2000E+01
    -23.331  0.0000E+00  0.2000E+01
    -23.223  0.0000E+00  0.2000E+01
    -23.116  0.0000E+00  0.2000E+01
    -23.008  0.0000E+00  0.2000E+01
    -22.901  0.0000E+00  0.2000E+01
    -22.794  0.0000E+00  0.2000E+01
    -22.686  0.0000E+00  0.2000E+01
    -22.579  0.0000E+00  0.2000E+01
    -22.471  0.0000E+00  0.2000E+01
    -22.364  0.0000E+00  0.2000E+01
    -22.257  0.0000E+00  0.2000E+01
    -22.149  0.0000E+00  0.2000E+01
    -22.042  0.0000E+00  0.2000E+01
    -21.934  0.0000E+00  0.2000E+01
    -21.827  0.0000E+00  0.2000E+01
    -21.720  0.0000E+00  0.2000E+01
    -21.612  0.0000E+00  0.2000E+01
    -21.505  0.0000E+00  0.2000E+01
    -21.397  0.0000E+00  0.2000E+01
    -21.290  0.0000E+00  0.2000E+01
    -21.183  0.0000E+00  0.2000E+01
    -21.075  0.0000E+00  0.2000E+01
    -20.968  0.0000E+00  0.2000E+01
    -20.861  0.0000E+00  0.2000E+01
    -20.753  0.0000E+00  0.2000E+01
    -20.646  0.0000E+00  0.2000E+01
    -20.538  0.0000E+00  0.2000E+01
    -20.431  0.0000E+00  0.2000E+01
    -20.324  0.0000E+00  0.2000E+01
    -20.216  0.0000E+00  0.2000E+01
    -20.109  0.0000E+00  0.2000E+01
    -20.001  0.0000E+00  0.2000E+01
    -19.894  0.0000E+00  0.2000E+01
    -19.787  0.0000E+00  0.2000E+01
    -19.679  0.0000E+00  0.2000E+01
    -19.572  0.0000E+00  0.2000E+01
    -19.464  0.0000E+00  0.2000E+01
    -19.357  0.0000E+00  0.2000E+01
    -19.250  0.0000E+00  0.2000E+01
    -19.142  0.0000E+00  0.2000E+01
    -19.035  0.0000E+00  0.2000E+01
    -18.928  0.0000E+00  0.2000E+01
    -18.820  0.0000E+00  0.2000E+01
    -18.713  0.0000E+00  0.2000E+01
    -18.605  0.0000E+00  0.2000E+01
    -18.498  0.0000E+00  0.2000E+01
    -18.391  0.0000E+00  0.2000E+01
    -18.283  0.0000E+00  0.2000E+01
    -18.176  0.0000E+00  0.2000E+01
    -18.068  0.0000E+00  0.2000E+01
    -17.961  0.0000E+00  0.2000E+01
    -17.854  0.0000E+00  0.2000E+01
    -17.746  0.0000E+00  0.2000E+01
    -17.639  0.0000E+00  0.2000E+01
    -17.531  0.0000E+00  0.2000E+01
    -17.424  0.0000E+00  0.2000E+01
    -17.317  0.0000E+00  0.2000E+01
    -17.209  0.0000E+00  0.2000E+01
    -17.102  0.0000E+00  0.2000E+01
    -16.994  0.0000E+00  0.2000E+01
    -16.887  0.0000E+00  0.2000E+01
    -16.780  0.0000E+00  0.2000E+01
    -16.672  0.0000E+00  0.2000E+01
    -16.565  0.0000E+00  0.2000E+01
    -16.458  0.0000E+00  0.2000E+01
    -16.350  0.0000E+00  0.2000E+01
    -16.243  0.0000E+00  0.2000E+01
    -16.135  0.0000E+00  0.2000E+01
    -16.028  0.0000E+00  0.2000E+01
    -15.921  0.0000E+00  0.2000E+01
    -15.813  0.0000E+00  0.2000E+01
    -15.706  0.0000E+00  0.2000E+01
    -15.598  0.0000E+00  0.2000E+01
    -15.491  0.0000E+00  0.2000E+01
    -15.384  0.4479E-28  0.2000E+01
    -15.276  0.2585E-24  0.2000E+01
    -15.169  0.8256E-21  0.2000E+01
    -15.061  0.1455E-17  0.2000E+01
    -14.954  0.1410E-14  0.2000E+01
    -14.847  0.7485E-12  0.2000E+01
    -14.739  0.2162E-09  0.2000E+01
    -14.632  0.3363E-07  0.2000E+01
    -14.525  0.2780E-05  0.2000E+01
    -14.417  0.1192E-03  0.2000E+01
    -14.310  0.2534E-02  0.2000E+01
    -14.202  0.2393E-01  0.2003E+01
    -14.095  0.6359E-01  0.2010E+01
    -13.988 -0.2407E+00  0.1984E+01
    -13.880 -0.7984E+00  0.1898E+01
    -13.773  0.2446E+01  0.2161E+01
    -13.665  0.9179E+01  0.3146E+01
    -13.558  0.7760E+01  0.3980E+01
    -13.451  0.9832E+00  0.4085E+01
    -13.343 -0.7812E+00  0.4002E+01
    -13.236 -0.9091E-01  0.3992E+01
    -13.128  0.6048E-01  0.3998E+01
    -13.021  0.1463E-01  0.4000E+01
    -12.914  0.1235E-02  0.4000E+01
    -12.806  0.9957E-04  0.4000E+01
    -12.699  0.1305E-02  0.4000E+01
    -12.591  0.1526E-01  0.4002E+01
    -12.484  0.6234E-01  0.4008E+01
    -12.377 -0.8558E-01  0.3999E+01
    -12.269 -0.7286E+00  0.3921E+01
    -12.162  0.9884E+00  0.4027E+01
    -12.055  0.7104E+01  0.4790E+01
    -11.947  0.1004E+02  0.5869E+01
    -11.840  0.1004E+02  0.6947E+01
    -11.732  0.8405E+01  0.7849E+01
    -11.625  0.2264E+01  0.8092E+01
    -11.518 -0.7318E+00  0.8014E+01
    -11.410 -0.2224E+00  0.7990E+01
    -11.303  0.6586E-01  0.7997E+01
    -11.195  0.2434E-01  0.8000E+01
    -11.088  0.2604E-02  0.8000E+01
    -10.981  0.7032E-03  0.8000E+01
    -10.873  0.8494E-02  0.8001E+01
    -10.766  0.4864E-01  0.8006E+01
    -10.658  0.1903E-02  0.8006E+01
    -10.551 -0.6228E+00  0.7940E+01
    -10.444 -0.1516E-01  0.7938E+01
    -10.336  0.5974E+01  0.8579E+01
    -10.229  0.9922E+01  0.9645E+01
    -10.122  0.4210E+01  0.1010E+02
    -10.014 -0.5592E+00  0.1004E+02
     -9.907 -0.4325E+00  0.9991E+01
     -9.799  0.4691E-01  0.9996E+01
     -9.692  0.3597E-01  0.9999E+01
     -9.585  0.4863E-02  0.1000E+02
     -9.477  0.2768E-03  0.1000E+02
     -9.370  0.7666E-05  0.1000E+02
     -9.262  0.1092E-06  0.1000E+02
     -9.155  0.8223E-09  0.1000E+02
     -9.048  0.3329E-11  0.1000E+02
     -8.940  0.8271E-14  0.1000E+02
     -8.833  0.0000E+00  0.1000E+02
     -8.725  0.0000E+00  0.1000E+02
     -8.618  0.0000E+00  0.1000E+02
     -8.511  0.0000E+00  0.1000E+02
     -8.403  0.0000E+00  0.1000E+02
     -8.296  0.1893E-27  0.1000E+02
     -8.188  0.9930E-24  0.1000E+02
     -8.081  0.2881E-20  0.1000E+02
     -7.974  0.4609E-17  0.1000E+02
     -7.866  0.4052E-14  0.1000E+02
     -7.759  0.1952E-11  0.1000E+02
     -7.652  0.5103E-09  0.1000E+02
     -7.544  0.7175E-07  0.1000E+02
     -7.437  0.5344E-05  0.1000E+02
     -7.329  0.2054E-03  0.1000E+02
     -7.222  0.3867E-02  0.1000E+02
     -7.115  0.3133E-01  0.1000E+02
     -7.007  0.5604E-01  0.1001E+02
     -6.900 -0.3587E+00  0.9971E+01
     -6.792 -0.6691E+00  0.9899E+01
     -6.685  0.3629E+01  0.1029E+02
     -6.578  0.9857E+01  0.1135E+02
     -6.470  0.5930E+01  0.1198E+02
     -6.363 -0.1093E+01  0.1187E+02
     -6.255  0.6413E+01  0.1256E+02
     -6.148  0.2718E+02  0.1547E+02
     -6.041  0.3422E+02  0.1915E+02
     -5.933  0.1984E+02  0.2128E+02
     -5.826  0.2114E+02  0.2355E+02
     -5.719  0.5485E+02  0.2944E+02
     -5.611  0.1241E+03  0.4277E+02
     -5.504  0.2320E+03  0.6768E+02
     -5.396  0.2923E+03  0.9907E+02
     -5.289  0.2491E+03  0.1258E+03
     -5.182  0.2102E+03  0.1484E+03
     -5.074  0.2658E+03  0.1769E+03
     -4.967  0.3507E+03  0.2146E+03
     -4.859  0.3461E+03  0.2518E+03
     -4.752  0.2988E+03  0.2839E+03
     -4.645  0.3438E+03  0.3208E+03
     -4.537  0.4097E+03  0.3648E+03
     -4.430  0.4134E+03  0.4092E+03
     -4.322  0.4712E+03  0.4598E+03
     -4.215  0.5521E+03  0.5191E+03
     -4.108  0.4167E+03  0.5638E+03
     -4.000  0.1421E+03  0.5791E+03
     -3.893  0.1844E+02  0.5810E+03
     -3.785  0.2568E+02  0.5838E+03
     -3.678  0.2570E+02  0.5866E+03
     -3.571  0.1474E+02  0.5881E+03
     -3.463  0.1767E+02  0.5900E+03
     -3.356  0.1601E+02  0.5918E+03
     -3.249  0.5615E+01  0.5924E+03
     -3.141  0.1220E+02  0.5937E+03
     -3.034  0.4515E+02  0.5985E+03
     -2.926  0.6163E+02  0.6051E+03
     -2.819  0.3379E+02  0.6088E+03
     -2.712  0.7962E+01  0.6096E+03
     -2.604  0.4613E+01  0.6101E+03
     -2.497  0.1719E+02  0.6120E+03
     -2.389  0.2705E+02  0.6149E+03
     -2.282  0.2107E+02  0.6171E+03
     -2.175  0.1584E+02  0.6188E+03
     -2.067  0.2430E+02  0.6215E+03
     -1.960  0.3635E+02  0.6254E+03
     -1.852  0.4560E+02  0.6303E+03
     -1.745  0.4371E+02  0.6349E+03
     -1.638  0.3475E+02  0.6387E+03
     -1.530  0.3546E+02  0.6425E+03
     -1.423  0.3360E+02  0.6461E+03
     -1.316  0.2237E+02  0.6485E+03
     -1.208  0.1758E+02  0.6504E+03
     -1.101  0.2137E+02  0.6527E+03
     -0.993  0.3457E+02  0.6564E+03
     -0.886  0.5470E+02  0.6623E+03
     -0.779  0.5660E+02  0.6683E+03
     -0.671  0.3194E+02  0.6718E+03
     -0.564  0.4951E+01  0.6723E+03
     -0.456 -0.2650E+01  0.6720E+03
     -0.349 -0.5346E+00  0.6720E+03
     -0.242  0.2519E+00  0.6720E+03
     -0.134  0.8450E-01  0.6720E+03
     -0.027  0.9240E-02  0.6720E+03
      0.081  0.4641E-03  0.6720E+03
      0.188  0.1175E-04  0.6720E+03
      0.295  0.1559E-06  0.6720E+03
      0.403  0.1108E-08  0.6720E+03
      0.510  0.4272E-11  0.6720E+03
      0.618  0.8271E-14  0.6720E+03
      0.725  0.0000E+00  0.6720E+03
      0.832  0.0000E+00  0.6720E+03
      0.940  0.0000E+00  0.6720E+03
      1.047  0.0000E+00  0.6720E+03
      1.154  0.0000E+00  0.6720E+03
      1.262  0.0000E+00  0.6720E+03
