   57   57    1    1
  0.4736842E+03  0.3000000E-08  0.3000000E-08  0.3000000E-08  0.5000000E-15
  1.000000000000000E-004
  CAR 
 6_Pd100_top_free_z(O)                   
    560      1    336
 
  0.0000000E+00  0.0000000E+00  0.0000000E+00  0.1000000E+01
    1      -28.740078   1.000000
    2      -13.495118   1.000000
    3      -11.155084   1.000000
    4      -11.130451   1.000000
    5      -10.631262   1.000000
    6       -6.656136   1.000000
    7       -6.180924   1.000000
    8       -6.158230   1.000000
    9       -6.134379   1.000000
   10       -6.088021   1.000000
   11       -6.049478   1.000000
   12       -5.864790   1.000000
   13       -5.821032   1.000000
   14       -5.809013   1.000000
   15       -5.763122   1.000000
   16       -5.751245   1.000000
   17       -5.698012   1.000000
   18       -5.691305   1.000000
   19       -5.690429   1.000000
   20       -5.653586   1.000000
   21       -5.643755   1.000000
   22       -5.630193   1.000000
   23       -5.622627   1.000000
   24       -5.609096   1.000000
   25       -5.601544   1.000000
   26       -5.595860   1.000000
   27       -5.587052   1.000000
   28       -5.571208   1.000000
   29       -5.555091   1.000000
   30       -5.554666   1.000000
   31       -5.550361   1.000000
   32       -5.527890   1.000000
   33       -5.525499   1.000000
   34       -5.522301   1.000000
   35       -5.519770   1.000000
   36       -5.518201   1.000000
   37       -5.516359   1.000000
   38       -5.514109   1.000000
   39       -5.498985   1.000000
   40       -5.488023   1.000000
   41       -5.480728   1.000000
   42       -5.478545   1.000000
   43       -5.476320   1.000000
   44       -5.473851   1.000000
   45       -5.471190   1.000000
   46       -5.457043   1.000000
   47       -5.437117   1.000000
   48       -5.436379   1.000000
   49       -5.433668   1.000000
   50       -5.432374   1.000000
   51       -5.430042   1.000000
   52       -5.428948   1.000000
   53       -5.416055   1.000000
   54       -5.414377   1.000000
   55       -5.409802   1.000000
   56       -5.406171   1.000000
   57       -5.391774   1.000000
   58       -5.344542   1.000000
   59       -5.339850   1.000000
   60       -5.336231   1.000000
   61       -5.332878   1.000000
   62       -5.329230   1.000000
   63       -5.323572   1.000000
   64       -5.314528   1.000000
   65       -5.311028   1.000000
   66       -5.306356   1.000000
   67       -5.304410   1.000000
   68       -5.297480   1.000000
   69       -5.287956   1.000000
   70       -5.219630   1.000000
   71       -5.213343   1.000000
   72       -5.211630   1.000000
   73       -5.197911   1.000000
   74       -5.189106   1.000000
   75       -5.187848   1.000000
   76       -5.186546   1.000000
   77       -5.178988   1.000000
   78       -5.176514   1.000000
   79       -5.169939   1.000000
   80       -5.167678   1.000000
   81       -5.164337   1.000000
   82       -5.158348   1.000000
   83       -5.139802   1.000000
   84       -5.136438   1.000000
   85       -5.131514   1.000000
   86       -5.118043   1.000000
   87       -5.111683   1.000000
   88       -5.101494   1.000000
   89       -5.093058   1.000000
   90       -5.082448   1.000000
   91       -5.070242   1.000000
   92       -5.061656   1.000000
   93       -5.061198   1.000000
   94       -5.059707   1.000000
   95       -5.056879   1.000000
   96       -5.053965   1.000000
   97       -5.047105   1.000000
   98       -5.045704   1.000000
   99       -5.035761   1.000000
  100       -5.034499   1.000000
  101       -5.029542   1.000000
  102       -5.025501   1.000000
  103       -5.016822   1.000000
  104       -5.009812   1.000000
  105       -5.008025   1.000000
  106       -5.005158   1.000000
  107       -5.001921   1.000000
  108       -4.997841   1.000000
  109       -4.994432   1.000000
  110       -4.984426   1.000000
  111       -4.983760   1.000000
  112       -4.975450   1.000000
  113       -4.968108   0.999999
  114       -4.966449   0.999999
  115       -4.962754   0.999999
  116       -4.959710   0.999999
  117       -4.957682   0.999999
  118       -4.940333   0.999999
  119       -4.935953   0.999998
  120       -4.932185   0.999998
  121       -4.923536   0.999998
  122       -4.917894   0.999997
  123       -4.914811   0.999997
  124       -4.908908   0.999996
  125       -4.908549   0.999996
  126       -4.907499   0.999996
  127       -4.896864   0.999994
  128       -4.877902   0.999989
  129       -4.857596   0.999980
  130       -4.848385   0.999974
  131       -4.847832   0.999973
  132       -4.845512   0.999971
  133       -4.843364   0.999969
  134       -4.840828   0.999967
  135       -4.836093   0.999962
  136       -4.822905   0.999946
  137       -4.807486   0.999917
  138       -4.798201   0.999894
  139       -4.793211   0.999880
  140       -4.789436   0.999868
  141       -4.781819   0.999839
  142       -4.770345   0.999787
  143       -4.757080   0.999708
  144       -4.748729   0.999647
  145       -4.744377   0.999610
  146       -4.742677   0.999595
  147       -4.734550   0.999516
  148       -4.725406   0.999412
  149       -4.723195   0.999384
  150       -4.707342   0.999152
  151       -4.692851   0.998883
  152       -4.692293   0.998871
  153       -4.686541   0.998747
  154       -4.682379   0.998651
  155       -4.677752   0.998538
  156       -4.676666   0.998511
  157       -4.676321   0.998502
  158       -4.676061   0.998495
  159       -4.672746   0.998409
  160       -4.664350   0.998175
  161       -4.658162   0.997989
  162       -4.653954   0.997856
  163       -4.652084   0.997796
  164       -4.651800   0.997787
  165       -4.650761   0.997753
  166       -4.648746   0.997686
  167       -4.646778   0.997620
  168       -4.638862   0.997344
  169       -4.637844   0.997308
  170       -4.632118   0.997100
  171       -4.620312   0.996659
  172       -4.611345   0.996323
  173       -4.607900   0.996196
  174       -4.602342   0.995995
  175       -4.600078   0.995916
  176       -4.598822   0.995873
  177       -4.596582   0.995797
  178       -4.593164   0.995685
  179       -4.591774   0.995642
  180       -4.587588   0.995516
  181       -4.580887   0.995339
  182       -4.576857   0.995249
  183       -4.571042   0.995147
  184       -4.562504   0.995069
  185       -4.561913   0.995067
  186       -4.558195   0.995068
  187       -4.555274   0.995084
  188       -4.553751   0.995098
  189       -4.552995   0.995106
  190       -4.550973   0.995134
  191       -4.533527   0.995731
  192       -4.527587   0.996106
  193       -4.516616   0.997075
  194       -4.512892   0.997494
  195       -4.510529   0.997785
  196       -4.504767   0.998582
  197       -4.498037   0.999675
  198       -4.496722   0.999910
  199       -4.483936   1.002579
  200       -4.481134   1.003260
  201       -4.477338   1.004239
  202       -4.469407   1.006496
  203       -4.467504   1.007081
  204       -4.464059   1.008181
  205       -4.458406   1.010102
  206       -4.454640   1.011459
  207       -4.452979   1.012078
  208       -4.449904   1.013252
  209       -4.447757   1.014095
  210       -4.444970   1.015217
  211       -4.428182   1.022541
  212       -4.427459   1.022875
  213       -4.422929   1.024990
  214       -4.414759   1.028886
  215       -4.413896   1.029301
  216       -4.411496   1.030456
  217       -4.411190   1.030604
  218       -4.410177   1.031092
  219       -4.408826   1.031742
  220       -4.382938   1.043473
  221       -4.374709   1.046532
  222       -4.371404   1.047608
  223       -4.369279   1.048246
  224       -4.358657   1.050694
  225       -4.351149   1.051532
  226       -4.346784   1.051616
  227       -4.342846   1.051408
  228       -4.341798   1.051304
  229       -4.340267   1.051115
  230       -4.338312   1.050806
  231       -4.338132   1.050774
  232       -4.336709   1.050495
  233       -4.334401   1.049953
  234       -4.332047   1.049280
  235       -4.329788   1.048518
  236       -4.327396   1.047581
  237       -4.326934   1.047385
  238       -4.325158   1.046581
  239       -4.321702   1.044789
  240       -4.321115   1.044454
  241       -4.311926   1.037993
  242       -4.308268   1.034750
  243       -4.301556   1.027736
  244       -4.294610   1.018949
  245       -4.293898   1.017956
  246       -4.292440   1.015871
  247       -4.288841   1.010408
  248       -4.285973   1.005727
  249       -4.285777   1.005397
  250       -4.275673   0.986453
  251       -4.270393   0.975035
  252       -4.265546   0.963619
  253       -4.264037   0.959880
  254       -4.261614   0.953693
  255       -4.258911   0.946520
  256       -4.254635   0.934594
  257       -4.254115   0.933098
  258       -4.253015   0.929893
  259       -4.249602   0.919652
  260       -4.248981   0.917740
  261       -4.247433   0.912912
  262       -4.244611   0.903873
  263       -4.243055   0.898757
  264       -4.242104   0.895586
  265       -4.240343   0.889626
  266       -4.232278   0.860849
  267       -4.229047   0.848655
  268       -4.227264   0.841769
  269       -4.225204   0.833677
  270       -4.224068   0.829152
  271       -4.220758   0.815713
  272       -4.216679   0.798660
  273       -4.205782   0.750594
  274       -4.198001   0.714251
  275       -4.188198   0.666433
  276       -4.187226   0.661586
  277       -4.182440   0.637473
  278       -4.181246   0.631396
  279       -4.180112   0.625609
  280       -4.174950   0.599033
  281       -4.165196   0.548049
  282       -4.162696   0.534875
  283       -4.140920   0.420084
  284       -4.133728   0.382827
  285       -4.133203   0.380133
  286       -4.132073   0.374346
  287       -4.130969   0.368710
  288       -4.121101   0.319232
  289       -4.115185   0.290491
  290       -3.963709  -0.051621
  291       -3.862287  -0.013251
  292       -3.833044  -0.003763
  293       -3.819169  -0.000609
  294       -3.761287   0.004865
  295       -3.507501   0.000089
  296       -3.490925   0.000057
  297       -3.407363   0.000005
  298       -3.064543   0.000000
  299       -3.062210   0.000000
  300       -3.052207   0.000000
  301       -3.032147   0.000000
  302       -3.019810   0.000000
  303       -2.942257   0.000000
  304       -2.939743   0.000000
  305       -2.869966   0.000000
  306       -2.528340   0.000000
  307       -2.522419   0.000000
  308       -2.493509   0.000000
  309       -2.335138   0.000000
  310       -2.120304   0.000000
  311       -2.117416   0.000000
  312       -2.062838   0.000000
  313       -2.016309   0.000000
  314       -1.951693   0.000000
  315       -1.931623   0.000000
  316       -1.872862   0.000000
  317       -1.784452   0.000000
  318       -1.728749   0.000000
  319       -1.663951   0.000000
  320       -1.654096   0.000000
  321       -1.641640   0.000000
  322       -1.558192   0.000000
  323       -1.539574   0.000000
  324       -1.392331   0.000000
  325       -1.242980   0.000000
  326       -1.205510   0.000000
  327       -1.182637   0.000000
  328       -1.035889   0.000000
  329       -0.995054   0.000000
  330       -0.972933   0.000000
  331       -0.966017   0.000000
  332       -0.935153   0.000000
  333       -0.930810   0.000000
  334       -0.918516   0.000000
  335       -0.848936   0.000000
  336       -0.630347   0.000000
