       N       E                     dE             d eps       ncg     rms          rms(c)
DAV:   1     0.438963580605E+04    0.43896E+04   -0.10049E+05   688   0.815E+02
DAV:   2     0.201200722310E+04   -0.23776E+04   -0.21405E+04  1224   0.106E+02
DAV:   3     0.228761585433E+03   -0.17832E+04   -0.16771E+04  1008   0.919E+01
DAV:   4    -0.134222731494E+03   -0.36298E+03   -0.30675E+03   824   0.432E+01
DAV:   5    -0.179726266601E+03   -0.45504E+02   -0.37391E+02  1056   0.145E+01    0.154E+01
RMM:   6    -0.180698913442E+03   -0.97265E+00   -0.63131E+01   724   0.932E+00    0.223E+01
RMM:   7    -0.183571488170E+03   -0.28726E+01   -0.19259E+01   846   0.473E+00    0.251E+01
RMM:   8    -0.183287563486E+03    0.28392E+00   -0.71392E+00   794   0.346E+00    0.242E+01
RMM:   9    -0.181402953439E+03    0.18846E+01   -0.54742E+00   726   0.332E+00    0.230E+01
RMM:  10    -0.179838813773E+03    0.15641E+01   -0.31091E+00   740   0.252E+00    0.229E+01
RMM:  11    -0.178326194187E+03    0.15126E+01   -0.21533E+00   727   0.215E+00    0.180E+01
RMM:  12    -0.177521835209E+03    0.80436E+00   -0.21264E+00   722   0.212E+00    0.181E+01
RMM:  13    -0.177397458944E+03    0.12438E+00   -0.11678E+00   726   0.156E+00    0.157E+01
RMM:  14    -0.177635172055E+03   -0.23771E+00   -0.16010E+00   712   0.188E+00    0.276E+01
RMM:  15    -0.176619150651E+03    0.10160E+01   -0.11295E+00   717   0.152E+00    0.124E+01
RMM:  16    -0.175911192731E+03    0.70796E+00   -0.90179E-01   702   0.144E+00    0.108E+01
RMM:  17    -0.175789398883E+03    0.12179E+00   -0.52799E-01   704   0.108E+00    0.973E+00
RMM:  18    -0.176020945218E+03   -0.23155E+00   -0.53477E-01   702   0.108E+00    0.120E+01
RMM:  19    -0.175864613446E+03    0.15633E+00   -0.44583E-01   707   0.101E+00    0.996E+00
RMM:  20    -0.175885325597E+03   -0.20712E-01   -0.28944E-01   709   0.827E-01    0.116E+01
RMM:  21    -0.175633033465E+03    0.25229E+00   -0.21377E-01   711   0.729E-01    0.106E+01
RMM:  22    -0.175338653797E+03    0.29438E+00   -0.20737E-01   694   0.713E-01    0.569E+00
RMM:  23    -0.175295886749E+03    0.42767E-01   -0.16172E-01   695   0.616E-01    0.624E+00
RMM:  24    -0.175223181428E+03    0.72705E-01   -0.12075E-01   703   0.537E-01    0.535E+00
RMM:  25    -0.175182758880E+03    0.40423E-01   -0.89317E-02   699   0.466E-01    0.454E+00
RMM:  26    -0.175118194545E+03    0.64564E-01   -0.68034E-02   698   0.408E-01    0.330E+00
RMM:  27    -0.175093466867E+03    0.24728E-01   -0.39200E-02   696   0.314E-01    0.265E+00
RMM:  28    -0.175079717303E+03    0.13750E-01   -0.28712E-02   698   0.264E-01    0.242E+00
RMM:  29    -0.175056319042E+03    0.23398E-01   -0.17319E-02   697   0.217E-01    0.167E+00
RMM:  30    -0.175053217734E+03    0.31013E-02   -0.12132E-02   696   0.180E-01    0.178E+00
RMM:  31    -0.175045537811E+03    0.76799E-02   -0.86709E-03   697   0.147E-01    0.149E+00
RMM:  32    -0.175037386534E+03    0.81513E-02   -0.56327E-03   699   0.124E-01    0.106E+00
RMM:  33    -0.175037258115E+03    0.12842E-03   -0.44037E-03   695   0.108E-01    0.104E+00
RMM:  34    -0.175036891211E+03    0.36690E-03   -0.48148E-03   693   0.109E-01    0.947E-01
RMM:  35    -0.175034959042E+03    0.19322E-02   -0.30408E-03   689   0.914E-02    0.637E-01
RMM:  36    -0.175034429965E+03    0.52908E-03   -0.15542E-03   691   0.650E-02    0.408E-01
RMM:  37    -0.175035437740E+03   -0.10078E-02   -0.10468E-03   689   0.525E-02    0.386E-01
RMM:  38    -0.175037163943E+03   -0.17262E-02   -0.84706E-04   689   0.476E-02    0.325E-01
RMM:  39    -0.175038755721E+03   -0.15918E-02   -0.68598E-04   676   0.424E-02    0.242E-01
RMM:  40    -0.175041290257E+03   -0.25345E-02   -0.58424E-04   598   0.370E-02    0.241E-01
RMM:  41    -0.175044233190E+03   -0.29429E-02   -0.55979E-04   582   0.351E-02    0.206E-01
RMM:  42    -0.175045556249E+03   -0.13231E-02   -0.24574E-04   416   0.254E-02    0.176E-01
RMM:  43    -0.175049381383E+03   -0.38251E-02   -0.57915E-04   560   0.322E-02    0.173E-01
RMM:  44    -0.175051323343E+03   -0.19420E-02   -0.35143E-04   462   0.257E-02    0.134E-01
RMM:  45    -0.175053364707E+03   -0.20414E-02   -0.32147E-04   453   0.224E-02    0.135E-01
RMM:  46    -0.175055012325E+03   -0.16476E-02   -0.29432E-04   448   0.210E-02    0.742E-02
RMM:  47    -0.175055886366E+03   -0.87404E-03   -0.14480E-04   418   0.152E-02    0.798E-02
RMM:  48    -0.175057328368E+03   -0.14420E-02   -0.15230E-04   416   0.145E-02    0.559E-02
RMM:  49    -0.175057789974E+03   -0.46161E-03   -0.64745E-05   410   0.948E-03    0.506E-02
RMM:  50    -0.175058712264E+03   -0.92229E-03   -0.50728E-05   410   0.837E-03    0.461E-02
RMM:  51    -0.175058967533E+03   -0.25527E-03   -0.30191E-05   393   0.715E-03    0.422E-02
RMM:  52    -0.175059744148E+03   -0.77661E-03   -0.28499E-05   398   0.678E-03    0.384E-02
RMM:  53    -0.175060159727E+03   -0.41558E-03   -0.15710E-05   293   0.521E-03    0.268E-02
RMM:  54    -0.175060579147E+03   -0.41942E-03   -0.11445E-05   258   0.475E-03    0.178E-02
RMM:  55    -0.175060783511E+03   -0.20436E-03   -0.54533E-06   189   0.414E-03    0.136E-02
RMM:  56    -0.175061242367E+03   -0.45886E-03   -0.15174E-05   279   0.466E-03    0.142E-02
RMM:  57    -0.175061385599E+03   -0.14323E-03   -0.15327E-06   114   0.339E-03    0.787E-03
RMM:  58    -0.175061608995E+03   -0.22340E-03   -0.84822E-06   190   0.405E-03    0.120E-02
RMM:  59    -0.175061827346E+03   -0.21835E-03   -0.11934E-05   212   0.417E-03    0.646E-03
RMM:  60    -0.175061949242E+03   -0.12190E-03   -0.70235E-06   161   0.371E-03    0.747E-03
RMM:  61    -0.175062044424E+03   -0.95183E-04   -0.31116E-06   125   0.350E-03
   1 F= -.17506204E+03 E0= -.17503149E+03  d E =-.122216E+00
