 vasp.5.4.4.18Apr17-6-g9f103f2a35 (build Sep 03 2018 23:53:05) complex          
  
 executed on             LinuxIFC date 2021.12.03  07:01:06
 running on    1 total cores
 distrk:  each k-point on    1 cores,    1 groups
 distr:  one band on NCORES_PER_BAND=   1 cores,    1 groups


--------------------------------------------------------------------------------------------------------


 INCAR:
 POTCAR:    PAW_PBE Pd 04Jan2005                  
 POTCAR:    PAW_PBE C 08Apr2002                   
 POTCAR:    PAW_PBE O 08Apr2002                   
 POTCAR:    PAW_PBE Pd 04Jan2005                  
   VRHFIN =Pd : s1 d9                                                           
   LEXCH  = PE                                                                  
   EATOM  =   809.7530 eV,   59.5152 Ry                                         
                                                                                
   TITEL  = PAW_PBE Pd 04Jan2005                                                
   LULTRA =        F    use ultrasoft PP ?                                      
   IUNSCR =        1    unscreen: 0-lin 1-nonlin 2-no                           
   RPACOR =    2.000    partial core radius                                     
   POMASS =  106.420; ZVAL   =   10.000    mass and valenz                      
   RCORE  =    2.600    outmost cutoff radius                                   
   RWIGS  =    2.710; RWIGS  =    1.434    wigner-seitz radius (au A)           
   ENMAX  =  250.925; ENMIN  =  188.194 eV                                      
   ICORE  =        3    local potential                                         
   LCOR   =        T    correct aug charges                                     
   LPAW   =        T    paw PP                                                  
   EAUG   =  416.230                                                            
   DEXC   =    0.000                                                            
   RMAX   =    2.653    core radius for proj-oper                               
   RAUG   =    1.300    factor for augmentation sphere                          
   RDEP   =    2.734    radius for radial grids                                 
   RDEPT  =    2.103    core radius for aug-charge                              
                                                                                
   Atomic configuration                                                         
   12 entries                                                                   
     n  l   j            E        occ.                                          
     1  0  0.50    -24164.6631   2.0000                                         
     2  0  0.50     -3530.9218   2.0000                                         
     2  1  1.50     -3165.6822   6.0000                                         
     3  0  0.50      -639.4577   2.0000                                         
     3  1  1.50      -519.4532   6.0000                                         
     3  2  2.50      -328.9757  10.0000                                         
     4  0  0.50       -88.7014   2.0000                                         
     4  1  1.50       -54.4540   6.0000                                         
     4  2  2.50        -6.6878   9.0000                                         
     5  0  0.50        -4.3543   1.0000                                         
     5  1  0.50        -1.3606   0.0000                                         
     4  3  2.50        -1.3606   0.0000                                         
   Description                                                                  
     l       E           TYP  RCUT    TYP  RCUT                                 
     2     -6.6878251     23  2.400                                             
     2     -8.0484077     23  2.400                                             
     0     -4.3542939     23  2.400                                             
     0      4.3406793     23  2.400                                             
     1     -4.0817478     23  2.600                                             
     1     15.8380318     23  2.600                                             
     3     -4.0817478     23  2.400                                             
  local pseudopotential read in
  partial core-charges read in
  partial kinetic energy density read in
  atomic valenz-charges read in
  non local Contribution for L=           2  read in
    real space projection operators read in
  non local Contribution for L=           2  read in
    real space projection operators read in
  non local Contribution for L=           0  read in
    real space projection operators read in
  non local Contribution for L=           0  read in
    real space projection operators read in
  non local Contribution for L=           1  read in
    real space projection operators read in
  non local Contribution for L=           1  read in
    real space projection operators read in
    PAW grid and wavefunctions read in
 
   number of l-projection  operators is LMAX  =           6
   number of lm-projection operators is LMMAX =          18
 
 POTCAR:    PAW_PBE C 08Apr2002                   
   VRHFIN =C: s2p2                                                              
   LEXCH  = PE                                                                  
   EATOM  =   147.1560 eV,   10.8157 Ry                                         
                                                                                
   TITEL  = PAW_PBE C 08Apr2002                                                 
   LULTRA =        F    use ultrasoft PP ?                                      
   IUNSCR =        1    unscreen: 0-lin 1-nonlin 2-no                           
   RPACOR =    1.200    partial core radius                                     
   POMASS =   12.011; ZVAL   =    4.000    mass and valenz                      
   RCORE  =    1.500    outmost cutoff radius                                   
   RWIGS  =    1.630; RWIGS  =    0.863    wigner-seitz radius (au A)           
   ENMAX  =  400.000; ENMIN  =  300.000 eV                                      
   ICORE  =        2    local potential                                         
   LCOR   =        T    correct aug charges                                     
   LPAW   =        T    paw PP                                                  
   EAUG   =  644.873                                                            
   DEXC   =    0.000                                                            
   RMAX   =    1.529    core radius for proj-oper                               
   RAUG   =    1.300    factor for augmentation sphere                          
   RDEP   =    1.501    radius for radial grids                                 
   RDEPT  =    1.300    core radius for aug-charge                              
                                                                                
   Atomic configuration                                                         
    4 entries                                                                   
     n  l   j            E        occ.                                          
     1  0  0.50      -273.3789   2.0000                                         
     2  0  0.50       -13.7508   2.0000                                         
     2  1  0.50        -5.2854   2.0000                                         
     3  2  1.50        -5.4423   0.0000                                         
   Description                                                                  
     l       E           TYP  RCUT    TYP  RCUT                                 
     0    -13.7508458     23  1.200                                             
     0     -8.2022199     23  1.200                                             
     1     -5.2854383     23  1.500                                             
     1     34.0145650     23  1.500                                             
     2     -5.4423304      7  1.500                                             
  local pseudopotential read in
  partial core-charges read in
  partial kinetic energy density read in
  atomic valenz-charges read in
  non local Contribution for L=           0  read in
    real space projection operators read in
  non local Contribution for L=           0  read in
    real space projection operators read in
  non local Contribution for L=           1  read in
    real space projection operators read in
  non local Contribution for L=           1  read in
    real space projection operators read in
    PAW grid and wavefunctions read in
 
   number of l-projection  operators is LMAX  =           4
   number of lm-projection operators is LMMAX =           8
 
 POTCAR:    PAW_PBE O 08Apr2002                   
   VRHFIN =O: s2p4                                                              
   LEXCH  = PE                                                                  
   EATOM  =   432.3788 eV,   31.7789 Ry                                         
                                                                                
   TITEL  = PAW_PBE O 08Apr2002                                                 
   LULTRA =        F    use ultrasoft PP ?                                      
   IUNSCR =        1    unscreen: 0-lin 1-nonlin 2-no                           
   RPACOR =    1.200    partial core radius                                     
   POMASS =   16.000; ZVAL   =    6.000    mass and valenz                      
   RCORE  =    1.520    outmost cutoff radius                                   
   RWIGS  =    1.550; RWIGS  =    0.820    wigner-seitz radius (au A)           
   ENMAX  =  400.000; ENMIN  =  300.000 eV                                      
   ICORE  =        2    local potential                                         
   LCOR   =        T    correct aug charges                                     
   LPAW   =        T    paw PP                                                  
   EAUG   =  605.392                                                            
   DEXC   =    0.000                                                            
   RMAX   =    1.553    core radius for proj-oper                               
   RAUG   =    1.300    factor for augmentation sphere                          
   RDEP   =    1.550    radius for radial grids                                 
   RDEPT  =    1.329    core radius for aug-charge                              
                                                                                
   Atomic configuration                                                         
    4 entries                                                                   
     n  l   j            E        occ.                                          
     1  0  0.50      -514.6923   2.0000                                         
     2  0  0.50       -23.9615   2.0000                                         
     2  1  0.50        -9.0305   4.0000                                         
     3  2  1.50        -9.5241   0.0000                                         
   Description                                                                  
     l       E           TYP  RCUT    TYP  RCUT                                 
     0    -23.9615318     23  1.200                                             
     0     -9.5240782     23  1.200                                             
     1     -9.0304911     23  1.520                                             
     1      8.1634956     23  1.520                                             
     2     -9.5240782      7  1.500                                             
  local pseudopotential read in
  partial core-charges read in
  partial kinetic energy density read in
  kinetic energy density of atom read in
  atomic valenz-charges read in
  non local Contribution for L=           0  read in
    real space projection operators read in
  non local Contribution for L=           0  read in
    real space projection operators read in
  non local Contribution for L=           1  read in
    real space projection operators read in
  non local Contribution for L=           1  read in
    real space projection operators read in
    PAW grid and wavefunctions read in
 
   number of l-projection  operators is LMAX  =           4
   number of lm-projection operators is LMMAX =           8
 
 Optimization of the real space projectors (new method)

 maximal supplied QI-value         = 14.36
 optimisation between [QCUT,QGAM] = [ 10.20, 20.39] = [ 29.12,116.47] Ry 
 Optimized for a Real-space Cutoff    1.51 Angstroem

   l    n(q)    QCUT    max X(q) W(low)/X(q) W(high)/X(q)  e(spline) 
   2      8    10.197    59.108    0.26E-03    0.14E-03    0.96E-07
   2      8    10.197    58.101    0.27E-03    0.14E-03    0.98E-07
   0      9    10.197   102.235    0.54E-04    0.60E-05    0.72E-07
   0      9    10.197    58.388    0.52E-04    0.60E-05    0.68E-07
   1      9    10.197    22.191    0.18E-03    0.25E-03    0.79E-07
   1      9    10.197    15.590    0.15E-03    0.21E-03    0.69E-07
 Optimization of the real space projectors (new method)

 maximal supplied QI-value         = 25.13
 optimisation between [QCUT,QGAM] = [ 10.05, 20.36] = [ 28.30,116.06] Ry 
 Optimized for a Real-space Cutoff    1.30 Angstroem

   l    n(q)    QCUT    max X(q) W(low)/X(q) W(high)/X(q)  e(spline) 
   0      8    10.053   115.676    0.49E-03    0.72E-03    0.18E-06
   0      8    10.053    87.132    0.49E-03    0.71E-03    0.18E-06
   1      7    10.053     4.429    0.32E-03    0.31E-03    0.18E-06
   1      7    10.053     2.733    0.23E-03    0.19E-03    0.20E-06
 Optimization of the real space projectors (new method)

 maximal supplied QI-value         = 24.76
 optimisation between [QCUT,QGAM] = [ 10.15, 20.30] = [ 28.85,115.39] Ry 
 Optimized for a Real-space Cutoff    1.38 Angstroem

   l    n(q)    QCUT    max X(q) W(low)/X(q) W(high)/X(q)  e(spline) 
   0      8    10.150    20.381    0.22E-03    0.32E-03    0.29E-06
   0      8    10.150    15.268    0.23E-03    0.35E-03    0.30E-06
   1      8    10.150     5.964    0.46E-03    0.53E-03    0.21E-06
   1      8    10.150     5.382    0.38E-03    0.45E-03    0.19E-06

 ----------------------------------------------------------------------------- 
|                                                                             |
|  ADVICE TO THIS USER RUNNING 'VASP/VAMP'   (HEAR YOUR MASTER'S VOICE ...):  |
|                                                                             |
|      You enforced a specific xc-type in the INCAR file,                     |
|      a different type was found on the POTCAR file                          |
|          I HOPE YOU KNOW, WHAT YOU ARE  DOING                               |
|                                                                             |
 ----------------------------------------------------------------------------- 

  PAW_PBE Pd 04Jan2005                  :
 energy of atom  1       EATOM= -809.7530
 kinetic energy error for atom=    0.0091 (will be added to EATOM!!)
  PAW_PBE C 08Apr2002                   :
 energy of atom  2       EATOM= -147.1560
 kinetic energy error for atom=    0.0288 (will be added to EATOM!!)
  PAW_PBE O 08Apr2002                   :
 energy of atom  3       EATOM= -432.3788
 kinetic energy error for atom=    0.1156 (will be added to EATOM!!)
 
 
 POSCAR: Pd55PES                                 
  positions in cartesian coordinates
  No initial velocities read in
 exchange correlation table for  LEXCH =        9
   RHO(1)=    0.500       N(1)  =     2000
   RHO(2)=  100.500       N(2)  =     4000
 


--------------------------------------------------------------------------------------------------------


 ion  position               nearest neighbor table
   1  0.446  0.328  0.417-   3 3.25   5 3.25   7 3.36  15 3.36  29 3.42  28 3.42
   2  0.672  0.554  0.417-  26 3.25  30 3.25  17 3.36   9 3.36  47 3.42  49 3.42
   3  0.554  0.328  0.417-   1 3.25   5 3.25   7 3.36  11 3.36  29 3.42  21 3.42
   4  0.328  0.554  0.417-  56 1.99  32 3.25  22 3.25  13 3.36   8 3.36  43 3.42  48 3.42
   5  0.500  0.383  0.340-   1 3.25   3 3.25  11 3.36  15 3.36  21 3.42  28 3.42
   6  0.500  0.383  0.660-  24 3.25  19 3.25  16 3.36  12 3.36  42 3.42  44 3.42
   7  0.500  0.276  0.500-  29 3.24   3 3.36   1 3.36  19 3.36  24 3.36
   8  0.276  0.500  0.500-  48 3.24  22 3.36  40 3.36   4 3.36  25 3.36
   9  0.724  0.500  0.500-  49 3.24  26 3.36  45 3.36   2 3.36  20 3.36
  10  0.500  0.724  0.500-  55 3.24  27 3.36  23 3.36  46 3.36  41 3.36
  11  0.612  0.388  0.342-  21 3.24   5 3.36   3 3.36  30 3.36  26 3.36
  12  0.612  0.388  0.658-  42 3.24  24 3.36  45 3.36   6 3.36  31 3.36
  13  0.388  0.612  0.342-  43 3.24  32 3.36  50 3.36   4 3.36  27 3.36
  14  0.388  0.612  0.658-  53 3.24  25 3.36  33 3.36  51 3.36  46 3.36
  15  0.388  0.388  0.342-  28 3.24   5 3.36   1 3.36  32 3.36  22 3.36
  16  0.388  0.388  0.658-  44 3.24  19 3.36  40 3.36   6 3.36  33 3.36
  17  0.612  0.612  0.342-  47 3.24  30 3.36  50 3.36   2 3.36  23 3.36
  18  0.612  0.612  0.658-  54 3.24  31 3.36  20 3.36  51 3.36  41 3.36
  19  0.446  0.328  0.583-   6 3.25  24 3.25  16 3.36   7 3.36  44 3.42  29 3.42
  20  0.672  0.554  0.583-  31 3.25  45 3.25  18 3.36   9 3.36  54 3.42  49 3.42
  21  0.558  0.442  0.418-  11 3.24   5 3.42   3 3.42  30 3.42  26 3.42
  22  0.328  0.446  0.417-   4 3.25  32 3.25   8 3.36  15 3.36  48 3.42  28 3.42
  23  0.554  0.672  0.417-  27 3.25  50 3.25  10 3.36  17 3.36  55 3.42  47 3.42
  24  0.554  0.328  0.583-   6 3.25  19 3.25  12 3.36   7 3.36  42 3.42  29 3.42
  25  0.328  0.554  0.583-  33 3.25  40 3.25  14 3.36   8 3.36  53 3.42  48 3.42
  26  0.672  0.446  0.417-   2 3.25  30 3.25   9 3.36  11 3.36  49 3.42  21 3.42
  27  0.446  0.672  0.417-  23 3.25  50 3.25  10 3.36  13 3.36  55 3.42  43 3.42
  28  0.442  0.442  0.418-  15 3.24   5 3.42   1 3.42  32 3.42  22 3.42
  29  0.500  0.384  0.500-   7 3.24   3 3.42   1 3.42  24 3.42  19 3.42
  30  0.617  0.500  0.340-   2 3.25  26 3.25  17 3.36  11 3.36  47 3.42  21 3.42
  31  0.617  0.500  0.660-  20 3.25  45 3.25  18 3.36  12 3.36  54 3.42  42 3.42
  32  0.383  0.500  0.340-   4 3.25  22 3.25  13 3.36  15 3.36  43 3.42  28 3.42
  33  0.383  0.500  0.660-  25 3.25  40 3.25  14 3.36  16 3.36  53 3.42  44 3.42
  34  0.383  0.383  0.500-
  35  0.617  0.617  0.500-
  36  0.617  0.383  0.500-
  37  0.383  0.617  0.500-
  38  0.500  0.500  0.335-
  39  0.500  0.500  0.665-
  40  0.328  0.446  0.583-  33 3.25  25 3.25  16 3.36   8 3.36  44 3.42  48 3.42
  41  0.554  0.672  0.583-  46 3.25  51 3.25  10 3.36  18 3.36  54 3.42  55 3.42
  42  0.558  0.442  0.582-  12 3.24   6 3.42  24 3.42  31 3.42  45 3.42
  43  0.442  0.558  0.418-  13 3.24   4 3.42  32 3.42  27 3.42  50 3.42
  44  0.442  0.442  0.582-  16 3.24   6 3.42  19 3.42  33 3.42  40 3.42
  45  0.672  0.446  0.583-  20 3.25  31 3.25   9 3.36  12 3.36  49 3.42  42 3.42
  46  0.446  0.672  0.583-  41 3.25  51 3.25  10 3.36  14 3.36  53 3.42  55 3.42
  47  0.558  0.558  0.418-  17 3.24   2 3.42  30 3.42  23 3.42  50 3.42
  48  0.384  0.500  0.500-   8 3.24   4 3.42  22 3.42  25 3.42  40 3.42
  49  0.616  0.500  0.500-   9 3.24   2 3.42  26 3.42  20 3.42  45 3.42
  50  0.500  0.617  0.340-  27 3.25  23 3.25  13 3.36  17 3.36  43 3.42  47 3.42
  51  0.500  0.617  0.660-  41 3.25  46 3.25  14 3.36  18 3.36  53 3.42  54 3.42
  52  0.500  0.500  0.500-
  53  0.442  0.558  0.582-  14 3.24  25 3.42  33 3.42  51 3.42  46 3.42
  54  0.558  0.558  0.582-  18 3.24  31 3.42  20 3.42  51 3.42  41 3.42
  55  0.500  0.616  0.500-  10 3.24  23 3.42  27 3.42  41 3.42  46 3.42
  56  0.269  0.556  0.388-  57 1.13   4 1.99
  57  0.236  0.564  0.371-  56 1.13
 
  LATTYP: Found a simple cubic cell.
 ALAT       =    30.0000000000
  
  Lattice vectors:
  
 A1 = (  30.0000000000,   0.0000000000,   0.0000000000)
 A2 = (   0.0000000000,  30.0000000000,   0.0000000000)
 A3 = (   0.0000000000,   0.0000000000,  30.0000000000)


Analysis of symmetry for initial positions (statically):
=====================================================================
 Subroutine PRICEL returns:
 Original cell was already a primitive cell.
 

 Routine SETGRP: Setting up the symmetry group for a 
 simple cubic supercell.


 Subroutine GETGRP returns: Found  1 space group operations
 (whereof  1 operations were pure point group operations)
 out of a pool of 48 trial point group operations.


The static configuration has the point symmetry C_1 .


Analysis of symmetry for dynamics (positions and initial velocities):
=====================================================================
 Subroutine PRICEL returns:
 Original cell was already a primitive cell.
 

 Routine SETGRP: Setting up the symmetry group for a 
 simple cubic supercell.


 Subroutine GETGRP returns: Found  1 space group operations
 (whereof  1 operations were pure point group operations)
 out of a pool of 48 trial point group operations.


The dynamic configuration has the point symmetry C_1 .


Analysis of constrained symmetry for selective dynamics:
=====================================================================
 Subroutine PRICEL returns:
 Original cell was already a primitive cell.
 

 Routine SETGRP: Setting up the symmetry group for a 
 simple cubic supercell.


 Subroutine GETGRP returns: Found  1 space group operations
 (whereof  1 operations were pure point group operations)
 out of a pool of 48 trial point group operations.


The constrained configuration has the point symmetry C_1 .


 Subroutine INISYM returns: Found  1 space group operations
 (whereof  1 operations are pure point group operations),
 and found     1 'primitive' translations

 
 
 KPOINTS: K-points                                

Automatic generation of k-mesh.
Space group operators:
 irot       det(A)        alpha          n_x          n_y          n_z        tau_x        tau_y        tau_z
    1     1.000000     0.000000     1.000000     0.000000     0.000000     0.000000     0.000000     0.000000
 
 Subroutine IBZKPT returns following result:
 ===========================================
 
 Found      1 irreducible k-points:
 
 Following reciprocal coordinates:
            Coordinates               Weight
  0.000000  0.000000  0.000000      1.000000
 
 Following cartesian coordinates:
            Coordinates               Weight
  0.000000  0.000000  0.000000      1.000000
 


--------------------------------------------------------------------------------------------------------




 Dimension of arrays:
   k-points           NKPTS =      1   k-points in BZ     NKDIM =      1   number of bands    NBANDS=    336
   number of dos      NEDOS =    301   number of ions     NIONS =     57
   non local maximal  LDIM  =      6   non local SUM 2l+1 LMDIM =     18
   total plane-waves  NPLWV = ******
   max r-space proj   IRMAX =   1847   max aug-charges    IRDMAX=   6262
   dimension x,y,z NGX =   150 NGY =  150 NGZ =  150
   dimension x,y,z NGXF=   300 NGYF=  300 NGZF=  300
   support grid    NGXF=   300 NGYF=  300 NGZF=  300
   ions per type =              55   1   1
   NGX,Y,Z   is equivalent  to a cutoff of   8.31,  8.31,  8.31 a.u.
   NGXF,Y,Z  is equivalent  to a cutoff of  16.62, 16.62, 16.62 a.u.

 SYSTEM =  6_Pd100_top_free_z(O)                   
 POSCAR =  Pd55PES                                 

 Startparameter for this run:
   NWRITE =      2    write-flag & timer
   PREC   = normal    normal or accurate (medium, high low for compatibility)
   ISTART =      0    job   : 0-new  1-cont  2-samecut
   ICHARG =      2    charge: 1-file 2-atom 10-const
   ISPIN  =      1    spin polarized calculation?
   LNONCOLLINEAR =      F non collinear calculations
   LSORBIT =      F    spin-orbit coupling
   INIWAV =      1    electr: 0-lowe 1-rand  2-diag
   LASPH  =      F    aspherical Exc in radial PAW
   METAGGA=      F    non-selfconsistent MetaGGA calc.

 Electronic Relaxation 1
   ENCUT  =  400.0 eV  29.40 Ry    5.42 a.u.  48.92 48.92 48.92*2*pi/ulx,y,z
   ENINI  =  400.0     initial cutoff
   ENAUG  =  644.9 eV  augmentation charge cutoff
   NELM   =    100;   NELMIN=  6; NELMDL= -5     # of ELM steps 
   EDIFF  = 0.1E-03   stopping-criterion for ELM
   LREAL  =      T    real-space projection
   NLSPLINE    = F    spline interpolate recip. space projectors
   LCOMPAT=      F    compatible to vasp.4.4
   GGA_COMPAT  = T    GGA compatible to vasp.4.4-vasp.4.6
   LMAXPAW     = -100 max onsite density
   LMAXMIX     =    2 max onsite mixed and CHGCAR
   VOSKOWN=      0    Vosko Wilk Nusair interpolation
   ROPT   =   -0.00050  -0.00050  -0.00050
 Ionic relaxation
   EDIFFG = -.5E-01   stopping-criterion for IOM
   NSW    =      0    number of steps for IOM
   NBLOCK =      1;   KBLOCK =      1    inner block; outer block 
   IBRION =     -1    ionic relax: 0-MD 1-quasi-New 2-CG
   NFREE  =      1    steps in history (QN), initial steepest desc. (CG)
   ISIF   =      2    stress and relaxation
   IWAVPR =     10    prediction:  0-non 1-charg 2-wave 3-comb
   ISYM   =      2    0-nonsym 1-usesym 2-fastsym
   LCORR  =      T    Harris-Foulkes like correction to forces

   POTIM  = 0.5000    time-step for ionic-motion
   TEIN   =    0.0    initial temperature
   TEBEG  =    0.0;   TEEND  =   0.0 temperature during run
   SMASS  =  -3.00    Nose mass-parameter (am)
   estimated Nose-frequenzy (Omega)   =  0.10E-29 period in steps =****** mass=  -0.206E-25a.u.
   SCALEE = 1.0000    scale energy and forces
   NPACO  =    256;   APACO  = 16.0  distance and # of slots for P.C.
   PSTRESS=    0.0 pullay stress

  Mass of Ions in am
   POMASS = 106.42 12.01 16.00
  Ionic Valenz
   ZVAL   =  10.00  4.00  6.00
  Atomic Wigner-Seitz radii
   RWIGS  =  -1.00 -1.00 -1.00
  virtual crystal weights 
   VCA    =   1.00  1.00  1.00
   NELECT =     560.0000    total number of electrons
   NUPDOWN=      -1.0000    fix difference up-down

 DOS related values:
   EMIN   =  10.00;   EMAX   =-10.00  energy-range for DOS
   EFERMI =   0.00
   ISMEAR =     2;   SIGMA  =   0.20  broadening in eV -4-tet -1-fermi 0-gaus

 Electronic relaxation 2 (details)
   IALGO  =     68    algorithm
   LDIAG  =      T    sub-space diagonalisation (order eigenvalues)
   LSUBROT=      F    optimize rotation matrix (better conditioning)
   TURBO    =      0    0=normal 1=particle mesh
   IRESTART =      0    0=no restart 2=restart with 2 vectors
   NREBOOT  =      0    no. of reboots
   NMIN     =      0    reboot dimension
   EREF     =   0.00    reference energy to select bands
   IMIX   =      4    mixing-type and parameters
     AMIX     =   0.40;   BMIX     =  1.00
     AMIX_MAG =   1.60;   BMIX_MAG =  1.00
     AMIN     =   0.10
     WC   =   100.;   INIMIX=   1;  MIXPRE=   1;  MAXMIX= -45

 Intra band minimization:
   WEIMIN = 0.0000     energy-eigenvalue tresh-hold
   EBREAK =  0.74E-07  absolut break condition
   DEPER  =   0.30     relativ break condition  

   TIME   =   0.40     timestep for ELM

  volume/ion in A,a.u.               =     473.68      3196.58
  Fermi-wavevector in a.u.,A,eV,Ry     =   0.449797  0.849992  2.752691  0.202317
  Thomas-Fermi vector in A             =   1.430086
 
 Write flags
   LWAVE        =      F    write WAVECAR
   LDOWNSAMPLE  =      F    k-point downsampling of WAVECAR
   LCHARG       =      F    write CHGCAR
   LVTOT        =      F    write LOCPOT, total local potential
   LVHAR        =      F    write LOCPOT, Hartree potential only
   LELF         =      F    write electronic localiz. function (ELF)
   LORBIT       =      0    0 simple, 1 ext, 2 COOP (PROOUT), +10 PAW based schemes


 Dipole corrections
   LMONO  =      F    monopole corrections only (constant potential shift)
   LDIPOL =      F    correct potential (dipole corrections)
   IDIPOL =      0    1-x, 2-y, 3-z, 4-all directions 
   EPSILON=  1.0000000 bulk dielectric constant

 Exchange correlation treatment:
   GGA     =    RP    GGA type
   LEXCH   =     9    internal setting for exchange type
   VOSKOWN=      0    Vosko Wilk Nusair interpolation
   LHFCALC =     F    Hartree Fock is set to
   LHFONE  =     F    Hartree Fock one center treatment
   AEXX    =    0.0000 exact exchange contribution

 Linear response parameters
   LEPSILON=     F    determine dielectric tensor
   LRPA    =     F    only Hartree local field effects (RPA)
   LNABLA  =     F    use nabla operator in PAW spheres
   LVEL    =     F    velocity operator in full k-point grid
   LINTERFAST=   F  fast interpolation
   KINTER  =     0    interpolate to denser k-point grid
   CSHIFT  =0.1000    complex shift for real part using Kramers Kronig
   OMEGAMAX=  -1.0    maximum frequency
   DEG_THRESHOLD= 0.2000000E-02 threshold for treating states as degnerate
   RTIME   =   -0.100 relaxation time in fs
  (WPLASMAI=    0.000 imaginary part of plasma frequency in eV, 0.658/RTIME)
   DFIELD  = 0.0000000 0.0000000 0.0000000 field for delta impulse in time
 
 Orbital magnetization related:
   ORBITALMAG=     F  switch on orbital magnetization
   LCHIMAG   =     F  perturbation theory with respect to B field
   DQ        =  0.001000  dq finite difference perturbation B field
   LLRAUG    =     F  two centre corrections for induced B field



--------------------------------------------------------------------------------------------------------


 Static calculation
 charge density and potential will be updated during run
 non-spin polarized calculation
 RMM-DIIS sequential band-by-band and
  variant of blocked Davidson during initial phase
 perform sub-space diagonalisation
    before iterative eigenvector-optimisation
 modified Broyden-mixing scheme, WC =      100.0
 initial mixing is a Kerker type mixing with AMIX =  0.4000 and BMIX =      1.0000
 Hartree-type preconditioning will be used
 using additional bands           56
 real space projection scheme for non local part
 use partial core corrections
 calculate Harris-corrections to forces 
   (improved forces if not selfconsistent)
 use gradient corrections 
 use of overlap-Matrix (Vanderbilt PP)
 Methfessel and Paxton  Order N= 2 SIGMA  =   0.20


--------------------------------------------------------------------------------------------------------


  energy-cutoff  :      400.00
  volume of cell :    27000.00
      direct lattice vectors                 reciprocal lattice vectors
    30.000000000  0.000000000  0.000000000     0.033333333  0.000000000  0.000000000
     0.000000000 30.000000000  0.000000000     0.000000000  0.033333333  0.000000000
     0.000000000  0.000000000 30.000000000     0.000000000  0.000000000  0.033333333

  length of vectors
    30.000000000 30.000000000 30.000000000     0.033333333  0.033333333  0.033333333


 
 k-points in units of 2pi/SCALE and weight: K-points                                
   0.00000000  0.00000000  0.00000000       1.000
 
 k-points in reciprocal lattice and weights: K-points                                
   0.00000000  0.00000000  0.00000000       1.000
 
 position of ions in fractional coordinates (direct lattice) 
   0.44576020  0.32826710  0.41691983
   0.67173288  0.55423978  0.41691983
   0.55423980  0.32826710  0.41691983
   0.32826712  0.55423978  0.41691983
   0.50000000  0.38250690  0.34021317
   0.50000000  0.38250690  0.65978680
   0.50000000  0.27609440  0.50000000
   0.27609443  0.49999998  0.50000000
   0.72390557  0.49999998  0.50000000
   0.50000000  0.72390555  0.50000000
   0.61195280  0.38804720  0.34167483
   0.61195280  0.38804720  0.65832513
   0.38804722  0.61195278  0.34167483
   0.38804722  0.61195278  0.65832513
   0.38804720  0.38804720  0.34167483
   0.38804720  0.38804720  0.65832513
   0.61195278  0.61195278  0.34167483
   0.61195278  0.61195278  0.65832513
   0.44576020  0.32826710  0.58308023
   0.67173288  0.55423978  0.58308023
   0.55791699  0.44208301  0.41809300
   0.32826705  0.44576024  0.41691983
   0.55423973  0.67173293  0.41691983
   0.55423980  0.32826710  0.58308023
   0.32826712  0.55423978  0.58308023
   0.67173295  0.44576024  0.41691983
   0.44576027  0.67173293  0.41691983
   0.44208301  0.44208301  0.41809300
   0.50000000  0.38416601  0.50000000
   0.61749315  0.50000005  0.34021317
   0.61749315  0.50000005  0.65978680
   0.38250685  0.50000005  0.34021317
   0.38250685  0.50000005  0.65978680
   0.38317830  0.38317830  0.50000000
   0.61682172  0.61682172  0.50000000
   0.61682170  0.38317830  0.50000000
   0.38317828  0.61682172  0.50000000
   0.50000000  0.50000000  0.33478917
   0.50000000  0.50000000  0.66521087
   0.32826705  0.44576024  0.58308023
   0.55423973  0.67173293  0.58308023
   0.55791699  0.44208301  0.58190703
   0.44208298  0.55791702  0.41809300
   0.44208301  0.44208301  0.58190703
   0.67173295  0.44576024  0.58308023
   0.44576027  0.67173293  0.58308023
   0.55791702  0.55791702  0.41809300
   0.38416599  0.50000002  0.50000000
   0.61583401  0.50000002  0.50000000
   0.50000000  0.61749319  0.34021317
   0.50000000  0.61749319  0.65978680
   0.50000000  0.50000000  0.50000000
   0.44208298  0.55791702  0.58190703
   0.55791702  0.55791702  0.58190703
   0.50000000  0.61583404  0.50000000
   0.26900643  0.55598377  0.38753100
   0.23597570  0.56398913  0.37144860
 
 position of ions in cartesian coordinates  (Angst):
  13.37280588  9.84801292 12.50759500
  20.15198637 16.62719342 12.50759500
  16.62719412  9.84801292 12.50759500
   9.84801363 16.62719342 12.50759500
  15.00000000 11.47520705 10.20639500
  15.00000000 11.47520705 19.79360400
  15.00000000  8.28283206 15.00000000
   8.28283277 14.99999929 15.00000000
  21.71716723 14.99999929 15.00000000
  15.00000000 21.71716652 14.99999999
  18.35858397 11.64141603 10.25024500
  18.35858397 11.64141603 19.74975399
  11.64141674 18.35858326 10.25024500
  11.64141674 18.35858326 19.74975400
  11.64141603 11.64141603 10.25024500
  11.64141603 11.64141603 19.74975400
  18.35858326 18.35858326 10.25024500
  18.35858326 18.35858326 19.74975400
  13.37280588  9.84801291 17.49240700
  20.15198638 16.62719341 17.49240700
  16.73750985 13.26249015 12.54279000
   9.84801151 13.37280729 12.50759500
  16.62719200 20.15198779 12.50759500
  16.62719412  9.84801292 17.49240700
   9.84801363 16.62719342 17.49240700
  20.15198849 13.37280729 12.50759500
  13.37280800 20.15198779 12.50759500
  13.26249015 13.26249015 12.54279000
  15.00000000 11.52498029 15.00000000
  18.52479437 15.00000140 10.20639500
  18.52479437 15.00000141 19.79360400
  11.47520562 15.00000141 10.20639501
  11.47520563 15.00000141 19.79360400
  11.49534898 11.49534898 15.00000000
  18.50465172 18.50465172 15.00000000
  18.50465102 11.49534898 15.00000000
  11.49534828 18.50465172 15.00000000
  15.00000000 15.00000000 10.04367500
  15.00000000 15.00000000 19.95632599
   9.84801151 13.37280729 17.49240700
  16.62719200 20.15198779 17.49240700
  16.73750985 13.26249015 17.45721100
  13.26248944 16.73751056 12.54279001
  13.26249015 13.26249015 17.45721100
  20.15198849 13.37280729 17.49240699
  13.37280800 20.15198779 17.49240700
  16.73751056 16.73751056 12.54279000
  11.52497959 15.00000071 15.00000000
  18.47502041 15.00000071 15.00000000
  14.99999999 18.52479579 10.20639500
  15.00000000 18.52479578 19.79360400
  15.00000000 15.00000000 15.00000000
  13.26248944 16.73751057 17.45721101
  16.73751056 16.73751057 17.45721100
  15.00000000 18.47502112 15.00000000
   8.07019300 16.67951300 11.62593000
   7.07927100 16.91967400 11.14345800
 


--------------------------------------------------------------------------------------------------------


 k-point  1 :   0.0000 0.0000 0.0000  plane waves:  490521

 maximum and minimum number of plane-waves per node :    490521   490521

 maximum number of plane-waves:    490521
 maximum index in each direction: 
   IXMAX=   48   IYMAX=   48   IZMAX=   48
   IXMIN=  -48   IYMIN=  -48   IZMIN=  -48


 serial   3D FFT for wavefunctions
 parallel 3D FFT for charge:
    minimum data exchange during FFTs selected (reduces bandwidth)


 total amount of memory used by VASP MPI-rank0  5486942. kBytes
=======================================================================

   base      :      30000. kBytes
   nonlr-proj:      17127. kBytes
   fftplans  :     924480. kBytes
   grid      :    1872000. kBytes
   one-center:        886. kBytes
   wavefun   :    2642449. kBytes
 
     INWAV:  cpu time    0.0001: real time    0.0004
 Broyden mixing: mesh for mixing (old mesh)
   NGX = 97   NGY = 97   NGZ = 97
  (NGX  =300   NGY  =300   NGZ  =300)
  gives a total of 912673 points

 initial charge density was supplied:
 charge density of overlapping atoms calculated
 number of electron     560.0000000 magnetization 
 keeping initial charge density in first step


--------------------------------------------------------------------------------------------------------


 Maximum index for non-local projection operator         1763
 Maximum index for augmentation-charges         5898 (set IRDMAX)


--------------------------------------------------------------------------------------------------------


 First call to EWALD:  gamma=   0.059
 Maximum number of real-space cells 3x 3x 3
 Maximum number of reciprocal cells 3x 3x 3

    FEWALD:  cpu time    0.0148: real time    0.0148


--------------------------------------- Iteration      1(   1)  ---------------------------------------


    POTLOK:  cpu time   14.7047: real time   14.7110
    SETDIJ:  cpu time    0.1250: real time    0.1250
     EDDAV:  cpu time  369.6913: real time  369.7594
       DOS:  cpu time    0.0013: real time    0.0013
    --------------------------------------------
      LOOP:  cpu time  384.5223: real time  384.5966

 eigenvalue-minimisations  :   688
 total energy-change (2. order) : 0.4389636E+04  (-0.1004876E+05)
 number of electron     560.0000000 magnetization 
 augmentation part      560.0000000 magnetization 

 Free energy of the ion-electron system (eV)
  ---------------------------------------------------
  alpha Z        PSCENC =        75.25431677
  Ewald energy   TEWEN  =    137857.76202947
  -Hartree energ DENC   =   -181219.58517992
  -exchange      EXHF   =         0.00000000
  -V(xc)+E(xc)   XCENC  =     -1703.22267023
  PAW double counting   =     44873.02882129   -41398.84523641
  entropy T*S    EENTRO =         0.02074124
  eigenvalues    EBANDS =       818.71748987
  atomic energy  EATOM  =     45086.50549395
  Solvation  Ediel_sol  =         0.00000000
  ---------------------------------------------------
  free energy    TOTEN  =      4389.63580605 eV

  energy without entropy =     4389.61506481  energy(sigma->0) =     4389.63062074


--------------------------------------------------------------------------------------------------------




--------------------------------------- Iteration      1(   2)  ---------------------------------------


     EDDAV:  cpu time  590.0483: real time  590.0532
       DOS:  cpu time    0.0012: real time    0.0012
    --------------------------------------------
      LOOP:  cpu time  590.0495: real time  590.0544

 eigenvalue-minimisations  :  1224
 total energy-change (2. order) :-0.2377629E+04  (-0.2140495E+04)
 number of electron     560.0000000 magnetization 
 augmentation part      560.0000000 magnetization 

 Free energy of the ion-electron system (eV)
  ---------------------------------------------------
  alpha Z        PSCENC =        75.25431677
  Ewald energy   TEWEN  =    137857.76202947
  -Hartree energ DENC   =   -181219.58517992
  -exchange      EXHF   =         0.00000000
  -V(xc)+E(xc)   XCENC  =     -1703.22267023
  PAW double counting   =     44873.02882129   -41398.84523641
  entropy T*S    EENTRO =        -0.02703138
  eigenvalues    EBANDS =     -1558.86332045
  atomic energy  EATOM  =     45086.50549395
  Solvation  Ediel_sol  =         0.00000000
  ---------------------------------------------------
  free energy    TOTEN  =      2012.00722310 eV

  energy without entropy =     2012.03425448  energy(sigma->0) =     2012.01398094


--------------------------------------------------------------------------------------------------------




--------------------------------------- Iteration      1(   3)  ---------------------------------------


     EDDAV:  cpu time  497.0181: real time  497.0143
       DOS:  cpu time    0.0011: real time    0.0011
    --------------------------------------------
      LOOP:  cpu time  497.0192: real time  497.0154

 eigenvalue-minimisations  :  1008
 total energy-change (2. order) :-0.1783246E+04  (-0.1677140E+04)
 number of electron     560.0000000 magnetization 
 augmentation part      560.0000000 magnetization 

 Free energy of the ion-electron system (eV)
  ---------------------------------------------------
  alpha Z        PSCENC =        75.25431677
  Ewald energy   TEWEN  =    137857.76202947
  -Hartree energ DENC   =   -181219.58517992
  -exchange      EXHF   =         0.00000000
  -V(xc)+E(xc)   XCENC  =     -1703.22267023
  PAW double counting   =     44873.02882129   -41398.84523641
  entropy T*S    EENTRO =        -0.03332467
  eigenvalues    EBANDS =     -3342.10266483
  atomic energy  EATOM  =     45086.50549395
  Solvation  Ediel_sol  =         0.00000000
  ---------------------------------------------------
  free energy    TOTEN  =       228.76158543 eV

  energy without entropy =      228.79491011  energy(sigma->0) =      228.76991660


--------------------------------------------------------------------------------------------------------




--------------------------------------- Iteration      1(   4)  ---------------------------------------


     EDDAV:  cpu time  411.7614: real time  411.7637
       DOS:  cpu time    0.0012: real time    0.0012
    --------------------------------------------
      LOOP:  cpu time  411.7626: real time  411.7648

 eigenvalue-minimisations  :   824
 total energy-change (2. order) :-0.3629843E+03  (-0.3067548E+03)
 number of electron     560.0000000 magnetization 
 augmentation part      560.0000000 magnetization 

 Free energy of the ion-electron system (eV)
  ---------------------------------------------------
  alpha Z        PSCENC =        75.25431677
  Ewald energy   TEWEN  =    137857.76202947
  -Hartree energ DENC   =   -181219.58517992
  -exchange      EXHF   =         0.00000000
  -V(xc)+E(xc)   XCENC  =     -1703.22267023
  PAW double counting   =     44873.02882129   -41398.84523641
  entropy T*S    EENTRO =        -0.02933241
  eigenvalues    EBANDS =     -3705.09097401
  atomic energy  EATOM  =     45086.50549395
  Solvation  Ediel_sol  =         0.00000000
  ---------------------------------------------------
  free energy    TOTEN  =      -134.22273149 eV

  energy without entropy =     -134.19339908  energy(sigma->0) =     -134.21539839


--------------------------------------------------------------------------------------------------------




--------------------------------------- Iteration      1(   5)  ---------------------------------------


     EDDAV:  cpu time  494.6107: real time  494.6122
       DOS:  cpu time    0.0014: real time    0.0014
    CHARGE:  cpu time   24.4211: real time   24.4207
    MIXING:  cpu time    0.4345: real time    0.4345
    --------------------------------------------
      LOOP:  cpu time  519.4677: real time  519.4688

 eigenvalue-minimisations  :  1056
 total energy-change (2. order) :-0.4550354E+02  (-0.3739060E+02)
 number of electron     559.9999860 magnetization 
 augmentation part      244.9612543 magnetization 

 Broyden mixing:
  rms(total) = 0.15387E+01    rms(broyden)= 0.15378E+01
  rms(prec ) = 0.16441E+01
  weight for this iteration     100.00

 Free energy of the ion-electron system (eV)
  ---------------------------------------------------
  alpha Z        PSCENC =        75.25431677
  Ewald energy   TEWEN  =    137857.76202947
  -Hartree energ DENC   =   -181219.58517992
  -exchange      EXHF   =         0.00000000
  -V(xc)+E(xc)   XCENC  =     -1703.22267023
  PAW double counting   =     44873.02882129   -41398.84523641
  entropy T*S    EENTRO =         0.45876070
  eigenvalues    EBANDS =     -3751.08260223
  atomic energy  EATOM  =     45086.50549395
  Solvation  Ediel_sol  =         0.00000000
  ---------------------------------------------------
  free energy    TOTEN  =      -179.72626660 eV

  energy without entropy =     -180.18502730  energy(sigma->0) =     -179.84095678


--------------------------------------------------------------------------------------------------------




--------------------------------------- Iteration      1(   6)  ---------------------------------------


    POTLOK:  cpu time   12.6749: real time   12.6779
    SETDIJ:  cpu time    0.1162: real time    0.1162
    EDDIAG:  cpu time   65.6073: real time   65.6068
  RMM-DIIS:  cpu time  176.4899: real time  176.4886
    ORTHCH:  cpu time   13.1065: real time   13.1063
       DOS:  cpu time    0.0014: real time    0.0014
    CHARGE:  cpu time   24.4162: real time   24.4158
    MIXING:  cpu time    0.4526: real time    0.4526
    --------------------------------------------
      LOOP:  cpu time  292.8651: real time  292.8656

 eigenvalue-minimisations  :   724
 total energy-change (2. order) :-0.9726468E+00  (-0.6313126E+01)
 number of electron     559.9999874 magnetization 
 augmentation part      240.5974558 magnetization 

 Broyden mixing:
  rms(total) = 0.22287E+01    rms(broyden)= 0.22285E+01
  rms(prec ) = 0.25880E+01
  weight for this iteration     100.00

 eigenvalues of (default mixing * dielectric matrix)
  average eigenvalue GAMMA=   0.3513
  0.3513

 Free energy of the ion-electron system (eV)
  ---------------------------------------------------
  alpha Z        PSCENC =        75.25431677
  Ewald energy   TEWEN  =    137857.76202947
  -Hartree energ DENC   =   -181614.78268829
  -exchange      EXHF   =         0.00000000
  -V(xc)+E(xc)   XCENC  =     -1697.02032206
  PAW double counting   =     45637.75742516   -42137.38805909
  entropy T*S    EENTRO =        -0.18765965
  eigenvalues    EBANDS =     -3388.59944970
  atomic energy  EATOM  =     45086.50549395
  Solvation  Ediel_sol  =         0.00000000
  ---------------------------------------------------
  free energy    TOTEN  =      -180.69891344 eV

  energy without entropy =     -180.51125379  energy(sigma->0) =     -180.65199853


--------------------------------------------------------------------------------------------------------




--------------------------------------- Iteration      1(   7)  ---------------------------------------


    POTLOK:  cpu time   12.6699: real time   12.6733
    SETDIJ:  cpu time    0.1177: real time    0.1177
    EDDIAG:  cpu time   65.4284: real time   65.4278
  RMM-DIIS:  cpu time  205.5762: real time  205.5774
    ORTHCH:  cpu time   13.1117: real time   13.1115
       DOS:  cpu time    0.0015: real time    0.0015
    CHARGE:  cpu time   24.3371: real time   24.3369
    MIXING:  cpu time    0.4719: real time    0.4719
    --------------------------------------------
      LOOP:  cpu time  321.7144: real time  321.7180

 eigenvalue-minimisations  :   846
 total energy-change (2. order) :-0.2872575E+01  (-0.1925890E+01)
 number of electron     559.9999828 magnetization 
 augmentation part      240.2729131 magnetization 

 Broyden mixing:
  rms(total) = 0.25108E+01    rms(broyden)= 0.25105E+01
  rms(prec ) = 0.30398E+01
  weight for this iteration     100.00

 eigenvalues of (default mixing * dielectric matrix)
  average eigenvalue GAMMA=   0.3040
  0.4612  0.1467

 Free energy of the ion-electron system (eV)
  ---------------------------------------------------
  alpha Z        PSCENC =        75.25431677
  Ewald energy   TEWEN  =    137857.76202947
  -Hartree energ DENC   =   -181707.05320175
  -exchange      EXHF   =         0.00000000
  -V(xc)+E(xc)   XCENC  =     -1697.22317979
  PAW double counting   =     45712.57521634   -42209.49383130
  entropy T*S    EENTRO =        -0.13362807
  eigenvalues    EBANDS =     -3301.76470380
  atomic energy  EATOM  =     45086.50549395
  Solvation  Ediel_sol  =         0.00000000
  ---------------------------------------------------
  free energy    TOTEN  =      -183.57148817 eV

  energy without entropy =     -183.43786010  energy(sigma->0) =     -183.53808115


--------------------------------------------------------------------------------------------------------




--------------------------------------- Iteration      1(   8)  ---------------------------------------


    POTLOK:  cpu time   12.5219: real time   12.5242
    SETDIJ:  cpu time    0.1192: real time    0.1192
    EDDIAG:  cpu time   64.9895: real time   64.9907
  RMM-DIIS:  cpu time  194.0940: real time  194.0936
    ORTHCH:  cpu time   13.1003: real time   13.1001
       DOS:  cpu time    0.0014: real time    0.0014
    CHARGE:  cpu time   24.0608: real time   24.0606
    MIXING:  cpu time    0.4961: real time    0.4961
    --------------------------------------------
      LOOP:  cpu time  309.3832: real time  309.3857

 eigenvalue-minimisations  :   794
 total energy-change (2. order) : 0.2839247E+00  (-0.7139183E+00)
 number of electron     559.9999848 magnetization 
 augmentation part      240.2640595 magnetization 

 Broyden mixing:
  rms(total) = 0.24229E+01    rms(broyden)= 0.24226E+01
  rms(prec ) = 0.28283E+01
  weight for this iteration     100.00

 eigenvalues of (default mixing * dielectric matrix)
  average eigenvalue GAMMA=   0.3026
  0.6210  0.1501  0.1366

 Free energy of the ion-electron system (eV)
  ---------------------------------------------------
  alpha Z        PSCENC =        75.25431677
  Ewald energy   TEWEN  =    137857.76202947
  -Hartree energ DENC   =   -181743.01979336
  -exchange      EXHF   =         0.00000000
  -V(xc)+E(xc)   XCENC  =     -1697.25962095
  PAW double counting   =     45767.79229819   -42262.71934306
  entropy T*S    EENTRO =        -0.12807777
  eigenvalues    EBANDS =     -3267.47486672
  atomic energy  EATOM  =     45086.50549395
  Solvation  Ediel_sol  =         0.00000000
  ---------------------------------------------------
  free energy    TOTEN  =      -183.28756349 eV

  energy without entropy =     -183.15948572  energy(sigma->0) =     -183.25554404


--------------------------------------------------------------------------------------------------------




--------------------------------------- Iteration      1(   9)  ---------------------------------------


    POTLOK:  cpu time   12.6758: real time   12.6797
    SETDIJ:  cpu time    0.1190: real time    0.1190
    EDDIAG:  cpu time   64.5421: real time   64.5420
  RMM-DIIS:  cpu time  177.8421: real time  177.8419
    ORTHCH:  cpu time   12.9973: real time   12.9972
       DOS:  cpu time    0.0014: real time    0.0014
    CHARGE:  cpu time   24.1684: real time   24.1683
    MIXING:  cpu time    0.5300: real time    0.5300
    --------------------------------------------
      LOOP:  cpu time  292.8762: real time  292.8794

 eigenvalue-minimisations  :   726
 total energy-change (2. order) : 0.1884610E+01  (-0.5474156E+00)
 number of electron     559.9999851 magnetization 
 augmentation part      241.0549499 magnetization 

 Broyden mixing:
  rms(total) = 0.23035E+01    rms(broyden)= 0.23032E+01
  rms(prec ) = 0.26831E+01
  weight for this iteration     100.00

 eigenvalues of (default mixing * dielectric matrix)
  average eigenvalue GAMMA=   0.2862
  0.7059  0.1641  0.1641  0.1106

 Free energy of the ion-electron system (eV)
  ---------------------------------------------------
  alpha Z        PSCENC =        75.25431677
  Ewald energy   TEWEN  =    137857.76202947
  -Hartree energ DENC   =   -181753.76521066
  -exchange      EXHF   =         0.00000000
  -V(xc)+E(xc)   XCENC  =     -1697.18648328
  PAW double counting   =     45831.70933490   -42324.21366486
  entropy T*S    EENTRO =        -0.14328999
  eigenvalues    EBANDS =     -3257.32547975
  atomic energy  EATOM  =     45086.50549395
  Solvation  Ediel_sol  =         0.00000000
  ---------------------------------------------------
  free energy    TOTEN  =      -181.40295344 eV

  energy without entropy =     -181.25966345  energy(sigma->0) =     -181.36713094


--------------------------------------------------------------------------------------------------------




--------------------------------------- Iteration      1(  10)  ---------------------------------------


    POTLOK:  cpu time   12.5378: real time   12.5411
    SETDIJ:  cpu time    0.1195: real time    0.1196
    EDDIAG:  cpu time   64.5947: real time   64.5948
  RMM-DIIS:  cpu time  181.6233: real time  181.6236
    ORTHCH:  cpu time   12.8558: real time   12.8557
       DOS:  cpu time    0.0014: real time    0.0014
    CHARGE:  cpu time   24.2999: real time   24.2998
    MIXING:  cpu time    0.5402: real time    0.5402
    --------------------------------------------
      LOOP:  cpu time  296.5727: real time  296.5761

 eigenvalue-minimisations  :   740
 total energy-change (2. order) : 0.1564140E+01  (-0.3109110E+00)
 number of electron     559.9999842 magnetization 
 augmentation part      241.3515580 magnetization 

 Broyden mixing:
  rms(total) = 0.22853E+01    rms(broyden)= 0.22849E+01
  rms(prec ) = 0.26804E+01
  weight for this iteration     100.00

 eigenvalues of (default mixing * dielectric matrix)
  average eigenvalue GAMMA=   0.2695
  0.7827  0.1804  0.1804  0.1019  0.1019

 Free energy of the ion-electron system (eV)
  ---------------------------------------------------
  alpha Z        PSCENC =        75.25431677
  Ewald energy   TEWEN  =    137857.76202947
  -Hartree energ DENC   =   -181781.01964437
  -exchange      EXHF   =         0.00000000
  -V(xc)+E(xc)   XCENC  =     -1697.02538581
  PAW double counting   =     45875.82475010   -42366.66630071
  entropy T*S    EENTRO =        -0.03609605
  eigenvalues    EBANDS =     -3230.43797714
  atomic energy  EATOM  =     45086.50549395
  Solvation  Ediel_sol  =         0.00000000
  ---------------------------------------------------
  free energy    TOTEN  =      -179.83881377 eV

  energy without entropy =     -179.80271773  energy(sigma->0) =     -179.82978976


--------------------------------------------------------------------------------------------------------




--------------------------------------- Iteration      1(  11)  ---------------------------------------


    POTLOK:  cpu time   12.2558: real time   12.2568
    SETDIJ:  cpu time    0.1181: real time    0.1181
    EDDIAG:  cpu time   64.6606: real time   64.6605
  RMM-DIIS:  cpu time  178.9407: real time  178.9438
    ORTHCH:  cpu time   12.9935: real time   12.9933
       DOS:  cpu time    0.0015: real time    0.0015
    CHARGE:  cpu time   24.0324: real time   24.0321
    MIXING:  cpu time    0.5695: real time    0.5695
    --------------------------------------------
      LOOP:  cpu time  293.5721: real time  293.5756

 eigenvalue-minimisations  :   727
 total energy-change (2. order) : 0.1512620E+01  (-0.2153252E+00)
 number of electron     559.9999848 magnetization 
 augmentation part      241.4599833 magnetization 

 Broyden mixing:
  rms(total) = 0.17972E+01    rms(broyden)= 0.17969E+01
  rms(prec ) = 0.20869E+01
  weight for this iteration     100.00

 eigenvalues of (default mixing * dielectric matrix)
  average eigenvalue GAMMA=   0.2739
  0.9005  0.2222  0.2222  0.1119  0.1119  0.0748

 Free energy of the ion-electron system (eV)
  ---------------------------------------------------
  alpha Z        PSCENC =        75.25431677
  Ewald energy   TEWEN  =    137857.76202947
  -Hartree energ DENC   =   -181803.87979006
  -exchange      EXHF   =         0.00000000
  -V(xc)+E(xc)   XCENC  =     -1696.86562296
  PAW double counting   =     45912.43651646   -42401.78180914
  entropy T*S    EENTRO =        -0.14957952
  eigenvalues    EBANDS =     -3207.60774916
  atomic energy  EATOM  =     45086.50549395
  Solvation  Ediel_sol  =         0.00000000
  ---------------------------------------------------
  free energy    TOTEN  =      -178.32619419 eV

  energy without entropy =     -178.17661467  energy(sigma->0) =     -178.28879931


--------------------------------------------------------------------------------------------------------




--------------------------------------- Iteration      1(  12)  ---------------------------------------


    POTLOK:  cpu time   12.2606: real time   12.2613
    SETDIJ:  cpu time    0.1170: real time    0.1170
    EDDIAG:  cpu time   64.6474: real time   64.6468
  RMM-DIIS:  cpu time  177.7655: real time  177.7661
    ORTHCH:  cpu time   13.0390: real time   13.0389
       DOS:  cpu time    0.0014: real time    0.0014
    CHARGE:  cpu time   23.9980: real time   23.9977
    MIXING:  cpu time    0.6151: real time    0.6151
    --------------------------------------------
      LOOP:  cpu time  292.4441: real time  292.4443

 eigenvalue-minimisations  :   722
 total energy-change (2. order) : 0.8043590E+00  (-0.2126392E+00)
 number of electron     559.9999858 magnetization 
 augmentation part      241.5240292 magnetization 

 Broyden mixing:
  rms(total) = 0.18097E+01    rms(broyden)= 0.18094E+01
  rms(prec ) = 0.21477E+01
  weight for this iteration     100.00

 eigenvalues of (default mixing * dielectric matrix)
  average eigenvalue GAMMA=   0.2662
  0.9683  0.2498  0.2498  0.1217  0.0990  0.0990  0.0755

 Free energy of the ion-electron system (eV)
  ---------------------------------------------------
  alpha Z        PSCENC =        75.25431677
  Ewald energy   TEWEN  =    137857.76202947
  -Hartree energ DENC   =   -181830.40893755
  -exchange      EXHF   =         0.00000000
  -V(xc)+E(xc)   XCENC  =     -1696.60203712
  PAW double counting   =     45958.88867962   -42446.23901528
  entropy T*S    EENTRO =        -0.04808681
  eigenvalues    EBANDS =     -3182.63427827
  atomic energy  EATOM  =     45086.50549395
  Solvation  Ediel_sol  =         0.00000000
  ---------------------------------------------------
  free energy    TOTEN  =      -177.52183521 eV

  energy without entropy =     -177.47374840  energy(sigma->0) =     -177.50981351


--------------------------------------------------------------------------------------------------------




--------------------------------------- Iteration      1(  13)  ---------------------------------------


    POTLOK:  cpu time   12.3566: real time   12.3573
    SETDIJ:  cpu time    0.1199: real time    0.1199
    EDDIAG:  cpu time   64.4932: real time   64.4927
  RMM-DIIS:  cpu time  178.5115: real time  178.5108
    ORTHCH:  cpu time   13.0272: real time   13.0270
       DOS:  cpu time    0.0015: real time    0.0015
    CHARGE:  cpu time   23.9464: real time   23.9461
    MIXING:  cpu time    0.6459: real time    0.6459
    --------------------------------------------
      LOOP:  cpu time  293.1024: real time  293.1012

 eigenvalue-minimisations  :   726
 total energy-change (2. order) : 0.1243763E+00  (-0.1167820E+00)
 number of electron     559.9999853 magnetization 
 augmentation part      241.3990827 magnetization 

 Broyden mixing:
  rms(total) = 0.15669E+01    rms(broyden)= 0.15666E+01
  rms(prec ) = 0.18674E+01
  weight for this iteration     100.00

 eigenvalues of (default mixing * dielectric matrix)
  average eigenvalue GAMMA=   0.2914
  1.1671  0.3107  0.3107  0.1903  0.0958  0.0958  0.1013  0.0593

 Free energy of the ion-electron system (eV)
  ---------------------------------------------------
  alpha Z        PSCENC =        75.25431677
  Ewald energy   TEWEN  =    137857.76202947
  -Hartree energ DENC   =   -181849.76964407
  -exchange      EXHF   =         0.00000000
  -V(xc)+E(xc)   XCENC  =     -1696.38030529
  PAW double counting   =     45988.62975937   -42474.61477416
  entropy T*S    EENTRO =        -0.13951456
  eigenvalues    EBANDS =     -3164.64482043
  atomic energy  EATOM  =     45086.50549395
  Solvation  Ediel_sol  =         0.00000000
  ---------------------------------------------------
  free energy    TOTEN  =      -177.39745894 eV

  energy without entropy =     -177.25794438  energy(sigma->0) =     -177.36258030


--------------------------------------------------------------------------------------------------------




--------------------------------------- Iteration      1(  14)  ---------------------------------------


    POTLOK:  cpu time   12.3593: real time   12.3601
    SETDIJ:  cpu time    0.1180: real time    0.1180
    EDDIAG:  cpu time   64.4659: real time   64.4653
  RMM-DIIS:  cpu time  175.0961: real time  175.0951
    ORTHCH:  cpu time   13.0980: real time   13.0978
       DOS:  cpu time    0.0015: real time    0.0015
    CHARGE:  cpu time   23.9451: real time   23.9448
    MIXING:  cpu time    0.6882: real time    0.6882
    --------------------------------------------
      LOOP:  cpu time  289.7721: real time  289.7708

 eigenvalue-minimisations  :   712
 total energy-change (2. order) :-0.2377131E+00  (-0.1601009E+00)
 number of electron     559.9999819 magnetization 
 augmentation part      241.3939918 magnetization 

 Broyden mixing:
  rms(total) = 0.27638E+01    rms(broyden)= 0.27636E+01
  rms(prec ) = 0.31435E+01
  weight for this iteration     100.00

 eigenvalues of (default mixing * dielectric matrix)
  average eigenvalue GAMMA=   0.2839
  1.2616  0.4379  0.2555  0.1576  0.1105  0.1105  0.0829  0.0829  0.0554

 Free energy of the ion-electron system (eV)
  ---------------------------------------------------
  alpha Z        PSCENC =        75.25431677
  Ewald energy   TEWEN  =    137857.76202947
  -Hartree energ DENC   =   -181892.94911316
  -exchange      EXHF   =         0.00000000
  -V(xc)+E(xc)   XCENC  =     -1695.77911416
  PAW double counting   =     46062.18176409   -42544.74604563
  entropy T*S    EENTRO =         0.07996472
  eigenvalues    EBANDS =     -3125.94446811
  atomic energy  EATOM  =     45086.50549395
  Solvation  Ediel_sol  =         0.00000000
  ---------------------------------------------------
  free energy    TOTEN  =      -177.63517206 eV

  energy without entropy =     -177.71513677  energy(sigma->0) =     -177.65516323


--------------------------------------------------------------------------------------------------------




--------------------------------------- Iteration      1(  15)  ---------------------------------------


    POTLOK:  cpu time   12.3112: real time   12.3119
    SETDIJ:  cpu time    0.1217: real time    0.1217
    EDDIAG:  cpu time   64.4969: real time   64.4963
  RMM-DIIS:  cpu time  176.3906: real time  176.3915
    ORTHCH:  cpu time   12.9852: real time   12.9851
       DOS:  cpu time    0.0014: real time    0.0014
    CHARGE:  cpu time   23.9099: real time   23.9097
    MIXING:  cpu time    0.7233: real time    0.7233
    --------------------------------------------
      LOOP:  cpu time  290.9401: real time  290.9409

 eigenvalue-minimisations  :   717
 total energy-change (2. order) : 0.1016021E+01  (-0.1129510E+00)
 number of electron     559.9999865 magnetization 
 augmentation part      241.1440332 magnetization 

 Broyden mixing:
  rms(total) = 0.12383E+01    rms(broyden)= 0.12380E+01
  rms(prec ) = 0.14076E+01
  weight for this iteration     100.00

 eigenvalues of (default mixing * dielectric matrix)
  average eigenvalue GAMMA=   0.2985
  1.4132  0.5601  0.2161  0.2161  0.1496  0.1246  0.0928  0.0928  0.0659  0.0537

 Free energy of the ion-electron system (eV)
  ---------------------------------------------------
  alpha Z        PSCENC =        75.25431677
  Ewald energy   TEWEN  =    137857.76202947
  -Hartree energ DENC   =   -181919.29119212
  -exchange      EXHF   =         0.00000000
  -V(xc)+E(xc)   XCENC  =     -1695.45333133
  PAW double counting   =     46099.36339620   -42580.20001891
  entropy T*S    EENTRO =        -0.11689934
  eigenvalues    EBANDS =     -3100.44294535
  atomic energy  EATOM  =     45086.50549395
  Solvation  Ediel_sol  =         0.00000000
  ---------------------------------------------------
  free energy    TOTEN  =      -176.61915065 eV

  energy without entropy =     -176.50225131  energy(sigma->0) =     -176.58992582


--------------------------------------------------------------------------------------------------------




--------------------------------------- Iteration      1(  16)  ---------------------------------------


    POTLOK:  cpu time   12.3698: real time   12.3707
    SETDIJ:  cpu time    0.1180: real time    0.1180
    EDDIAG:  cpu time   64.4956: real time   64.4953
  RMM-DIIS:  cpu time  173.0030: real time  173.0026
    ORTHCH:  cpu time   13.0509: real time   13.0509
       DOS:  cpu time    0.0015: real time    0.0015
    CHARGE:  cpu time   23.8920: real time   23.8921
    MIXING:  cpu time    0.7682: real time    0.7682
    --------------------------------------------
      LOOP:  cpu time  287.6989: real time  287.6992

 eigenvalue-minimisations  :   702
 total energy-change (2. order) : 0.7079579E+00  (-0.9017901E-01)
 number of electron     559.9999861 magnetization 
 augmentation part      241.1857642 magnetization 

 Broyden mixing:
  rms(total) = 0.10820E+01    rms(broyden)= 0.10816E+01
  rms(prec ) = 0.12306E+01
  weight for this iteration     100.00

 eigenvalues of (default mixing * dielectric matrix)
  average eigenvalue GAMMA=   0.3027
  1.4887  0.6424  0.2665  0.2665  0.1325  0.1110  0.1110  0.0948  0.0948  0.0659
  0.0559

 Free energy of the ion-electron system (eV)
  ---------------------------------------------------
  alpha Z        PSCENC =        75.25431677
  Ewald energy   TEWEN  =    137857.76202947
  -Hartree energ DENC   =   -181947.87044092
  -exchange      EXHF   =         0.00000000
  -V(xc)+E(xc)   XCENC  =     -1695.07773295
  PAW double counting   =     46141.56122875   -42620.37187619
  entropy T*S    EENTRO =        -0.03092482
  eigenvalues    EBANDS =     -3073.64328681
  atomic energy  EATOM  =     45086.50549395
  Solvation  Ediel_sol  =         0.00000000
  ---------------------------------------------------
  free energy    TOTEN  =      -175.91119273 eV

  energy without entropy =     -175.88026791  energy(sigma->0) =     -175.90346153


--------------------------------------------------------------------------------------------------------




--------------------------------------- Iteration      1(  17)  ---------------------------------------


    POTLOK:  cpu time   12.3806: real time   12.3815
    SETDIJ:  cpu time    0.1156: real time    0.1156
    EDDIAG:  cpu time   64.5364: real time   64.5391
  RMM-DIIS:  cpu time  173.4038: real time  173.4208
    ORTHCH:  cpu time   12.9967: real time   12.9970
       DOS:  cpu time    0.0015: real time    0.0015
    CHARGE:  cpu time   23.8621: real time   23.8644
    MIXING:  cpu time    0.8178: real time    0.8189
    --------------------------------------------
      LOOP:  cpu time  288.1146: real time  288.1388

 eigenvalue-minimisations  :   704
 total energy-change (2. order) : 0.1217938E+00  (-0.5279857E-01)
 number of electron     559.9999858 magnetization 
 augmentation part      241.2208527 magnetization 

 Broyden mixing:
  rms(total) = 0.97325E+00    rms(broyden)= 0.97303E+00
  rms(prec ) = 0.11148E+01
  weight for this iteration     100.00

 eigenvalues of (default mixing * dielectric matrix)
  average eigenvalue GAMMA=   0.3210
  1.5688  0.8190  0.3357  0.3357  0.1505  0.1505  0.0944  0.0944  0.0926  0.0926
  0.0616  0.0564

 Free energy of the ion-electron system (eV)
  ---------------------------------------------------
  alpha Z        PSCENC =        75.25431677
  Ewald energy   TEWEN  =    137857.76202947
  -Hartree energ DENC   =   -181963.97834258
  -exchange      EXHF   =         0.00000000
  -V(xc)+E(xc)   XCENC  =     -1694.85135351
  PAW double counting   =     46161.16985017   -42638.86195756
  entropy T*S    EENTRO =        -0.04271210
  eigenvalues    EBANDS =     -3058.74672350
  atomic energy  EATOM  =     45086.50549395
  Solvation  Ediel_sol  =         0.00000000
  ---------------------------------------------------
  free energy    TOTEN  =      -175.78939888 eV

  energy without entropy =     -175.74668678  energy(sigma->0) =     -175.77872086


--------------------------------------------------------------------------------------------------------




--------------------------------------- Iteration      1(  18)  ---------------------------------------


    POTLOK:  cpu time   12.4365: real time   12.4384
    SETDIJ:  cpu time    0.1160: real time    0.1160
    EDDIAG:  cpu time   64.4711: real time   64.4773
  RMM-DIIS:  cpu time  172.9712: real time  172.9838
    ORTHCH:  cpu time   12.9394: real time   12.9405
       DOS:  cpu time    0.0015: real time    0.0015
    CHARGE:  cpu time   23.9166: real time   23.9199
    MIXING:  cpu time    0.8644: real time    0.8644
    --------------------------------------------
      LOOP:  cpu time  287.7166: real time  287.7419

 eigenvalue-minimisations  :   702
 total energy-change (2. order) :-0.2315463E+00  (-0.5347656E-01)
 number of electron     559.9999860 magnetization 
 augmentation part      241.1337197 magnetization 

 Broyden mixing:
  rms(total) = 0.11977E+01    rms(broyden)= 0.11976E+01
  rms(prec ) = 0.13749E+01
  weight for this iteration     100.00

 eigenvalues of (default mixing * dielectric matrix)
  average eigenvalue GAMMA=   0.3279
  1.6776  0.9677  0.3533  0.3533  0.1667  0.1667  0.0956  0.0956  0.0950  0.0950
  0.0807  0.0579  0.0579

 Free energy of the ion-electron system (eV)
  ---------------------------------------------------
  alpha Z        PSCENC =        75.25431677
  Ewald energy   TEWEN  =    137857.76202947
  -Hartree energ DENC   =   -181989.06449057
  -exchange      EXHF   =         0.00000000
  -V(xc)+E(xc)   XCENC  =     -1694.55419676
  PAW double counting   =     46183.07146565   -42659.26197975
  entropy T*S    EENTRO =        -0.07061858
  eigenvalues    EBANDS =     -3035.66296540
  atomic energy  EATOM  =     45086.50549395
  Solvation  Ediel_sol  =         0.00000000
  ---------------------------------------------------
  free energy    TOTEN  =      -176.02094522 eV

  energy without entropy =     -175.95032664  energy(sigma->0) =     -176.00329057


--------------------------------------------------------------------------------------------------------




--------------------------------------- Iteration      1(  19)  ---------------------------------------


    POTLOK:  cpu time   12.4619: real time   12.4640
    SETDIJ:  cpu time    0.1143: real time    0.1143
    EDDIAG:  cpu time   64.4839: real time   64.4912
  RMM-DIIS:  cpu time  174.0624: real time  174.0837
    ORTHCH:  cpu time   12.8234: real time   12.8246
       DOS:  cpu time    0.0014: real time    0.0014
    CHARGE:  cpu time   23.8664: real time   23.8698
    MIXING:  cpu time    0.9181: real time    0.9182
    --------------------------------------------
      LOOP:  cpu time  288.7319: real time  288.7671

 eigenvalue-minimisations  :   707
 total energy-change (2. order) : 0.1563318E+00  (-0.4458262E-01)
 number of electron     559.9999856 magnetization 
 augmentation part      241.0357152 magnetization 

 Broyden mixing:
  rms(total) = 0.99611E+00    rms(broyden)= 0.99588E+00
  rms(prec ) = 0.11697E+01
  weight for this iteration     100.00

 eigenvalues of (default mixing * dielectric matrix)
  average eigenvalue GAMMA=   0.3299
  1.7668  1.0851  0.3398  0.3398  0.1941  0.1941  0.1341  0.1008  0.1008  0.0915
  0.0915  0.0668  0.0567  0.0567

 Free energy of the ion-electron system (eV)
  ---------------------------------------------------
  alpha Z        PSCENC =        75.25431677
  Ewald energy   TEWEN  =    137857.76202947
  -Hartree energ DENC   =   -182011.68214412
  -exchange      EXHF   =         0.00000000
  -V(xc)+E(xc)   XCENC  =     -1694.26736512
  PAW double counting   =     46201.98261625   -42676.82206452
  entropy T*S    EENTRO =        -0.04390690
  eigenvalues    EBANDS =     -3014.55358924
  atomic energy  EATOM  =     45086.50549395
  Solvation  Ediel_sol  =         0.00000000
  ---------------------------------------------------
  free energy    TOTEN  =      -175.86461345 eV

  energy without entropy =     -175.82070655  energy(sigma->0) =     -175.85363672


--------------------------------------------------------------------------------------------------------




--------------------------------------- Iteration      1(  20)  ---------------------------------------


    POTLOK:  cpu time   12.2129: real time   12.2149
    SETDIJ:  cpu time    0.1184: real time    0.1184
    EDDIAG:  cpu time   64.3474: real time   64.3548
  RMM-DIIS:  cpu time  174.8695: real time  174.8817
    ORTHCH:  cpu time   12.6451: real time   12.6474
       DOS:  cpu time    0.0015: real time    0.0015
    CHARGE:  cpu time   24.0567: real time   24.0573
    MIXING:  cpu time    0.9735: real time    0.9735
    --------------------------------------------
      LOOP:  cpu time  289.2249: real time  289.2495

 eigenvalue-minimisations  :   709
 total energy-change (2. order) :-0.2071215E-01  (-0.2894447E-01)
 number of electron     559.9999863 magnetization 
 augmentation part      241.0667281 magnetization 

 Broyden mixing:
  rms(total) = 0.11631E+01    rms(broyden)= 0.11629E+01
  rms(prec ) = 0.13980E+01
  weight for this iteration     100.00

 eigenvalues of (default mixing * dielectric matrix)
  average eigenvalue GAMMA=   0.3268
  1.8229  1.2063  0.3466  0.2645  0.2645  0.2121  0.1253  0.1112  0.1112  0.0945
  0.0945  0.0808  0.0606  0.0545  0.0527

 Free energy of the ion-electron system (eV)
  ---------------------------------------------------
  alpha Z        PSCENC =        75.25431677
  Ewald energy   TEWEN  =    137857.76202947
  -Hartree energ DENC   =   -182026.60476862
  -exchange      EXHF   =         0.00000000
  -V(xc)+E(xc)   XCENC  =     -1694.07487448
  PAW double counting   =     46210.64482933   -42684.62417912
  entropy T*S    EENTRO =        -0.02887087
  eigenvalues    EBANDS =     -3000.71930202
  atomic energy  EATOM  =     45086.50549395
  Solvation  Ediel_sol  =         0.00000000
  ---------------------------------------------------
  free energy    TOTEN  =      -175.88532560 eV

  energy without entropy =     -175.85645473  energy(sigma->0) =     -175.87810788


--------------------------------------------------------------------------------------------------------




--------------------------------------- Iteration      1(  21)  ---------------------------------------


    POTLOK:  cpu time   12.3135: real time   12.3146
    SETDIJ:  cpu time    0.1180: real time    0.1180
    EDDIAG:  cpu time   64.2238: real time   64.2323
  RMM-DIIS:  cpu time  175.0705: real time  175.0960
    ORTHCH:  cpu time   12.6608: real time   12.6619
       DOS:  cpu time    0.0015: real time    0.0015
    CHARGE:  cpu time   24.0087: real time   24.0113
    MIXING:  cpu time    1.0231: real time    1.0231
    --------------------------------------------
      LOOP:  cpu time  289.4197: real time  289.4586

 eigenvalue-minimisations  :   711
 total energy-change (2. order) : 0.2522921E+00  (-0.2137665E-01)
 number of electron     559.9999861 magnetization 
 augmentation part      241.0543218 magnetization 

 Broyden mixing:
  rms(total) = 0.10624E+01    rms(broyden)= 0.10622E+01
  rms(prec ) = 0.12658E+01
  weight for this iteration     100.00

 eigenvalues of (default mixing * dielectric matrix)
  average eigenvalue GAMMA=   0.3302
  1.9262  1.2175  0.4846  0.2871  0.2871  0.2034  0.1381  0.1381  0.0935  0.0935
  0.0937  0.0937  0.0688  0.0578  0.0578  0.0421

 Free energy of the ion-electron system (eV)
  ---------------------------------------------------
  alpha Z        PSCENC =        75.25431677
  Ewald energy   TEWEN  =    137857.76202947
  -Hartree energ DENC   =   -182041.91164305
  -exchange      EXHF   =         0.00000000
  -V(xc)+E(xc)   XCENC  =     -1693.90147800
  PAW double counting   =     46216.07731818   -42689.33273461
  entropy T*S    EENTRO =        -0.06947204
  eigenvalues    EBANDS =     -2986.01686415
  atomic energy  EATOM  =     45086.50549395
  Solvation  Ediel_sol  =         0.00000000
  ---------------------------------------------------
  free energy    TOTEN  =      -175.63303346 eV

  energy without entropy =     -175.56356143  energy(sigma->0) =     -175.61566546


--------------------------------------------------------------------------------------------------------




--------------------------------------- Iteration      1(  22)  ---------------------------------------


    POTLOK:  cpu time   12.1962: real time   12.2011
    SETDIJ:  cpu time    0.1176: real time    0.1176
    EDDIAG:  cpu time   64.4648: real time   64.4677
  RMM-DIIS:  cpu time  171.4976: real time  171.5155
    ORTHCH:  cpu time   12.6671: real time   12.6683
       DOS:  cpu time    0.0015: real time    0.0015
    CHARGE:  cpu time   24.0318: real time   24.0343
    MIXING:  cpu time    1.0738: real time    1.0738
    --------------------------------------------
      LOOP:  cpu time  286.0503: real time  286.0798

 eigenvalue-minimisations  :   694
 total energy-change (2. order) : 0.2943797E+00  (-0.2073724E-01)
 number of electron     559.9999864 magnetization 
 augmentation part      241.0649022 magnetization 

 Broyden mixing:
  rms(total) = 0.56870E+00    rms(broyden)= 0.56847E+00
  rms(prec ) = 0.64953E+00
  weight for this iteration     100.00

 eigenvalues of (default mixing * dielectric matrix)
  average eigenvalue GAMMA=   0.3378
  2.0241  1.2402  0.6345  0.3176  0.3176  0.1552  0.1552  0.1525  0.1525  0.0948
  0.0948  0.0894  0.0894  0.0682  0.0575  0.0575  0.0410

 Free energy of the ion-electron system (eV)
  ---------------------------------------------------
  alpha Z        PSCENC =        75.25431677
  Ewald energy   TEWEN  =    137857.76202947
  -Hartree energ DENC   =   -182052.83963036
  -exchange      EXHF   =         0.00000000
  -V(xc)+E(xc)   XCENC  =     -1693.77523478
  PAW double counting   =     46218.74738144   -42691.46451955
  entropy T*S    EENTRO =        -0.11652553
  eigenvalues    EBANDS =     -2975.41196522
  atomic energy  EATOM  =     45086.50549395
  Solvation  Ediel_sol  =         0.00000000
  ---------------------------------------------------
  free energy    TOTEN  =      -175.33865380 eV

  energy without entropy =     -175.22212827  energy(sigma->0) =     -175.30952242


--------------------------------------------------------------------------------------------------------




--------------------------------------- Iteration      1(  23)  ---------------------------------------


    POTLOK:  cpu time   12.1759: real time   12.1779
    SETDIJ:  cpu time    0.1179: real time    0.1179
    EDDIAG:  cpu time   64.4949: real time   64.5002
  RMM-DIIS:  cpu time  171.4779: real time  171.5005
    ORTHCH:  cpu time   12.7839: real time   12.7843
       DOS:  cpu time    0.0015: real time    0.0015
    CHARGE:  cpu time   24.0648: real time   24.0655
    MIXING:  cpu time    1.1439: real time    1.1440
    --------------------------------------------
      LOOP:  cpu time  286.2607: real time  286.2918

 eigenvalue-minimisations  :   695
 total energy-change (2. order) : 0.4276705E-01  (-0.1617206E-01)
 number of electron     559.9999859 magnetization 
 augmentation part      241.0464864 magnetization 

 Broyden mixing:
  rms(total) = 0.62384E+00    rms(broyden)= 0.62371E+00
  rms(prec ) = 0.73414E+00
  weight for this iteration     100.00

 eigenvalues of (default mixing * dielectric matrix)
  average eigenvalue GAMMA=   0.3378
  2.1126  1.2879  0.7004  0.3217  0.3217  0.1710  0.1710  0.1549  0.1549  0.0945
[...]
 -0.006  -0.012   0.004   0.004   0.005  -0.006  -0.012   0.004
 -0.011  -0.020   0.006   0.007   0.009  -0.010  -0.020   0.006
 -0.015  -0.005   0.013   0.000   0.022  -0.014  -0.005   0.012
  0.000  -0.023  -0.006  -0.015  -0.000   0.000  -0.022  -0.006
 -0.022   0.000   0.009  -0.005  -0.016  -0.022   0.000   0.008
 -0.017  -0.006   0.015   0.000   0.027  -0.017  -0.006   0.015
  0.000  -0.027  -0.007  -0.018   0.000   0.000  -0.027  -0.007
 -0.027   0.000   0.010  -0.006  -0.019  -0.026   0.000   0.010
 total augmentation occupancy for first ion, spin component:           1
  1.537  -0.032   0.005   0.016   0.022   0.075  -0.007  -0.002   0.036  -0.010   0.093  -0.031   0.012   0.002   0.003  -0.019
 -0.032   1.401   0.030   0.071  -0.001  -0.006   0.071   0.011  -0.015  -0.008   0.215  -0.065   0.019   0.002   0.003  -0.006
  0.005   0.030   1.544   0.002   0.002  -0.001   0.012   0.073  -0.012   0.017  -0.053   0.018  -0.003  -0.006  -0.005   0.016
  0.016   0.071   0.002   1.340   0.046   0.033  -0.014  -0.012   0.091  -0.023  -0.080   0.020  -0.001  -0.009  -0.004   0.001
  0.022  -0.001   0.002   0.046   1.442  -0.010  -0.008   0.016  -0.022   0.067  -0.092   0.030  -0.002  -0.010  -0.010   0.026
  0.075  -0.006  -0.001   0.033  -0.010   0.216   0.018  -0.002  -0.045   0.004  -0.048   0.002   0.017  -0.010   0.034  -0.004
 -0.007   0.071   0.012  -0.014  -0.008   0.018   0.262  -0.023  -0.003   0.006  -0.109   0.007  -0.001   0.051  -0.010  -0.000
 -0.002   0.011   0.073  -0.012   0.016  -0.002  -0.023   0.214   0.014  -0.020   0.028  -0.001  -0.012   0.009  -0.018   0.003
  0.036  -0.015  -0.012   0.091  -0.022  -0.045  -0.003   0.014   0.260   0.007   0.044  -0.004  -0.009   0.036   0.004   0.000
 -0.010  -0.008   0.017  -0.023   0.067   0.004   0.006  -0.020   0.007   0.258   0.046  -0.003  -0.038   0.003   0.049   0.007
  0.093   0.215  -0.053  -0.080  -0.092  -0.048  -0.109   0.028   0.044   0.046   0.946  -0.140   0.084   0.014   0.064  -0.013
 -0.031  -0.065   0.018   0.020   0.030   0.002   0.007  -0.001  -0.004  -0.003  -0.140   0.023  -0.014  -0.003  -0.010   0.003
  0.012   0.019  -0.003  -0.001  -0.002   0.017  -0.001  -0.012  -0.009  -0.038   0.084  -0.014   0.029  -0.009  -0.004  -0.003
  0.002   0.002  -0.006  -0.009  -0.010  -0.010   0.051   0.009   0.036   0.003   0.014  -0.003  -0.009   0.036   0.005   0.000
  0.003   0.003  -0.005  -0.004  -0.010   0.034  -0.010  -0.018   0.004   0.049   0.064  -0.010  -0.004   0.005   0.035  -0.000
 -0.019  -0.006   0.016   0.001   0.026  -0.004  -0.000   0.003   0.000   0.007  -0.013   0.003  -0.003   0.000  -0.000   0.001
  0.001  -0.028  -0.007  -0.018   0.001   0.001  -0.008  -0.001  -0.006  -0.000  -0.003   0.001   0.000  -0.003  -0.000   0.000
 -0.028   0.001   0.012  -0.005  -0.019  -0.006   0.001   0.003  -0.001  -0.007  -0.008   0.001  -0.000  -0.000  -0.003   0.000


------------------------ aborting loop because EDIFF is reached ----------------------------------------


    CHARGE:  cpu time   21.8862: real time   21.8864
    FORLOC:  cpu time    6.1343: real time    6.1344
    FORNL :  cpu time   57.2841: real time   57.2845
    STRESS:  cpu time  174.0042: real time  174.0055
    FORCOR:  cpu time   18.6780: real time   18.6781
    FORHAR:  cpu time    8.4048: real time    8.4049
    MIXING:  cpu time    2.6970: real time    2.6970
    OFIELD:  cpu time    0.0000: real time    0.0000

  FORCE on cell =-STRESS in cart. coord.  units (eV):
  Direction    XX          YY          ZZ          XY          YZ          ZX
  --------------------------------------------------------------------------------------
  Alpha Z    75.25432    75.25432    75.25432
  Ewald   48906.52766 43987.75355 44963.37518  -849.61811  -522.34379  1667.64984
  Hartree 63478.99347 58915.27836 59816.05315  -780.10996  -476.96725  1496.55684
  E(xc)   -2902.86682 -2905.50649 -2904.91795    -0.38477    -0.22848     1.32529
  Local  ************************************  1622.55507   995.00491 -3143.45431
  n-local  -884.03383  -879.46632  -879.82148     0.93104     1.19071    -1.66477
  augment  4099.56567  4106.56090  4104.73072     0.79590     0.38522    -3.66856
  Kinetic  7783.68383  7815.62887  7808.60506     4.99575     2.58754   -16.31683
  Fock        0.00000     0.00000     0.00000     0.00000     0.00000     0.00000
  -------------------------------------------------------------------------------------
  Total    -112.84245  -113.37088  -113.41082    -0.83507    -0.37115     0.42748
  in kB      -6.69606    -6.72742    -6.72979    -0.04955    -0.02202     0.02537
  external pressure =       -6.72 kB  Pullay stress =        0.00 kB


 VOLUME and BASIS-vectors are now :
 -----------------------------------------------------------------------------
  energy-cutoff  :      400.00
  volume of cell :    27000.00
      direct lattice vectors                 reciprocal lattice vectors
    30.000000000  0.000000000  0.000000000     0.033333333  0.000000000  0.000000000
     0.000000000 30.000000000  0.000000000     0.000000000  0.033333333  0.000000000
     0.000000000  0.000000000 30.000000000     0.000000000  0.000000000  0.033333333

  length of vectors
    30.000000000 30.000000000 30.000000000     0.033333333  0.033333333  0.033333333


 FORCES acting on ions
    electron-ion (+dipol)            ewald-force                    non-local-force                 convergence-correction
 -----------------------------------------------------------------------------------------------
   0.384E+03 0.982E+03 0.414E+03   -.382E+03 -.979E+03 -.413E+03   -.148E+01 -.182E+01 -.224E+00   0.633E-02 0.236E-02 0.745E-02
   -.974E+03 -.393E+03 0.415E+03   0.972E+03 0.391E+03 -.414E+03   0.184E+01 0.149E+01 -.200E+00   -.718E-02 0.272E-02 0.307E-03
   -.400E+03 0.975E+03 0.415E+03   0.398E+03 -.973E+03 -.414E+03   0.148E+01 -.182E+01 -.232E+00   -.327E-02 0.266E-02 0.124E-01
   0.751E+03 -.380E+03 0.307E+03   -.756E+03 0.379E+03 -.311E+03   0.495E+01 0.538E+00 0.294E+01   0.753E-02 0.211E-02 -.525E-02
   -.118E+02 0.594E+03 0.965E+03   0.118E+02 -.593E+03 -.962E+03   0.678E-02 -.321E+00 -.234E+01   -.163E-02 0.307E-02 0.700E-02
   -.436E+01 0.589E+03 -.968E+03   0.431E+01 -.588E+03 0.964E+03   0.256E-01 -.306E+00 0.235E+01   0.740E-02 -.576E-02 -.861E-02
   -.505E+01 0.114E+04 -.267E+01   0.505E+01 -.113E+04 0.268E+01   -.328E-02 -.311E+01 -.111E-01   0.381E-02 0.822E-02 0.863E-03
   0.112E+04 0.360E+02 -.723E+02   -.111E+04 -.361E+02 0.725E+02   -.294E+01 0.824E-01 -.144E+00   0.406E-03 -.422E-03 -.656E-02
   -.113E+04 0.943E+00 -.184E+01   0.113E+04 -.941E+00 0.185E+01   0.310E+01 -.607E-04 -.875E-02   -.298E-02 -.944E-03 -.169E-02
   -.102E+02 -.114E+04 -.522E+01   0.102E+02 0.113E+04 0.524E+01   -.115E-01 0.310E+01 -.755E-02   0.466E-03 -.530E-02 -.782E-02
   -.583E+03 0.581E+03 0.812E+03   0.581E+03 -.579E+03 -.809E+03   0.155E+01 -.156E+01 -.220E+01   -.400E-02 -.146E-02 0.560E-02
   -.580E+03 0.579E+03 -.814E+03   0.578E+03 -.577E+03 0.811E+03   0.155E+01 -.156E+01 0.220E+01   -.531E-02 -.630E-02 -.574E-02
   0.516E+03 -.601E+03 0.829E+03   -.514E+03 0.599E+03 -.826E+03   -.166E+01 0.148E+01 -.211E+01   0.701E-02 -.302E-03 0.224E-02
   0.571E+03 -.580E+03 -.823E+03   -.569E+03 0.578E+03 0.820E+03   -.156E+01 0.156E+01 0.219E+01   0.991E-03 0.532E-02 0.793E-03
   0.559E+03 0.601E+03 0.817E+03   -.556E+03 -.599E+03 -.813E+03   -.158E+01 -.154E+01 -.222E+01   0.205E-02 0.173E-02 0.190E-02
   0.573E+03 0.583E+03 -.819E+03   -.571E+03 -.580E+03 0.816E+03   -.157E+01 -.154E+01 0.218E+01   0.618E-02 -.778E-02 -.276E-02
   -.586E+03 -.579E+03 0.813E+03   0.583E+03 0.577E+03 -.809E+03   0.153E+01 0.157E+01 -.220E+01   -.893E-02 0.101E-02 0.321E-02
   -.581E+03 -.578E+03 -.815E+03   0.579E+03 0.576E+03 0.812E+03   0.157E+01 0.155E+01 0.220E+01   0.466E-03 0.173E-02 -.184E-02
   0.388E+03 0.976E+03 -.421E+03   -.386E+03 -.973E+03 0.421E+03   -.152E+01 -.181E+01 0.199E+00   0.122E-01 -.585E-03 -.949E-02
   -.973E+03 -.393E+03 -.418E+03   0.970E+03 0.391E+03 0.418E+03   0.182E+01 0.150E+01 0.228E+00   -.405E-02 0.369E-02 -.181E-02
   -.331E+03 0.325E+03 0.451E+03   0.332E+03 -.326E+03 -.451E+03   -.396E+00 0.376E+00 0.517E+00   -.714E-02 -.166E-02 0.837E-02
   0.930E+03 0.455E+03 0.396E+03   -.927E+03 -.453E+03 -.395E+03   -.188E+01 -.116E+01 -.224E+00   0.547E-02 -.406E-04 -.306E-02
   -.405E+03 -.975E+03 0.414E+03   0.403E+03 0.972E+03 -.413E+03   0.150E+01 0.181E+01 -.229E+00   -.678E-02 -.629E-02 -.447E-03
   -.398E+03 0.974E+03 -.419E+03   0.396E+03 -.971E+03 0.418E+03   0.152E+01 -.181E+01 0.222E+00   -.206E-02 0.328E-02 -.960E-02
   0.959E+03 -.393E+03 -.445E+03   -.956E+03 0.390E+03 0.445E+03   -.186E+01 0.151E+01 0.239E+00   -.263E-02 0.218E-02 -.866E-02
   -.974E+03 0.396E+03 0.415E+03   0.971E+03 -.393E+03 -.414E+03   0.183E+01 -.150E+01 -.200E+00   -.714E-02 -.511E-02 0.317E-02
   0.369E+03 -.985E+03 0.411E+03   -.367E+03 0.982E+03 -.410E+03   -.150E+01 0.186E+01 -.231E+00   0.307E-02 -.718E-02 -.412E-02
   0.296E+03 0.336E+03 0.447E+03   -.296E+03 -.336E+03 -.448E+03   0.399E+00 0.343E+00 0.523E+00   0.686E-02 0.130E-02 0.193E-02
   -.956E+01 0.645E+03 -.491E+01   0.957E+01 -.646E+03 0.492E+01   -.183E-01 0.743E+00 -.956E-02   0.691E-02 -.380E-02 -.346E-03
   -.593E+03 0.172E+01 0.965E+03   0.593E+03 -.172E+01 -.961E+03   0.283E+00 -.682E-03 -.236E+01   -.865E-02 0.159E-02 0.324E-02
   -.589E+03 0.859E+00 -.967E+03   0.588E+03 -.862E+00 0.963E+03   0.314E+00 0.527E-02 0.235E+01   -.214E-02 -.264E-02 -.266E-02
   0.525E+03 0.282E+02 0.982E+03   -.524E+03 -.284E+02 -.979E+03   -.503E+00 0.143E+00 -.220E+01   0.653E-02 0.388E-02 0.170E-02
   0.579E+03 0.282E+01 -.975E+03   -.579E+03 -.280E+01 0.972E+03   -.307E+00 -.102E-01 0.235E+01   0.250E-02 -.372E-02 0.273E-03
   0.747E+03 0.776E+03 -.114E+02   -.745E+03 -.774E+03 0.114E+02   -.112E+01 -.119E+01 0.310E-01   0.110E-01 -.261E-02 -.473E-02
   -.766E+03 -.761E+03 -.297E+01   0.764E+03 0.759E+03 0.297E+01   0.114E+01 0.114E+01 0.406E-02   -.714E-02 -.756E-04 -.424E-02
   -.764E+03 0.763E+03 -.226E+01   0.762E+03 -.761E+03 0.226E+01   0.115E+01 -.114E+01 0.667E-02   -.122E-01 -.475E-02 0.442E-03
   0.729E+03 -.773E+03 -.284E+02   -.727E+03 0.771E+03 0.284E+02   -.124E+01 0.128E+01 0.391E-01   0.662E-02 0.129E-02 -.124E-01
   -.207E+02 0.517E+01 0.107E+04   0.206E+02 -.518E+01 -.107E+04   0.579E-01 -.950E-02 -.162E+01   -.329E-02 0.534E-02 0.580E-02
   -.566E+01 0.151E+01 -.107E+04   0.565E+01 -.151E+01 0.107E+04   -.215E-02 0.327E-02 0.161E+01   0.695E-02 -.530E-02 -.452E-02
   0.962E+03 0.405E+03 -.436E+03   -.959E+03 -.403E+03 0.435E+03   -.182E+01 -.153E+01 0.265E+00   0.403E-03 -.540E-02 -.761E-02
   -.400E+03 -.973E+03 -.421E+03   0.398E+03 0.970E+03 0.420E+03   0.151E+01 0.181E+01 0.202E+00   0.212E-02 -.259E-02 -.623E-02
   -.327E+03 0.323E+03 -.457E+03   0.327E+03 -.324E+03 0.458E+03   -.379E+00 0.351E+00 -.519E+00   -.338E-02 -.111E-01 -.107E-01
   0.280E+03 -.320E+03 0.444E+03   -.281E+03 0.320E+03 -.445E+03   0.663E+00 -.347E+00 0.433E+00   0.674E-02 0.308E-02 -.504E-02
   0.311E+03 0.327E+03 -.463E+03   -.311E+03 -.327E+03 0.463E+03   0.352E+00 0.388E+00 -.565E+00   0.132E-01 -.933E-02 -.126E-01
   -.973E+03 0.395E+03 -.418E+03   0.970E+03 -.393E+03 0.418E+03   0.183E+01 -.151E+01 0.221E+00   -.813E-02 -.736E-02 -.316E-02
   0.384E+03 -.976E+03 -.426E+03   -.381E+03 0.973E+03 0.425E+03   -.153E+01 0.180E+01 0.186E+00   0.433E-02 0.163E-02 -.890E-02
   -.334E+03 -.320E+03 0.450E+03   0.335E+03 0.321E+03 -.451E+03   -.428E+00 -.377E+00 0.521E+00   -.103E-01 0.134E-02 0.621E-03
   0.607E+03 0.140E+02 -.279E+02   -.608E+03 -.139E+02 0.278E+02   0.691E+00 -.132E+00 0.112E+00   0.854E-02 -.144E-02 -.109E-01
   -.644E+03 0.151E+01 -.295E+01   0.645E+03 -.151E+01 0.298E+01   -.719E+00 -.194E-02 -.184E-01   -.122E-01 -.398E-02 -.321E-02
   -.210E+02 -.591E+03 0.967E+03   0.210E+02 0.590E+03 -.963E+03   0.480E-01 0.327E+00 -.237E+01   -.486E-02 -.285E-02 0.592E-02
   -.588E+01 -.587E+03 -.970E+03   0.588E+01 0.586E+03 0.966E+03   -.500E-02 0.283E+00 0.235E+01   0.718E-02 0.150E-02 -.118E-02
   -.157E+02 0.397E+01 -.791E+01   0.156E+02 -.396E+01 0.790E+01   0.212E-01 -.720E-02 0.761E-02   0.364E-02 -.453E-02 -.814E-02
   0.307E+03 -.320E+03 -.466E+03   -.308E+03 0.321E+03 0.467E+03   0.398E+00 -.364E+00 -.498E+00   0.965E-02 -.110E-02 -.135E-01
   -.328E+03 -.320E+03 -.458E+03   0.328E+03 0.321E+03 0.459E+03   -.373E+00 -.366E+00 -.523E+00   0.230E-03 -.102E-02 -.926E-02
   -.158E+02 -.641E+03 -.798E+01   0.158E+02 0.642E+03 0.797E+01   0.209E-01 -.725E+00 0.147E-01   0.242E-02 -.282E-02 -.124E-01
   0.230E+03 -.550E+02 0.113E+03   -.209E+03 0.504E+02 -.102E+03   -.159E+02 0.402E+01 -.770E+01   0.130E-02 0.535E-03 -.136E-02
   0.642E+03 -.170E+03 0.319E+03   -.699E+03 0.184E+03 -.347E+03   0.538E+02 -.134E+02 0.261E+02   0.187E-02 0.557E-03 -.114E-02
 -----------------------------------------------------------------------------------------------
   -.447E+02 0.100E+02 -.215E+02   0.455E-12 -.185E-11 -.165E-11   0.447E+02 -.994E+01 0.217E+02   0.371E-01 -.634E-01 -.148E+00
 
 
 POSITION                                       TOTAL-FORCE (eV/Angst)
 -----------------------------------------------------------------------------------
     13.37281      9.84801     12.50759         0.702637      1.107709      0.290619
     20.15199     16.62719     12.50759        -1.116920     -0.698650      0.280067
     16.62719      9.84801     12.50759        -0.701750      1.107828      0.293047
      9.84801     16.62719     12.50759        -0.543501     -0.659656     -0.531462
     15.00000     11.47521     10.20639        -0.000752      0.413878      1.280044
     15.00000     11.47521     19.79360        -0.014096      0.411878     -1.285245
     15.00000      8.28283     15.00000         0.000471      1.520711      0.006990
      8.28283     15.00000     15.00000         1.512291     -0.010324      0.024042
     21.71717     15.00000     15.00000        -1.515383      0.000223     -0.000565
     15.00000     21.71717     15.00000         0.004487     -1.519673      0.004215
     18.35858     11.64142     10.25025        -0.753372      0.761889      1.074552
     18.35858     11.64142     19.74975        -0.758563      0.755140     -1.072526
     11.64142     18.35858     10.25025         0.795018     -0.745183      1.070360
     11.64142     18.35858     19.74975         0.762642     -0.757414     -1.071357
     11.64142     11.64142     10.25025         0.755607      0.772694      1.090971
     11.64142     11.64142     19.74975         0.773543      0.747806     -1.071306
     18.35858     18.35858     10.25025        -0.744858     -0.768220      1.079650
     18.35858     18.35858     19.74975        -0.764009     -0.750103     -1.073168
     13.37281      9.84801     17.49241         0.713066      1.107887     -0.281872
     20.15199     16.62719     17.49241        -1.109373     -0.706327     -0.291369
     16.73751     13.26249     12.54279         0.116586     -0.110154     -0.156896
      9.84801     13.37281     12.50759         1.139799      0.583841      0.298316
     16.62719     20.15199     12.50759        -0.709049     -1.108079      0.292156
     16.62719      9.84801     17.49241        -0.713605      1.105936     -0.296202
      9.84801     16.62719     17.49241         1.109947     -0.707836     -0.272875
     20.15199     13.37281     12.50759        -1.117595      0.702337      0.283166
     13.37281     20.15199     12.50759         0.712584     -1.105094      0.288654
     13.26249     13.26249     12.54279        -0.113893     -0.104362     -0.155256
     15.00000     11.52498     15.00000        -0.000467     -0.230433      0.002767
     18.52479     15.00000     10.20639        -0.401872      0.002835      1.285268
     18.52479     15.00000     19.79360        -0.411764     -0.000650     -1.282450
     11.47521     15.00000     10.20640         0.513598     -0.057414      1.219603
     11.47521     15.00000     19.79360         0.408300      0.003534     -1.286152
     11.49535     11.49535     15.00000         0.825201      0.828484     -0.016786
     18.50465     18.50465     15.00000        -0.827447     -0.826521      0.001517
     18.50465     11.49535     15.00000        -0.828849      0.827371     -0.000602
     11.49535     18.50465     15.00000         0.872492     -0.843708      0.011097
     15.00000     15.00000     10.04368        -0.019149     -0.007947      1.175319
     15.00000     15.00000     19.95633         0.001892      0.000440     -1.174708
      9.84801     13.37281     17.49241         1.100029      0.710785     -0.291657
     16.62719     20.15199     17.49241        -0.710494     -1.109701     -0.285350
     16.73751     13.26249     17.45721         0.115401     -0.109065      0.155687
     13.26249     16.73751     12.54279        -0.179206      0.109657     -0.115549
     13.26249     13.26249     17.45721        -0.095699     -0.134950      0.177249
     20.15199     13.37281     17.49241        -1.108699      0.706779     -0.289495
     13.37281     20.15199     17.49241         0.734864     -1.107395     -0.270283
     16.73751     16.73751     12.54279         0.148723      0.109238     -0.165853
     11.52498     15.00000     15.00000        -0.184015      0.026457      0.002820
     18.47502     15.00000     15.00000         0.226565     -0.000705      0.005945
     15.00000     18.52480     10.20639        -0.011150     -0.409529      1.279392
     15.00000     18.52480     19.79360         0.002021     -0.406118     -1.287777
     15.00000     15.00000     15.00000        -0.022503     -0.001172     -0.013874
     13.26249     16.73751     17.45721        -0.120063      0.112469      0.151615
     16.73751     16.73751     17.45721         0.110878      0.113835      0.156365
     15.00000     18.47502     15.00000        -0.011022      0.230664     -0.005056
      8.07019     16.67951     11.62593         4.993736     -0.557882      2.523565
      7.07927     16.91967     11.14346        -3.543259      0.671961     -1.759362
 -----------------------------------------------------------------------------------
    total drift:                                0.001219      0.006689      0.000927


--------------------------------------------------------------------------------------------------------



  FREE ENERGIE OF THE ION-ELECTRON SYSTEM (eV)
  ---------------------------------------------------
  free  energy   TOTEN  =      -175.06204442 eV

  energy  without entropy=     -174.93982796  energy(sigma->0) =     -175.03149031
 


--------------------------------------------------------------------------------------------------------


    POTLOK:  cpu time   11.2476: real time   11.2476


--------------------------------------------------------------------------------------------------------


     LOOP+:  cpu time17006.9113: real time17007.5922
    4ORBIT:  cpu time    0.0000: real time    0.0000

 total amount of memory used by VASP MPI-rank0  5486942. kBytes
=======================================================================

   base      :      30000. kBytes
   nonlr-proj:      17127. kBytes
   fftplans  :     924480. kBytes
   grid      :    1872000. kBytes
   one-center:        886. kBytes
   wavefun   :    2642449. kBytes
 
  
  
 General timing and accounting informations for this job:
 ========================================================
  
                  Total CPU time used (sec):    17083.160
                            User time (sec):    16095.991
                          System time (sec):      987.170
                         Elapsed time (sec):    17083.893
  
                   Maximum memory used (kb):     7178804.
                   Average memory used (kb):           0.
  
                          Minor page faults:    827028006
                          Major page faults:            0
                 Voluntary context switches:          540
