   57   57    1    1
  0.4736842E+03  0.3000000E-08  0.3000000E-08  0.3000000E-08  0.5000000E-15
  1.000000000000000E-004
  CAR 
 6_Pd100_top_free_z(O)                   
    560      1    336
 
  0.0000000E+00  0.0000000E+00  0.0000000E+00  0.1000000E+01
    1      -29.159157   1.000000
    2      -13.683999   1.000000
    3      -11.470403   1.000000
    4      -11.467928   1.000000
    5       -9.191956   1.000000
    6       -6.626547   1.000000
    7       -6.109133   1.000000
    8       -6.108954   1.000000
    9       -6.096868   1.000000
   10       -5.795872   1.000000
   11       -5.795045   1.000000
   12       -5.791522   1.000000
   13       -5.728972   1.000000
   14       -5.675264   1.000000
   15       -5.667773   1.000000
   16       -5.667313   1.000000
   17       -5.665471   1.000000
   18       -5.606873   1.000000
   19       -5.605142   1.000000
   20       -5.593885   1.000000
   21       -5.582634   1.000000
   22       -5.579511   1.000000
   23       -5.578478   1.000000
   24       -5.538160   1.000000
   25       -5.531090   1.000000
   26       -5.530420   1.000000
   27       -5.528106   1.000000
   28       -5.505563   1.000000
   29       -5.504641   1.000000
   30       -5.503364   1.000000
   31       -5.499095   1.000000
   32       -5.497058   1.000000
   33       -5.496410   1.000000
   34       -5.496016   1.000000
   35       -5.494360   1.000000
   36       -5.462551   1.000000
   37       -5.462391   1.000000
   38       -5.454546   1.000000
   39       -5.452267   1.000000
   40       -5.451910   1.000000
   41       -5.451685   1.000000
   42       -5.450747   1.000000
   43       -5.450061   1.000000
   44       -5.417013   1.000000
   45       -5.415132   1.000000
   46       -5.412365   1.000000
   47       -5.410456   1.000000
   48       -5.409883   1.000000
   49       -5.406961   1.000000
   50       -5.406039   1.000000
   51       -5.403878   1.000000
   52       -5.389271   1.000000
   53       -5.388616   1.000000
   54       -5.386162   1.000000
   55       -5.370818   1.000000
   56       -5.319924   1.000000
   57       -5.316265   1.000000
   58       -5.309126   1.000000
   59       -5.306494   1.000000
   60       -5.302110   1.000000
   61       -5.300364   1.000000
   62       -5.299582   1.000000
   63       -5.290714   1.000000
   64       -5.283857   1.000000
   65       -5.282992   1.000000
   66       -5.271076   1.000000
   67       -5.270846   1.000000
   68       -5.200941   1.000000
   69       -5.188634   1.000000
   70       -5.186645   1.000000
   71       -5.182479   1.000000
   72       -5.172422   1.000000
   73       -5.163244   1.000000
   74       -5.162895   1.000000
   75       -5.162100   1.000000
   76       -5.160601   1.000000
   77       -5.157228   1.000000
   78       -5.146024   1.000000
   79       -5.143120   1.000000
   80       -5.132345   1.000000
   81       -5.111432   1.000000
   82       -5.109599   1.000000
   83       -5.106641   1.000000
   84       -5.093233   1.000000
   85       -5.089017   1.000000
   86       -5.086746   1.000000
   87       -5.085922   1.000000
   88       -5.046731   1.000000
   89       -5.044533   1.000000
   90       -5.037418   1.000000
   91       -5.036960   1.000000
   92       -5.036151   1.000000
   93       -5.033099   1.000000
   94       -5.032127   1.000000
   95       -5.031819   1.000000
   96       -5.015240   1.000000
   97       -5.012264   1.000000
   98       -5.011680   1.000000
   99       -5.003792   1.000000
  100       -5.002650   1.000000
  101       -4.991770   1.000000
  102       -4.991343   1.000000
  103       -4.987791   1.000000
  104       -4.979260   1.000000
  105       -4.977976   1.000000
  106       -4.974382   1.000000
  107       -4.965440   1.000000
  108       -4.964140   1.000000
  109       -4.963981   1.000000
  110       -4.955640   1.000000
  111       -4.954155   1.000000
  112       -4.943143   0.999999
  113       -4.941330   0.999999
  114       -4.939234   0.999999
  115       -4.936137   0.999999
  116       -4.934851   0.999999
  117       -4.917385   0.999999
  118       -4.903034   0.999998
  119       -4.901646   0.999998
  120       -4.899496   0.999998
  121       -4.887634   0.999996
  122       -4.886983   0.999996
  123       -4.885520   0.999996
  124       -4.884300   0.999996
  125       -4.882943   0.999996
  126       -4.882480   0.999996
  127       -4.829082   0.999977
  128       -4.828448   0.999977
  129       -4.827562   0.999976
  130       -4.824408   0.999974
  131       -4.823895   0.999973
  132       -4.823196   0.999973
  133       -4.815706   0.999966
  134       -4.813731   0.999964
  135       -4.813030   0.999964
  136       -4.780514   0.999911
  137       -4.776856   0.999902
  138       -4.775487   0.999898
  139       -4.762280   0.999857
  140       -4.749836   0.999806
  141       -4.747760   0.999796
  142       -4.743979   0.999776
  143       -4.721355   0.999621
  144       -4.720202   0.999611
  145       -4.719266   0.999603
  146       -4.712168   0.999536
  147       -4.706156   0.999471
  148       -4.687037   0.999215
  149       -4.676140   0.999030
  150       -4.670762   0.998926
  151       -4.668249   0.998875
  152       -4.667388   0.998857
  153       -4.656247   0.998606
  154       -4.654344   0.998559
  155       -4.653940   0.998549
  156       -4.653166   0.998529
  157       -4.653081   0.998527
  158       -4.649400   0.998432
  159       -4.639414   0.998154
  160       -4.632794   0.997954
  161       -4.632378   0.997941
  162       -4.629258   0.997842
  163       -4.628965   0.997832
  164       -4.627963   0.997800
  165       -4.627700   0.997791
  166       -4.625501   0.997719
  167       -4.625170   0.997708
  168       -4.613689   0.997311
  169       -4.612048   0.997252
  170       -4.598665   0.996757
  171       -4.580714   0.996089
  172       -4.580115   0.996067
  173       -4.579504   0.996045
  174       -4.576950   0.995955
  175       -4.576238   0.995930
  176       -4.575681   0.995911
  177       -4.574359   0.995865
  178       -4.566719   0.995616
  179       -4.561490   0.995464
  180       -4.557663   0.995363
  181       -4.557411   0.995357
  182       -4.540968   0.995084
  183       -4.536017   0.995065
  184       -4.535051   0.995065
  185       -4.534669   0.995066
  186       -4.533801   0.995068
  187       -4.533305   0.995070
  188       -4.531485   0.995080
  189       -4.530620   0.995087
  190       -4.527294   0.995125
  191       -4.496040   0.996708
  192       -4.490077   0.997328
  193       -4.488376   0.997527
  194       -4.488109   0.997559
  195       -4.486736   0.997728
  196       -4.475006   0.999465
  197       -4.465318   1.001317
  198       -4.464993   1.001386
  199       -4.460241   1.002450
  200       -4.455198   1.003688
  201       -4.450088   1.005061
  202       -4.444246   1.006777
  203       -4.441562   1.007617
  204       -4.439920   1.008147
  205       -4.432540   1.010679
  206       -4.432069   1.010849
  207       -4.429019   1.011971
  208       -4.425672   1.013248
  209       -4.425061   1.013486
  210       -4.422676   1.014430
  211       -4.405961   1.021614
  212       -4.395324   1.026583
  213       -4.392168   1.028092
  214       -4.390905   1.028699
  215       -4.389703   1.029277
  216       -4.388696   1.029762
  217       -4.386388   1.030873
  218       -4.384401   1.031830
  219       -4.383882   1.032079
  220       -4.355542   1.044703
  221       -4.348732   1.047108
  222       -4.347671   1.047448
  223       -4.326636   1.051546
  224       -4.322834   1.051620
  225       -4.321086   1.051571
  226       -4.319239   1.051460
  227       -4.318498   1.051398
  228       -4.317432   1.051290
  229       -4.314359   1.050857
  230       -4.313983   1.050791
  231       -4.312774   1.050559
  232       -4.310262   1.049980
  233       -4.308694   1.049549
  234       -4.307188   1.049084
  235       -4.306674   1.048914
  236       -4.305246   1.048409
  237       -4.303359   1.047668
  238       -4.302677   1.047379
  239       -4.300132   1.046201
  240       -4.294920   1.043275
  241       -4.285724   1.036306
  242       -4.284208   1.034922
  243       -4.268675   1.016564
  244       -4.268387   1.016148
  245       -4.266767   1.013755
  246       -4.266171   1.012852
  247       -4.265153   1.011281
  248       -4.262528   1.007060
  249       -4.260697   1.003970
  250       -4.248644   0.980562
  251       -4.246224   0.975203
  252       -4.238844   0.957481
  253       -4.236808   0.952223
  254       -4.235681   0.949242
  255       -4.231836   0.938702
  256       -4.230740   0.935593
  257       -4.229078   0.930790
  258       -4.225767   0.920903
  259       -4.225132   0.918958
  260       -4.224709   0.917654
  261       -4.221114   0.906292
  262       -4.220070   0.902901
  263       -4.219663   0.901567
  264       -4.219225   0.900124
  265       -4.217223   0.893440
  266       -4.215012   0.885884
  267       -4.205178   0.850089
  268       -4.202558   0.839964
  269       -4.200562   0.832092
  270       -4.199863   0.829304
  271       -4.198256   0.822828
  272       -4.197043   0.817885
  273       -4.174545   0.717995
  274       -4.172972   0.710496
  275       -4.170396   0.698088
  276       -4.160123   0.647224
  277       -4.159511   0.644134
  278       -4.158360   0.638302
  279       -4.153182   0.611819
  280       -4.152034   0.605898
  281       -4.151304   0.602126
  282       -4.137957   0.532260
  283       -4.110617   0.388653
  284       -4.109226   0.381499
  285       -4.108951   0.380090
  286       -4.107628   0.373315
  287       -4.106755   0.368860
  288       -4.094294   0.306685
  289       -4.092242   0.296744
  290       -3.944892  -0.051426
  291       -3.839842  -0.013956
  292       -3.802704  -0.002272
  293       -3.796086  -0.000841
  294       -3.788608   0.000552
  295       -3.470203   0.000063
  296       -3.467810   0.000059
  297       -3.421646   0.000015
  298       -3.046081   0.000000
  299       -3.040560   0.000000
  300       -3.032320   0.000000
  301       -3.005999   0.000000
  302       -3.000320   0.000000
  303       -2.929894   0.000000
  304       -2.914120   0.000000
  305       -2.901081   0.000000
  306       -2.536676   0.000000
  307       -2.509110   0.000000
  308       -2.498554   0.000000
  309       -2.310153   0.000000
  310       -2.100144   0.000000
  311       -2.097173   0.000000
  312       -2.052049   0.000000
  313       -2.019376   0.000000
  314       -1.996369   0.000000
  315       -1.913037   0.000000
  316       -1.870784   0.000000
  317       -1.831739   0.000000
  318       -1.740963   0.000000
  319       -1.694998   0.000000
  320       -1.637189   0.000000
  321       -1.619840   0.000000
  322       -1.606371   0.000000
  323       -1.541798   0.000000
  324       -1.437109   0.000000
  325       -1.431022   0.000000
  326       -1.209602   0.000000
  327       -1.175130   0.000000
  328       -1.154805   0.000000
  329       -0.972653   0.000000
  330       -0.960540   0.000000
  331       -0.955877   0.000000
  332       -0.911905   0.000000
  333       -0.906050   0.000000
  334       -0.896914   0.000000
  335       -0.859905   0.000000
  336       -0.666590   0.000000
