 vasp.5.4.4.18Apr17-6-g9f103f2a35 (build Sep 03 2018 23:53:05) complex          
  
 executed on             LinuxIFC date 2021.12.02  01:13:32
 running on    1 total cores
 distrk:  each k-point on    1 cores,    1 groups
 distr:  one band on NCORES_PER_BAND=   1 cores,    1 groups


--------------------------------------------------------------------------------------------------------


 INCAR:
 POTCAR:    PAW_PBE Pd 04Jan2005                  
 POTCAR:    PAW_PBE C 08Apr2002                   
 POTCAR:    PAW_PBE O 08Apr2002                   
 POTCAR:    PAW_PBE Pd 04Jan2005                  
   VRHFIN =Pd : s1 d9                                                           
   LEXCH  = PE                                                                  
   EATOM  =   809.7530 eV,   59.5152 Ry                                         
                                                                                
   TITEL  = PAW_PBE Pd 04Jan2005                                                
   LULTRA =        F    use ultrasoft PP ?                                      
   IUNSCR =        1    unscreen: 0-lin 1-nonlin 2-no                           
   RPACOR =    2.000    partial core radius                                     
   POMASS =  106.420; ZVAL   =   10.000    mass and valenz                      
   RCORE  =    2.600    outmost cutoff radius                                   
   RWIGS  =    2.710; RWIGS  =    1.434    wigner-seitz radius (au A)           
   ENMAX  =  250.925; ENMIN  =  188.194 eV                                      
   ICORE  =        3    local potential                                         
   LCOR   =        T    correct aug charges                                     
   LPAW   =        T    paw PP                                                  
   EAUG   =  416.230                                                            
   DEXC   =    0.000                                                            
   RMAX   =    2.653    core radius for proj-oper                               
   RAUG   =    1.300    factor for augmentation sphere                          
   RDEP   =    2.734    radius for radial grids                                 
   RDEPT  =    2.103    core radius for aug-charge                              
                                                                                
   Atomic configuration                                                         
   12 entries                                                                   
     n  l   j            E        occ.                                          
     1  0  0.50    -24164.6631   2.0000                                         
     2  0  0.50     -3530.9218   2.0000                                         
     2  1  1.50     -3165.6822   6.0000                                         
     3  0  0.50      -639.4577   2.0000                                         
     3  1  1.50      -519.4532   6.0000                                         
     3  2  2.50      -328.9757  10.0000                                         
     4  0  0.50       -88.7014   2.0000                                         
     4  1  1.50       -54.4540   6.0000                                         
     4  2  2.50        -6.6878   9.0000                                         
     5  0  0.50        -4.3543   1.0000                                         
     5  1  0.50        -1.3606   0.0000                                         
     4  3  2.50        -1.3606   0.0000                                         
   Description                                                                  
     l       E           TYP  RCUT    TYP  RCUT                                 
     2     -6.6878251     23  2.400                                             
     2     -8.0484077     23  2.400                                             
     0     -4.3542939     23  2.400                                             
     0      4.3406793     23  2.400                                             
     1     -4.0817478     23  2.600                                             
     1     15.8380318     23  2.600                                             
     3     -4.0817478     23  2.400                                             
  local pseudopotential read in
  partial core-charges read in
  partial kinetic energy density read in
  atomic valenz-charges read in
  non local Contribution for L=           2  read in
    real space projection operators read in
  non local Contribution for L=           2  read in
    real space projection operators read in
  non local Contribution for L=           0  read in
    real space projection operators read in
  non local Contribution for L=           0  read in
    real space projection operators read in
  non local Contribution for L=           1  read in
    real space projection operators read in
  non local Contribution for L=           1  read in
    real space projection operators read in
    PAW grid and wavefunctions read in
 
   number of l-projection  operators is LMAX  =           6
   number of lm-projection operators is LMMAX =          18
 
 POTCAR:    PAW_PBE C 08Apr2002                   
   VRHFIN =C: s2p2                                                              
   LEXCH  = PE                                                                  
   EATOM  =   147.1560 eV,   10.8157 Ry                                         
                                                                                
   TITEL  = PAW_PBE C 08Apr2002                                                 
   LULTRA =        F    use ultrasoft PP ?                                      
   IUNSCR =        1    unscreen: 0-lin 1-nonlin 2-no                           
   RPACOR =    1.200    partial core radius                                     
   POMASS =   12.011; ZVAL   =    4.000    mass and valenz                      
   RCORE  =    1.500    outmost cutoff radius                                   
   RWIGS  =    1.630; RWIGS  =    0.863    wigner-seitz radius (au A)           
   ENMAX  =  400.000; ENMIN  =  300.000 eV                                      
   ICORE  =        2    local potential                                         
   LCOR   =        T    correct aug charges                                     
   LPAW   =        T    paw PP                                                  
   EAUG   =  644.873                                                            
   DEXC   =    0.000                                                            
   RMAX   =    1.529    core radius for proj-oper                               
   RAUG   =    1.300    factor for augmentation sphere                          
   RDEP   =    1.501    radius for radial grids                                 
   RDEPT  =    1.300    core radius for aug-charge                              
                                                                                
   Atomic configuration                                                         
    4 entries                                                                   
     n  l   j            E        occ.                                          
     1  0  0.50      -273.3789   2.0000                                         
     2  0  0.50       -13.7508   2.0000                                         
     2  1  0.50        -5.2854   2.0000                                         
     3  2  1.50        -5.4423   0.0000                                         
   Description                                                                  
     l       E           TYP  RCUT    TYP  RCUT                                 
     0    -13.7508458     23  1.200                                             
     0     -8.2022199     23  1.200                                             
     1     -5.2854383     23  1.500                                             
     1     34.0145650     23  1.500                                             
     2     -5.4423304      7  1.500                                             
  local pseudopotential read in
  partial core-charges read in
  partial kinetic energy density read in
  atomic valenz-charges read in
  non local Contribution for L=           0  read in
    real space projection operators read in
  non local Contribution for L=           0  read in
    real space projection operators read in
  non local Contribution for L=           1  read in
    real space projection operators read in
  non local Contribution for L=           1  read in
    real space projection operators read in
    PAW grid and wavefunctions read in
 
   number of l-projection  operators is LMAX  =           4
   number of lm-projection operators is LMMAX =           8
 
 POTCAR:    PAW_PBE O 08Apr2002                   
   VRHFIN =O: s2p4                                                              
   LEXCH  = PE                                                                  
   EATOM  =   432.3788 eV,   31.7789 Ry                                         
                                                                                
   TITEL  = PAW_PBE O 08Apr2002                                                 
   LULTRA =        F    use ultrasoft PP ?                                      
   IUNSCR =        1    unscreen: 0-lin 1-nonlin 2-no                           
   RPACOR =    1.200    partial core radius                                     
   POMASS =   16.000; ZVAL   =    6.000    mass and valenz                      
   RCORE  =    1.520    outmost cutoff radius                                   
   RWIGS  =    1.550; RWIGS  =    0.820    wigner-seitz radius (au A)           
   ENMAX  =  400.000; ENMIN  =  300.000 eV                                      
   ICORE  =        2    local potential                                         
   LCOR   =        T    correct aug charges                                     
   LPAW   =        T    paw PP                                                  
   EAUG   =  605.392                                                            
   DEXC   =    0.000                                                            
   RMAX   =    1.553    core radius for proj-oper                               
   RAUG   =    1.300    factor for augmentation sphere                          
   RDEP   =    1.550    radius for radial grids                                 
   RDEPT  =    1.329    core radius for aug-charge                              
                                                                                
   Atomic configuration                                                         
    4 entries                                                                   
     n  l   j            E        occ.                                          
     1  0  0.50      -514.6923   2.0000                                         
     2  0  0.50       -23.9615   2.0000                                         
     2  1  0.50        -9.0305   4.0000                                         
     3  2  1.50        -9.5241   0.0000                                         
   Description                                                                  
     l       E           TYP  RCUT    TYP  RCUT                                 
     0    -23.9615318     23  1.200                                             
     0     -9.5240782     23  1.200                                             
     1     -9.0304911     23  1.520                                             
     1      8.1634956     23  1.520                                             
     2     -9.5240782      7  1.500                                             
  local pseudopotential read in
  partial core-charges read in
  partial kinetic energy density read in
  kinetic energy density of atom read in
  atomic valenz-charges read in
  non local Contribution for L=           0  read in
    real space projection operators read in
  non local Contribution for L=           0  read in
    real space projection operators read in
  non local Contribution for L=           1  read in
    real space projection operators read in
  non local Contribution for L=           1  read in
    real space projection operators read in
    PAW grid and wavefunctions read in
 
   number of l-projection  operators is LMAX  =           4
   number of lm-projection operators is LMMAX =           8
 
 Optimization of the real space projectors (new method)

 maximal supplied QI-value         = 14.36
 optimisation between [QCUT,QGAM] = [ 10.20, 20.39] = [ 29.12,116.47] Ry 
 Optimized for a Real-space Cutoff    1.51 Angstroem

   l    n(q)    QCUT    max X(q) W(low)/X(q) W(high)/X(q)  e(spline) 
   2      8    10.197    59.108    0.26E-03    0.14E-03    0.96E-07
   2      8    10.197    58.101    0.27E-03    0.14E-03    0.98E-07
   0      9    10.197   102.235    0.54E-04    0.60E-05    0.72E-07
   0      9    10.197    58.388    0.52E-04    0.60E-05    0.68E-07
   1      9    10.197    22.191    0.18E-03    0.25E-03    0.79E-07
   1      9    10.197    15.590    0.15E-03    0.21E-03    0.69E-07
 Optimization of the real space projectors (new method)

 maximal supplied QI-value         = 25.13
 optimisation between [QCUT,QGAM] = [ 10.05, 20.36] = [ 28.30,116.06] Ry 
 Optimized for a Real-space Cutoff    1.30 Angstroem

   l    n(q)    QCUT    max X(q) W(low)/X(q) W(high)/X(q)  e(spline) 
   0      8    10.053   115.676    0.49E-03    0.72E-03    0.18E-06
   0      8    10.053    87.132    0.49E-03    0.71E-03    0.18E-06
   1      7    10.053     4.429    0.32E-03    0.31E-03    0.18E-06
   1      7    10.053     2.733    0.23E-03    0.19E-03    0.20E-06
 Optimization of the real space projectors (new method)

 maximal supplied QI-value         = 24.76
 optimisation between [QCUT,QGAM] = [ 10.15, 20.30] = [ 28.85,115.39] Ry 
 Optimized for a Real-space Cutoff    1.38 Angstroem

   l    n(q)    QCUT    max X(q) W(low)/X(q) W(high)/X(q)  e(spline) 
   0      8    10.150    20.381    0.22E-03    0.32E-03    0.29E-06
   0      8    10.150    15.268    0.23E-03    0.35E-03    0.30E-06
   1      8    10.150     5.964    0.46E-03    0.53E-03    0.21E-06
   1      8    10.150     5.382    0.38E-03    0.45E-03    0.19E-06

 ----------------------------------------------------------------------------- 
|                                                                             |
|  ADVICE TO THIS USER RUNNING 'VASP/VAMP'   (HEAR YOUR MASTER'S VOICE ...):  |
|                                                                             |
|      You enforced a specific xc-type in the INCAR file,                     |
|      a different type was found on the POTCAR file                          |
|          I HOPE YOU KNOW, WHAT YOU ARE  DOING                               |
|                                                                             |
 ----------------------------------------------------------------------------- 

  PAW_PBE Pd 04Jan2005                  :
 energy of atom  1       EATOM= -809.7530
 kinetic energy error for atom=    0.0091 (will be added to EATOM!!)
  PAW_PBE C 08Apr2002                   :
 energy of atom  2       EATOM= -147.1560
 kinetic energy error for atom=    0.0288 (will be added to EATOM!!)
  PAW_PBE O 08Apr2002                   :
 energy of atom  3       EATOM= -432.3788
 kinetic energy error for atom=    0.1156 (will be added to EATOM!!)
 
 
 POSCAR: Pd55PES                                 
  positions in cartesian coordinates
  No initial velocities read in
 exchange correlation table for  LEXCH =        9
   RHO(1)=    0.500       N(1)  =     2000
   RHO(2)=  100.500       N(2)  =     4000
 


--------------------------------------------------------------------------------------------------------


 ion  position               nearest neighbor table
   1  0.446  0.328  0.417-   3 3.25   5 3.25   7 3.36  15 3.36  29 3.42  28 3.42
   2  0.672  0.554  0.417-  26 3.25  30 3.25  17 3.36   9 3.36  47 3.42  49 3.42
   3  0.554  0.328  0.417-   1 3.25   5 3.25   7 3.36  11 3.36  29 3.42  21 3.42
   4  0.328  0.554  0.417-  32 3.25  22 3.25  13 3.36   8 3.36  43 3.42  48 3.42
   5  0.500  0.383  0.340-   1 3.25   3 3.25  11 3.36  15 3.36  21 3.42  28 3.42
   6  0.500  0.383  0.660-  24 3.25  19 3.25  16 3.36  12 3.36  42 3.42  44 3.42
   7  0.500  0.276  0.500-  29 3.24   3 3.36   1 3.36  19 3.36  24 3.36
   8  0.276  0.500  0.500-  48 3.24  22 3.36  40 3.36   4 3.36  25 3.36
   9  0.724  0.500  0.500-  49 3.24  26 3.36  45 3.36   2 3.36  20 3.36
  10  0.500  0.724  0.500-  55 3.24  27 3.36  23 3.36  46 3.36  41 3.36
  11  0.612  0.388  0.342-  21 3.24   5 3.36   3 3.36  30 3.36  26 3.36
  12  0.612  0.388  0.658-  42 3.24  24 3.36  45 3.36   6 3.36  31 3.36
  13  0.388  0.612  0.342-  43 3.24  32 3.36  50 3.36   4 3.36  27 3.36
  14  0.388  0.612  0.658-  53 3.24  25 3.36  33 3.36  51 3.36  46 3.36
  15  0.388  0.388  0.342-  28 3.24   5 3.36   1 3.36  32 3.36  22 3.36
  16  0.388  0.388  0.658-  44 3.24  19 3.36  40 3.36   6 3.36  33 3.36
  17  0.612  0.612  0.342-  47 3.24  30 3.36  50 3.36   2 3.36  23 3.36
  18  0.612  0.612  0.658-  54 3.24  31 3.36  20 3.36  51 3.36  41 3.36
  19  0.446  0.328  0.583-   6 3.25  24 3.25  16 3.36   7 3.36  44 3.42  29 3.42
  20  0.672  0.554  0.583-  31 3.25  45 3.25  18 3.36   9 3.36  54 3.42  49 3.42
  21  0.558  0.442  0.418-  11 3.24   5 3.42   3 3.42  30 3.42  26 3.42
  22  0.328  0.446  0.417-   4 3.25  32 3.25   8 3.36  15 3.36  48 3.42  28 3.42
  23  0.554  0.672  0.417-  27 3.25  50 3.25  10 3.36  17 3.36  55 3.42  47 3.42
  24  0.554  0.328  0.583-   6 3.25  19 3.25  12 3.36   7 3.36  42 3.42  29 3.42
  25  0.328  0.554  0.583-  33 3.25  40 3.25  14 3.36   8 3.36  53 3.42  48 3.42
  26  0.672  0.446  0.417-   2 3.25  30 3.25   9 3.36  11 3.36  49 3.42  21 3.42
  27  0.446  0.672  0.417-  23 3.25  50 3.25  10 3.36  13 3.36  55 3.42  43 3.42
  28  0.442  0.442  0.418-  15 3.24   5 3.42   1 3.42  32 3.42  22 3.42
  29  0.500  0.384  0.500-   7 3.24   3 3.42   1 3.42  24 3.42  19 3.42
  30  0.617  0.500  0.340-   2 3.25  26 3.25  17 3.36  11 3.36  47 3.42  21 3.42
  31  0.617  0.500  0.660-  20 3.25  45 3.25  18 3.36  12 3.36  54 3.42  42 3.42
  32  0.383  0.500  0.340-   4 3.25  22 3.25  13 3.36  15 3.36  43 3.42  28 3.42
  33  0.383  0.500  0.660-  25 3.25  40 3.25  14 3.36  16 3.36  53 3.42  44 3.42
  34  0.383  0.383  0.500-
  35  0.617  0.617  0.500-
  36  0.617  0.383  0.500-
  37  0.383  0.617  0.500-
  38  0.500  0.500  0.335-
  39  0.500  0.500  0.665-
  40  0.328  0.446  0.583-  33 3.25  25 3.25  16 3.36   8 3.36  44 3.42  48 3.42
  41  0.554  0.672  0.583-  46 3.25  51 3.25  10 3.36  18 3.36  54 3.42  55 3.42
  42  0.558  0.442  0.582-  12 3.24   6 3.42  24 3.42  31 3.42  45 3.42
  43  0.442  0.558  0.418-  13 3.24   4 3.42  32 3.42  27 3.42  50 3.42
  44  0.442  0.442  0.582-  16 3.24   6 3.42  19 3.42  33 3.42  40 3.42
  45  0.672  0.446  0.583-  20 3.25  31 3.25   9 3.36  12 3.36  49 3.42  42 3.42
  46  0.446  0.672  0.583-  41 3.25  51 3.25  10 3.36  14 3.36  53 3.42  55 3.42
  47  0.558  0.558  0.418-  17 3.24   2 3.42  30 3.42  23 3.42  50 3.42
  48  0.384  0.500  0.500-   8 3.24   4 3.42  22 3.42  25 3.42  40 3.42
  49  0.616  0.500  0.500-   9 3.24   2 3.42  26 3.42  20 3.42  45 3.42
  50  0.500  0.617  0.340-  27 3.25  23 3.25  13 3.36  17 3.36  43 3.42  47 3.42
  51  0.500  0.617  0.660-  41 3.25  46 3.25  14 3.36  18 3.36  53 3.42  54 3.42
  52  0.500  0.500  0.500-
  53  0.442  0.558  0.582-  14 3.24  25 3.42  33 3.42  51 3.42  46 3.42
  54  0.558  0.558  0.582-  18 3.24  31 3.42  20 3.42  51 3.42  41 3.42
  55  0.500  0.616  0.500-  10 3.24  23 3.42  27 3.42  41 3.42  46 3.42
  56  0.704  0.486  0.688-  57 1.13
  57  0.732  0.484  0.713-  56 1.13
 
  LATTYP: Found a simple cubic cell.
 ALAT       =    30.0000000000
  
  Lattice vectors:
  
 A1 = (  30.0000000000,   0.0000000000,   0.0000000000)
 A2 = (   0.0000000000,  30.0000000000,   0.0000000000)
 A3 = (   0.0000000000,   0.0000000000,  30.0000000000)


Analysis of symmetry for initial positions (statically):
=====================================================================
 Subroutine PRICEL returns:
 Original cell was already a primitive cell.
 

 Routine SETGRP: Setting up the symmetry group for a 
 simple cubic supercell.


 Subroutine GETGRP returns: Found  1 space group operations
 (whereof  1 operations were pure point group operations)
 out of a pool of 48 trial point group operations.


The static configuration has the point symmetry C_1 .


Analysis of symmetry for dynamics (positions and initial velocities):
=====================================================================
 Subroutine PRICEL returns:
 Original cell was already a primitive cell.
 

 Routine SETGRP: Setting up the symmetry group for a 
 simple cubic supercell.


 Subroutine GETGRP returns: Found  1 space group operations
 (whereof  1 operations were pure point group operations)
 out of a pool of 48 trial point group operations.


The dynamic configuration has the point symmetry C_1 .


Analysis of constrained symmetry for selective dynamics:
=====================================================================
 Subroutine PRICEL returns:
 Original cell was already a primitive cell.
 

 Routine SETGRP: Setting up the symmetry group for a 
 simple cubic supercell.


 Subroutine GETGRP returns: Found  1 space group operations
 (whereof  1 operations were pure point group operations)
 out of a pool of 48 trial point group operations.


The constrained configuration has the point symmetry C_1 .


 Subroutine INISYM returns: Found  1 space group operations
 (whereof  1 operations are pure point group operations),
 and found     1 'primitive' translations

 
 
 KPOINTS: K-points                                

Automatic generation of k-mesh.
Space group operators:
 irot       det(A)        alpha          n_x          n_y          n_z        tau_x        tau_y        tau_z
    1     1.000000     0.000000     1.000000     0.000000     0.000000     0.000000     0.000000     0.000000
 
 Subroutine IBZKPT returns following result:
 ===========================================
 
 Found      1 irreducible k-points:
 
 Following reciprocal coordinates:
            Coordinates               Weight
  0.000000  0.000000  0.000000      1.000000
 
 Following cartesian coordinates:
            Coordinates               Weight
  0.000000  0.000000  0.000000      1.000000
 


--------------------------------------------------------------------------------------------------------




 Dimension of arrays:
   k-points           NKPTS =      1   k-points in BZ     NKDIM =      1   number of bands    NBANDS=    336
   number of dos      NEDOS =    301   number of ions     NIONS =     57
   non local maximal  LDIM  =      6   non local SUM 2l+1 LMDIM =     18
   total plane-waves  NPLWV = ******
   max r-space proj   IRMAX =   1847   max aug-charges    IRDMAX=   6262
   dimension x,y,z NGX =   150 NGY =  150 NGZ =  150
   dimension x,y,z NGXF=   300 NGYF=  300 NGZF=  300
   support grid    NGXF=   300 NGYF=  300 NGZF=  300
   ions per type =              55   1   1
   NGX,Y,Z   is equivalent  to a cutoff of   8.31,  8.31,  8.31 a.u.
   NGXF,Y,Z  is equivalent  to a cutoff of  16.62, 16.62, 16.62 a.u.

 SYSTEM =  6_Pd100_top_free_z(O)                   
 POSCAR =  Pd55PES                                 

 Startparameter for this run:
   NWRITE =      2    write-flag & timer
   PREC   = normal    normal or accurate (medium, high low for compatibility)
   ISTART =      0    job   : 0-new  1-cont  2-samecut
   ICHARG =      2    charge: 1-file 2-atom 10-const
   ISPIN  =      1    spin polarized calculation?
   LNONCOLLINEAR =      F non collinear calculations
   LSORBIT =      F    spin-orbit coupling
   INIWAV =      1    electr: 0-lowe 1-rand  2-diag
   LASPH  =      F    aspherical Exc in radial PAW
   METAGGA=      F    non-selfconsistent MetaGGA calc.

 Electronic Relaxation 1
   ENCUT  =  400.0 eV  29.40 Ry    5.42 a.u.  48.92 48.92 48.92*2*pi/ulx,y,z
   ENINI  =  400.0     initial cutoff
   ENAUG  =  644.9 eV  augmentation charge cutoff
   NELM   =    100;   NELMIN=  6; NELMDL= -5     # of ELM steps 
   EDIFF  = 0.1E-03   stopping-criterion for ELM
   LREAL  =      T    real-space projection
   NLSPLINE    = F    spline interpolate recip. space projectors
   LCOMPAT=      F    compatible to vasp.4.4
   GGA_COMPAT  = T    GGA compatible to vasp.4.4-vasp.4.6
   LMAXPAW     = -100 max onsite density
   LMAXMIX     =    2 max onsite mixed and CHGCAR
   VOSKOWN=      0    Vosko Wilk Nusair interpolation
   ROPT   =   -0.00050  -0.00050  -0.00050
 Ionic relaxation
   EDIFFG = -.5E-01   stopping-criterion for IOM
   NSW    =      0    number of steps for IOM
   NBLOCK =      1;   KBLOCK =      1    inner block; outer block 
   IBRION =     -1    ionic relax: 0-MD 1-quasi-New 2-CG
   NFREE  =      1    steps in history (QN), initial steepest desc. (CG)
   ISIF   =      2    stress and relaxation
   IWAVPR =     10    prediction:  0-non 1-charg 2-wave 3-comb
   ISYM   =      2    0-nonsym 1-usesym 2-fastsym
   LCORR  =      T    Harris-Foulkes like correction to forces

   POTIM  = 0.5000    time-step for ionic-motion
   TEIN   =    0.0    initial temperature
   TEBEG  =    0.0;   TEEND  =   0.0 temperature during run
   SMASS  =  -3.00    Nose mass-parameter (am)
   estimated Nose-frequenzy (Omega)   =  0.10E-29 period in steps =****** mass=  -0.206E-25a.u.
   SCALEE = 1.0000    scale energy and forces
   NPACO  =    256;   APACO  = 16.0  distance and # of slots for P.C.
   PSTRESS=    0.0 pullay stress

  Mass of Ions in am
   POMASS = 106.42 12.01 16.00
  Ionic Valenz
   ZVAL   =  10.00  4.00  6.00
  Atomic Wigner-Seitz radii
   RWIGS  =  -1.00 -1.00 -1.00
  virtual crystal weights 
   VCA    =   1.00  1.00  1.00
   NELECT =     560.0000    total number of electrons
   NUPDOWN=      -1.0000    fix difference up-down

 DOS related values:
   EMIN   =  10.00;   EMAX   =-10.00  energy-range for DOS
   EFERMI =   0.00
   ISMEAR =     2;   SIGMA  =   0.20  broadening in eV -4-tet -1-fermi 0-gaus

 Electronic relaxation 2 (details)
   IALGO  =     68    algorithm
   LDIAG  =      T    sub-space diagonalisation (order eigenvalues)
   LSUBROT=      F    optimize rotation matrix (better conditioning)
   TURBO    =      0    0=normal 1=particle mesh
   IRESTART =      0    0=no restart 2=restart with 2 vectors
   NREBOOT  =      0    no. of reboots
   NMIN     =      0    reboot dimension
   EREF     =   0.00    reference energy to select bands
   IMIX   =      4    mixing-type and parameters
     AMIX     =   0.40;   BMIX     =  1.00
     AMIX_MAG =   1.60;   BMIX_MAG =  1.00
     AMIN     =   0.10
     WC   =   100.;   INIMIX=   1;  MIXPRE=   1;  MAXMIX= -45

 Intra band minimization:
   WEIMIN = 0.0000     energy-eigenvalue tresh-hold
   EBREAK =  0.74E-07  absolut break condition
   DEPER  =   0.30     relativ break condition  

   TIME   =   0.40     timestep for ELM

  volume/ion in A,a.u.               =     473.68      3196.58
  Fermi-wavevector in a.u.,A,eV,Ry     =   0.449797  0.849992  2.752691  0.202317
  Thomas-Fermi vector in A             =   1.430086
 
 Write flags
   LWAVE        =      F    write WAVECAR
   LDOWNSAMPLE  =      F    k-point downsampling of WAVECAR
   LCHARG       =      F    write CHGCAR
   LVTOT        =      F    write LOCPOT, total local potential
   LVHAR        =      F    write LOCPOT, Hartree potential only
   LELF         =      F    write electronic localiz. function (ELF)
   LORBIT       =      0    0 simple, 1 ext, 2 COOP (PROOUT), +10 PAW based schemes


 Dipole corrections
   LMONO  =      F    monopole corrections only (constant potential shift)
   LDIPOL =      F    correct potential (dipole corrections)
   IDIPOL =      0    1-x, 2-y, 3-z, 4-all directions 
   EPSILON=  1.0000000 bulk dielectric constant

 Exchange correlation treatment:
   GGA     =    RP    GGA type
   LEXCH   =     9    internal setting for exchange type
   VOSKOWN=      0    Vosko Wilk Nusair interpolation
   LHFCALC =     F    Hartree Fock is set to
   LHFONE  =     F    Hartree Fock one center treatment
   AEXX    =    0.0000 exact exchange contribution

 Linear response parameters
   LEPSILON=     F    determine dielectric tensor
   LRPA    =     F    only Hartree local field effects (RPA)
   LNABLA  =     F    use nabla operator in PAW spheres
   LVEL    =     F    velocity operator in full k-point grid
   LINTERFAST=   F  fast interpolation
   KINTER  =     0    interpolate to denser k-point grid
   CSHIFT  =0.1000    complex shift for real part using Kramers Kronig
   OMEGAMAX=  -1.0    maximum frequency
   DEG_THRESHOLD= 0.2000000E-02 threshold for treating states as degnerate
   RTIME   =   -0.100 relaxation time in fs
  (WPLASMAI=    0.000 imaginary part of plasma frequency in eV, 0.658/RTIME)
   DFIELD  = 0.0000000 0.0000000 0.0000000 field for delta impulse in time
 
 Orbital magnetization related:
   ORBITALMAG=     F  switch on orbital magnetization
   LCHIMAG   =     F  perturbation theory with respect to B field
   DQ        =  0.001000  dq finite difference perturbation B field
   LLRAUG    =     F  two centre corrections for induced B field



--------------------------------------------------------------------------------------------------------


 Static calculation
 charge density and potential will be updated during run
 non-spin polarized calculation
 RMM-DIIS sequential band-by-band and
  variant of blocked Davidson during initial phase
 perform sub-space diagonalisation
    before iterative eigenvector-optimisation
 modified Broyden-mixing scheme, WC =      100.0
 initial mixing is a Kerker type mixing with AMIX =  0.4000 and BMIX =      1.0000
 Hartree-type preconditioning will be used
 using additional bands           56
 real space projection scheme for non local part
 use partial core corrections
 calculate Harris-corrections to forces 
   (improved forces if not selfconsistent)
 use gradient corrections 
 use of overlap-Matrix (Vanderbilt PP)
 Methfessel and Paxton  Order N= 2 SIGMA  =   0.20


--------------------------------------------------------------------------------------------------------


  energy-cutoff  :      400.00
  volume of cell :    27000.00
      direct lattice vectors                 reciprocal lattice vectors
    30.000000000  0.000000000  0.000000000     0.033333333  0.000000000  0.000000000
     0.000000000 30.000000000  0.000000000     0.000000000  0.033333333  0.000000000
     0.000000000  0.000000000 30.000000000     0.000000000  0.000000000  0.033333333

  length of vectors
    30.000000000 30.000000000 30.000000000     0.033333333  0.033333333  0.033333333


 
 k-points in units of 2pi/SCALE and weight: K-points                                
   0.00000000  0.00000000  0.00000000       1.000
 
 k-points in reciprocal lattice and weights: K-points                                
   0.00000000  0.00000000  0.00000000       1.000
 
 position of ions in fractional coordinates (direct lattice) 
   0.44576020  0.32826710  0.41691983
   0.67173288  0.55423978  0.41691983
   0.55423980  0.32826710  0.41691983
   0.32826712  0.55423978  0.41691983
   0.50000000  0.38250690  0.34021317
   0.50000000  0.38250690  0.65978680
   0.50000000  0.27609440  0.50000000
   0.27609443  0.49999998  0.50000000
   0.72390557  0.49999998  0.50000000
   0.50000000  0.72390555  0.50000000
   0.61195280  0.38804720  0.34167483
   0.61195280  0.38804720  0.65832513
   0.38804722  0.61195278  0.34167483
   0.38804722  0.61195278  0.65832513
   0.38804720  0.38804720  0.34167483
   0.38804720  0.38804720  0.65832513
   0.61195278  0.61195278  0.34167483
   0.61195278  0.61195278  0.65832513
   0.44576020  0.32826710  0.58308023
   0.67173288  0.55423978  0.58308023
   0.55791699  0.44208301  0.41809300
   0.32826705  0.44576024  0.41691983
   0.55423973  0.67173293  0.41691983
   0.55423980  0.32826710  0.58308023
   0.32826712  0.55423978  0.58308023
   0.67173295  0.44576024  0.41691983
   0.44576027  0.67173293  0.41691983
   0.44208301  0.44208301  0.41809300
   0.50000000  0.38416601  0.50000000
   0.61749315  0.50000005  0.34021317
   0.61749315  0.50000005  0.65978680
   0.38250685  0.50000005  0.34021317
   0.38250685  0.50000005  0.65978680
   0.38317830  0.38317830  0.50000000
   0.61682172  0.61682172  0.50000000
   0.61682170  0.38317830  0.50000000
   0.38317828  0.61682172  0.50000000
   0.50000000  0.50000000  0.33478917
   0.50000000  0.50000000  0.66521087
   0.32826705  0.44576024  0.58308023
   0.55423973  0.67173293  0.58308023
   0.55791699  0.44208301  0.58190703
   0.44208298  0.55791702  0.41809300
   0.44208301  0.44208301  0.58190703
   0.67173295  0.44576024  0.58308023
   0.44576027  0.67173293  0.58308023
   0.55791702  0.55791702  0.41809300
   0.38416599  0.50000002  0.50000000
   0.61583401  0.50000002  0.50000000
   0.50000000  0.61749319  0.34021317
   0.50000000  0.61749319  0.65978680
   0.50000000  0.50000000  0.50000000
   0.44208298  0.55791702  0.58190703
   0.55791702  0.55791702  0.58190703
   0.50000000  0.61583404  0.50000000
   0.70434827  0.48586267  0.68791503
   0.73198920  0.48395040  0.71333317
 
 position of ions in cartesian coordinates  (Angst):
  13.37280588  9.84801292 12.50759500
  20.15198637 16.62719342 12.50759500
  16.62719412  9.84801292 12.50759500
   9.84801363 16.62719342 12.50759500
  15.00000000 11.47520705 10.20639500
  15.00000000 11.47520705 19.79360400
  15.00000000  8.28283206 15.00000000
   8.28283277 14.99999929 15.00000000
  21.71716723 14.99999929 15.00000000
  15.00000000 21.71716652 14.99999999
  18.35858397 11.64141603 10.25024500
  18.35858397 11.64141603 19.74975399
  11.64141674 18.35858326 10.25024500
  11.64141674 18.35858326 19.74975400
  11.64141603 11.64141603 10.25024500
  11.64141603 11.64141603 19.74975400
  18.35858326 18.35858326 10.25024500
  18.35858326 18.35858326 19.74975400
  13.37280588  9.84801291 17.49240700
  20.15198638 16.62719341 17.49240700
  16.73750985 13.26249015 12.54279000
   9.84801151 13.37280729 12.50759500
  16.62719200 20.15198779 12.50759500
  16.62719412  9.84801292 17.49240700
   9.84801363 16.62719342 17.49240700
  20.15198849 13.37280729 12.50759500
  13.37280800 20.15198779 12.50759500
  13.26249015 13.26249015 12.54279000
  15.00000000 11.52498029 15.00000000
  18.52479437 15.00000140 10.20639500
  18.52479437 15.00000141 19.79360400
  11.47520562 15.00000141 10.20639501
  11.47520563 15.00000141 19.79360400
  11.49534898 11.49534898 15.00000000
  18.50465172 18.50465172 15.00000000
  18.50465102 11.49534898 15.00000000
  11.49534828 18.50465172 15.00000000
  15.00000000 15.00000000 10.04367500
  15.00000000 15.00000000 19.95632599
   9.84801151 13.37280729 17.49240700
  16.62719200 20.15198779 17.49240700
  16.73750985 13.26249015 17.45721100
  13.26248944 16.73751056 12.54279001
  13.26249015 13.26249015 17.45721100
  20.15198849 13.37280729 17.49240699
  13.37280800 20.15198779 17.49240700
  16.73751056 16.73751056 12.54279000
  11.52497959 15.00000071 15.00000000
  18.47502041 15.00000071 15.00000000
  14.99999999 18.52479579 10.20639500
  15.00000000 18.52479578 19.79360400
  15.00000000 15.00000000 15.00000000
  13.26248944 16.73751057 17.45721101
  16.73751056 16.73751057 17.45721100
  15.00000000 18.47502112 15.00000000
  21.13044800 14.57588000 20.63745100
  21.95967600 14.51851200 21.39999500
 


--------------------------------------------------------------------------------------------------------


 k-point  1 :   0.0000 0.0000 0.0000  plane waves:  490521

 maximum and minimum number of plane-waves per node :    490521   490521

 maximum number of plane-waves:    490521
 maximum index in each direction: 
   IXMAX=   48   IYMAX=   48   IZMAX=   48
   IXMIN=  -48   IYMIN=  -48   IZMIN=  -48


 serial   3D FFT for wavefunctions
 parallel 3D FFT for charge:
    minimum data exchange during FFTs selected (reduces bandwidth)


 total amount of memory used by VASP MPI-rank0  5486942. kBytes
=======================================================================

   base      :      30000. kBytes
   nonlr-proj:      17127. kBytes
   fftplans  :     924480. kBytes
   grid      :    1872000. kBytes
   one-center:        886. kBytes
   wavefun   :    2642449. kBytes
 
     INWAV:  cpu time    0.0001: real time    0.0004
 Broyden mixing: mesh for mixing (old mesh)
   NGX = 97   NGY = 97   NGZ = 97
  (NGX  =300   NGY  =300   NGZ  =300)
  gives a total of 912673 points

 initial charge density was supplied:
 charge density of overlapping atoms calculated
 number of electron     560.0000000 magnetization 
 keeping initial charge density in first step


--------------------------------------------------------------------------------------------------------


 Maximum index for non-local projection operator         1763
 Maximum index for augmentation-charges         5898 (set IRDMAX)


--------------------------------------------------------------------------------------------------------


 First call to EWALD:  gamma=   0.059
 Maximum number of real-space cells 3x 3x 3
 Maximum number of reciprocal cells 3x 3x 3

    FEWALD:  cpu time    0.0146: real time    0.0146


--------------------------------------- Iteration      1(   1)  ---------------------------------------


    POTLOK:  cpu time   13.9315: real time   13.9386
    SETDIJ:  cpu time    0.1154: real time    0.1154
     EDDAV:  cpu time  348.7956: real time  348.8907
       DOS:  cpu time    0.0013: real time    0.0013
    --------------------------------------------
      LOOP:  cpu time  362.8438: real time  362.9461

 eigenvalue-minimisations  :   688
 total energy-change (2. order) : 0.4382318E+04  (-0.1004800E+05)
 number of electron     560.0000000 magnetization 
 augmentation part      560.0000000 magnetization 

 Free energy of the ion-electron system (eV)
  ---------------------------------------------------
  alpha Z        PSCENC =        75.25431677
  Ewald energy   TEWEN  =    137400.16871256
  -Hartree energ DENC   =   -180768.27355991
  -exchange      EXHF   =         0.00000000
  -V(xc)+E(xc)   XCENC  =     -1704.00437910
  PAW double counting   =     44873.02882129   -41398.84523641
  entropy T*S    EENTRO =        -0.01022161
  eigenvalues    EBANDS =       818.49365168
  atomic energy  EATOM  =     45086.50549395
  Solvation  Ediel_sol  =         0.00000000
  ---------------------------------------------------
  free energy    TOTEN  =      4382.31759923 eV

  energy without entropy =     4382.32782084  energy(sigma->0) =     4382.32015463


--------------------------------------------------------------------------------------------------------




--------------------------------------- Iteration      1(   2)  ---------------------------------------


     EDDAV:  cpu time  559.3800: real time  559.4214
       DOS:  cpu time    0.0013: real time    0.0013
    --------------------------------------------
      LOOP:  cpu time  559.3812: real time  559.4226

 eigenvalue-minimisations  :  1232
 total energy-change (2. order) :-0.2371434E+04  (-0.2135267E+04)
 number of electron     560.0000000 magnetization 
 augmentation part      560.0000000 magnetization 

 Free energy of the ion-electron system (eV)
  ---------------------------------------------------
  alpha Z        PSCENC =        75.25431677
  Ewald energy   TEWEN  =    137400.16871256
  -Hartree energ DENC   =   -180768.27355991
  -exchange      EXHF   =         0.00000000
  -V(xc)+E(xc)   XCENC  =     -1704.00437910
  PAW double counting   =     44873.02882129   -41398.84523641
  entropy T*S    EENTRO =        -0.03425312
  eigenvalues    EBANDS =     -1552.91662426
  atomic energy  EATOM  =     45086.50549395
  Solvation  Ediel_sol  =         0.00000000
  ---------------------------------------------------
  free energy    TOTEN  =      2010.88329178 eV

  energy without entropy =     2010.91754489  energy(sigma->0) =     2010.89185506


--------------------------------------------------------------------------------------------------------




--------------------------------------- Iteration      1(   3)  ---------------------------------------


     EDDAV:  cpu time  477.0157: real time  477.0627
       DOS:  cpu time    0.0010: real time    0.0010
    --------------------------------------------
      LOOP:  cpu time  477.0167: real time  477.0638

 eigenvalue-minimisations  :  1008
 total energy-change (2. order) :-0.1780748E+04  (-0.1676089E+04)
 number of electron     560.0000000 magnetization 
 augmentation part      560.0000000 magnetization 

 Free energy of the ion-electron system (eV)
  ---------------------------------------------------
  alpha Z        PSCENC =        75.25431677
  Ewald energy   TEWEN  =    137400.16871256
  -Hartree energ DENC   =   -180768.27355991
  -exchange      EXHF   =         0.00000000
  -V(xc)+E(xc)   XCENC  =     -1704.00437910
  PAW double counting   =     44873.02882129   -41398.84523641
  entropy T*S    EENTRO =         0.03342283
  eigenvalues    EBANDS =     -3333.73194287
  atomic energy  EATOM  =     45086.50549395
  Solvation  Ediel_sol  =         0.00000000
  ---------------------------------------------------
  free energy    TOTEN  =       230.13564912 eV

  energy without entropy =      230.10222629  energy(sigma->0) =      230.12729341


--------------------------------------------------------------------------------------------------------




--------------------------------------- Iteration      1(   4)  ---------------------------------------


     EDDAV:  cpu time  401.7838: real time  401.8201
       DOS:  cpu time    0.0011: real time    0.0011
    --------------------------------------------
      LOOP:  cpu time  401.7849: real time  401.8212

 eigenvalue-minimisations  :   816
 total energy-change (2. order) :-0.3644034E+03  (-0.3063970E+03)
 number of electron     560.0000000 magnetization 
 augmentation part      560.0000000 magnetization 

 Free energy of the ion-electron system (eV)
  ---------------------------------------------------
  alpha Z        PSCENC =        75.25431677
  Ewald energy   TEWEN  =    137400.16871256
  -Hartree energ DENC   =   -180768.27355991
  -exchange      EXHF   =         0.00000000
  -V(xc)+E(xc)   XCENC  =     -1704.00437910
  PAW double counting   =     44873.02882129   -41398.84523641
  entropy T*S    EENTRO =        -0.01371442
  eigenvalues    EBANDS =     -3698.08821759
  atomic energy  EATOM  =     45086.50549395
  Solvation  Ediel_sol  =         0.00000000
  ---------------------------------------------------
  free energy    TOTEN  =      -134.26776285 eV

  energy without entropy =     -134.25404843  energy(sigma->0) =     -134.26433425


--------------------------------------------------------------------------------------------------------




--------------------------------------- Iteration      1(   5)  ---------------------------------------


     EDDAV:  cpu time  492.4546: real time  492.4850
       DOS:  cpu time    0.0014: real time    0.0014
    CHARGE:  cpu time   24.8004: real time   24.8043
    MIXING:  cpu time    0.4343: real time    0.4343
    --------------------------------------------
      LOOP:  cpu time  517.6907: real time  517.7250

 eigenvalue-minimisations  :  1040
 total energy-change (2. order) :-0.4430941E+02  (-0.3659079E+02)
 number of electron     559.9999874 magnetization 
 augmentation part      245.2724111 magnetization 

 Broyden mixing:
  rms(total) = 0.13952E+01    rms(broyden)= 0.13942E+01
  rms(prec ) = 0.14992E+01
  weight for this iteration     100.00

 Free energy of the ion-electron system (eV)
  ---------------------------------------------------
  alpha Z        PSCENC =        75.25431677
  Ewald energy   TEWEN  =    137400.16871256
  -Hartree energ DENC   =   -180768.27355991
  -exchange      EXHF   =         0.00000000
  -V(xc)+E(xc)   XCENC  =     -1704.00437910
  PAW double counting   =     44873.02882129   -41398.84523641
  entropy T*S    EENTRO =         0.55816788
  eigenvalues    EBANDS =     -3742.96950971
  atomic energy  EATOM  =     45086.50549395
  Solvation  Ediel_sol  =         0.00000000
  ---------------------------------------------------
  free energy    TOTEN  =      -178.57717268 eV

  energy without entropy =     -179.13534055  energy(sigma->0) =     -178.71671465


--------------------------------------------------------------------------------------------------------




--------------------------------------- Iteration      1(   6)  ---------------------------------------


    POTLOK:  cpu time   12.5339: real time   12.5360
    SETDIJ:  cpu time    0.1195: real time    0.1195
    EDDIAG:  cpu time   65.5935: real time   65.6044
  RMM-DIIS:  cpu time  183.4321: real time  183.4523
    ORTHCH:  cpu time   13.1431: real time   13.1446
       DOS:  cpu time    0.0015: real time    0.0015
    CHARGE:  cpu time   24.6942: real time   24.6968
    MIXING:  cpu time    0.4520: real time    0.4521
    --------------------------------------------
      LOOP:  cpu time  299.9698: real time  300.0072

 eigenvalue-minimisations  :   725
 total energy-change (2. order) : 0.8276931E+00  (-0.4901936E+01)
 number of electron     559.9999914 magnetization 
 augmentation part      240.7636563 magnetization 

 Broyden mixing:
  rms(total) = 0.17902E+01    rms(broyden)= 0.17900E+01
  rms(prec ) = 0.20660E+01
  weight for this iteration     100.00

 eigenvalues of (default mixing * dielectric matrix)
  average eigenvalue GAMMA=   0.4063
  0.4063

 Free energy of the ion-electron system (eV)
  ---------------------------------------------------
  alpha Z        PSCENC =        75.25431677
  Ewald energy   TEWEN  =    137400.16871256
  -Hartree energ DENC   =   -181178.24782920
  -exchange      EXHF   =         0.00000000
  -V(xc)+E(xc)   XCENC  =     -1697.68125276
  PAW double counting   =     45619.63705059   -42118.12272047
  entropy T*S    EENTRO =        -0.17506738
  eigenvalues    EBANDS =     -3365.08818365
  atomic energy  EATOM  =     45086.50549395
  Solvation  Ediel_sol  =         0.00000000
  ---------------------------------------------------
  free energy    TOTEN  =      -177.74947957 eV

  energy without entropy =     -177.57441219  energy(sigma->0) =     -177.70571272


--------------------------------------------------------------------------------------------------------




--------------------------------------- Iteration      1(   7)  ---------------------------------------


    POTLOK:  cpu time   12.7368: real time   12.7418
    SETDIJ:  cpu time    0.1247: real time    0.1247
    EDDIAG:  cpu time   65.7132: real time   65.7175
  RMM-DIIS:  cpu time  209.3203: real time  209.3325
    ORTHCH:  cpu time   13.1583: real time   13.1598
       DOS:  cpu time    0.0014: real time    0.0014
    CHARGE:  cpu time   24.5885: real time   24.5912
    MIXING:  cpu time    0.4714: real time    0.4714
    --------------------------------------------
      LOOP:  cpu time  326.1145: real time  326.1404

 eigenvalue-minimisations  :   833
 total energy-change (2. order) :-0.1892608E+01  (-0.1729775E+01)
 number of electron     559.9999849 magnetization 
 augmentation part      240.4672394 magnetization 

 Broyden mixing:
  rms(total) = 0.20597E+01    rms(broyden)= 0.20594E+01
  rms(prec ) = 0.24190E+01
  weight for this iteration     100.00

 eigenvalues of (default mixing * dielectric matrix)
  average eigenvalue GAMMA=   0.3914
  0.6241  0.1586

 Free energy of the ion-electron system (eV)
  ---------------------------------------------------
  alpha Z        PSCENC =        75.25431677
  Ewald energy   TEWEN  =    137400.16871256
  -Hartree energ DENC   =   -181285.92414392
  -exchange      EXHF   =         0.00000000
  -V(xc)+E(xc)   XCENC  =     -1697.84143074
  PAW double counting   =     45693.55842464   -42188.55668288
  entropy T*S    EENTRO =        -0.12215448
  eigenvalues    EBANDS =     -3262.68462322
  atomic energy  EATOM  =     45086.50549395
  Solvation  Ediel_sol  =         0.00000000
  ---------------------------------------------------
  free energy    TOTEN  =      -179.64208731 eV

  energy without entropy =     -179.51993283  energy(sigma->0) =     -179.61154869


--------------------------------------------------------------------------------------------------------




--------------------------------------- Iteration      1(   8)  ---------------------------------------


    POTLOK:  cpu time   12.7738: real time   12.7768
    SETDIJ:  cpu time    0.1238: real time    0.1238
    EDDIAG:  cpu time   65.4526: real time   65.4585
  RMM-DIIS:  cpu time  200.9948: real time  201.0118
    ORTHCH:  cpu time   13.3676: real time   13.3677
       DOS:  cpu time    0.0014: real time    0.0014
    CHARGE:  cpu time   25.1208: real time   25.1236
    MIXING:  cpu time    0.4881: real time    0.4881
    --------------------------------------------
      LOOP:  cpu time  318.3229: real time  318.3518

 eigenvalue-minimisations  :   783
 total energy-change (2. order) :-0.2707861E+01  (-0.6687536E+00)
 number of electron     559.9999855 magnetization 
 augmentation part      240.4064868 magnetization 

 Broyden mixing:
  rms(total) = 0.26957E+01    rms(broyden)= 0.26954E+01
  rms(prec ) = 0.31812E+01
  weight for this iteration     100.00

 eigenvalues of (default mixing * dielectric matrix)
  average eigenvalue GAMMA=   0.3496
  0.7689  0.1399  0.1399

 Free energy of the ion-electron system (eV)
  ---------------------------------------------------
  alpha Z        PSCENC =        75.25431677
  Ewald energy   TEWEN  =    137400.16871256
  -Hartree energ DENC   =   -181317.36283196
  -exchange      EXHF   =         0.00000000
  -V(xc)+E(xc)   XCENC  =     -1697.72996987
  PAW double counting   =     45762.76790527   -42254.29394952
  entropy T*S    EENTRO =        -0.09332598
  eigenvalues    EBANDS =     -3237.56629941
  atomic energy  EATOM  =     45086.50549395
  Solvation  Ediel_sol  =         0.00000000
  ---------------------------------------------------
  free energy    TOTEN  =      -182.34994819 eV

  energy without entropy =     -182.25662221  energy(sigma->0) =     -182.32661669


--------------------------------------------------------------------------------------------------------




--------------------------------------- Iteration      1(   9)  ---------------------------------------


    POTLOK:  cpu time   12.6708: real time   12.6731
    SETDIJ:  cpu time    0.1164: real time    0.1164
    EDDIAG:  cpu time   65.9295: real time   65.9321
  RMM-DIIS:  cpu time  189.5743: real time  189.5845
    ORTHCH:  cpu time   13.4291: real time   13.4291
       DOS:  cpu time    0.0015: real time    0.0015
    CHARGE:  cpu time   25.2075: real time   25.2075
    MIXING:  cpu time    0.5488: real time    0.5489
    --------------------------------------------
      LOOP:  cpu time  307.4778: real time  307.4930

 eigenvalue-minimisations  :   737
 total energy-change (2. order) : 0.2421207E+01  (-0.4142059E+00)
 number of electron     559.9999868 magnetization 
 augmentation part      241.2540443 magnetization 

 Broyden mixing:
  rms(total) = 0.25956E+01    rms(broyden)= 0.25952E+01
  rms(prec ) = 0.30055E+01
  weight for this iteration     100.00

 eigenvalues of (default mixing * dielectric matrix)
  average eigenvalue GAMMA=   0.3058
  0.8346  0.1457  0.1457  0.0970

 Free energy of the ion-electron system (eV)
  ---------------------------------------------------
  alpha Z        PSCENC =        75.25431677
  Ewald energy   TEWEN  =    137400.16871256
  -Hartree energ DENC   =   -181336.67962079
  -exchange      EXHF   =         0.00000000
  -V(xc)+E(xc)   XCENC  =     -1697.62462116
  PAW double counting   =     45813.69163189   -42302.77037470
  entropy T*S    EENTRO =        -0.07348469
  eigenvalues    EBANDS =     -3218.40079544
  atomic energy  EATOM  =     45086.50549395
  Solvation  Ediel_sol  =         0.00000000
  ---------------------------------------------------
  free energy    TOTEN  =      -179.92874161 eV

  energy without entropy =     -179.85525692  energy(sigma->0) =     -179.91037044


--------------------------------------------------------------------------------------------------------




--------------------------------------- Iteration      1(  10)  ---------------------------------------


    POTLOK:  cpu time   13.1418: real time   13.1428
    SETDIJ:  cpu time    0.1240: real time    0.1240
    EDDIAG:  cpu time   66.2959: real time   66.2961
  RMM-DIIS:  cpu time  186.8010: real time  186.8022
    ORTHCH:  cpu time   13.3600: real time   13.3599
       DOS:  cpu time    0.0015: real time    0.0015
    CHARGE:  cpu time   25.0355: real time   25.0354
    MIXING:  cpu time    0.5707: real time    0.5707
    --------------------------------------------
      LOOP:  cpu time  305.3304: real time  305.3325

 eigenvalue-minimisations  :   735
 total energy-change (2. order) : 0.2063514E+01  (-0.2066971E+00)
 number of electron     559.9999867 magnetization 
 augmentation part      241.4357072 magnetization 

 Broyden mixing:
  rms(total) = 0.19746E+01    rms(broyden)= 0.19743E+01
  rms(prec ) = 0.23026E+01
  weight for this iteration     100.00

 eigenvalues of (default mixing * dielectric matrix)
  average eigenvalue GAMMA=   0.2768
  0.8819  0.1566  0.1349  0.1349  0.0758

 Free energy of the ion-electron system (eV)
  ---------------------------------------------------
  alpha Z        PSCENC =        75.25431677
  Ewald energy   TEWEN  =    137400.16871256
  -Hartree energ DENC   =   -181359.58855798
  -exchange      EXHF   =         0.00000000
  -V(xc)+E(xc)   XCENC  =     -1697.47600790
  PAW double counting   =     45843.26884318   -42330.98746260
  entropy T*S    EENTRO =        -0.13032276
  eigenvalues    EBANDS =     -3194.88024329
  atomic energy  EATOM  =     45086.50549395
  Solvation  Ediel_sol  =         0.00000000
  ---------------------------------------------------
  free energy    TOTEN  =      -177.86522808 eV

  energy without entropy =     -177.73490532  energy(sigma->0) =     -177.83264739


--------------------------------------------------------------------------------------------------------




--------------------------------------- Iteration      1(  11)  ---------------------------------------


    POTLOK:  cpu time   12.8683: real time   12.8690
    SETDIJ:  cpu time    0.1198: real time    0.1198
    EDDIAG:  cpu time   66.6336: real time   66.6375
  RMM-DIIS:  cpu time  187.9287: real time  187.9309
    ORTHCH:  cpu time   13.3358: real time   13.3359
       DOS:  cpu time    0.0015: real time    0.0015
    CHARGE:  cpu time   25.1914: real time   25.1915
    MIXING:  cpu time    0.5995: real time    0.5995
    --------------------------------------------
      LOOP:  cpu time  306.6786: real time  306.6856

 eigenvalue-minimisations  :   735
 total energy-change (2. order) : 0.1438620E+01  (-0.1395552E+00)
 number of electron     559.9999880 magnetization 
 augmentation part      241.5954694 magnetization 

 Broyden mixing:
  rms(total) = 0.16614E+01    rms(broyden)= 0.16611E+01
  rms(prec ) = 0.19371E+01
  weight for this iteration     100.00

 eigenvalues of (default mixing * dielectric matrix)
  average eigenvalue GAMMA=   0.2545
  0.9032  0.1809  0.1466  0.1466  0.0749  0.0749

 Free energy of the ion-electron system (eV)
  ---------------------------------------------------
  alpha Z        PSCENC =        75.25431677
  Ewald energy   TEWEN  =    137400.16871256
  -Hartree energ DENC   =   -181377.10000068
  -exchange      EXHF   =         0.00000000
  -V(xc)+E(xc)   XCENC  =     -1697.32546388
  PAW double counting   =     45869.28637446   -42355.68489263
  entropy T*S    EENTRO =        -0.11514593
  eigenvalues    EBANDS =     -3177.41600259
  atomic energy  EATOM  =     45086.50549395
  Solvation  Ediel_sol  =         0.00000000
  ---------------------------------------------------
  free energy    TOTEN  =      -176.42660797 eV

  energy without entropy =     -176.31146203  energy(sigma->0) =     -176.39782148


--------------------------------------------------------------------------------------------------------




--------------------------------------- Iteration      1(  12)  ---------------------------------------


    POTLOK:  cpu time   12.6640: real time   12.6647
    SETDIJ:  cpu time    0.1199: real time    0.1199
    EDDIAG:  cpu time   66.6582: real time   66.6597
  RMM-DIIS:  cpu time  184.9586: real time  184.9601
    ORTHCH:  cpu time   13.3099: real time   13.3099
       DOS:  cpu time    0.0015: real time    0.0015
    CHARGE:  cpu time   25.0901: real time   25.0901
    MIXING:  cpu time    0.6646: real time    0.6646
    --------------------------------------------
      LOOP:  cpu time  303.4668: real time  303.4705

 eigenvalue-minimisations  :   723
 total energy-change (2. order) : 0.1387879E+01  (-0.7972601E-01)
 number of electron     559.9999876 magnetization 
 augmentation part      241.6782343 magnetization 

 Broyden mixing:
  rms(total) = 0.98609E+00    rms(broyden)= 0.98575E+00
  rms(prec ) = 0.11100E+01
  weight for this iteration     100.00

 eigenvalues of (default mixing * dielectric matrix)
  average eigenvalue GAMMA=   0.2557
  0.9431  0.2251  0.2251  0.1272  0.1272  0.0790  0.0634

 Free energy of the ion-electron system (eV)
  ---------------------------------------------------
  alpha Z        PSCENC =        75.25431677
  Ewald energy   TEWEN  =    137400.16871256
  -Hartree energ DENC   =   -181391.34515190
  -exchange      EXHF   =         0.00000000
  -V(xc)+E(xc)   XCENC  =     -1697.18215093
  PAW double counting   =     45887.20028530   -42372.63030096
  entropy T*S    EENTRO =        -0.13403111
  eigenvalues    EBANDS =     -3162.87590292
  atomic energy  EATOM  =     45086.50549395
  Solvation  Ediel_sol  =         0.00000000
  ---------------------------------------------------
  free energy    TOTEN  =      -175.03872922 eV

  energy without entropy =     -174.90469812  energy(sigma->0) =     -175.00522145


--------------------------------------------------------------------------------------------------------




--------------------------------------- Iteration      1(  13)  ---------------------------------------


    POTLOK:  cpu time   12.7597: real time   12.7605
    SETDIJ:  cpu time    0.1209: real time    0.1209
    EDDIAG:  cpu time   66.5010: real time   66.5029
  RMM-DIIS:  cpu time  184.6025: real time  184.6068
    ORTHCH:  cpu time   13.3713: real time   13.3714
       DOS:  cpu time    0.0016: real time    0.0015
    CHARGE:  cpu time   24.9000: real time   24.9000
    MIXING:  cpu time    0.6708: real time    0.6708
    --------------------------------------------
      LOOP:  cpu time  302.9278: real time  302.9349

 eigenvalue-minimisations  :   722
 total energy-change (2. order) : 0.2149671E+00  (-0.8324468E-01)
 number of electron     559.9999866 magnetization 
 augmentation part      241.6524050 magnetization 

 Broyden mixing:
  rms(total) = 0.11335E+01    rms(broyden)= 0.11332E+01
  rms(prec ) = 0.13500E+01
  weight for this iteration     100.00

 eigenvalues of (default mixing * dielectric matrix)
  average eigenvalue GAMMA=   0.2880
  1.0451  0.4998  0.2476  0.1508  0.1073  0.1073  0.0885  0.0573

 Free energy of the ion-electron system (eV)
  ---------------------------------------------------
  alpha Z        PSCENC =        75.25431677
  Ewald energy   TEWEN  =    137400.16871256
  -Hartree energ DENC   =   -181413.86964965
  -exchange      EXHF   =         0.00000000
  -V(xc)+E(xc)   XCENC  =     -1696.91453497
  PAW double counting   =     45915.78928616   -42399.53871096
  entropy T*S    EENTRO =        -0.09504042
  eigenvalues    EBANDS =     -3142.12363559
  atomic energy  EATOM  =     45086.50549395
  Solvation  Ediel_sol  =         0.00000000
  ---------------------------------------------------
  free energy    TOTEN  =      -174.82376215 eV

  energy without entropy =     -174.72872173  energy(sigma->0) =     -174.80000204


--------------------------------------------------------------------------------------------------------




--------------------------------------- Iteration      1(  14)  ---------------------------------------


    POTLOK:  cpu time   13.1148: real time   13.1161
    SETDIJ:  cpu time    0.1255: real time    0.1255
    EDDIAG:  cpu time   66.3977: real time   66.3982
  RMM-DIIS:  cpu time  182.7905: real time  182.7942
    ORTHCH:  cpu time   13.4270: real time   13.4271
       DOS:  cpu time    0.0014: real time    0.0014
    CHARGE:  cpu time   24.9377: real time   24.9379
    MIXING:  cpu time    0.7105: real time    0.7105
    --------------------------------------------
      LOOP:  cpu time  301.5050: real time  301.5109

 eigenvalue-minimisations  :   716
 total energy-change (2. order) :-0.1780291E+01  (-0.9916263E-01)
 number of electron     559.9999853 magnetization 
 augmentation part      241.3435619 magnetization 

 Broyden mixing:
  rms(total) = 0.28474E+01    rms(broyden)= 0.28472E+01
  rms(prec ) = 0.33920E+01
  weight for this iteration     100.00

 eigenvalues of (default mixing * dielectric matrix)
  average eigenvalue GAMMA=   0.2962
  1.1760  0.6815  0.2000  0.2000  0.1087  0.1087  0.0884  0.0535  0.0490

 Free energy of the ion-electron system (eV)
  ---------------------------------------------------
  alpha Z        PSCENC =        75.25431677
  Ewald energy   TEWEN  =    137400.16871256
  -Hartree energ DENC   =   -181460.21940349
  -exchange      EXHF   =         0.00000000
  -V(xc)+E(xc)   XCENC  =     -1696.24775231
  PAW double counting   =     45974.16761233   -42454.34865243
  entropy T*S    EENTRO =         0.33113393
  eigenvalues    EBANDS =     -3102.21551447
  atomic energy  EATOM  =     45086.50549395
  Solvation  Ediel_sol  =         0.00000000
  ---------------------------------------------------
  free energy    TOTEN  =      -176.60405316 eV

  energy without entropy =     -176.93518709  energy(sigma->0) =     -176.68683664


--------------------------------------------------------------------------------------------------------




--------------------------------------- Iteration      1(  15)  ---------------------------------------


    POTLOK:  cpu time   13.0442: real time   13.0451
    SETDIJ:  cpu time    0.1257: real time    0.1257
    EDDIAG:  cpu time   66.4276: real time   66.4286
  RMM-DIIS:  cpu time  184.3106: real time  184.3147
    ORTHCH:  cpu time   13.6171: real time   13.6172
       DOS:  cpu time    0.0015: real time    0.0015
    CHARGE:  cpu time   24.9092: real time   24.9093
    MIXING:  cpu time    0.7680: real time    0.7680
    --------------------------------------------
      LOOP:  cpu time  303.2040: real time  303.2101

 eigenvalue-minimisations  :   721
 total energy-change (2. order) : 0.8514966E+00  (-0.8576201E-01)
 number of electron     559.9999870 magnetization 
 augmentation part      241.1345579 magnetization 

 Broyden mixing:
  rms(total) = 0.19938E+01    rms(broyden)= 0.19936E+01
  rms(prec ) = 0.23635E+01
  weight for this iteration     100.00

 eigenvalues of (default mixing * dielectric matrix)
  average eigenvalue GAMMA=   0.2999
  1.3234  0.7934  0.1989  0.1989  0.1122  0.1122  0.0899  0.0727  0.0523  0.0454

 Free energy of the ion-electron system (eV)
  ---------------------------------------------------
  alpha Z        PSCENC =        75.25431677
  Ewald energy   TEWEN  =    137400.16871256
  -Hartree energ DENC   =   -181493.11473332
  -exchange      EXHF   =         0.00000000
  -V(xc)+E(xc)   XCENC  =     -1695.78468500
  PAW double counting   =     46013.37219196   -42491.15914187
  entropy T*S    EENTRO =         0.01421148
  eigenvalues    EBANDS =     -3071.00892309
  atomic energy  EATOM  =     45086.50549395
  Solvation  Ediel_sol  =         0.00000000
  ---------------------------------------------------
  free energy    TOTEN  =      -175.75255656 eV

  energy without entropy =     -175.76676804  energy(sigma->0) =     -175.75610943


--------------------------------------------------------------------------------------------------------




--------------------------------------- Iteration      1(  16)  ---------------------------------------


    POTLOK:  cpu time   13.0221: real time   13.0229
    SETDIJ:  cpu time    0.1213: real time    0.1213
    EDDIAG:  cpu time   66.5640: real time   66.5646
  RMM-DIIS:  cpu time  182.0417: real time  182.0434
    ORTHCH:  cpu time   13.3199: real time   13.3199
       DOS:  cpu time    0.0014: real time    0.0014
    CHARGE:  cpu time   25.0691: real time   25.0690
    MIXING:  cpu time    0.7746: real time    0.7746
    --------------------------------------------
      LOOP:  cpu time  300.9142: real time  300.9171

 eigenvalue-minimisations  :   716
 total energy-change (2. order) : 0.3930364E+00  (-0.6873153E-01)
 number of electron     559.9999884 magnetization 
 augmentation part      240.9706211 magnetization 

 Broyden mixing:
  rms(total) = 0.15425E+01    rms(broyden)= 0.15423E+01
  rms(prec ) = 0.18198E+01
  weight for this iteration     100.00

 eigenvalues of (default mixing * dielectric matrix)
  average eigenvalue GAMMA=   0.3051
  1.5158  0.8358  0.2139  0.2139  0.1104  0.1104  0.1196  0.0699  0.0699  0.0547
  0.0414

 Free energy of the ion-electron system (eV)
  ---------------------------------------------------
  alpha Z        PSCENC =        75.25431677
  Ewald energy   TEWEN  =    137400.16871256
  -Hartree energ DENC   =   -181519.98331567
  -exchange      EXHF   =         0.00000000
  -V(xc)+E(xc)   XCENC  =     -1695.42679727
  PAW double counting   =     46043.97051040   -42519.88620168
  entropy T*S    EENTRO =        -0.02964413
  eigenvalues    EBANDS =     -3045.93259509
  atomic energy  EATOM  =     45086.50549395
  Solvation  Ediel_sol  =         0.00000000
  ---------------------------------------------------
  free energy    TOTEN  =      -175.35952016 eV

  energy without entropy =     -175.32987603  energy(sigma->0) =     -175.35210912


--------------------------------------------------------------------------------------------------------




--------------------------------------- Iteration      1(  17)  ---------------------------------------


    POTLOK:  cpu time   12.9053: real time   12.9061
    SETDIJ:  cpu time    0.1245: real time    0.1245
    EDDIAG:  cpu time   66.7562: real time   66.7565
  RMM-DIIS:  cpu time  182.2293: real time  182.2324
    ORTHCH:  cpu time   13.4970: real time   13.4970
       DOS:  cpu time    0.0015: real time    0.0015
    CHARGE:  cpu time   24.7314: real time   24.7315
    MIXING:  cpu time    0.8579: real time    0.8579
    --------------------------------------------
      LOOP:  cpu time  301.1031: real time  301.1074

 eigenvalue-minimisations  :   719
 total energy-change (2. order) : 0.5999083E+00  (-0.6609899E-01)
 number of electron     559.9999878 magnetization 
 augmentation part      240.9483257 magnetization 

 Broyden mixing:
  rms(total) = 0.11658E+01    rms(broyden)= 0.11655E+01
  rms(prec ) = 0.13413E+01
  weight for this iteration     100.00

 eigenvalues of (default mixing * dielectric matrix)
  average eigenvalue GAMMA=   0.3127
  1.6526  0.8940  0.2625  0.2625  0.1095  0.1095  0.1194  0.1147  0.0671  0.0671
  0.0537  0.0393

 Free energy of the ion-electron system (eV)
  ---------------------------------------------------
  alpha Z        PSCENC =        75.25431677
  Ewald energy   TEWEN  =    137400.16871256
  -Hartree energ DENC   =   -181542.64047931
  -exchange      EXHF   =         0.00000000
  -V(xc)+E(xc)   XCENC  =     -1695.16163260
  PAW double counting   =     46069.19823054   -42543.55770178
  entropy T*S    EENTRO =         0.00192411
  eigenvalues    EBANDS =     -3024.52847613
  atomic energy  EATOM  =     45086.50549395
  Solvation  Ediel_sol  =         0.00000000
  ---------------------------------------------------
  free energy    TOTEN  =      -174.75961188 eV

  energy without entropy =     -174.76153599  energy(sigma->0) =     -174.76009291


--------------------------------------------------------------------------------------------------------




--------------------------------------- Iteration      1(  18)  ---------------------------------------


    POTLOK:  cpu time   12.9973: real time   12.9987
    SETDIJ:  cpu time    0.1216: real time    0.1216
    EDDIAG:  cpu time   66.3170: real time   66.3181
  RMM-DIIS:  cpu time  179.9381: real time  179.9420
    ORTHCH:  cpu time   13.3083: real time   13.3082
       DOS:  cpu time    0.0015: real time    0.0015
    CHARGE:  cpu time   24.8527: real time   24.8525
    MIXING:  cpu time    0.9133: real time    0.9133
    --------------------------------------------
      LOOP:  cpu time  298.4497: real time  298.4558

 eigenvalue-minimisations  :   708
 total energy-change (2. order) : 0.3716091E+00  (-0.5450579E-01)
 number of electron     559.9999886 magnetization 
 augmentation part      240.9877010 magnetization 

 Broyden mixing:
  rms(total) = 0.91968E+00    rms(broyden)= 0.91945E+00
  rms(prec ) = 0.10498E+01
  weight for this iteration     100.00

 eigenvalues of (default mixing * dielectric matrix)
  average eigenvalue GAMMA=   0.3253
  1.7400  1.0513  0.3128  0.3128  0.1539  0.1144  0.1144  0.1021  0.1021  0.0659
  0.0659  0.0536  0.0392

 Free energy of the ion-electron system (eV)
  ---------------------------------------------------
  alpha Z        PSCENC =        75.25431677
  Ewald energy   TEWEN  =    137400.16871256
  -Hartree energ DENC   =   -181558.97954493
  -exchange      EXHF   =         0.00000000
  -V(xc)+E(xc)   XCENC  =     -1695.00944990
  PAW double counting   =     46083.35259586   -42556.69337099
  entropy T*S    EENTRO =        -0.02848967
  eigenvalues    EBANDS =     -3008.95826646
  atomic energy  EATOM  =     45086.50549395
  Solvation  Ediel_sol  =         0.00000000
  ---------------------------------------------------
  free energy    TOTEN  =      -174.38800281 eV

  energy without entropy =     -174.35951314  energy(sigma->0) =     -174.38088039


--------------------------------------------------------------------------------------------------------




--------------------------------------- Iteration      1(  19)  ---------------------------------------


    POTLOK:  cpu time   12.7275: real time   12.7287
    SETDIJ:  cpu time    0.1211: real time    0.1211
    EDDIAG:  cpu time   66.2887: real time   66.2896
  RMM-DIIS:  cpu time  180.5196: real time  180.5239
    ORTHCH:  cpu time   13.3843: real time   13.3843
       DOS:  cpu time    0.0014: real time    0.0014
    CHARGE:  cpu time   24.5823: real time   24.5822
    MIXING:  cpu time    0.9548: real time    0.9548
    --------------------------------------------
      LOOP:  cpu time  298.5798: real time  298.5860

 eigenvalue-minimisations  :   712
 total energy-change (2. order) :-0.6761923E-01  (-0.5011239E-01)
 number of electron     559.9999886 magnetization 
 augmentation part      240.9533835 magnetization 

 Broyden mixing:
  rms(total) = 0.10293E+01    rms(broyden)= 0.10291E+01
  rms(prec ) = 0.11856E+01
  weight for this iteration     100.00

 eigenvalues of (default mixing * dielectric matrix)
  average eigenvalue GAMMA=   0.3378
  1.9298  1.1413  0.3575  0.3575  0.1589  0.1589  0.1133  0.1133  0.0893  0.0893
  0.0639  0.0639  0.0535  0.0392

 Free energy of the ion-electron system (eV)
  ---------------------------------------------------
  alpha Z        PSCENC =        75.25431677
  Ewald energy   TEWEN  =    137400.16871256
  -Hartree energ DENC   =   -181579.62301620
  -exchange      EXHF   =         0.00000000
  -V(xc)+E(xc)   XCENC  =     -1694.83533852
  PAW double counting   =     46092.56413816   -42564.87846728
  entropy T*S    EENTRO =        -0.03836717
  eigenvalues    EBANDS =     -2989.57309433
  atomic energy  EATOM  =     45086.50549395
  Solvation  Ediel_sol  =         0.00000000
  ---------------------------------------------------
  free energy    TOTEN  =      -174.45562205 eV

  energy without entropy =     -174.41725488  energy(sigma->0) =     -174.44603025


--------------------------------------------------------------------------------------------------------




--------------------------------------- Iteration      1(  20)  ---------------------------------------


    POTLOK:  cpu time   13.0358: real time   13.0367
    SETDIJ:  cpu time    0.1225: real time    0.1225
    EDDIAG:  cpu time   66.3235: real time   66.3240
  RMM-DIIS:  cpu time  179.5503: real time  179.5518
    ORTHCH:  cpu time   13.1035: real time   13.1035
       DOS:  cpu time    0.0015: real time    0.0015
    CHARGE:  cpu time   24.9326: real time   24.9328
    MIXING:  cpu time    1.0398: real time    1.0398
    --------------------------------------------
      LOOP:  cpu time  298.1095: real time  298.1126

 eigenvalue-minimisations  :   709
 total energy-change (2. order) :-0.1211189E+00  (-0.4243704E-01)
 number of electron     559.9999886 magnetization 
 augmentation part      241.1110610 magnetization 

 Broyden mixing:
  rms(total) = 0.12730E+01    rms(broyden)= 0.12728E+01
  rms(prec ) = 0.15197E+01
  weight for this iteration     100.00

 eigenvalues of (default mixing * dielectric matrix)
  average eigenvalue GAMMA=   0.3348
  2.0048  1.2338  0.3612  0.3612  0.1812  0.1812  0.1132  0.1132  0.0958  0.0958
  0.0657  0.0657  0.0551  0.0551  0.0392

 Free energy of the ion-electron system (eV)
  ---------------------------------------------------
  alpha Z        PSCENC =        75.25431677
  Ewald energy   TEWEN  =    137400.16871256
  -Hartree energ DENC   =   -181594.13137872
  -exchange      EXHF   =         0.00000000
  -V(xc)+E(xc)   XCENC  =     -1694.70064892
  PAW double counting   =     46095.90760376   -42567.44049142
  entropy T*S    EENTRO =         0.00888817
  eigenvalues    EBANDS =     -2976.14923707
  atomic energy  EATOM  =     45086.50549395
  Solvation  Ediel_sol  =         0.00000000
  ---------------------------------------------------
  free energy    TOTEN  =      -174.57674091 eV

  energy without entropy =     -174.58562908  energy(sigma->0) =     -174.57896295


--------------------------------------------------------------------------------------------------------




--------------------------------------- Iteration      1(  21)  ---------------------------------------


    POTLOK:  cpu time   12.8558: real time   12.8568
    SETDIJ:  cpu time    0.1224: real time    0.1224
    EDDIAG:  cpu time   66.0124: real time   66.0139
  RMM-DIIS:  cpu time  180.5406: real time  180.5439
    ORTHCH:  cpu time   13.2150: real time   13.2152
       DOS:  cpu time    0.0015: real time    0.0015
    CHARGE:  cpu time   24.6250: real time   24.6252
    MIXING:  cpu time    1.0660: real time    1.0660
    --------------------------------------------
      LOOP:  cpu time  298.4388: real time  298.4449

 eigenvalue-minimisations  :   710
 total energy-change (2. order) : 0.4054001E+00  (-0.2618606E-01)
 number of electron     559.9999879 magnetization 
 augmentation part      241.1179563 magnetization 

 Broyden mixing:
  rms(total) = 0.71289E+00    rms(broyden)= 0.71264E+00
  rms(prec ) = 0.82336E+00
  weight for this iteration     100.00

 eigenvalues of (default mixing * dielectric matrix)
  average eigenvalue GAMMA=   0.3343
  2.0802  1.2856  0.4721  0.2363  0.2363  0.2332  0.1114  0.1114  0.1058  0.1058
  0.0917  0.0664  0.0664  0.0392  0.0538  0.0538

 Free energy of the ion-electron system (eV)
  ---------------------------------------------------
  alpha Z        PSCENC =        75.25431677
  Ewald energy   TEWEN  =    137400.16871256
  -Hartree energ DENC   =   -181608.64656416
  -exchange      EXHF   =         0.00000000
  -V(xc)+E(xc)   XCENC  =     -1694.59544199
  PAW double counting   =     46097.50649400   -42568.51182116
  entropy T*S    EENTRO =        -0.08158110
  eigenvalues    EBANDS =     -2961.77094967
  atomic energy  EATOM  =     45086.50549395
  Solvation  Ediel_sol  =         0.00000000
  ---------------------------------------------------
  free energy    TOTEN  =      -174.17134080 eV

  energy without entropy =     -174.08975970  energy(sigma->0) =     -174.15094552


--------------------------------------------------------------------------------------------------------




--------------------------------------- Iteration      1(  22)  ---------------------------------------


    POTLOK:  cpu time   13.0254: real time   13.0260
    SETDIJ:  cpu time    0.1237: real time    0.1237
    EDDIAG:  cpu time   66.5544: real time   66.5553
  RMM-DIIS:  cpu time  178.4708: real time  178.4757
    ORTHCH:  cpu time   13.1624: real time   13.1625
       DOS:  cpu time    0.0015: real time    0.0015
    CHARGE:  cpu time   25.1419: real time   25.1421
    MIXING:  cpu time    1.1959: real time    1.1959
    --------------------------------------------
      LOOP:  cpu time  297.6760: real time  297.6827

 eigenvalue-minimisations  :   707
 total energy-change (2. order) : 0.1812850E+00  (-0.1713031E-01)
 number of electron     559.9999885 magnetization 
 augmentation part      241.2154979 magnetization 

 Broyden mixing:
  rms(total) = 0.52019E+00    rms(broyden)= 0.52002E+00
  rms(prec ) = 0.59093E+00
  weight for this iteration     100.00

 eigenvalues of (default mixing * dielectric matrix)
  average eigenvalue GAMMA=   0.3389
  2.1371  1.3374  0.6013  0.2841  0.2841  0.1825  0.1135  0.1135  0.1230  0.1119
  0.1119  0.0826  0.0662  0.0662  0.0392  0.0533  0.0533

 Free energy of the ion-electron system (eV)
  ---------------------------------------------------
  alpha Z        PSCENC =        75.25431677
  Ewald energy   TEWEN  =    137400.16871256
  -Hartree energ DENC   =   -181617.28926718
  -exchange      EXHF   =         0.00000000
  -V(xc)+E(xc)   XCENC  =     -1694.50661528
  PAW double counting   =     46095.63522985   -42566.29565167
  entropy T*S    EENTRO =        -0.08731558
  eigenvalues    EBANDS =     -2953.37495924
  atomic energy  EATOM  =     45086.50549395
  Solvation  Ediel_sol  =         0.00000000
  ---------------------------------------------------
  free energy    TOTEN  =      -173.99005581 eV

  energy without entropy =     -173.90274023  energy(sigma->0) =     -173.96822692


--------------------------------------------------------------------------------------------------------




--------------------------------------- Iteration      1(  23)  ---------------------------------------


    POTLOK:  cpu time   12.7033: real time   12.7040
    SETDIJ:  cpu time    0.1203: real time    0.1203
    EDDIAG:  cpu time   66.1004: real time   66.1018
  RMM-DIIS:  cpu time  178.7194: real time  178.7225
    ORTHCH:  cpu time   13.0937: real time   13.0938
       DOS:  cpu time    0.0015: real time    0.0015
    CHARGE:  cpu time   25.1637: real time   25.1638
    MIXING:  cpu time    1.2398: real time    1.2398
    --------------------------------------------
      LOOP:  cpu time  297.1420: real time  297.1475

 eigenvalue-minimisations  :   708
 total energy-change (2. order) : 0.7697764E-01  (-0.9539226E-02)
 number of electron     559.9999880 magnetization 
 augmentation part      241.2332879 magnetization 

 Broyden mixing:
  rms(total) = 0.49118E+00    rms(broyden)= 0.49108E+00
  rms(prec ) = 0.58442E+00
  weight for this iteration     100.00

 eigenvalues of (default mixing * dielectric matrix)
  average eigenvalue GAMMA=   0.3409
  2.1821  1.3958  0.6947  0.3049  0.3049  0.2016  0.1430  0.1430  0.1125  0.1125
[...]
 -0.006  -0.012   0.004   0.004   0.005  -0.006  -0.011   0.004
 -0.011  -0.020   0.006   0.008   0.009  -0.010  -0.019   0.006
 -0.015  -0.005   0.012   0.000   0.022  -0.014  -0.005   0.012
  0.000  -0.023  -0.006  -0.016  -0.000   0.000  -0.022  -0.006
 -0.022   0.000   0.009  -0.005  -0.016  -0.021   0.000   0.009
 -0.018  -0.006   0.015   0.000   0.027  -0.017  -0.006   0.015
  0.000  -0.027  -0.007  -0.019   0.000   0.000  -0.026  -0.007
 -0.027   0.000   0.011  -0.006  -0.019  -0.026   0.000   0.010
 total augmentation occupancy for first ion, spin component:           1
  1.541  -0.032   0.005   0.016   0.024   0.074  -0.007  -0.002   0.035  -0.010   0.088  -0.030   0.012   0.002   0.002  -0.019
 -0.032   1.404   0.029   0.070  -0.002  -0.006   0.069   0.011  -0.015  -0.007   0.215  -0.064   0.019   0.002   0.003  -0.006
  0.005   0.029   1.548   0.001   0.002  -0.002   0.012   0.071  -0.013   0.017  -0.055   0.019  -0.003  -0.007  -0.005   0.016
  0.016   0.070   0.001   1.342   0.045   0.033  -0.014  -0.012   0.090  -0.023  -0.086   0.023  -0.001  -0.008  -0.003   0.001
  0.024  -0.002   0.002   0.045   1.446  -0.010  -0.008   0.016  -0.022   0.065  -0.098   0.031  -0.002  -0.010  -0.010   0.026
  0.074  -0.006  -0.002   0.033  -0.010   0.216   0.018  -0.002  -0.045   0.004  -0.047   0.002   0.017  -0.010   0.035  -0.004
 -0.007   0.069   0.012  -0.014  -0.008   0.018   0.261  -0.023  -0.003   0.006  -0.109   0.007  -0.001   0.051  -0.010  -0.000
 -0.002   0.011   0.071  -0.012   0.016  -0.002  -0.023   0.214   0.014  -0.020   0.028  -0.001  -0.012   0.009  -0.018   0.003
  0.035  -0.015  -0.013   0.090  -0.022  -0.045  -0.003   0.014   0.259   0.007   0.044  -0.004  -0.009   0.036   0.004   0.000
 -0.010  -0.007   0.017  -0.023   0.065   0.004   0.006  -0.020   0.007   0.257   0.047  -0.003  -0.038   0.002   0.049   0.007
  0.088   0.215  -0.055  -0.086  -0.098  -0.047  -0.109   0.028   0.044   0.047   0.953  -0.141   0.083   0.014   0.065  -0.013
 -0.030  -0.064   0.019   0.023   0.031   0.002   0.007  -0.001  -0.004  -0.003  -0.141   0.023  -0.014  -0.003  -0.010   0.003
  0.012   0.019  -0.003  -0.001  -0.002   0.017  -0.001  -0.012  -0.009  -0.038   0.083  -0.014   0.029  -0.008  -0.004  -0.003
  0.002   0.002  -0.007  -0.008  -0.010  -0.010   0.051   0.009   0.036   0.002   0.014  -0.003  -0.008   0.036   0.004   0.000
  0.002   0.003  -0.005  -0.003  -0.010   0.035  -0.010  -0.018   0.004   0.049   0.065  -0.010  -0.004   0.004   0.035  -0.000
 -0.019  -0.006   0.016   0.001   0.026  -0.004  -0.000   0.003   0.000   0.007  -0.013   0.003  -0.003   0.000  -0.000   0.001
  0.001  -0.028  -0.007  -0.018   0.001   0.001  -0.008  -0.001  -0.006  -0.000  -0.003   0.001   0.000  -0.003  -0.000   0.000
 -0.028   0.001   0.012  -0.005  -0.020  -0.006   0.001   0.003  -0.001  -0.007  -0.008   0.001  -0.000  -0.000  -0.003   0.000


------------------------ aborting loop because EDIFF is reached ----------------------------------------


    CHARGE:  cpu time   24.8353: real time   24.8350
    FORLOC:  cpu time    6.7691: real time    6.7690
    FORNL :  cpu time   62.7273: real time   62.7266
    STRESS:  cpu time  189.3321: real time  189.3355
    FORCOR:  cpu time   21.4596: real time   21.4596
    FORHAR:  cpu time    9.6744: real time    9.6782
    MIXING:  cpu time    3.5995: real time    3.5995
    OFIELD:  cpu time    0.0000: real time    0.0000

  FORCE on cell =-STRESS in cart. coord.  units (eV):
  Direction    XX          YY          ZZ          XY          YZ          ZX
  --------------------------------------------------------------------------------------
  Alpha Z    75.25432    75.25432    75.25432
  Ewald   47186.23223 43600.54347 46613.28755  -163.86159  -166.82101  2235.52630
  Hartree 61887.81530 58519.37350 61365.28104  -148.33175  -154.08309  2047.43543
  E(xc)   -2903.39780 -2904.80949 -2903.96100    -0.12925    -0.06269     1.02495
  Local  ************************************   310.60556   319.76919 -4266.96866
  n-local  -888.15213  -881.69428  -886.53640     0.81389     0.33745    -5.22017
  augment  4103.19469  4104.39265  4103.78346     0.04857     0.05468    -0.82250
  Kinetic  7797.31816  7809.87502  7801.46020     1.01969     0.74224   -10.00420
  Fock        0.00000     0.00000     0.00000     0.00000     0.00000     0.00000
  -------------------------------------------------------------------------------------
  Total    -113.96364  -113.80967  -112.67974     0.16512    -0.06323     0.97116
  in kB      -6.76259    -6.75345    -6.68640     0.00980    -0.00375     0.05763
  external pressure =       -6.73 kB  Pullay stress =        0.00 kB


 VOLUME and BASIS-vectors are now :
 -----------------------------------------------------------------------------
  energy-cutoff  :      400.00
  volume of cell :    27000.00
      direct lattice vectors                 reciprocal lattice vectors
    30.000000000  0.000000000  0.000000000     0.033333333  0.000000000  0.000000000
     0.000000000 30.000000000  0.000000000     0.000000000  0.033333333  0.000000000
     0.000000000  0.000000000 30.000000000     0.000000000  0.000000000  0.033333333

  length of vectors
    30.000000000 30.000000000 30.000000000     0.033333333  0.033333333  0.033333333


 FORCES acting on ions
    electron-ion (+dipol)            ewald-force                    non-local-force                 convergence-correction
 -----------------------------------------------------------------------------------------------
   0.398E+03 0.973E+03 0.420E+03   -.396E+03 -.970E+03 -.419E+03   -.151E+01 -.181E+01 -.227E+00   -.282E-02 0.986E-03 0.161E-02
   -.967E+03 -.397E+03 0.431E+03   0.964E+03 0.395E+03 -.430E+03   0.181E+01 0.149E+01 -.228E+00   0.219E-04 -.142E-03 0.186E-02
   -.389E+03 0.975E+03 0.423E+03   0.387E+03 -.972E+03 -.423E+03   0.151E+01 -.181E+01 -.211E+00   -.679E-03 0.643E-03 0.285E-02
   0.973E+03 -.394E+03 0.418E+03   -.970E+03 0.392E+03 -.418E+03   -.182E+01 0.150E+01 -.217E+00   -.154E-02 0.103E-02 0.522E-02
   0.351E+01 0.587E+03 0.968E+03   -.349E+01 -.587E+03 -.964E+03   -.915E-02 -.300E+00 -.235E+01   -.253E-02 0.145E-02 -.159E-02
   0.219E+02 0.596E+03 -.959E+03   -.219E+02 -.595E+03 0.956E+03   -.180E-01 -.327E+00 0.235E+01   -.976E-04 0.502E-02 -.891E-03
   0.607E+01 0.114E+04 0.562E+01   -.607E+01 -.113E+04 -.565E+01   0.306E-02 -.310E+01 0.120E-01   -.180E-02 -.396E-04 0.410E-02
   0.113E+04 -.217E+00 0.264E+01   -.113E+04 0.217E+00 -.263E+01   -.310E+01 -.703E-03 -.453E-02   -.404E-03 0.482E-03 0.753E-04
   -.113E+04 -.282E+01 0.370E+02   0.113E+04 0.282E+01 -.370E+02   0.311E+01 0.246E-02 0.136E-01   -.159E-02 0.109E-02 0.225E-02
   0.516E+01 -.114E+04 0.479E+01   -.516E+01 0.113E+04 -.481E+01   0.128E-02 0.311E+01 0.114E-01   -.161E-02 -.205E-02 0.808E-03
   -.575E+03 0.580E+03 0.818E+03   0.572E+03 -.577E+03 -.815E+03   0.156E+01 -.155E+01 -.220E+01   0.126E-02 0.339E-02 -.360E-03
   -.529E+03 0.622E+03 -.792E+03   0.527E+03 -.620E+03 0.789E+03   0.157E+01 -.146E+01 0.217E+01   -.156E-02 0.447E-02 -.225E-03
   0.580E+03 -.579E+03 0.814E+03   -.578E+03 0.576E+03 -.811E+03   -.155E+01 0.156E+01 -.220E+01   -.741E-03 0.258E-02 0.224E-02
   0.586E+03 -.581E+03 -.810E+03   -.584E+03 0.579E+03 0.807E+03   -.155E+01 0.156E+01 0.220E+01   0.207E-02 -.232E-02 -.845E-03
   0.580E+03 0.579E+03 0.814E+03   -.578E+03 -.576E+03 -.811E+03   -.155E+01 -.156E+01 -.219E+01   -.113E-02 -.110E-02 0.721E-03
   0.587E+03 0.581E+03 -.810E+03   -.585E+03 -.578E+03 0.807E+03   -.155E+01 -.156E+01 0.220E+01   0.281E-02 0.172E-02 0.302E-03
   -.575E+03 -.580E+03 0.818E+03   0.573E+03 0.578E+03 -.814E+03   0.156E+01 0.155E+01 -.220E+01   0.270E-02 -.805E-03 0.465E-05
   -.545E+03 -.616E+03 -.799E+03   0.543E+03 0.614E+03 0.795E+03   0.157E+01 0.151E+01 0.220E+01   -.112E-02 -.534E-02 -.192E-02
   0.403E+03 0.976E+03 -.411E+03   -.401E+03 -.973E+03 0.411E+03   -.149E+01 -.181E+01 0.227E+00   -.671E-03 0.300E-02 0.234E-02
   -.946E+03 -.430E+03 -.355E+03   0.944E+03 0.428E+03 0.354E+03   0.177E+01 0.137E+01 0.343E+00   -.207E-02 -.274E-02 -.461E-03
   -.314E+03 0.322E+03 0.463E+03   0.314E+03 -.323E+03 -.464E+03   -.364E+00 0.370E+00 0.535E+00   -.305E-03 0.444E-02 0.457E-02
   0.973E+03 0.394E+03 0.419E+03   -.970E+03 -.392E+03 -.418E+03   -.182E+01 -.150E+01 -.220E+00   -.171E-02 -.152E-02 0.230E-02
   -.389E+03 -.975E+03 0.422E+03   0.387E+03 0.972E+03 -.422E+03   0.151E+01 0.181E+01 -.216E+00   0.439E-03 -.336E-03 0.297E-02
   -.379E+03 0.984E+03 -.405E+03   0.377E+03 -.981E+03 0.405E+03   0.148E+01 -.183E+01 0.210E+00   -.694E-03 0.429E-02 0.273E-02
   0.975E+03 -.395E+03 -.413E+03   -.972E+03 0.393E+03 0.413E+03   -.182E+01 0.150E+01 0.210E+00   0.282E-02 0.116E-02 0.181E-04
   -.967E+03 0.396E+03 0.432E+03   0.964E+03 -.394E+03 -.431E+03   0.181E+01 -.149E+01 -.230E+00   0.130E-02 0.323E-02 0.305E-02
   0.397E+03 -.973E+03 0.420E+03   -.395E+03 0.970E+03 -.419E+03   -.151E+01 0.181E+01 -.229E+00   -.116E-02 0.812E-03 0.575E-02
   0.326E+03 0.321E+03 0.458E+03   -.326E+03 -.322E+03 -.459E+03   0.374E+00 0.360E+00 0.520E+00   0.766E-03 0.595E-04 0.394E-02
   0.985E+01 0.642E+03 0.912E+01   -.987E+01 -.643E+03 -.915E+01   0.157E-01 0.748E+00 0.138E-01   -.890E-03 0.486E-02 0.622E-02
   -.583E+03 -.425E+00 0.971E+03   0.582E+03 0.422E+00 -.967E+03   0.316E+00 0.805E-04 -.234E+01   0.162E-02 0.273E-02 0.359E-03
   -.462E+03 -.188E+02 -.915E+03   0.462E+03 0.188E+02 0.912E+03   0.481E+00 -.125E+00 0.194E+01   -.342E-02 -.237E-02 -.238E-02
   0.588E+03 -.178E+00 0.966E+03   -.588E+03 0.184E+00 -.962E+03   -.311E+00 -.308E-02 -.235E+01   -.997E-03 -.247E-02 0.146E-02
   0.596E+03 -.571E+00 -.962E+03   -.595E+03 0.572E+00 0.958E+03   -.279E+00 0.403E-03 0.235E+01   0.499E-02 -.136E-02 0.716E-03
   0.765E+03 0.762E+03 0.407E+01   -.763E+03 -.760E+03 -.407E+01   -.114E+01 -.114E+01 -.296E-02   0.786E-03 0.240E-03 0.268E-02
   -.751E+03 -.770E+03 0.165E+02   0.749E+03 0.768E+03 -.165E+02   0.113E+01 0.115E+01 -.180E-01   0.449E-03 -.251E-02 0.267E-02
   -.749E+03 0.770E+03 0.197E+02   0.747E+03 -.768E+03 -.196E+02   0.113E+01 -.116E+01 -.299E-01   0.909E-03 0.376E-02 0.492E-02
   0.765E+03 -.762E+03 0.379E+01   -.763E+03 0.760E+03 -.379E+01   -.114E+01 0.114E+01 -.373E-02   0.126E-02 0.157E-02 0.233E-02
   0.372E+01 -.281E+00 0.107E+04   -.372E+01 0.283E+00 -.107E+04   -.385E-02 -.635E-03 -.161E+01   0.277E-02 -.826E-03 0.424E-03
   0.300E+02 -.210E+01 -.106E+04   -.299E+02 0.211E+01 0.106E+04   -.107E+00 0.833E-03 0.163E+01   0.121E-02 -.119E-02 -.219E-02
   0.975E+03 0.394E+03 -.413E+03   -.972E+03 -.392E+03 0.413E+03   -.182E+01 -.150E+01 0.209E+00   0.314E-02 -.244E-05 0.235E-02
   -.382E+03 -.983E+03 -.407E+03   0.380E+03 0.980E+03 0.407E+03   0.149E+01 0.182E+01 0.214E+00   -.155E-02 -.315E-02 -.155E-02
   -.292E+03 0.328E+03 -.431E+03   0.292E+03 -.329E+03 0.432E+03   -.368E+00 0.326E+00 -.542E+00   -.119E-02 0.459E-02 0.371E-02
   0.326E+03 -.322E+03 0.458E+03   -.326E+03 0.322E+03 -.458E+03   0.374E+00 -.360E+00 0.519E+00   0.133E-02 0.124E-02 0.768E-02
   0.334E+03 0.323E+03 -.446E+03   -.334E+03 -.323E+03 0.447E+03   0.377E+00 0.380E+00 -.523E+00   0.428E-02 0.192E-02 0.392E-02
   -.939E+03 0.420E+03 -.336E+03   0.937E+03 -.418E+03 0.336E+03   0.172E+01 -.134E+01 0.454E+00   -.359E-02 0.300E-02 0.202E-02
   0.402E+03 -.976E+03 -.412E+03   -.399E+03 0.973E+03 0.411E+03   -.149E+01 0.181E+01 0.226E+00   -.880E-03 -.293E-02 -.194E-02
   -.314E+03 -.323E+03 0.462E+03   0.315E+03 0.324E+03 -.463E+03   -.361E+00 -.373E+00 0.538E+00   0.182E-02 -.863E-03 0.426E-02
   0.644E+03 -.366E+00 0.455E+01   -.645E+03 0.365E+00 -.456E+01   0.725E+00 0.522E-04 0.520E-02   0.250E-02 0.171E-02 0.297E-02
   -.624E+03 -.201E+01 0.261E+02   0.625E+03 0.199E+01 -.261E+02   -.736E+00 0.109E-01 -.280E-01   -.873E-03 0.124E-02 0.533E-02
   0.330E+01 -.588E+03 0.967E+03   -.328E+01 0.587E+03 -.964E+03   -.120E-01 0.304E+00 -.235E+01   0.229E-02 0.111E-02 0.809E-03
   0.183E+02 -.597E+03 -.960E+03   -.183E+02 0.596E+03 0.956E+03   -.146E-01 0.323E+00 0.235E+01   -.110E-02 -.502E-02 -.947E-03
   0.118E+02 -.848E+00 0.109E+02   -.118E+02 0.847E+00 -.109E+02   -.589E-02 0.112E-02 -.565E-02   0.172E-02 0.655E-03 0.651E-02
   0.333E+03 -.324E+03 -.447E+03   -.333E+03 0.324E+03 0.447E+03   0.378E+00 -.379E+00 -.518E+00   0.353E-02 -.194E-02 0.878E-03
   -.295E+03 -.332E+03 -.434E+03   0.296E+03 0.332E+03 0.434E+03   -.400E+00 -.308E+00 -.586E+00   -.137E-02 -.556E-02 0.519E-03
   0.879E+01 -.643E+03 0.814E+01   -.881E+01 0.644E+03 -.817E+01   0.158E-01 -.746E+00 0.170E-01   -.164E-02 -.225E-02 0.369E-02
   -.135E+03 0.934E+01 -.118E+03   0.114E+03 -.784E+01 0.993E+02   0.182E+02 -.126E+01 0.170E+02   -.170E-02 -.172E-04 -.820E-03
   -.500E+03 0.349E+02 -.463E+03   0.546E+03 -.381E+02 0.506E+03   -.445E+02 0.306E+01 -.410E+02   -.183E-02 -.108E-03 -.112E-02
 -----------------------------------------------------------------------------------------------
   0.264E+02 -.180E+01 0.240E+02   0.114E-11 -.576E-12 -.125E-11   -.264E+02 0.179E+01 -.241E+02   0.352E-02 0.195E-01 0.989E-01
 
 
 POSITION                                       TOTAL-FORCE (eV/Angst)
 -----------------------------------------------------------------------------------
     13.37281      9.84801     12.50759         0.711676      1.106880      0.296908
     20.15199     16.62719     12.50759        -1.106208     -0.706223      0.294176
     16.62719      9.84801     12.50759        -0.710770      1.105623      0.286506
      9.84801     16.62719     12.50759         1.110209     -0.705341      0.289452
     15.00000     11.47521     10.20639         0.004625      0.411675      1.285779
     15.00000     11.47521     19.79360         0.002062      0.409162     -1.280596
     15.00000      8.28283     15.00000        -0.002126      1.520175     -0.008136
      8.28283     15.00000     15.00000         1.519241     -0.000114      0.003665
     21.71717     15.00000     15.00000        -1.528592     -0.000028     -0.005232
     15.00000     21.71717     15.00000        -0.001189     -1.520819     -0.006990
     18.35858     11.64142     10.25025        -0.761037      0.754651      1.073688
     18.35858     11.64142     19.74975        -0.781192      0.724273     -1.087462
     11.64142     18.35858     10.25025         0.755265     -0.757726      1.072153
     11.64142     18.35858     19.74975         0.753080     -0.760123     -1.075729
     11.64142     11.64142     10.25025         0.757784      0.756276      1.073201
     11.64142     11.64142     19.74975         0.752622      0.760511     -1.076226
     18.35858     18.35858     10.25025        -0.760931     -0.754800      1.074203
     18.35858     18.35858     19.74975        -0.776808     -0.737973     -1.090751
     13.37281      9.84801     17.49241         0.704649      1.109089     -0.291559
     20.15199     16.62719     17.49241        -1.097687     -0.663647     -0.343064
     16.73751     13.26249     12.54279         0.111967     -0.114614     -0.157196
      9.84801     13.37281     12.50759         1.109072      0.705312      0.289882
     16.62719     20.15199     12.50759        -0.707606     -1.106203      0.288719
     16.62719      9.84801     17.49241        -0.701924      1.110539     -0.284531
      9.84801     16.62719     17.49241         1.111957     -0.707440     -0.287533
     20.15199     13.37281     12.50759        -1.105555      0.704974      0.293669
     13.37281     20.15199     12.50759         0.710432     -1.106489      0.296890
     13.26249     13.26249     12.54279        -0.114888     -0.109724     -0.158974
     15.00000     11.52498     15.00000        -0.004086     -0.236942     -0.011037
     18.52479     15.00000     10.20639        -0.414275     -0.000091      1.280389
     18.52479     15.00000     19.79360         0.240773     -0.097197     -0.976000
     11.47521     15.00000     10.20640         0.412162      0.000778      1.282964
     11.47521     15.00000     19.79360         0.396488     -0.000262     -1.289063
     11.49535     11.49535     15.00000         0.826619      0.826833     -0.000220
     18.50465     18.50465     15.00000        -0.820756     -0.837367      0.009091
     18.50465     11.49535     15.00000        -0.817928      0.841812      0.011055
     11.49535     18.50465     15.00000         0.827485     -0.827974      0.000456
     15.00000     15.00000     10.04368        -0.000612     -0.000338      1.176473
     15.00000     15.00000     19.95633         0.042469      0.005264     -1.195907
      9.84801     13.37281     17.49241         1.113769      0.706794     -0.286807
     16.62719     20.15199     17.49241        -0.701136     -1.111740     -0.285769
     16.73751     13.26249     17.45721         0.082899     -0.111896      0.145213
     13.26249     16.73751     12.54279        -0.114834      0.107450     -0.156812
     13.26249     13.26249     17.45721        -0.111716     -0.110050      0.160637
     20.15199     13.37281     17.49241        -1.068015      0.681824     -0.299163
     13.37281     20.15199     17.49241         0.703639     -1.109044     -0.292050
     16.73751     16.73751     12.54279         0.109748      0.116598     -0.160823
     11.52498     15.00000     15.00000        -0.232747      0.000037     -0.001361
     18.47502     15.00000     15.00000         0.226083     -0.001641     -0.006156
     15.00000     18.52480     10.20639         0.006426     -0.413652      1.285513
     15.00000     18.52480     19.79360         0.004142     -0.412181     -1.279893
     15.00000     15.00000     15.00000         0.010735     -0.000331      0.006637
     13.26249     16.73751     17.45721        -0.109956      0.109729      0.161272
     16.73751     16.73751     17.45721         0.099142      0.102769      0.167117
     15.00000     18.47502     15.00000        -0.004971      0.238827     -0.011095
     21.13045     14.57588     20.63745        -2.753574      0.245491     -2.086483
     21.95968     14.51851     21.39999         2.093896     -0.141375      1.886913
 -----------------------------------------------------------------------------------
    total drift:                                0.004658      0.009238      0.009211


--------------------------------------------------------------------------------------------------------



  FREE ENERGIE OF THE ION-ELECTRON SYSTEM (eV)
  ---------------------------------------------------
  free  energy   TOTEN  =      -173.76396678 eV

  energy  without entropy=     -173.64570524  energy(sigma->0) =     -173.73440140
 


--------------------------------------------------------------------------------------------------------


    POTLOK:  cpu time   13.8493: real time   13.8492


--------------------------------------------------------------------------------------------------------


     LOOP+:  cpu time17424.8492: real time17425.5761
    4ORBIT:  cpu time    0.0000: real time    0.0000

 total amount of memory used by VASP MPI-rank0  5486942. kBytes
=======================================================================

   base      :      30000. kBytes
   nonlr-proj:      17127. kBytes
   fftplans  :     924480. kBytes
   grid      :    1872000. kBytes
   one-center:        886. kBytes
   wavefun   :    2642449. kBytes
 
  
  
 General timing and accounting informations for this job:
 ========================================================
  
                  Total CPU time used (sec):    17498.766
                            User time (sec):    16536.100
                          System time (sec):      962.665
                         Elapsed time (sec):    17499.542
  
                   Maximum memory used (kb):     7178572.
                   Average memory used (kb):           0.
  
                          Minor page faults:    810837805
                          Major page faults:            0
                 Voluntary context switches:          432
