  57  57   0   0
  0.4736842E+03  0.3000000E-08  0.3000000E-08  0.3000000E-08  0.5000000E-15
  1.000000000000000E-004
  CAR 
 6_Pd100_top_free_z(O)                   
      1.22428494    -30.08268697  301     -4.14180503      1.00000000
    -30.083  0.0000E+00  0.0000E+00
    -29.978  0.0000E+00  0.0000E+00
    -29.874  0.0000E+00  0.0000E+00
    -29.770  0.1954E-27  0.2040E-28
    -29.665  0.8111E-24  0.8467E-25
    -29.561  0.1925E-20  0.2009E-21
    -29.457  0.2604E-17  0.2719E-18
    -29.352  0.2002E-14  0.2092E-15
    -29.248  0.8732E-12  0.9133E-13
    -29.143  0.2137E-09  0.2240E-10
    -29.039  0.2920E-07  0.3070E-08
    -28.935  0.2197E-05  0.2323E-06
    -28.830  0.8904E-04  0.9524E-05
    -28.726  0.1869E-02  0.2046E-03
    -28.622  0.1858E-01  0.2143E-02
    -28.517  0.6360E-01  0.8780E-02
    -28.413 -0.1227E+00 -0.4022E-02
    -28.309 -0.8015E+00 -0.8766E-01
    -28.204  0.1022E+01  0.1897E-01
    -28.100  0.7665E+01  0.8188E+00
    -27.996  0.9389E+01  0.1799E+01
    -27.891  0.2919E+01  0.2103E+01
    -27.787 -0.7504E+00  0.2025E+01
    -27.682 -0.3333E+00  0.1990E+01
    -27.578  0.5728E-01  0.1996E+01
    -27.474  0.3245E-01  0.2000E+01
    -27.369  0.4365E-02  0.2000E+01
    -27.265  0.2623E-03  0.2000E+01
    -27.161  0.7995E-05  0.2000E+01
    -27.056  0.1300E-06  0.2000E+01
    -26.952  0.1156E-08  0.2000E+01
    -26.848  0.5719E-11  0.2000E+01
    -26.743  0.1489E-13  0.2000E+01
    -26.639  0.0000E+00  0.2000E+01
    -26.535  0.0000E+00  0.2000E+01
    -26.430  0.0000E+00  0.2000E+01
    -26.326  0.0000E+00  0.2000E+01
    -26.221  0.0000E+00  0.2000E+01
    -26.117  0.0000E+00  0.2000E+01
    -26.013  0.0000E+00  0.2000E+01
    -25.908  0.0000E+00  0.2000E+01
    -25.804  0.0000E+00  0.2000E+01
    -25.700  0.0000E+00  0.2000E+01
    -25.595  0.0000E+00  0.2000E+01
    -25.491  0.0000E+00  0.2000E+01
    -25.387  0.0000E+00  0.2000E+01
    -25.282  0.0000E+00  0.2000E+01
    -25.178  0.0000E+00  0.2000E+01
    -25.074  0.0000E+00  0.2000E+01
    -24.969  0.0000E+00  0.2000E+01
    -24.865  0.0000E+00  0.2000E+01
    -24.761  0.0000E+00  0.2000E+01
    -24.656  0.0000E+00  0.2000E+01
    -24.552  0.0000E+00  0.2000E+01
    -24.447  0.0000E+00  0.2000E+01
    -24.343  0.0000E+00  0.2000E+01
    -24.239  0.0000E+00  0.2000E+01
    -24.134  0.0000E+00  0.2000E+01
    -24.030  0.0000E+00  0.2000E+01
    -23.926  0.0000E+00  0.2000E+01
    -23.821  0.0000E+00  0.2000E+01
    -23.717  0.0000E+00  0.2000E+01
    -23.613  0.0000E+00  0.2000E+01
    -23.508  0.0000E+00  0.2000E+01
    -23.404  0.0000E+00  0.2000E+01
    -23.300  0.0000E+00  0.2000E+01
    -23.195  0.0000E+00  0.2000E+01
    -23.091  0.0000E+00  0.2000E+01
    -22.986  0.0000E+00  0.2000E+01
    -22.882  0.0000E+00  0.2000E+01
    -22.778  0.0000E+00  0.2000E+01
    -22.673  0.0000E+00  0.2000E+01
    -22.569  0.0000E+00  0.2000E+01
    -22.465  0.0000E+00  0.2000E+01
    -22.360  0.0000E+00  0.2000E+01
    -22.256  0.0000E+00  0.2000E+01
    -22.152  0.0000E+00  0.2000E+01
    -22.047  0.0000E+00  0.2000E+01
    -21.943  0.0000E+00  0.2000E+01
    -21.839  0.0000E+00  0.2000E+01
    -21.734  0.0000E+00  0.2000E+01
    -21.630  0.0000E+00  0.2000E+01
    -21.525  0.0000E+00  0.2000E+01
    -21.421  0.0000E+00  0.2000E+01
    -21.317  0.0000E+00  0.2000E+01
    -21.212  0.0000E+00  0.2000E+01
    -21.108  0.0000E+00  0.2000E+01
    -21.004  0.0000E+00  0.2000E+01
    -20.899  0.0000E+00  0.2000E+01
    -20.795  0.0000E+00  0.2000E+01
    -20.691  0.0000E+00  0.2000E+01
    -20.586  0.0000E+00  0.2000E+01
    -20.482  0.0000E+00  0.2000E+01
    -20.378  0.0000E+00  0.2000E+01
    -20.273  0.0000E+00  0.2000E+01
    -20.169  0.0000E+00  0.2000E+01
    -20.064  0.0000E+00  0.2000E+01
    -19.960  0.0000E+00  0.2000E+01
    -19.856  0.0000E+00  0.2000E+01
    -19.751  0.0000E+00  0.2000E+01
    -19.647  0.0000E+00  0.2000E+01
    -19.543  0.0000E+00  0.2000E+01
    -19.438  0.0000E+00  0.2000E+01
    -19.334  0.0000E+00  0.2000E+01
    -19.230  0.0000E+00  0.2000E+01
    -19.125  0.0000E+00  0.2000E+01
    -19.021  0.0000E+00  0.2000E+01
    -18.917  0.0000E+00  0.2000E+01
    -18.812  0.0000E+00  0.2000E+01
    -18.708  0.0000E+00  0.2000E+01
    -18.603  0.0000E+00  0.2000E+01
    -18.499  0.0000E+00  0.2000E+01
    -18.395  0.0000E+00  0.2000E+01
    -18.290  0.0000E+00  0.2000E+01
    -18.186  0.0000E+00  0.2000E+01
    -18.082  0.0000E+00  0.2000E+01
    -17.977  0.0000E+00  0.2000E+01
    -17.873  0.0000E+00  0.2000E+01
    -17.769  0.0000E+00  0.2000E+01
    -17.664  0.0000E+00  0.2000E+01
    -17.560  0.0000E+00  0.2000E+01
    -17.456  0.0000E+00  0.2000E+01
    -17.351  0.0000E+00  0.2000E+01
    -17.247  0.0000E+00  0.2000E+01
    -17.142  0.0000E+00  0.2000E+01
    -17.038  0.0000E+00  0.2000E+01
    -16.934  0.0000E+00  0.2000E+01
    -16.829  0.0000E+00  0.2000E+01
    -16.725  0.0000E+00  0.2000E+01
    -16.621  0.0000E+00  0.2000E+01
    -16.516  0.0000E+00  0.2000E+01
    -16.412  0.0000E+00  0.2000E+01
    -16.308  0.0000E+00  0.2000E+01
    -16.203  0.0000E+00  0.2000E+01
    -16.099  0.0000E+00  0.2000E+01
    -15.995  0.0000E+00  0.2000E+01
    -15.890  0.0000E+00  0.2000E+01
    -15.786  0.0000E+00  0.2000E+01
    -15.681  0.0000E+00  0.2000E+01
    -15.577  0.0000E+00  0.2000E+01
    -15.473  0.4419E-27  0.2000E+01
    -15.368  0.1739E-23  0.2000E+01
    -15.264  0.3913E-20  0.2000E+01
    -15.160  0.5018E-17  0.2000E+01
    -15.055  0.3655E-14  0.2000E+01
    -14.951  0.1509E-11  0.2000E+01
    -14.847  0.3498E-09  0.2000E+01
    -14.742  0.4518E-07  0.2000E+01
    -14.638  0.3208E-05  0.2000E+01
    -14.534  0.1224E-03  0.2000E+01
    -14.429  0.2406E-02  0.2000E+01
    -14.325  0.2207E-01  0.2003E+01
    -14.220  0.6476E-01  0.2009E+01
    -14.116 -0.1750E+00  0.1991E+01
    -14.012 -0.8224E+00  0.1905E+01
    -13.907  0.1503E+01  0.2062E+01
    -13.803  0.8247E+01  0.2923E+01
    -13.699  0.8986E+01  0.3861E+01
    -13.594  0.2311E+01  0.4102E+01
    -13.490 -0.8042E+00  0.4018E+01
    -13.386 -0.2649E+00  0.3990E+01
    -13.281  0.6245E-01  0.3997E+01
    -13.177  0.2797E-01  0.4000E+01
    -13.073  0.3449E-02  0.4000E+01
    -12.968  0.1936E-03  0.4000E+01
    -12.864  0.5550E-05  0.4000E+01
    -12.759  0.8512E-07  0.4000E+01
    -12.655  0.8015E-09  0.4000E+01
    -12.551  0.1296E-07  0.4000E+01
    -12.446  0.1082E-05  0.4000E+01
    -12.342  0.4897E-04  0.4000E+01
    -12.238  0.1158E-02  0.4000E+01
    -12.133  0.1325E-01  0.4002E+01
    -12.029  0.5775E-01  0.4008E+01
    -11.925 -0.4567E-01  0.4003E+01
    -11.820 -0.7136E+00  0.3928E+01
    -11.716  0.2973E+00  0.3959E+01
    -11.612  0.6512E+01  0.4639E+01
    -11.507  0.9940E+01  0.5676E+01
    -11.403  0.3768E+01  0.6069E+01
    -11.299 -0.1222E+01  0.5942E+01
    -11.194  0.2747E+01  0.6229E+01
    -11.090  0.9112E+01  0.7180E+01
    -10.985  0.6878E+01  0.7897E+01
    -10.881  0.4821E+01  0.8400E+01
    -10.777  0.9056E+01  0.9345E+01
    -10.672  0.6527E+01  0.1003E+02
    -10.568  0.4343E+00  0.1007E+02
    -10.464 -0.7100E+00  0.9998E+01
    -10.359 -0.5219E-01  0.9992E+01
    -10.255  0.5874E-01  0.9998E+01
    -10.151  0.1384E-01  0.1000E+02
    -10.046  0.1229E-02  0.1000E+02
     -9.942  0.5277E-04  0.1000E+02
     -9.838  0.1182E-05  0.1000E+02
     -9.733  0.1434E-07  0.1000E+02
     -9.629  0.9593E-10  0.1000E+02
     -9.524  0.3596E-12  0.1000E+02
     -9.420  0.0000E+00  0.1000E+02
     -9.316  0.0000E+00  0.1000E+02
     -9.211  0.0000E+00  0.1000E+02
     -9.107  0.0000E+00  0.1000E+02
     -9.003  0.0000E+00  0.1000E+02
     -8.898  0.0000E+00  0.1000E+02
     -8.794  0.0000E+00  0.1000E+02
     -8.690  0.0000E+00  0.1000E+02
     -8.585  0.1424E-24  0.1000E+02
     -8.481  0.3812E-21  0.1000E+02
     -8.377  0.5823E-18  0.1000E+02
     -8.272  0.5062E-15  0.1000E+02
     -8.168  0.2494E-12  0.1000E+02
     -8.063  0.6949E-10  0.1000E+02
     -7.959  0.1082E-07  0.1000E+02
     -7.855  0.9349E-06  0.1000E+02
     -7.750  0.4403E-04  0.1000E+02
     -7.646  0.1099E-02  0.1000E+02
     -7.542  0.1369E-01  0.1000E+02
     -7.437  0.7187E-01  0.1001E+02
     -7.333  0.3097E-01  0.1001E+02
     -7.229 -0.7610E+00  0.9933E+01
     -7.124 -0.5665E+00  0.9874E+01
     -7.020  0.6845E+01  0.1059E+02
     -6.916  0.1648E+02  0.1231E+02
     -6.811  0.1389E+02  0.1376E+02
     -6.707  0.8395E+01  0.1463E+02
     -6.602  0.8944E+01  0.1557E+02
     -6.498  0.4252E+01  0.1601E+02
     -6.394 -0.1030E+01  0.1590E+02
     -6.289  0.5370E+01  0.1646E+02
     -6.185  0.2024E+02  0.1858E+02
     -6.081  0.3042E+02  0.2175E+02
     -5.976  0.3152E+02  0.2504E+02
     -5.872  0.3027E+02  0.2820E+02
     -5.768  0.4154E+02  0.3253E+02
     -5.663  0.8231E+02  0.4112E+02
     -5.559  0.1789E+03  0.5980E+02
     -5.455  0.2844E+03  0.8948E+02
     -5.350  0.2831E+03  0.1190E+03
     -5.246  0.2158E+03  0.1415E+03
     -5.141  0.2251E+03  0.1650E+03
     -5.037  0.3176E+03  0.1982E+03
     -4.933  0.3612E+03  0.2359E+03
     -4.828  0.3074E+03  0.2680E+03
     -4.724  0.2948E+03  0.2987E+03
     -4.620  0.3763E+03  0.3380E+03
     -4.515  0.4215E+03  0.3820E+03
     -4.411  0.4293E+03  0.4268E+03
     -4.307  0.5092E+03  0.4799E+03
     -4.202  0.5380E+03  0.5361E+03
     -4.098  0.3343E+03  0.5710E+03
     -3.994  0.8677E+02  0.5800E+03
     -3.889  0.1645E+02  0.5817E+03
     -3.785  0.3277E+02  0.5851E+03
     -3.680  0.2341E+02  0.5876E+03
     -3.576  0.1027E+02  0.5887E+03
     -3.472  0.1664E+02  0.5904E+03
     -3.367  0.1512E+02  0.5920E+03
     -3.263  0.5408E+01  0.5925E+03
     -3.159  0.1309E+02  0.5939E+03
     -3.054  0.4701E+02  0.5988E+03
     -2.950  0.6281E+02  0.6054E+03
     -2.846  0.3387E+02  0.6089E+03
     -2.741  0.7303E+01  0.6097E+03
     -2.637  0.5233E+01  0.6102E+03
     -2.533  0.2025E+02  0.6123E+03
     -2.428  0.2514E+02  0.6149E+03
     -2.324  0.1015E+02  0.6160E+03
     -2.219  0.1091E+02  0.6171E+03
     -2.115  0.2992E+02  0.6203E+03
     -2.011  0.3931E+02  0.6244E+03
     -1.906  0.4270E+02  0.6288E+03
     -1.802  0.4253E+02  0.6333E+03
     -1.698  0.3636E+02  0.6371E+03
     -1.593  0.3596E+02  0.6408E+03
     -1.489  0.3469E+02  0.6444E+03
     -1.385  0.2550E+02  0.6471E+03
     -1.280  0.1625E+02  0.6488E+03
     -1.176  0.8759E+01  0.6497E+03
     -1.072  0.2093E+02  0.6519E+03
     -0.967  0.5777E+02  0.6579E+03
     -0.863  0.7504E+02  0.6657E+03
     -0.758  0.4965E+02  0.6709E+03
     -0.654  0.1361E+02  0.6723E+03
     -0.550 -0.2098E+01  0.6721E+03
     -0.445 -0.1612E+01  0.6720E+03
     -0.341  0.1549E+00  0.6720E+03
     -0.237  0.1926E+00  0.6720E+03
     -0.132  0.3726E-01  0.6720E+03
     -0.028  0.3145E-02  0.6720E+03
      0.076  0.1343E-03  0.6720E+03
      0.181  0.3065E-05  0.6720E+03
      0.285  0.3840E-07  0.6720E+03
      0.389  0.2683E-09  0.6720E+03
      0.494  0.1055E-11  0.6720E+03
      0.598  0.2128E-14  0.6720E+03
      0.703  0.0000E+00  0.6720E+03
      0.807  0.0000E+00  0.6720E+03
      0.911  0.0000E+00  0.6720E+03
      1.016  0.0000E+00  0.6720E+03
      1.120  0.0000E+00  0.6720E+03
      1.224  0.0000E+00  0.6720E+03
