   57   57    1    1
  0.4736842E+03  0.3000000E-08  0.3000000E-08  0.3000000E-08  0.5000000E-15
  1.000000000000000E-004
  CAR 
 6_Pd100_top_free_z(O)                   
    560      1    336
 
  0.0000000E+00  0.0000000E+00  0.0000000E+00  0.1000000E+01
    1      -28.587131   1.000000
    2      -13.378390   1.000000
    3      -10.993313   1.000000
    4      -10.991456   1.000000
    5      -10.632174   1.000000
    6       -6.670615   1.000000
    7       -6.164878   1.000000
    8       -6.152725   1.000000
    9       -6.150026   1.000000
   10       -6.105433   1.000000
   11       -5.972707   1.000000
   12       -5.836036   1.000000
   13       -5.833950   1.000000
   14       -5.831591   1.000000
   15       -5.766474   1.000000
   16       -5.714569   1.000000
   17       -5.713563   1.000000
   18       -5.706724   1.000000
   19       -5.664742   1.000000
   20       -5.644649   1.000000
   21       -5.638704   1.000000
   22       -5.636000   1.000000
   23       -5.629062   1.000000
   24       -5.616773   1.000000
   25       -5.588138   1.000000
   26       -5.581943   1.000000
   27       -5.568996   1.000000
   28       -5.568684   1.000000
   29       -5.562389   1.000000
   30       -5.556797   1.000000
   31       -5.545480   1.000000
   32       -5.541887   1.000000
   33       -5.538340   1.000000
   34       -5.535471   1.000000
   35       -5.535307   1.000000
   36       -5.533708   1.000000
   37       -5.519665   1.000000
   38       -5.510086   1.000000
   39       -5.497144   1.000000
   40       -5.493361   1.000000
   41       -5.492770   1.000000
   42       -5.491301   1.000000
   43       -5.489768   1.000000
   44       -5.480343   1.000000
   45       -5.457999   1.000000
   46       -5.456353   1.000000
   47       -5.452914   1.000000
   48       -5.452369   1.000000
   49       -5.451352   1.000000
   50       -5.445518   1.000000
   51       -5.444019   1.000000
   52       -5.427750   1.000000
   53       -5.426869   1.000000
   54       -5.425275   1.000000
   55       -5.410110   1.000000
   56       -5.406680   1.000000
   57       -5.375330   1.000000
   58       -5.363940   1.000000
   59       -5.352350   1.000000
   60       -5.348799   1.000000
   61       -5.348124   1.000000
   62       -5.343649   1.000000
   63       -5.337502   1.000000
   64       -5.323101   1.000000
   65       -5.322099   1.000000
   66       -5.320667   1.000000
   67       -5.316700   1.000000
   68       -5.305885   1.000000
   69       -5.282401   1.000000
   70       -5.240649   1.000000
   71       -5.231557   1.000000
   72       -5.230610   1.000000
   73       -5.223267   1.000000
   74       -5.207176   1.000000
   75       -5.206457   1.000000
   76       -5.198670   1.000000
   77       -5.193119   1.000000
   78       -5.191492   1.000000
   79       -5.186975   1.000000
   80       -5.183237   1.000000
   81       -5.177147   1.000000
   82       -5.167876   1.000000
   83       -5.165402   1.000000
   84       -5.152281   1.000000
   85       -5.144355   1.000000
   86       -5.142995   1.000000
   87       -5.135163   1.000000
   88       -5.125270   1.000000
   89       -5.122649   1.000000
   90       -5.110890   1.000000
   91       -5.081350   1.000000
   92       -5.079663   1.000000
   93       -5.077755   1.000000
   94       -5.077541   1.000000
   95       -5.074198   1.000000
   96       -5.064883   1.000000
   97       -5.056962   1.000000
   98       -5.053504   1.000000
   99       -5.050680   1.000000
  100       -5.049999   1.000000
  101       -5.046599   1.000000
  102       -5.032627   1.000000
  103       -5.031385   1.000000
  104       -5.029788   1.000000
  105       -5.027268   1.000000
  106       -5.020330   1.000000
  107       -5.012986   1.000000
  108       -5.011957   1.000000
  109       -5.008226   1.000000
  110       -5.001156   1.000000
  111       -4.999543   1.000000
  112       -4.989956   1.000000
  113       -4.987469   1.000000
  114       -4.985431   1.000000
  115       -4.981122   0.999999
  116       -4.978740   0.999999
  117       -4.975457   0.999999
  118       -4.971454   0.999999
  119       -4.965233   0.999999
  120       -4.959153   0.999999
  121       -4.937444   0.999997
  122       -4.936367   0.999997
  123       -4.934411   0.999997
  124       -4.924589   0.999996
  125       -4.921817   0.999996
  126       -4.920917   0.999996
  127       -4.905529   0.999993
  128       -4.902235   0.999992
  129       -4.891583   0.999989
  130       -4.889815   0.999988
  131       -4.865429   0.999976
  132       -4.864441   0.999975
  133       -4.863012   0.999974
  134       -4.862124   0.999973
  135       -4.855254   0.999967
  136       -4.854545   0.999967
  137       -4.852090   0.999964
  138       -4.830041   0.999934
  139       -4.814349   0.999899
  140       -4.814092   0.999898
  141       -4.812878   0.999895
  142       -4.809937   0.999887
  143       -4.789967   0.999813
  144       -4.786852   0.999798
  145       -4.785199   0.999790
  146       -4.778933   0.999756
  147       -4.753442   0.999562
  148       -4.752222   0.999550
  149       -4.744605   0.999470
  150       -4.744001   0.999463
  151       -4.738116   0.999392
  152       -4.722041   0.999158
  153       -4.712278   0.998984
  154       -4.708025   0.998900
  155       -4.704975   0.998836
  156       -4.704115   0.998818
  157       -4.702329   0.998779
  158       -4.694253   0.998592
  159       -4.691465   0.998522
  160       -4.688474   0.998445
  161       -4.683507   0.998312
  162       -4.675193   0.998071
  163       -4.669799   0.997905
  164       -4.668661   0.997868
  165       -4.668290   0.997857
  166       -4.667727   0.997838
  167       -4.667563   0.997833
  168       -4.666875   0.997811
  169       -4.664394   0.997730
  170       -4.657453   0.997494
  171       -4.646221   0.997092
  172       -4.642318   0.996947
  173       -4.632416   0.996575
  174       -4.617778   0.996034
  175       -4.617606   0.996028
  176       -4.617523   0.996025
  177       -4.617187   0.996013
  178       -4.614127   0.995906
  179       -4.600469   0.995475
  180       -4.597808   0.995403
  181       -4.597124   0.995386
  182       -4.594899   0.995331
  183       -4.588155   0.995192
  184       -4.587912   0.995188
  185       -4.575547   0.995066
  186       -4.573271   0.995066
  187       -4.572849   0.995067
  188       -4.569986   0.995081
  189       -4.569973   0.995081
  190       -4.569358   0.995086
  191       -4.543030   0.996028
  192       -4.530094   0.997167
  193       -4.526585   0.997571
  194       -4.526120   0.997628
  195       -4.523186   0.998004
  196       -4.520818   0.998331
  197       -4.516964   0.998909
  198       -4.510211   1.000065
  199       -4.506996   1.000681
  200       -4.493847   1.003670
  201       -4.489320   1.004878
  202       -4.486118   1.005789
  203       -4.485637   1.005931
  204       -4.479468   1.007832
  205       -4.478951   1.007999
  206       -4.470762   1.010807
  207       -4.470708   1.010826
  208       -4.466898   1.012234
  209       -4.461437   1.014356
  210       -4.461112   1.014486
  211       -4.453242   1.017756
  212       -4.450510   1.018942
  213       -4.445420   1.021213
  214       -4.432666   1.027172
  215       -4.430307   1.028303
  216       -4.430071   1.028416
  217       -4.426236   1.030261
  218       -4.422092   1.032256
  219       -4.421757   1.032417
  220       -4.400235   1.042260
  221       -4.392096   1.045455
  222       -4.387803   1.046946
  223       -4.387011   1.047205
  224       -4.370233   1.051097
  225       -4.363423   1.051611
  226       -4.361147   1.051616
  227       -4.357894   1.051466
  228       -4.357234   1.051412
  229       -4.354973   1.051165
  230       -4.354867   1.051151
  231       -4.353621   1.050970
  232       -4.347786   1.049697
  233       -4.347752   1.049687
  234       -4.346932   1.049449
  235       -4.343179   1.048165
  236       -4.342787   1.048013
  237       -4.342071   1.047724
  238       -4.338496   1.046095
  239       -4.338472   1.046083
  240       -4.332364   1.042544
  241       -4.322641   1.034788
  242       -4.321878   1.034061
  243       -4.316183   1.028073
  244       -4.307921   1.017519
  245       -4.306579   1.015587
  246       -4.305003   1.013241
  247       -4.304806   1.012941
  248       -4.303150   1.010369
  249       -4.299528   1.004407
  250       -4.287171   0.980454
  251       -4.285017   0.975692
  252       -4.283850   0.973039
  253       -4.275229   0.951813
  254       -4.275102   0.951478
  255       -4.271324   0.941252
  256       -4.270864   0.939969
  257       -4.268060   0.931973
  258       -4.267458   0.930215
  259       -4.263657   0.918798
  260       -4.263327   0.917782
  261       -4.262450   0.915058
  262       -4.261586   0.912344
  263       -4.258850   0.903564
  264       -4.256153   0.894631
  265       -4.252977   0.883761
  266       -4.249399   0.871064
  267       -4.249063   0.869849
  268       -4.247523   0.864221
  269       -4.241233   0.840347
  270       -4.238528   0.829656
  271       -4.237109   0.823946
  272       -4.235673   0.818102
  273       -4.224965   0.772418
  274       -4.222218   0.760138
  275       -4.204041   0.673929
  276       -4.202783   0.667688
  277       -4.197255   0.639916
  278       -4.196949   0.638365
  279       -4.193294   0.619711
  280       -4.192797   0.617160
  281       -4.190979   0.607799
  282       -4.176870   0.534033
  283       -4.149540   0.390434
  284       -4.149002   0.387667
  285       -4.147208   0.378447
  286       -4.145003   0.367183
  287       -4.134303   0.313677
  288       -4.133410   0.309312
  289       -4.104607   0.179526
  290       -3.988951  -0.050670
  291       -3.926661  -0.036013
  292       -3.833563  -0.000621
  293       -3.833249  -0.000560
  294       -3.721494   0.003909
  295       -3.520592   0.000086
  296       -3.511508   0.000068
  297       -3.486240   0.000033
  298       -3.090341   0.000000
  299       -3.072142   0.000000
  300       -3.051738   0.000000
  301       -3.049765   0.000000
  302       -3.027113   0.000000
  303       -2.992402   0.000000
  304       -2.954910   0.000000
  305       -2.779200   0.000000
  306       -2.557756   0.000000
  307       -2.555716   0.000000
  308       -2.537536   0.000000
  309       -2.354959   0.000000
  310       -2.134788   0.000000
  311       -2.133849   0.000000
  312       -2.057268   0.000000
  313       -2.020356   0.000000
  314       -1.971429   0.000000
  315       -1.915272   0.000000
  316       -1.897362   0.000000
  317       -1.865137   0.000000
  318       -1.737853   0.000000
  319       -1.723495   0.000000
  320       -1.658625   0.000000
  321       -1.589810   0.000000
  322       -1.583561   0.000000
  323       -1.401201   0.000000
  324       -1.344322   0.000000
  325       -1.256597   0.000000
  326       -1.253947   0.000000
  327       -1.157310   0.000000
  328       -1.100032   0.000000
  329       -1.001983   0.000000
  330       -0.973932   0.000000
  331       -0.968152   0.000000
  332       -0.943635   0.000000
  333       -0.918961   0.000000
  334       -0.883206   0.000000
  335       -0.843303   0.000000
  336       -0.796518   0.000000
