<?xml version="1.0" encoding="ISO-8859-1"?>
<modeling>
 <generator>
  <i name="program" type="string">vasp </i>
  <i name="version" type="string">5.4.4.18Apr17-6-g9f103f2a35  </i>
  <i name="subversion" type="string">(build Sep 03 2018 23:53:05) complex            parallel </i>
  <i name="platform" type="string">LinuxIFC </i>
  <i name="date" type="string">2021 11 27 </i>
  <i name="time" type="string">09:24:49 </i>
 </generator>
 <incar>
  <i type="string" name="SYSTEM"> 6_Pd100_top_free_z(O)</i>
  <i type="int" name="ISTART">     0</i>
  <i type="string" name="PREC">normal   			! encut=max(enmax), ngx,y,z</i>
  <i type="string" name="ALGO"> Fast     			! Mix RMM-DIIS and Dav</i>
  <i type="logical" name="ADDGRID"> F  </i>
  <i type="int" name="ISPIN">     1</i>
  <i type="int" name="ICHARG">     2</i>
  <i type="int" name="NELM">   100</i>
  <i type="int" name="NELMIN">     6</i>
  <i type="int" name="IBRION">     2</i>
  <i name="EDIFF">      0.00010000</i>
  <i name="EDIFFG">     -0.05000000</i>
  <i type="int" name="NSW">     0</i>
  <i type="int" name="ISIF">     2</i>
  <i type="int" name="ISYM">     2</i>
  <i name="ENCUT">    400.00000000</i>
  <i type="string" name="LREAL"> Auto     			! Auto or A projection done</i>
  <i type="int" name="ISMEAR">     2</i>
  <i name="SIGMA">      0.20000000</i>
  <i type="logical" name="LWAVE"> F  </i>
  <i type="logical" name="LCHARG"> F  </i>
  <v type="int" name="KPOINT_BSE">    -1     0     0     0</v>
  <i type="int" name="MAXMEM"> 10000</i>
  <i type="int" name="NELM">   100</i>
  <i type="string" name="GGA"> RP         			! Revised PBE</i>
 </incar>
 <structure name="primitive_cell" >
  <crystal>
   <varray name="basis" >
    <v>      30.00000000       0.00000000       0.00000000 </v>
    <v>       0.00000000      30.00000000       0.00000000 </v>
    <v>       0.00000000       0.00000000      30.00000000 </v>
   </varray>
   <i name="volume">  27000.00000000 </i>
   <varray name="rec_basis" >
    <v>       0.03333333       0.00000000       0.00000000 </v>
    <v>       0.00000000       0.03333333       0.00000000 </v>
    <v>       0.00000000       0.00000000       0.03333333 </v>
   </varray>
  </crystal>
  <varray name="positions" >
   <v>       0.44576020       0.32826710       0.41691983 </v>
   <v>      -0.44576020       0.32826710       0.41691983 </v>
   <v>      -0.50000000       0.38250690       0.34021317 </v>
   <v>      -0.50000000       0.27609440      -0.50000000 </v>
   <v>       0.38804720       0.38804720       0.34167483 </v>
   <v>      -0.50000000       0.38416601      -0.50000000 </v>
   <v>       0.44208300       0.44208300       0.41809300 </v>
   <v>       0.38317830       0.38317830      -0.50000000 </v>
   <v>      -0.44208300       0.44208300       0.41809300 </v>
   <v>       0.44576020       0.32826710      -0.41691977 </v>
   <v>       0.32826705       0.44576024       0.41691983 </v>
   <v>      -0.38804720       0.38804720       0.34167483 </v>
   <v>      -0.38317830       0.38317830      -0.50000000 </v>
   <v>      -0.50000000      -0.50000000       0.33478917 </v>
   <v>      -0.50000000      -0.50000000      -0.50000000 </v>
   <v>      -0.44576020       0.32826710      -0.41691977 </v>
   <v>       0.38250685      -0.49999995       0.34021317 </v>
   <v>       0.44208300       0.44208300      -0.41809297 </v>
   <v>       0.38416599      -0.49999998      -0.50000000 </v>
   <v>      -0.44208300       0.44208300      -0.41809297 </v>
   <v>       0.44208298      -0.44208298       0.41809300 </v>
   <v>       0.32826705       0.44576024      -0.41691977 </v>
   <v>      -0.50000000       0.38250690      -0.34021320 </v>
   <v>       0.32826712      -0.44576022       0.41691983 </v>
   <v>      -0.38250685      -0.49999995       0.34021317 </v>
   <v>      -0.32826705       0.44576024       0.41691983 </v>
   <v>       0.27609443       0.49999998      -0.50000000 </v>
   <v>       0.38804720       0.38804720      -0.34167487 </v>
   <v>      -0.38416599      -0.49999998      -0.50000000 </v>
   <v>      -0.44208298      -0.44208298       0.41809300 </v>
   <v>       0.44208298      -0.44208298      -0.41809297 </v>
   <v>      -0.38804720       0.38804720      -0.34167487 </v>
   <v>       0.38804722      -0.38804722       0.34167483 </v>
   <v>       0.38250685      -0.49999995      -0.34021320 </v>
   <v>       0.32826712      -0.44576022      -0.41691977 </v>
   <v>      -0.32826705       0.44576024      -0.41691977 </v>
   <v>       0.50000000      -0.38250681       0.34021317 </v>
   <v>      -0.50000000      -0.38416596      -0.50000000 </v>
   <v>      -0.44208298      -0.44208298      -0.41809297 </v>
   <v>      -0.50000000      -0.50000000      -0.33478913 </v>
   <v>       0.38317828      -0.38317828      -0.50000000 </v>
   <v>      -0.32826712      -0.44576022       0.41691983 </v>
   <v>      -0.27609443       0.49999998      -0.50000000 </v>
   <v>      -0.38804722      -0.38804722       0.34167483 </v>
   <v>      -0.38250685      -0.49999995      -0.34021320 </v>
   <v>       0.44576027      -0.32826707       0.41691983 </v>
   <v>      -0.38317828      -0.38317828      -0.50000000 </v>
   <v>      -0.32826712      -0.44576022      -0.41691977 </v>
   <v>      -0.44576027      -0.32826707       0.41691983 </v>
   <v>       0.38804722      -0.38804722      -0.34167487 </v>
   <v>      -0.50000000      -0.38250681      -0.34021320 </v>
   <v>       0.44576027      -0.32826707      -0.41691977 </v>
   <v>      -0.44576027      -0.32826707      -0.41691977 </v>
   <v>      -0.50000000      -0.27609445       0.50000000 </v>
   <v>      -0.38804722      -0.38804722      -0.34167487 </v>
   <v>      -0.40561540      -0.41123273      -0.28911660 </v>
   <v>      -0.39127700      -0.39774770      -0.25708033 </v>
  </varray>
 </structure>
 <varray name="primitive_index" >
  <v type="int" >        1 </v>
  <v type="int" >        3 </v>
  <v type="int" >        5 </v>
  <v type="int" >        7 </v>
  <v type="int" >       15 </v>
  <v type="int" >       29 </v>
  <v type="int" >       28 </v>
  <v type="int" >       34 </v>
  <v type="int" >       21 </v>
  <v type="int" >       19 </v>
  <v type="int" >       22 </v>
  <v type="int" >       11 </v>
  <v type="int" >       36 </v>
  <v type="int" >       38 </v>
  <v type="int" >       52 </v>
  <v type="int" >       24 </v>
  <v type="int" >       32 </v>
  <v type="int" >       44 </v>
  <v type="int" >       48 </v>
  <v type="int" >       42 </v>
  <v type="int" >       43 </v>
  <v type="int" >       40 </v>
  <v type="int" >        6 </v>
  <v type="int" >        4 </v>
  <v type="int" >       30 </v>
  <v type="int" >       26 </v>
  <v type="int" >        8 </v>
  <v type="int" >       16 </v>
  <v type="int" >       49 </v>
  <v type="int" >       47 </v>
  <v type="int" >       53 </v>
  <v type="int" >       12 </v>
  <v type="int" >       13 </v>
  <v type="int" >       33 </v>
  <v type="int" >       25 </v>
  <v type="int" >       45 </v>
  <v type="int" >       50 </v>
  <v type="int" >       55 </v>
  <v type="int" >       54 </v>
  <v type="int" >       39 </v>
  <v type="int" >       37 </v>
  <v type="int" >        2 </v>
  <v type="int" >        9 </v>
  <v type="int" >       17 </v>
  <v type="int" >       31 </v>
  <v type="int" >       27 </v>
  <v type="int" >       35 </v>
  <v type="int" >       20 </v>
  <v type="int" >       23 </v>
  <v type="int" >       14 </v>
  <v type="int" >       51 </v>
  <v type="int" >       46 </v>
  <v type="int" >       41 </v>
  <v type="int" >       10 </v>
  <v type="int" >       18 </v>
  <v type="int" >       56 </v>
  <v type="int" >       57 </v>
 </varray>
 <kpoints>
  <generation param="Monkhorst-Pack">
   <v type="int" name="divisions">       1        1        1 </v>
   <v name="usershift">      0.00000000       0.00000000       0.00000000 </v>
   <v name="genvec1">      1.00000000       0.00000000       0.00000000 </v>
   <v name="genvec2">      0.00000000       1.00000000       0.00000000 </v>
   <v name="genvec3">      0.00000000       0.00000000       1.00000000 </v>
   <v name="shift">      0.00000000       0.00000000       0.00000000 </v>
  </generation>
  <varray name="kpointlist" >
   <v>       0.00000000       0.00000000       0.00000000 </v>
  </varray>
  <varray name="weights" >
   <v>       1.00000000 </v>
  </varray>
 </kpoints>
 <parameters>
  <separator name="general" >
   <i type="string" name="SYSTEM">6_Pd100_top_free_z(O)</i>
   <i type="logical" name="LCOMPAT"> F  </i>
  </separator>
  <separator name="electronic" >
   <i type="string" name="PREC">normal</i>
   <i name="ENMAX">    400.00000000</i>
   <i name="ENAUG">    644.87300000</i>
   <i name="EDIFF">      0.00010000</i>
   <i type="int" name="IALGO">    68</i>
   <i type="int" name="IWAVPR">    10</i>
   <i type="int" name="NBANDS">   336</i>
   <i name="NELECT">    560.00000000</i>
   <i type="int" name="TURBO">     0</i>
   <i type="int" name="IRESTART">     0</i>
   <i type="int" name="NREBOOT">     0</i>
   <i type="int" name="NMIN">     0</i>
   <i name="EREF">      0.00000000</i>
   <separator name="electronic smearing" >
    <i type="int" name="ISMEAR">     2</i>
    <i name="SIGMA">      0.20000000</i>
    <i name="KSPACING">      0.50000000</i>
    <i type="logical" name="KGAMMA"> T  </i>
   </separator>
   <separator name="electronic projectors" >
    <i type="logical" name="LREAL"> T  </i>
    <v name="ROPT">     -0.00050000     -0.00050000     -0.00050000</v>
    <i type="int" name="LMAXPAW">  -100</i>
    <i type="int" name="LMAXMIX">     2</i>
    <i type="logical" name="NLSPLINE"> F  </i>
   </separator>
   <separator name="electronic startup" >
    <i type="int" name="ISTART">     0</i>
    <i type="int" name="ICHARG">     2</i>
    <i type="int" name="INIWAV">     1</i>
   </separator>
   <separator name="electronic spin" >
    <i type="int" name="ISPIN">     1</i>
    <i type="logical" name="LNONCOLLINEAR"> F  </i>
    <v name="MAGMOM">      1.00000000      1.00000000      1.00000000      1.00000000      1.00000000      1.00000000      1.00000000      1.00000000      1.00000000      1.00000000      1.00000000      1.00000000      1.00000000      1.00000000      1.00000000      1.00000000      1.00000000      1.00000000      1.00000000      1.00000000
      1.00000000      1.00000000      1.00000000      1.00000000      1.00000000      1.00000000      1.00000000      1.00000000      1.00000000      1.00000000      1.00000000      1.00000000      1.00000000      1.00000000      1.00000000      1.00000000      1.00000000      1.00000000      1.00000000      1.00000000
      1.00000000      1.00000000      1.00000000      1.00000000      1.00000000      1.00000000      1.00000000      1.00000000      1.00000000      1.00000000      1.00000000      1.00000000      1.00000000      1.00000000      1.00000000      1.00000000      1.00000000</v>
    <i name="NUPDOWN">     -1.00000000</i>
    <i type="logical" name="LSORBIT"> F  </i>
    <v name="SAXIS">      0.00000000      0.00000000      1.00000000</v>
    <i type="logical" name="LSPIRAL"> F  </i>
    <v name="QSPIRAL">      0.00000000      0.00000000      0.00000000</v>
    <i type="logical" name="LZEROZ"> F  </i>
   </separator>
   <separator name="electronic exchange-correlation" >
    <i type="logical" name="LASPH"> F  </i>
    <i type="logical" name="LMETAGGA"> F  </i>
   </separator>
   <separator name="electronic convergence" >
    <i type="int" name="NELM">   100</i>
    <i type="int" name="NELMDL">    -5</i>
    <i type="int" name="NELMIN">     6</i>
    <i name="ENINI">    400.00000000</i>
    <separator name="electronic convergence detail" >
     <i type="logical" name="LDIAG"> T  </i>
     <i type="logical" name="LSUBROT"> F  </i>
     <i name="WEIMIN">      0.00000000</i>
     <i name="EBREAK">      0.00000007</i>
     <i name="DEPER">      0.30000000</i>
     <i type="int" name="NRMM">     4</i>
     <i name="TIME">      0.40000000</i>
    </separator>
   </separator>
   <separator name="electronic mixer" >
    <i name="AMIX">      0.40000000</i>
    <i name="BMIX">      1.00000000</i>
    <i name="AMIN">      0.10000000</i>
    <i name="AMIX_MAG">      1.60000000</i>
    <i name="BMIX_MAG">      1.00000000</i>
    <separator name="electronic mixer details" >
     <i type="int" name="IMIX">     4</i>
     <i type="logical" name="MIXFIRST"> F  </i>
     <i type="int" name="MAXMIX">   -45</i>
     <i name="WC">    100.00000000</i>
     <i type="int" name="INIMIX">     1</i>
     <i type="int" name="MIXPRE">     1</i>
     <i type="int" name="MREMOVE">     5</i>
    </separator>
   </separator>
   <separator name="electronic dipolcorrection" >
    <i type="logical" name="LDIPOL"> F  </i>
    <i type="logical" name="LMONO"> F  </i>
    <i type="int" name="IDIPOL">     0</i>
    <i name="EPSILON">      1.00000000</i>
    <v name="DIPOL">   -100.00000000   -100.00000000   -100.00000000</v>
    <i name="EFIELD">      0.00000000</i>
   </separator>
  </separator>
  <separator name="grids" >
   <i type="int" name="NGX">   150</i>
   <i type="int" name="NGY">   150</i>
   <i type="int" name="NGZ">   150</i>
   <i type="int" name="NGXF">   300</i>
   <i type="int" name="NGYF">   300</i>
   <i type="int" name="NGZF">   300</i>
   <i type="logical" name="ADDGRID"> F  </i>
  </separator>
  <separator name="ionic" >
   <i type="int" name="NSW">     0</i>
   <i type="int" name="IBRION">    -1</i>
   <i type="int" name="MDALGO">     0</i>
   <i type="int" name="ISIF">     2</i>
   <i name="PSTRESS">      0.00000000</i>
   <i name="EDIFFG">     -0.05000000</i>
   <i type="int" name="NFREE">     1</i>
   <i name="POTIM">      0.50000000</i>
   <i name="SMASS">     -3.00000000</i>
   <i name="SCALEE">      1.00000000</i>
  </separator>
  <separator name="ionic md" >
   <i name="TEBEG">      0.00010000</i>
   <i name="TEEND">      0.00010000</i>
   <i type="int" name="NBLOCK">     1</i>
   <i type="int" name="KBLOCK">     1</i>
   <i type="int" name="NPACO">   256</i>
   <i name="APACO">     16.00000000</i>
  </separator>
  <separator name="symmetry" >
   <i type="int" name="ISYM">     2</i>
   <i name="SYMPREC">      0.00001000</i>
  </separator>
  <separator name="dos" >
   <i type="int" name="LORBIT">     0</i>
   <v name="RWIGS">     -1.00000000     -1.00000000     -1.00000000</v>
   <i type="int" name="NEDOS">   301</i>
   <i name="EMIN">     10.00000000</i>
   <i name="EMAX">    -10.00000000</i>
   <i name="EFERMI">      0.00000000</i>
  </separator>
  <separator name="writing" >
   <i type="int" name="NWRITE">     2</i>
   <i type="logical" name="LWAVE"> F  </i>
   <i type="logical" name="LDOWNSAMPLE"> F  </i>
   <i type="logical" name="LCHARG"> F  </i>
   <i type="logical" name="LPARD"> F  </i>
   <i type="logical" name="LVTOT"> F  </i>
   <i type="logical" name="LVHAR"> F  </i>
   <i type="logical" name="LELF"> F  </i>
   <i type="logical" name="LOPTICS"> F  </i>
   <v name="STM">      0.00000000      0.00000000      0.00000000      0.00000000      0.00000000      0.00000000      0.00000000</v>
  </separator>
  <separator name="performance" >
   <i type="int" name="NPAR">     1</i>
   <i type="int" name="NSIM">     4</i>
   <i type="int" name="NBLK">    -1</i>
   <i type="logical" name="LPLANE"> T  </i>
   <i type="logical" name="LSCALAPACK"> T  </i>
   <i type="logical" name="LSCAAWARE"> F  </i>
   <i type="logical" name="LSCALU"> F  </i>
   <i type="logical" name="LASYNC"> F  </i>
   <i type="logical" name="LORBITALREAL"> F  </i>
  </separator>
  <separator name="miscellaneous" >
   <i type="int" name="IDIOT">     3</i>
   <i type="int" name="ISPECIAL">     0</i>
   <i type="logical" name="LMUSIC"> F  </i>
   <v name="POMASS">    106.42000000     12.01100000     16.00000000</v>
   <v name="DARWINR">      0.00000000      0.00000000      0.00000000</v>
   <v name="DARWINV">      1.00000000      1.00000000      1.00000000</v>
   <i type="logical" name="LCORR"> T  </i>
  </separator>
  <i type="logical" name="GGA_COMPAT"> T  </i>
  <i type="logical" name="LBERRY"> F  </i>
  <i type="int" name="ICORELEVEL">     0</i>
  <i type="logical" name="LDAU"> F  </i>
  <i type="int" name="I_CONSTRAINED_M">     0</i>
  <separator name="electronic exchange-correlation" >
   <i type="string" name="GGA">RP</i>
   <i type="int" name="VOSKOWN">     0</i>
   <i type="logical" name="LHFCALC"> F  </i>
   <i type="string" name="PRECFOCK"></i>
   <i type="logical" name="LSYMGRAD"> F  </i>
   <i type="logical" name="LHFONE"> F  </i>
   <i type="logical" name="LRHFCALC"> F  </i>
   <i type="logical" name="LTHOMAS"> F  </i>
   <i type="logical" name="LMODELHF"> F  </i>
   <i name="ENCUT4O">     -1.00000000</i>
   <i type="int" name="EXXOEP">     0</i>
   <i type="int" name="FOURORBIT">     0</i>
   <i name="AEXX">      0.00000000</i>
   <i name="HFALPHA">      0.00000000</i>
   <i name="MCALPHA">      0.00000000</i>
   <i name="ALDAX">      1.00000000</i>
   <i name="AGGAX">      1.00000000</i>
   <i name="ALDAC">      1.00000000</i>
   <i name="AGGAC">      1.00000000</i>
   <i type="int" name="NKREDX">     1</i>
   <i type="int" name="NKREDY">     1</i>
   <i type="int" name="NKREDZ">     1</i>
   <i type="logical" name="SHIFTRED"> F  </i>
   <i type="logical" name="ODDONLY"> F  </i>
   <i type="logical" name="EVENONLY"> F  </i>
   <i type="int" name="LMAXFOCK">     0</i>
   <i type="int" name="NMAXFOCKAE">     0</i>
   <i type="logical" name="LFOCKAEDFT"> F  </i>
   <i name="HFSCREEN">      0.00000000</i>
   <i name="HFSCREENC">      0.00000000</i>
   <i type="int" name="NBANDSGWLOW">     0</i>
  </separator>
  <separator name="vdW DFT" >
   <i type="logical" name="LUSE_VDW"> F  </i>
   <i name="Zab_VDW">     -0.84910000</i>
   <i name="PARAM1">      0.12340000</i>
   <i name="PARAM2">      1.00000000</i>
   <i name="PARAM3">      0.00000000</i>
  </separator>
  <separator name="model GW" >
   <i type="int" name="MODEL_GW">     0</i>
   <i name="MODEL_EPS0">    284.21052632</i>
   <i name="MODEL_ALPHA">      1.00000000</i>
  </separator>
  <separator name="linear response parameters" >
   <i type="logical" name="LEPSILON"> F  </i>
   <i type="logical" name="LRPA"> F  </i>
   <i type="logical" name="LNABLA"> F  </i>
   <i type="logical" name="LVEL"> F  </i>
   <i type="int" name="KINTER">     0</i>
   <i name="CSHIFT">      0.10000000</i>
   <i name="OMEGAMAX">     -1.00000000</i>
   <i name="DEG_THRESHOLD">      0.00200000</i>
   <i name="RTIME">     -0.10000000</i>
   <i name="WPLASMAI">      0.00000000</i>
   <v name="DFIELD">      0.00000000      0.00000000      0.00000000</v>
   <v name="WPLASMA">      0.00000000      0.00000000      0.00000000      0.00000000      0.00000000      0.00000000      0.00000000      0.00000000      0.00000000</v>
  </separator>
  <separator name="orbital magnetization" >
   <i type="logical" name="NUCIND"> F  </i>
   <v name="MAGPOS">      0.00000000      0.00000000      0.00000000</v>
   <i type="logical" name="LNICSALL"> T  </i>
   <i type="logical" name="ORBITALMAG"> F  </i>
   <i type="logical" name="LMAGBLOCH"> F  </i>
   <i type="logical" name="LCHIMAG"> F  </i>
   <i type="logical" name="LGAUGE"> T  </i>
   <i type="int" name="MAGATOM">     0</i>
   <v name="MAGDIPOL">      0.00000000      0.00000000      0.00000000</v>
   <v name="AVECCONST">      0.00000000      0.00000000      0.00000000</v>
  </separator>
  <separator name="response functions" >
   <i type="logical" name="LADDER"> F  </i>
   <i type="logical" name="LRPAFORCE"> F  </i>
   <i type="logical" name="LFXC"> F  </i>
   <i type="logical" name="LHARTREE"> T  </i>
   <i type="int" name="IBSE">     0</i>
   <v type="int" name="KPOINT">    -1     0     0     0</v>
   <i type="logical" name="LTCTE"> F  </i>
   <i type="logical" name="LTETE"> F  </i>
   <i type="logical" name="LTRIPLET"> F  </i>
   <i type="logical" name="LFXCEPS"> F  </i>
   <i type="logical" name="LFXHEG"> F  </i>
   <i type="int" name="NATURALO">     2</i>
   <i type="logical" name="L2ORDER"> F  </i>
   <i type="logical" name="LMP2LT"> F  </i>
   <i type="logical" name="LUSEW"> F  </i>
   <i name="ENCUTGW">     -2.00000000</i>
   <i name="ENCUTGWSOFT">     -2.00000000</i>
   <i name="ENCUTLF">     -1.00000000</i>
   <i type="int" name="LMAXMP2">    -1</i>
   <i name="SCISSOR">      0.00000000</i>
   <i type="int" name="NOMEGA">     0</i>
   <i type="int" name="NOMEGAR">     0</i>
   <i type="int" name="NBANDSGW">    -1</i>
   <i type="int" name="NBANDSO">    -1</i>
   <i type="int" name="NBANDSV">    -1</i>
   <i type="int" name="NELM">   100</i>
   <i type="int" name="NELMHF">     1</i>
   <i type="int" name="DIM">     3</i>
   <i type="int" name="ANTIRES">     0</i>
   <i name="OMEGAMAX">    -30.00000000</i>
   <i name="OMEGAMIN">    -30.00000000</i>
   <i name="OMEGATL">   -200.00000000</i>
   <i type="int" name="OMEGAGRID">   140</i>
   <i name="CSHIFT">     -0.10000000</i>
   <i type="logical" name="SELFENERGY"> F  </i>
   <i type="logical" name="LSPECTRAL"> F  </i>
   <i type="logical" name="LSPECTRALGW"> F  </i>
   <i type="logical" name="LSINGLES"> F  </i>
   <i type="logical" name="LFERMIGW"> F  </i>
   <i type="logical" name="ODDONLYGW"> F  </i>
   <i type="logical" name="EVENONLYGW"> F  </i>
   <i type="int" name="NKREDLFX">     1</i>
   <i type="int" name="NKREDLFY">     1</i>
   <i type="int" name="NKREDLFZ">     1</i>
   <i type="int" name="MAXMEM"> 10000</i>
   <i type="int" name="TELESCOPE">     0</i>
   <i type="int" name="TAUPAR">     1</i>
   <i type="int" name="OMEGAPAR">    -1</i>
   <i name="LAMBDA">      1.00000000</i>
  </separator>
  <separator name="External order field" >
   <i name="OFIELD_KAPPA">      0.00000000</i>
   <v name="OFIELD_K">      0.00000000      0.00000000      0.00000000</v>
   <i name="OFIELD_Q6_NEAR">      0.00000000</i>
   <i name="OFIELD_Q6_FAR">      0.00000000</i>
   <i name="OFIELD_A">      0.00000000</i>
  </separator>
 </parameters>
 <atominfo>
  <atoms>      57 </atoms>
  <types>       3 </types>
  <array name="atoms" >
   <dimension dim="1">ion</dimension>
   <field type="string">element</field>
   <field type="int">atomtype</field>
   <set>
    <rc><c>Pd</c><c>   1</c></rc>
    <rc><c>Pd</c><c>   1</c></rc>
    <rc><c>Pd</c><c>   1</c></rc>
    <rc><c>Pd</c><c>   1</c></rc>
    <rc><c>Pd</c><c>   1</c></rc>
    <rc><c>Pd</c><c>   1</c></rc>
    <rc><c>Pd</c><c>   1</c></rc>
    <rc><c>Pd</c><c>   1</c></rc>
    <rc><c>Pd</c><c>   1</c></rc>
    <rc><c>Pd</c><c>   1</c></rc>
    <rc><c>Pd</c><c>   1</c></rc>
    <rc><c>Pd</c><c>   1</c></rc>
    <rc><c>Pd</c><c>   1</c></rc>
    <rc><c>Pd</c><c>   1</c></rc>
    <rc><c>Pd</c><c>   1</c></rc>
    <rc><c>Pd</c><c>   1</c></rc>
    <rc><c>Pd</c><c>   1</c></rc>
    <rc><c>Pd</c><c>   1</c></rc>
    <rc><c>Pd</c><c>   1</c></rc>
    <rc><c>Pd</c><c>   1</c></rc>
    <rc><c>Pd</c><c>   1</c></rc>
    <rc><c>Pd</c><c>   1</c></rc>
    <rc><c>Pd</c><c>   1</c></rc>
    <rc><c>Pd</c><c>   1</c></rc>
    <rc><c>Pd</c><c>   1</c></rc>
    <rc><c>Pd</c><c>   1</c></rc>
    <rc><c>Pd</c><c>   1</c></rc>
    <rc><c>Pd</c><c>   1</c></rc>
    <rc><c>Pd</c><c>   1</c></rc>
    <rc><c>Pd</c><c>   1</c></rc>
    <rc><c>Pd</c><c>   1</c></rc>
    <rc><c>Pd</c><c>   1</c></rc>
    <rc><c>Pd</c><c>   1</c></rc>
    <rc><c>Pd</c><c>   1</c></rc>
    <rc><c>Pd</c><c>   1</c></rc>
    <rc><c>Pd</c><c>   1</c></rc>
    <rc><c>Pd</c><c>   1</c></rc>
    <rc><c>Pd</c><c>   1</c></rc>
    <rc><c>Pd</c><c>   1</c></rc>
    <rc><c>Pd</c><c>   1</c></rc>
    <rc><c>Pd</c><c>   1</c></rc>
    <rc><c>Pd</c><c>   1</c></rc>
    <rc><c>Pd</c><c>   1</c></rc>
    <rc><c>Pd</c><c>   1</c></rc>
    <rc><c>Pd</c><c>   1</c></rc>
    <rc><c>Pd</c><c>   1</c></rc>
    <rc><c>Pd</c><c>   1</c></rc>
    <rc><c>Pd</c><c>   1</c></rc>
    <rc><c>Pd</c><c>   1</c></rc>
    <rc><c>Pd</c><c>   1</c></rc>
    <rc><c>Pd</c><c>   1</c></rc>
    <rc><c>Pd</c><c>   1</c></rc>
    <rc><c>Pd</c><c>   1</c></rc>
    <rc><c>Pd</c><c>   1</c></rc>
    <rc><c>Pd</c><c>   1</c></rc>
    <rc><c>C </c><c>   2</c></rc>
    <rc><c>O </c><c>   3</c></rc>
   </set>
  </array>
  <array name="atomtypes" >
   <dimension dim="1">type</dimension>
   <field type="int">atomspertype</field>
   <field type="string">element</field>
   <field>mass</field>
   <field>valence</field>
   <field type="string">pseudopotential</field>
   <set>
    <rc><c>  55</c><c>Pd</c><c>    106.42000000</c><c>     10.00000000</c><c>  PAW_PBE Pd 04Jan2005                  </c></rc>
    <rc><c>   1</c><c>C </c><c>     12.01100000</c><c>      4.00000000</c><c>  PAW_PBE C 08Apr2002                   </c></rc>
    <rc><c>   1</c><c>O </c><c>     16.00000000</c><c>      6.00000000</c><c>  PAW_PBE O 08Apr2002                   </c></rc>
   </set>
  </array>
 </atominfo>
 <structure name="initialpos" >
  <crystal>
   <varray name="basis" >
    <v>      30.00000000       0.00000000       0.00000000 </v>
    <v>       0.00000000      30.00000000       0.00000000 </v>
    <v>       0.00000000       0.00000000      30.00000000 </v>
   </varray>
   <i name="volume">  27000.00000000 </i>
   <varray name="rec_basis" >
    <v>       0.03333333       0.00000000       0.00000000 </v>
    <v>       0.00000000       0.03333333       0.00000000 </v>
    <v>       0.00000000       0.00000000       0.03333333 </v>
   </varray>
  </crystal>
  <varray name="positions" >
   <v>       0.44576020       0.32826710       0.41691983 </v>
   <v>       0.67173288       0.55423978       0.41691983 </v>
   <v>       0.55423980       0.32826710       0.41691983 </v>
   <v>       0.32826712       0.55423978       0.41691983 </v>
   <v>       0.50000000       0.38250690       0.34021317 </v>
   <v>       0.50000000       0.38250690       0.65978680 </v>
   <v>       0.50000000       0.27609440       0.50000000 </v>
   <v>       0.27609443       0.49999998       0.50000000 </v>
   <v>       0.72390557       0.49999998       0.50000000 </v>
   <v>       0.50000000       0.72390555       0.50000000 </v>
   <v>       0.61195280       0.38804720       0.34167483 </v>
   <v>       0.61195280       0.38804720       0.65832513 </v>
   <v>       0.38804722       0.61195278       0.34167483 </v>
   <v>       0.38804722       0.61195278       0.65832513 </v>
   <v>       0.38804720       0.38804720       0.34167483 </v>
   <v>       0.38804720       0.38804720       0.65832513 </v>
   <v>       0.61195278       0.61195278       0.34167483 </v>
   <v>       0.61195278       0.61195278       0.65832513 </v>
   <v>       0.44576020       0.32826710       0.58308023 </v>
   <v>       0.67173288       0.55423978       0.58308023 </v>
   <v>       0.55791699       0.44208301       0.41809300 </v>
   <v>       0.32826705       0.44576024       0.41691983 </v>
   <v>       0.55423973       0.67173293       0.41691983 </v>
   <v>       0.55423980       0.32826710       0.58308023 </v>
   <v>       0.32826712       0.55423978       0.58308023 </v>
   <v>       0.67173295       0.44576024       0.41691983 </v>
   <v>       0.44576027       0.67173293       0.41691983 </v>
   <v>       0.44208301       0.44208301       0.41809300 </v>
   <v>       0.50000000       0.38416601       0.50000000 </v>
   <v>       0.61749315       0.50000005       0.34021317 </v>
   <v>       0.61749315       0.50000005       0.65978680 </v>
   <v>       0.38250685       0.50000005       0.34021317 </v>
   <v>       0.38250685       0.50000005       0.65978680 </v>
   <v>       0.38317830       0.38317830       0.50000000 </v>
   <v>       0.61682172       0.61682172       0.50000000 </v>
   <v>       0.61682170       0.38317830       0.50000000 </v>
   <v>       0.38317828       0.61682172       0.50000000 </v>
   <v>       0.50000000       0.50000000       0.33478917 </v>
   <v>       0.50000000       0.50000000       0.66521087 </v>
   <v>       0.32826705       0.44576024       0.58308023 </v>
   <v>       0.55423973       0.67173293       0.58308023 </v>
   <v>       0.55791699       0.44208301       0.58190703 </v>
   <v>       0.44208298       0.55791702       0.41809300 </v>
   <v>       0.44208301       0.44208301       0.58190703 </v>
   <v>       0.67173295       0.44576024       0.58308023 </v>
   <v>       0.44576027       0.67173293       0.58308023 </v>
   <v>       0.55791702       0.55791702       0.41809300 </v>
   <v>       0.38416599       0.50000002       0.50000000 </v>
   <v>       0.61583401       0.50000002       0.50000000 </v>
   <v>       0.50000000       0.61749319       0.34021317 </v>
   <v>       0.50000000       0.61749319       0.65978680 </v>
   <v>       0.50000000       0.50000000       0.50000000 </v>
   <v>       0.44208298       0.55791702       0.58190703 </v>
   <v>       0.55791702       0.55791702       0.58190703 </v>
   <v>       0.50000000       0.61583404       0.50000000 </v>
   <v>       0.59438460       0.58876727       0.71088340 </v>
   <v>       0.60872300       0.60225230       0.74291967 </v>
  </varray>
  <varray name="selective"  type="logical" >
   <v type="logical" >  F  F  F </v>
   <v type="logical" >  F  F  F </v>
   <v type="logical" >  F  F  F </v>
   <v type="logical" >  F  F  F </v>
   <v type="logical" >  F  F  F </v>
   <v type="logical" >  F  F  F </v>
   <v type="logical" >  F  F  F </v>
   <v type="logical" >  F  F  F </v>
   <v type="logical" >  F  F  F </v>
   <v type="logical" >  F  F  F </v>
   <v type="logical" >  F  F  F </v>
   <v type="logical" >  F  F  F </v>
   <v type="logical" >  F  F  F </v>
   <v type="logical" >  F  F  F </v>
   <v type="logical" >  F  F  F </v>
   <v type="logical" >  F  F  F </v>
   <v type="logical" >  F  F  F </v>
   <v type="logical" >  F  F  F </v>
   <v type="logical" >  F  F  F </v>
   <v type="logical" >  F  F  F </v>
   <v type="logical" >  F  F  F </v>
   <v type="logical" >  F  F  F </v>
   <v type="logical" >  F  F  F </v>
   <v type="logical" >  F  F  F </v>
   <v type="logical" >  F  F  F </v>
   <v type="logical" >  F  F  F </v>
   <v type="logical" >  F  F  F </v>
   <v type="logical" >  F  F  F </v>
   <v type="logical" >  F  F  F </v>
   <v type="logical" >  F  F  F </v>
   <v type="logical" >  F  F  F </v>
   <v type="logical" >  F  F  F </v>
   <v type="logical" >  F  F  F </v>
   <v type="logical" >  F  F  F </v>
   <v type="logical" >  F  F  F </v>
   <v type="logical" >  F  F  F </v>
   <v type="logical" >  F  F  F </v>
   <v type="logical" >  F  F  F </v>
   <v type="logical" >  F  F  F </v>
   <v type="logical" >  F  F  F </v>
   <v type="logical" >  F  F  F </v>
   <v type="logical" >  F  F  F </v>
   <v type="logical" >  F  F  F </v>
   <v type="logical" >  F  F  F </v>
   <v type="logical" >  F  F  F </v>
   <v type="logical" >  F  F  F </v>
   <v type="logical" >  F  F  F </v>
   <v type="logical" >  F  F  F </v>
   <v type="logical" >  F  F  F </v>
   <v type="logical" >  F  F  F </v>
   <v type="logical" >  F  F  F </v>
   <v type="logical" >  F  F  F </v>
   <v type="logical" >  F  F  F </v>
   <v type="logical" >  F  F  F </v>
   <v type="logical" >  F  F  F </v>
   <v type="logical" >  F  F  F </v>
   <v type="logical" >  F  F  F </v>
  </varray>
  <nose>
   <v>      -3.00000000       0.00000000       0.00010000       0.00010000 </v>
  </nose>
 </structure>
 <calculation>
  <scstep>
   <time name="dav">  370.52  370.60</time>
   <time name="total">  385.13  385.21</time>
   <energy>
    <i name="alphaZ">     75.25431677 </i>
    <i name="ewald"> 138312.14840632 </i>
    <i name="hartreedc">-181668.00893750 </i>
    <i name="XCdc">  -1702.64946417 </i>
    <i name="pawpsdc">  44873.02882129 </i>
    <i name="pawaedc"> -41398.84523641 </i>
    <i name="eentropy">      0.02575295 </i>
    <i name="bandstr">    815.97020884 </i>
    <i name="atom">  45086.50549395 </i>
    <i name="e_fr_energy">   4393.42936205 </i>
    <i name="e_wo_entrp">   4393.40360910 </i>
    <i name="e_0_energy">   4393.42292381 </i>
   </energy>
  </scstep>
  <scstep>
   <time name="dav">  593.38  593.40</time>
   <time name="total">  593.38  593.40</time>
   <energy>
    <i name="e_fr_energy">   2009.07910701 </i>
    <i name="e_wo_entrp">   2009.12745659 </i>
    <i name="e_0_energy">   2009.09119440 </i>
   </energy>
  </scstep>
  <scstep>
   <time name="dav">  494.15  494.16</time>
   <time name="total">  494.15  494.17</time>
   <energy>
    <i name="e_fr_energy">    236.49905040 </i>
    <i name="e_wo_entrp">    236.55181759 </i>
    <i name="e_0_energy">    236.51224220 </i>
   </energy>
  </scstep>
  <scstep>
   <time name="dav">  440.45  440.47</time>
   <time name="total">  440.45  440.47</time>
   <energy>
    <i name="e_fr_energy">   -135.13716224 </i>
    <i name="e_wo_entrp">   -135.09544293 </i>
    <i name="e_0_energy">   -135.12673242 </i>
   </energy>
  </scstep>
  <scstep>
   <time name="dav">  515.28  515.29</time>
   <time name="total">  541.53  541.55</time>
   <energy>
    <i name="e_fr_energy">   -180.07966503 </i>
    <i name="e_wo_entrp">   -180.61672376 </i>
    <i name="e_0_energy">   -180.21392971 </i>
   </energy>
  </scstep>
  <scstep>
   <time name="diag">   68.02   68.02</time>
   <time name="diis">  190.65  190.66</time>
   <time name="orth">   13.86   13.86</time>
   <time name="total">  312.75  312.76</time>
   <energy>
    <i name="e_fr_energy">   -178.34950820 </i>
    <i name="e_wo_entrp">   -178.21178425 </i>
    <i name="e_0_energy">   -178.31507721 </i>
   </energy>
  </scstep>
  <scstep>
   <time name="diag">   67.80   67.80</time>
   <time name="diis">  215.76  215.76</time>
   <time name="orth">   13.66   13.66</time>
   <time name="total">  336.37  336.37</time>
   <energy>
    <i name="e_fr_energy">   -182.19843266 </i>
    <i name="e_wo_entrp">   -182.04834036 </i>
    <i name="e_0_energy">   -182.16090959 </i>
   </energy>
  </scstep>
  <scstep>
   <time name="diag">   68.54   68.54</time>
   <time name="diis">  206.70  206.71</time>
   <time name="orth">   13.92   13.92</time>
   <time name="total">  328.82  328.83</time>
   <energy>
    <i name="e_fr_energy">   -184.96713635 </i>
    <i name="e_wo_entrp">   -184.88286348 </i>
    <i name="e_0_energy">   -184.94606813 </i>
   </energy>
  </scstep>
  <scstep>
   <time name="diag">   68.82   68.82</time>
   <time name="diis">  194.51  194.51</time>
   <time name="orth">   13.54   13.54</time>
   <time name="total">  317.17  317.18</time>
   <energy>
    <i name="e_fr_energy">   -182.81528174 </i>
    <i name="e_wo_entrp">   -182.62452815 </i>
    <i name="e_0_energy">   -182.76759334 </i>
   </energy>
  </scstep>
  <scstep>
   <time name="diag">   68.10   68.10</time>
   <time name="diis">  189.08  189.09</time>
   <time name="orth">   13.83   13.83</time>
   <time name="total">  310.45  310.46</time>
   <energy>
    <i name="e_fr_energy">   -179.58924632 </i>
    <i name="e_wo_entrp">   -179.50949152 </i>
    <i name="e_0_energy">   -179.56930762 </i>
   </energy>
  </scstep>
  <scstep>
   <time name="diag">   67.20   67.20</time>
   <time name="diis">  191.77  191.78</time>
   <time name="orth">   13.34   13.34</time>
   <time name="total">  311.37  311.38</time>
   <energy>
    <i name="e_fr_energy">   -178.61803212 </i>
    <i name="e_wo_entrp">   -178.58390658 </i>
    <i name="e_0_energy">   -178.60950074 </i>
   </energy>
  </scstep>
  <scstep>
   <time name="diag">   67.67   67.67</time>
   <time name="diis">  190.35  190.35</time>
   <time name="orth">   13.45   13.45</time>
   <time name="total">  311.20  311.20</time>
   <energy>
    <i name="e_fr_energy">   -176.99790899 </i>
    <i name="e_wo_entrp">   -176.96810795 </i>
    <i name="e_0_energy">   -176.99045873 </i>
   </energy>
  </scstep>
  <scstep>
   <time name="diag">   69.27   69.27</time>
   <time name="diis">  187.71  187.72</time>
   <time name="orth">   13.42   13.42</time>
   <time name="total">  310.51  310.51</time>
   <energy>
    <i name="e_fr_energy">   -176.47725598 </i>
    <i name="e_wo_entrp">   -176.46587394 </i>
    <i name="e_0_energy">   -176.47441047 </i>
   </energy>
  </scstep>
  <scstep>
   <time name="diag">   67.25   67.25</time>
   <time name="diis">  188.37  188.38</time>
   <time name="orth">   13.48   13.48</time>
   <time name="total">  309.26  309.27</time>
   <energy>
    <i name="e_fr_energy">   -177.31796454 </i>
    <i name="e_wo_entrp">   -177.52345284 </i>
    <i name="e_0_energy">   -177.36933661 </i>
   </energy>
  </scstep>
  <scstep>
   <time name="diag">   66.87   66.87</time>
   <time name="diis">  185.12  185.13</time>
   <time name="orth">   13.44   13.44</time>
   <time name="total">  304.38  304.39</time>
   <energy>
    <i name="e_fr_energy">   -176.21566565 </i>
    <i name="e_wo_entrp">   -176.18785127 </i>
    <i name="e_0_energy">   -176.20871206 </i>
   </energy>
  </scstep>
  <scstep>
   <time name="diag">   68.04   68.04</time>
   <time name="diis">  181.97  181.97</time>
   <time name="orth">   13.55   13.55</time>
   <time name="total">  303.34  303.34</time>
   <energy>
    <i name="e_fr_energy">   -175.84056175 </i>
    <i name="e_wo_entrp">   -175.77855088 </i>
    <i name="e_0_energy">   -175.82505903 </i>
   </energy>
  </scstep>
  <scstep>
   <time name="diag">   68.02   68.02</time>
   <time name="diis">  182.44  182.44</time>
   <time name="orth">   13.19   13.19</time>
   <time name="total">  303.72  303.72</time>
   <energy>
    <i name="e_fr_energy">   -175.53359095 </i>
    <i name="e_wo_entrp">   -175.53007472 </i>
    <i name="e_0_energy">   -175.53271189 </i>
   </energy>
  </scstep>
  <scstep>
   <time name="diag">   66.76   66.76</time>
   <time name="diis">  183.90  183.90</time>
   <time name="orth">   13.26   13.26</time>
   <time name="total">  303.14  303.14</time>
   <energy>
    <i name="e_fr_energy">   -175.00457260 </i>
    <i name="e_wo_entrp">   -174.99046178 </i>
    <i name="e_0_energy">   -175.00104489 </i>
   </energy>
  </scstep>
  <scstep>
   <time name="diag">   68.37   68.37</time>
   <time name="diis">  184.87  184.87</time>
   <time name="orth">   14.00   14.00</time>
   <time name="total">  306.50  306.50</time>
   <energy>
    <i name="e_fr_energy">   -175.06676875 </i>
    <i name="e_wo_entrp">   -175.06705403 </i>
    <i name="e_0_energy">   -175.06684007 </i>
   </energy>
  </scstep>
  <scstep>
   <time name="diag">   67.04   67.04</time>
   <time name="diis">  184.93  184.93</time>
   <time name="orth">   13.55   13.55</time>
   <time name="total">  305.44  305.44</time>
   <energy>
    <i name="e_fr_energy">   -174.98779572 </i>
    <i name="e_wo_entrp">   -174.98377298 </i>
    <i name="e_0_energy">   -174.98679004 </i>
   </energy>
  </scstep>
  <scstep>
   <time name="diag">   67.45   67.46</time>
   <time name="diis">  182.77  182.78</time>
   <time name="orth">   13.70   13.70</time>
   <time name="total">  303.68  303.69</time>
   <energy>
    <i name="e_fr_energy">   -174.80007589 </i>
    <i name="e_wo_entrp">   -174.83695635 </i>
    <i name="e_0_energy">   -174.80929600 </i>
   </energy>
  </scstep>
  <scstep>
   <time name="diag">   67.05   67.05</time>
   <time name="diis">  182.66  182.70</time>
   <time name="orth">   13.50   13.50</time>
   <time name="total">  302.91  302.95</time>
   <energy>
    <i name="e_fr_energy">   -174.71040259 </i>
    <i name="e_wo_entrp">   -174.71556795 </i>
    <i name="e_0_energy">   -174.71169393 </i>
   </energy>
  </scstep>
  <scstep>
   <time name="diag">   66.73   66.74</time>
   <time name="diis">  179.76  179.78</time>
   <time name="orth">   13.66   13.66</time>
   <time name="total">  299.76  299.78</time>
   <energy>
    <i name="e_fr_energy">   -174.63913765 </i>
    <i name="e_wo_entrp">   -174.62608482 </i>
    <i name="e_0_energy">   -174.63587444 </i>
   </energy>
  </scstep>
  <scstep>
   <time name="diag">   66.86   66.86</time>
   <time name="diis">  179.56  179.56</time>
   <time name="orth">   13.42   13.42</time>
   <time name="total">  299.89  299.89</time>
   <energy>
    <i name="e_fr_energy">   -174.52085034 </i>
    <i name="e_wo_entrp">   -174.46216994 </i>
    <i name="e_0_energy">   -174.50618024 </i>
   </energy>
  </scstep>
  <scstep>
   <time name="diag">   66.83   66.84</time>
   <time name="diis">  180.44  180.45</time>
   <time name="orth">   13.57   13.57</time>
   <time name="total">  301.23  301.23</time>
   <energy>
    <i name="e_fr_energy">   -174.46838226 </i>
    <i name="e_wo_entrp">   -174.39846076 </i>
    <i name="e_0_energy">   -174.45090188 </i>
   </energy>
  </scstep>
  <scstep>
   <time name="diag">   67.13   67.14</time>
   <time name="diis">  180.23  180.23</time>
   <time name="orth">   13.58   13.58</time>
   <time name="total">  301.17  301.17</time>
   <energy>
    <i name="e_fr_energy">   -174.46341427 </i>
    <i name="e_wo_entrp">   -174.39364232 </i>
    <i name="e_0_energy">   -174.44597128 </i>
   </energy>
  </scstep>
  <scstep>
   <time name="diag">   67.65   67.65</time>
   <time name="diis">  180.57  180.58</time>
   <time name="orth">   13.37   13.37</time>
   <time name="total">  301.76  301.78</time>
   <energy>
    <i name="e_fr_energy">   -174.42243386 </i>
    <i name="e_wo_entrp">   -174.36769766 </i>
    <i name="e_0_energy">   -174.40874981 </i>
   </energy>
  </scstep>
  <scstep>
   <time name="diag">   67.19   67.19</time>
   <time name="diis">  177.12  177.12</time>
   <time name="orth">   13.45   13.45</time>
   <time name="total">  297.60  297.62</time>
   <energy>
    <i name="e_fr_energy">   -174.41098286 </i>
    <i name="e_wo_entrp">   -174.34622398 </i>
    <i name="e_0_energy">   -174.39479314 </i>
   </energy>
  </scstep>
  <scstep>
   <time name="diag">   67.17   67.18</time>
   <time name="diis">  178.14  178.15</time>
   <time name="orth">   13.55   13.55</time>
   <time name="total">  299.14  299.15</time>
   <energy>
    <i name="e_fr_energy">   -174.40430478 </i>
    <i name="e_wo_entrp">   -174.33895446 </i>
    <i name="e_0_energy">   -174.38796720 </i>
   </energy>
  </scstep>
  <scstep>
   <time name="diag">   67.62   67.62</time>
   <time name="diis">  178.81  178.81</time>
   <time name="orth">   13.40   13.40</time>
   <time name="total">  300.14  300.16</time>
   <energy>
    <i name="e_fr_energy">   -174.38336475 </i>
    <i name="e_wo_entrp">   -174.32707269 </i>
    <i name="e_0_energy">   -174.36929174 </i>
   </energy>
  </scstep>
  <scstep>
   <time name="diag">   68.10   68.10</time>
   <time name="diis">  180.07  180.07</time>
   <time name="orth">   13.54   13.54</time>
   <time name="total">  302.42  302.43</time>
   <energy>
    <i name="e_fr_energy">   -174.38232219 </i>
    <i name="e_wo_entrp">   -174.31776141 </i>
    <i name="e_0_energy">   -174.36618200 </i>
   </energy>
  </scstep>
  <scstep>
   <time name="diag">   68.79   68.79</time>
   <time name="diis">  181.87  181.89</time>
   <time name="orth">   13.92   13.93</time>
   <time name="total">  305.41  305.45</time>
   <energy>
    <i name="e_fr_energy">   -174.37685219 </i>
    <i name="e_wo_entrp">   -174.31287119 </i>
    <i name="e_0_energy">   -174.36085694 </i>
   </energy>
  </scstep>
  <scstep>
   <time name="diag">   68.47   68.47</time>
   <time name="diis">  182.92  182.92</time>
   <time name="orth">   13.46   13.46</time>
   <time name="total">  306.12  306.13</time>
   <energy>
    <i name="e_fr_energy">   -174.37620698 </i>
    <i name="e_wo_entrp">   -174.30492543 </i>
    <i name="e_0_energy">   -174.35838659 </i>
   </energy>
  </scstep>
  <scstep>
   <time name="diag">   68.27   68.27</time>
   <time name="diis">  181.39  181.39</time>
   <time name="orth">   13.69   13.69</time>
   <time name="total">  304.86  304.86</time>
   <energy>
    <i name="e_fr_energy">   -174.37684278 </i>
    <i name="e_wo_entrp">   -174.30959371 </i>
    <i name="e_0_energy">   -174.36003051 </i>
   </energy>
  </scstep>
  <scstep>
   <time name="diag">   68.20   68.21</time>
   <time name="diis">  180.02  180.02</time>
   <time name="orth">   13.65   13.65</time>
   <time name="total">  303.13  303.14</time>
   <energy>
    <i name="e_fr_energy">   -174.37658650 </i>
    <i name="e_wo_entrp">   -174.31391689 </i>
    <i name="e_0_energy">   -174.36091909 </i>
   </energy>
  </scstep>
  <scstep>
   <time name="diag">   68.13   68.13</time>
   <time name="diis">  181.09  181.09</time>
   <time name="orth">   13.54   13.54</time>
   <time name="total">  304.41  304.42</time>
   <energy>
    <i name="e_fr_energy">   -174.37744773 </i>
    <i name="e_wo_entrp">   -174.31261609 </i>
    <i name="e_0_energy">   -174.36123982 </i>
   </energy>
  </scstep>
  <scstep>
   <time name="diag">   68.49   68.49</time>
   <time name="diis">  185.51  185.52</time>
   <time name="orth">   13.91   13.91</time>
   <time name="total">  310.19  310.20</time>
   <energy>
    <i name="e_fr_energy">   -174.37879139 </i>
    <i name="e_wo_entrp">   -174.31369833 </i>
    <i name="e_0_energy">   -174.36251813 </i>
   </energy>
  </scstep>
  <scstep>
   <time name="diag">   69.09   69.09</time>
   <time name="diis">  166.33  166.34</time>
   <time name="orth">   14.02   14.02</time>
   <time name="total">  292.06  292.06</time>
   <energy>
    <i name="e_fr_energy">   -174.37980363 </i>
    <i name="e_wo_entrp">   -174.31456818 </i>
    <i name="e_0_energy">   -174.36349477 </i>
   </energy>
  </scstep>
  <scstep>
   <time name="diag">   69.45   69.45</time>
   <time name="diis">  148.53  148.53</time>
   <time name="orth">   13.97   13.97</time>
   <time name="total">  275.17  275.17</time>
   <energy>
    <i name="e_fr_energy">   -174.38231374 </i>
    <i name="e_wo_entrp">   -174.31725045 </i>
    <i name="e_0_energy">   -174.36604791 </i>
   </energy>
  </scstep>
  <scstep>
   <time name="diag">   69.94   69.94</time>
   <time name="diis">  121.64  121.64</time>
   <time name="orth">   13.70   13.70</time>
   <time name="total">  248.10  248.11</time>
   <energy>
    <i name="e_fr_energy">   -174.38418323 </i>
    <i name="e_wo_entrp">   -174.31865357 </i>
    <i name="e_0_energy">   -174.36780081 </i>
   </energy>
  </scstep>
  <scstep>
   <time name="diag">   69.86   69.86</time>
   <time name="diis">  160.73  160.73</time>
   <time name="orth">   13.82   13.82</time>
   <time name="total">  287.19  287.19</time>
   <energy>
    <i name="e_fr_energy">   -174.38784820 </i>
    <i name="e_wo_entrp">   -174.32214223 </i>
    <i name="e_0_energy">   -174.37142171 </i>
   </energy>
  </scstep>
  <scstep>
   <time name="diag">   69.75   69.75</time>
   <time name="diis">  165.97  165.98</time>
   <time name="orth">   13.22   13.22</time>
   <time name="total">  292.75  292.76</time>
   <energy>
    <i name="e_fr_energy">   -174.39116834 </i>
    <i name="e_wo_entrp">   -174.32595399 </i>
    <i name="e_0_energy">   -174.37486475 </i>
   </energy>
  </scstep>
  <scstep>
   <time name="diag">   69.46   69.46</time>
   <time name="diis">  130.21  130.21</time>
   <time name="orth">   13.55   13.55</time>
   <time name="total">  255.80  255.80</time>
   <energy>
    <i name="e_fr_energy">   -174.39304653 </i>
    <i name="e_wo_entrp">   -174.32817834 </i>
    <i name="e_0_energy">   -174.37682948 </i>
   </energy>
  </scstep>
  <scstep>
   <time name="diag">   68.41   68.41</time>
   <time name="diis">  123.10  123.10</time>
   <time name="orth">   14.12   14.12</time>
   <time name="total">  248.96  248.97</time>
   <energy>
    <i name="e_fr_energy">   -174.39468063 </i>
    <i name="e_wo_entrp">   -174.32925211 </i>
    <i name="e_0_energy">   -174.37832350 </i>
   </energy>
  </scstep>
  <scstep>
   <time name="diag">   68.20   68.20</time>
   <time name="diis">  119.28  119.29</time>
   <time name="orth">   13.79   13.80</time>
   <time name="total">  245.17  245.18</time>
   <energy>
    <i name="e_fr_energy">   -174.39587547 </i>
    <i name="e_wo_entrp">   -174.33087875 </i>
    <i name="e_0_energy">   -174.37962629 </i>
   </energy>
  </scstep>
  <scstep>
   <time name="diag">   69.93   69.94</time>
   <time name="diis">  127.37  127.37</time>
   <time name="orth">   13.52   13.52</time>
   <time name="total">  254.84  254.85</time>
   <energy>
    <i name="e_fr_energy">   -174.39800213 </i>
    <i name="e_wo_entrp">   -174.33361753 </i>
    <i name="e_0_energy">   -174.38190598 </i>
   </energy>
  </scstep>
  <scstep>
   <time name="diag">   69.71   69.72</time>
   <time name="diis">  118.88  118.88</time>
   <time name="orth">   13.47   13.47</time>
   <time name="total">  245.35  245.36</time>
   <energy>
    <i name="e_fr_energy">   -174.39857873 </i>
    <i name="e_wo_entrp">   -174.33372643 </i>
    <i name="e_0_energy">   -174.38236565 </i>
   </energy>
  </scstep>
  <scstep>
   <time name="diag">   69.00   69.00</time>
   <time name="diis">  120.07  120.09</time>
   <time name="orth">   13.67   13.68</time>
   <time name="total">  246.39  246.41</time>
   <energy>
    <i name="e_fr_energy">   -174.39950462 </i>
    <i name="e_wo_entrp">   -174.33493920 </i>
    <i name="e_0_energy">   -174.38336327 </i>
   </energy>
  </scstep>
  <scstep>
   <time name="diag">   68.51   68.51</time>
   <time name="diis">  116.90  116.90</time>
   <time name="orth">   13.88   13.88</time>
   <time name="total">  243.89  243.89</time>
   <energy>
    <i name="e_fr_energy">   -174.40016800 </i>
    <i name="e_wo_entrp">   -174.33542534 </i>
    <i name="e_0_energy">   -174.38398234 </i>
   </energy>
  </scstep>
  <scstep>
   <time name="diag">   68.36   68.36</time>
   <time name="diis">  113.30  113.30</time>
   <time name="orth">   13.70   13.70</time>
   <time name="total">  239.45  239.45</time>
   <energy>
    <i name="e_fr_energy">   -174.40072335 </i>
    <i name="e_wo_entrp">   -174.33574712 </i>
    <i name="e_0_energy">   -174.38447930 </i>
   </energy>
  </scstep>
  <scstep>
   <time name="diag">   70.15   70.15</time>
   <time name="diis">  113.20  113.20</time>
   <time name="orth">   14.14   14.14</time>
   <time name="total">  241.62  241.63</time>
   <energy>
    <i name="e_fr_energy">   -174.40160909 </i>
    <i name="e_wo_entrp">   -174.33674315 </i>
    <i name="e_0_energy">   -174.38539261 </i>
   </energy>
  </scstep>
  <scstep>
   <time name="diag">   69.58   69.59</time>
   <time name="diis">  104.40  104.41</time>
   <time name="orth">   13.54   13.54</time>
   <time name="total">  231.14  231.16</time>
   <energy>
    <i name="e_fr_energy">   -174.40192960 </i>
    <i name="e_wo_entrp">   -174.33712631 </i>
    <i name="e_0_energy">   -174.38572878 </i>
   </energy>
  </scstep>
  <scstep>
   <time name="diag">   69.36   69.37</time>
   <time name="diis">  100.83  100.83</time>
   <time name="orth">   14.33   14.33</time>
   <time name="total">  228.54  228.55</time>
   <energy>
    <i name="e_fr_energy">   -174.40246187 </i>
    <i name="e_wo_entrp">   -174.33773576 </i>
    <i name="e_0_energy">   -174.38628034 </i>
   </energy>
  </scstep>
  <scstep>
   <time name="diag">   68.26   68.26</time>
   <time name="diis">   94.41   94.41</time>
   <time name="orth">   13.77   13.77</time>
   <time name="total">  220.93  220.94</time>
   <energy>
    <i name="e_fr_energy">   -174.40286044 </i>
    <i name="e_wo_entrp">   -174.33804059 </i>
    <i name="e_0_energy">   -174.38665548 </i>
   </energy>
  </scstep>
  <scstep>
   <time name="diag">   70.20   70.20</time>
   <time name="diis">   90.06   90.07</time>
   <time name="orth">   13.42   13.42</time>
   <time name="total">  218.37  218.37</time>
   <energy>
    <i name="e_fr_energy">   -174.40314433 </i>
    <i name="e_wo_entrp">   -174.33826507 </i>
    <i name="e_0_energy">   -174.38692452 </i>
   </energy>
  </scstep>
  <scstep>
   <time name="diag">   69.04   69.04</time>
   <time name="diis">   88.16   88.16</time>
   <time name="orth">   13.84   13.84</time>
   <time name="total">  214.82  214.82</time>
   <energy>
    <i name="e_fr_energy">   -174.40332675 </i>
    <i name="e_wo_entrp">   -174.33845241 </i>
    <i name="e_0_energy">   -174.38710816 </i>
   </energy>
  </scstep>
  <scstep>
   <time name="diag">   68.45   68.45</time>
   <time name="diis">   95.18   95.19</time>
   <time name="orth">   13.79   13.79</time>
   <time name="total">  221.91  221.93</time>
   <energy>
    <i name="e_fr_energy">   -174.40360395 </i>
    <i name="e_wo_entrp">   -174.33873879 </i>
    <i name="e_0_energy">   -174.38738766 </i>
   </energy>
  </scstep>
  <scstep>
   <time name="diag">   69.03   69.03</time>
   <time name="diis">   81.35   81.35</time>
   <time name="orth">   13.99   13.99</time>
   <time name="total">  209.18  209.19</time>
   <energy>
    <i name="e_fr_energy">   -174.40370468 </i>
    <i name="e_wo_entrp">   -174.33883377 </i>
    <i name="e_0_energy">   -174.38748696 </i>
   </energy>
  </scstep>
  <scstep>
   <time name="diag">   69.17   69.17</time>
   <time name="diis">   82.11   82.11</time>
   <time name="orth">   13.63   13.63</time>
   <time name="total">  208.69  208.70</time>
   <energy>
    <i name="e_fr_energy">   -174.40382600 </i>
    <i name="e_wo_entrp">   -174.33899979 </i>
    <i name="e_0_energy">   -174.38761945 </i>
   </energy>
  </scstep>
  <scstep>
   <time name="diag">   69.00   69.00</time>
   <time name="diis">   78.17   78.17</time>
   <time name="orth">   13.76   13.76</time>
   <time name="total">  175.13  175.14</time>
   <energy>
    <i name="alphaZ">     75.25431677 </i>
    <i name="ewald"> 138312.14840632 </i>
    <i name="hartreedc">-182666.76128588 </i>
    <i name="XCdc">  -1691.86337627 </i>
    <i name="pawpsdc">  46246.24932779 </i>
    <i name="pawaedc"> -42716.92332106 </i>
    <i name="eentropy">     -0.06482979 </i>
    <i name="bandstr">  -2818.94861775 </i>
    <i name="atom">  45086.50549395 </i>
    <i name="e_fr_energy">   -174.40388591 </i>
    <i name="e_wo_entrp">   -174.33905612 </i>
    <i name="e_0_energy">   -174.38767846 </i>
   </energy>
  </scstep>
  <structure>
   <crystal>
    <varray name="basis" >
     <v>      30.00000000       0.00000000       0.00000000 </v>
     <v>       0.00000000      30.00000000       0.00000000 </v>
     <v>       0.00000000       0.00000000      30.00000000 </v>
    </varray>
    <i name="volume">  27000.00000000 </i>
    <varray name="rec_basis" >
     <v>       0.03333333       0.00000000       0.00000000 </v>
     <v>       0.00000000       0.03333333       0.00000000 </v>
     <v>       0.00000000       0.00000000       0.03333333 </v>
    </varray>
   </crystal>
   <varray name="positions" >
    <v>       0.44576020       0.32826710       0.41691983 </v>
    <v>       0.67173288       0.55423978       0.41691983 </v>
    <v>       0.55423980       0.32826710       0.41691983 </v>
    <v>       0.32826712       0.55423978       0.41691983 </v>
    <v>       0.50000000       0.38250690       0.34021317 </v>
    <v>       0.50000000       0.38250690       0.65978680 </v>
    <v>       0.50000000       0.27609440       0.50000000 </v>
    <v>       0.27609443       0.49999998       0.50000000 </v>
    <v>       0.72390557       0.49999998       0.50000000 </v>
    <v>       0.50000000       0.72390555       0.50000000 </v>
    <v>       0.61195280       0.38804720       0.34167483 </v>
    <v>       0.61195280       0.38804720       0.65832513 </v>
    <v>       0.38804722       0.61195278       0.34167483 </v>
    <v>       0.38804722       0.61195278       0.65832513 </v>
    <v>       0.38804720       0.38804720       0.34167483 </v>
    <v>       0.38804720       0.38804720       0.65832513 </v>
    <v>       0.61195278       0.61195278       0.34167483 </v>
    <v>       0.61195278       0.61195278       0.65832513 </v>
    <v>       0.44576020       0.32826710       0.58308023 </v>
    <v>       0.67173288       0.55423978       0.58308023 </v>
    <v>       0.55791699       0.44208301       0.41809300 </v>
    <v>       0.32826705       0.44576024       0.41691983 </v>
    <v>       0.55423973       0.67173293       0.41691983 </v>
    <v>       0.55423980       0.32826710       0.58308023 </v>
    <v>       0.32826712       0.55423978       0.58308023 </v>
    <v>       0.67173295       0.44576024       0.41691983 </v>
    <v>       0.44576027       0.67173293       0.41691983 </v>
    <v>       0.44208301       0.44208301       0.41809300 </v>
    <v>       0.50000000       0.38416601       0.50000000 </v>
    <v>       0.61749315       0.50000005       0.34021317 </v>
    <v>       0.61749315       0.50000005       0.65978680 </v>
    <v>       0.38250685       0.50000005       0.34021317 </v>
    <v>       0.38250685       0.50000005       0.65978680 </v>
    <v>       0.38317830       0.38317830       0.50000000 </v>
    <v>       0.61682172       0.61682172       0.50000000 </v>
    <v>       0.61682170       0.38317830       0.50000000 </v>
    <v>       0.38317828       0.61682172       0.50000000 </v>
    <v>       0.50000000       0.50000000       0.33478917 </v>
    <v>       0.50000000       0.50000000       0.66521087 </v>
    <v>       0.32826705       0.44576024       0.58308023 </v>
    <v>       0.55423973       0.67173293       0.58308023 </v>
    <v>       0.55791699       0.44208301       0.58190703 </v>
    <v>       0.44208298       0.55791702       0.41809300 </v>
    <v>       0.44208301       0.44208301       0.58190703 </v>
    <v>       0.67173295       0.44576024       0.58308023 </v>
    <v>       0.44576027       0.67173293       0.58308023 </v>
    <v>       0.55791702       0.55791702       0.41809300 </v>
    <v>       0.38416599       0.50000002       0.50000000 </v>
    <v>       0.61583401       0.50000002       0.50000000 </v>
    <v>       0.50000000       0.61749319       0.34021317 </v>
    <v>       0.50000000       0.61749319       0.65978680 </v>
    <v>       0.50000000       0.50000000       0.50000000 </v>
    <v>       0.44208298       0.55791702       0.58190703 </v>
    <v>       0.55791702       0.55791702       0.58190703 </v>
    <v>       0.50000000       0.61583404       0.50000000 </v>
    <v>       0.59438460       0.58876727       0.71088340 </v>
    <v>       0.60872300       0.60225230       0.74291967 </v>
   </varray>
  </structure>
  <varray name="forces" >
   <v>       0.70507876       1.10515814       0.30343299 </v>
   <v>      -1.11039524      -0.70573337       0.28718752 </v>
   <v>      -0.70206150       1.10160935       0.28712267 </v>
   <v>       1.10174608      -0.70172435       0.28730294 </v>
   <v>       0.01160522       0.41293122       1.28020274 </v>
   <v>      -0.00169248       0.41129995      -1.28147608 </v>
   <v>      -0.00061187       1.51459141      -0.00119389 </v>
   <v>       1.51439629      -0.00043785      -0.00051148 </v>
   <v>      -1.50106765       0.02059759      -0.00277196 </v>
   <v>       0.01501957      -1.49918323      -0.00939187 </v>
   <v>      -0.75353587       0.75620764       1.07242306 </v>
   <v>      -0.75071062       0.75866021      -1.07359546 </v>
   <v>       0.75642560      -0.75323505       1.07250878 </v>
   <v>       0.75908554      -0.75105755      -1.07276937 </v>
   <v>       0.75107356       0.75093925       1.07319002 </v>
   <v>       0.75543211       0.75518911      -1.07156949 </v>
   <v>      -0.75764474      -0.75759505       1.07168728 </v>
   <v>      -0.32631218      -0.06446503      -3.38530918 </v>
   <v>       0.69882465       1.10973648      -0.29258444 </v>
   <v>      -1.00798515      -0.81711053      -0.39159770 </v>
   <v>       0.10852513      -0.11056486      -0.15849670 </v>
   <v>       1.10535284       0.70464907       0.30233827 </v>
   <v>      -0.70628921      -1.11034638       0.28713407 </v>
   <v>      -0.70494271       1.10496335      -0.29108010 </v>
   <v>       1.10465863      -0.70639070      -0.29132644 </v>
   <v>      -1.11095351       0.70150394       0.27624038 </v>
   <v>       0.70216782      -1.11042174       0.27575324 </v>
   <v>      -0.10961150      -0.10865508      -0.15569193 </v>
   <v>      -0.01200813      -0.23231965      -0.00850334 </v>
   <v>      -0.41190447       0.00148240       1.28007017 </v>
   <v>      -0.43342156       0.06188582      -1.16972134 </v>
   <v>       0.41230520       0.01099666       1.28058903 </v>
   <v>       0.41145519      -0.00111842      -1.28087498 </v>
   <v>       0.82619092       0.82668006       0.00082633 </v>
   <v>      -0.83014991      -0.82871764       0.01400128 </v>
   <v>      -0.83406177       0.83260172       0.00840808 </v>
   <v>       0.83104803      -0.83500738       0.00576348 </v>
   <v>       0.00408435       0.00350747       1.17865801 </v>
   <v>      -0.03793540      -0.03474081      -1.17402874 </v>
   <v>       1.10957185       0.69901132      -0.29272758 </v>
   <v>      -0.80885369      -1.01381070      -0.38166314 </v>
   <v>       0.11055468      -0.12490869       0.13981400 </v>
   <v>      -0.10995298       0.10925858      -0.15738685 </v>
   <v>      -0.10399202      -0.10425753       0.16089588 </v>
   <v>      -1.12744334       0.71037053      -0.26005888 </v>
   <v>       0.71391031      -1.12497038      -0.25790033 </v>
   <v>       0.11363489       0.11393598      -0.15266221 </v>
   <v>      -0.23071723      -0.01176794      -0.00648999 </v>
   <v>       0.21840628       0.00592226       0.00376969 </v>
   <v>       0.00162830      -0.41104896       1.28032112 </v>
   <v>      -0.03790780      -0.40141505      -1.24790735 </v>
   <v>       0.00218853       0.00137557       0.00527647 </v>
   <v>      -0.12247188       0.11294814       0.14240673 </v>
   <v>       0.04972909       0.05898041      -0.00024620 </v>
   <v>       0.00748191       0.21811788       0.00428332 </v>
   <v>      -2.00945689      -2.20208562      -3.68926178 </v>
   <v>       1.75250998       1.54797800       6.17719122 </v>
  </varray>
  <varray name="stress" >
   <v>      -6.66195444       0.06440845       0.08537759 </v>
   <v>       0.06440845      -6.66952482       0.03569855 </v>
   <v>       0.08537757       0.03569857      -6.12591895 </v>
  </varray>
  <energy>
   <i name="e_fr_energy">   -174.40388591 </i>
   <i name="e_wo_entrp">   -174.38767846 </i>
   <i name="e_0_energy">     -0.06482979 </i>
  </energy>
  <time name="totalsc">18174.2018174.83</time>
  <eigenvalues>
   <array>
    <dimension dim="1">band</dimension>
    <dimension dim="2">kpoint</dimension>
    <dimension dim="3">spin</dimension>
    <field>eigene</field>
    <field>occ</field>
    <set>
     <set comment="spin 1">
      <set comment="kpoint 1">
       <r>  -28.2761    1.0000 </r>
       <r>  -13.3520    1.0000 </r>
       <r>  -11.3438    1.0000 </r>
       <r>  -10.8825    1.0000 </r>
       <r>  -10.0621    1.0000 </r>
       <r>   -6.6664    1.0000 </r>
       <r>   -6.3519    1.0000 </r>
       <r>   -6.2822    1.0000 </r>
       <r>   -6.1369    1.0000 </r>
       <r>   -6.1354    1.0000 </r>
       <r>   -6.0739    1.0000 </r>
       <r>   -5.8783    1.0000 </r>
       <r>   -5.8602    1.0000 </r>
       <r>   -5.8119    1.0000 </r>
       <r>   -5.8070    1.0000 </r>
       <r>   -5.7547    1.0000 </r>
       <r>   -5.7492    1.0000 </r>
       <r>   -5.6968    1.0000 </r>
       <r>   -5.6885    1.0000 </r>
       <r>   -5.6801    1.0000 </r>
       <r>   -5.6600    1.0000 </r>
       <r>   -5.6344    1.0000 </r>
       <r>   -5.6229    1.0000 </r>
       <r>   -5.6141    1.0000 </r>
       <r>   -5.5993    1.0000 </r>
       <r>   -5.5849    1.0000 </r>
       <r>   -5.5796    1.0000 </r>
       <r>   -5.5583    1.0000 </r>
       <r>   -5.5508    1.0000 </r>
       <r>   -5.5489    1.0000 </r>
       <r>   -5.5368    1.0000 </r>
       <r>   -5.5245    1.0000 </r>
       <r>   -5.5224    1.0000 </r>
       <r>   -5.5207    1.0000 </r>
       <r>   -5.5179    1.0000 </r>
       <r>   -5.5134    1.0000 </r>
       <r>   -5.5084    1.0000 </r>
       <r>   -5.5029    1.0000 </r>
       <r>   -5.5006    1.0000 </r>
       <r>   -5.4799    1.0000 </r>
       <r>   -5.4783    1.0000 </r>
       <r>   -5.4741    1.0000 </r>
       <r>   -5.4732    1.0000 </r>
       <r>   -5.4661    1.0000 </r>
       <r>   -5.4624    1.0000 </r>
       <r>   -5.4578    1.0000 </r>
       <r>   -5.4348    1.0000 </r>
       <r>   -5.4336    1.0000 </r>
       <r>   -5.4288    1.0000 </r>
       <r>   -5.4279    1.0000 </r>
       <r>   -5.4264    1.0000 </r>
       <r>   -5.4148    1.0000 </r>
       <r>   -5.4116    1.0000 </r>
       <r>   -5.4097    1.0000 </r>
       <r>   -5.4089    1.0000 </r>
       <r>   -5.4076    1.0000 </r>
       <r>   -5.3944    1.0000 </r>
       <r>   -5.3870    1.0000 </r>
       <r>   -5.3334    1.0000 </r>
       <r>   -5.3306    1.0000 </r>
       <r>   -5.3279    1.0000 </r>
       <r>   -5.3270    1.0000 </r>
       <r>   -5.3200    1.0000 </r>
       <r>   -5.3089    1.0000 </r>
       <r>   -5.3054    1.0000 </r>
       <r>   -5.3035    1.0000 </r>
       <r>   -5.2906    1.0000 </r>
       <r>   -5.2891    1.0000 </r>
       <r>   -5.2858    1.0000 </r>
       <r>   -5.2441    1.0000 </r>
       <r>   -5.2165    1.0000 </r>
       <r>   -5.2141    1.0000 </r>
       <r>   -5.2130    1.0000 </r>
       <r>   -5.2022    1.0000 </r>
       <r>   -5.2003    1.0000 </r>
       <r>   -5.1835    1.0000 </r>
       <r>   -5.1826    1.0000 </r>
       <r>   -5.1746    1.0000 </r>
       <r>   -5.1681    1.0000 </r>
       <r>   -5.1669    1.0000 </r>
       <r>   -5.1649    1.0000 </r>
       <r>   -5.1583    1.0000 </r>
       <r>   -5.1525    1.0000 </r>
       <r>   -5.1336    1.0000 </r>
       <r>   -5.1313    1.0000 </r>
       <r>   -5.1184    1.0000 </r>
       <r>   -5.1150    1.0000 </r>
       <r>   -5.1056    1.0000 </r>
       <r>   -5.0893    1.0000 </r>
       <r>   -5.0833    1.0000 </r>
       <r>   -5.0743    1.0000 </r>
       <r>   -5.0618    1.0000 </r>
       <r>   -5.0602    1.0000 </r>
       <r>   -5.0596    1.0000 </r>
       <r>   -5.0560    1.0000 </r>
       <r>   -5.0490    1.0000 </r>
       <r>   -5.0368    1.0000 </r>
       <r>   -5.0358    1.0000 </r>
       <r>   -5.0353    1.0000 </r>
       <r>   -5.0327    1.0000 </r>
       <r>   -5.0231    1.0000 </r>
       <r>   -5.0196    1.0000 </r>
       <r>   -5.0162    1.0000 </r>
       <r>   -5.0105    1.0000 </r>
       <r>   -5.0079    1.0000 </r>
       <r>   -5.0014    1.0000 </r>
       <r>   -4.9927    1.0000 </r>
       <r>   -4.9902    1.0000 </r>
       <r>   -4.9877    1.0000 </r>
       <r>   -4.9842    1.0000 </r>
       <r>   -4.9821    1.0000 </r>
       <r>   -4.9747    1.0000 </r>
       <r>   -4.9738    1.0000 </r>
       <r>   -4.9654    1.0000 </r>
       <r>   -4.9609    1.0000 </r>
       <r>   -4.9599    1.0000 </r>
       <r>   -4.9572    1.0000 </r>
       <r>   -4.9519    1.0000 </r>
       <r>   -4.9508    1.0000 </r>
       <r>   -4.9434    1.0000 </r>
       <r>   -4.9298    1.0000 </r>
       <r>   -4.9198    1.0000 </r>
       <r>   -4.9148    1.0000 </r>
       <r>   -4.9060    1.0000 </r>
       <r>   -4.9057    1.0000 </r>
       <r>   -4.9037    1.0000 </r>
       <r>   -4.8899    1.0000 </r>
       <r>   -4.8829    1.0000 </r>
       <r>   -4.8771    1.0000 </r>
       <r>   -4.8705    1.0000 </r>
       <r>   -4.8501    1.0000 </r>
       <r>   -4.8464    1.0000 </r>
       <r>   -4.8451    1.0000 </r>
       <r>   -4.8443    1.0000 </r>
       <r>   -4.8379    1.0000 </r>
       <r>   -4.8373    1.0000 </r>
       <r>   -4.8343    1.0000 </r>
       <r>   -4.8042    0.9999 </r>
       <r>   -4.7989    0.9999 </r>
       <r>   -4.7970    0.9999 </r>
       <r>   -4.7946    0.9999 </r>
       <r>   -4.7910    0.9999 </r>
       <r>   -4.7839    0.9999 </r>
       <r>   -4.7729    0.9998 </r>
       <r>   -4.7674    0.9998 </r>
       <r>   -4.7668    0.9998 </r>
       <r>   -4.7519    0.9997 </r>
       <r>   -4.7347    0.9996 </r>
       <r>   -4.7271    0.9995 </r>
       <r>   -4.7256    0.9995 </r>
       <r>   -4.7222    0.9994 </r>
       <r>   -4.7110    0.9993 </r>
       <r>   -4.6908    0.9989 </r>
       <r>   -4.6894    0.9989 </r>
       <r>   -4.6888    0.9989 </r>
       <r>   -4.6848    0.9988 </r>
       <r>   -4.6772    0.9986 </r>
       <r>   -4.6769    0.9986 </r>
       <r>   -4.6723    0.9985 </r>
       <r>   -4.6657    0.9983 </r>
       <r>   -4.6596    0.9981 </r>
       <r>   -4.6575    0.9981 </r>
       <r>   -4.6522    0.9979 </r>
       <r>   -4.6516    0.9979 </r>
       <r>   -4.6509    0.9979 </r>
       <r>   -4.6498    0.9978 </r>
       <r>   -4.6494    0.9978 </r>
       <r>   -4.6491    0.9978 </r>
       <r>   -4.6432    0.9976 </r>
       <r>   -4.6393    0.9975 </r>
       <r>   -4.6282    0.9971 </r>
       <r>   -4.6204    0.9968 </r>
       <r>   -4.6128    0.9965 </r>
       <r>   -4.6014    0.9961 </r>
       <r>   -4.6001    0.9960 </r>
       <r>   -4.5999    0.9960 </r>
       <r>   -4.5993    0.9960 </r>
       <r>   -4.5884    0.9956 </r>
       <r>   -4.5822    0.9955 </r>
       <r>   -4.5799    0.9954 </r>
       <r>   -4.5790    0.9954 </r>
       <r>   -4.5753    0.9953 </r>
       <r>   -4.5728    0.9952 </r>
       <r>   -4.5695    0.9952 </r>
       <r>   -4.5587    0.9951 </r>
       <r>   -4.5561    0.9951 </r>
       <r>   -4.5550    0.9951 </r>
       <r>   -4.5534    0.9951 </r>
       <r>   -4.5529    0.9951 </r>
       <r>   -4.5499    0.9951 </r>
       <r>   -4.5259    0.9960 </r>
       <r>   -4.5135    0.9971 </r>
       <r>   -4.5100    0.9974 </r>
       <r>   -4.5095    0.9975 </r>
       <r>   -4.5089    0.9976 </r>
       <r>   -4.5040    0.9982 </r>
       <r>   -4.5001    0.9988 </r>
       <r>   -4.4903    1.0005 </r>
       <r>   -4.4824    1.0022 </r>
       <r>   -4.4764    1.0036 </r>
       <r>   -4.4743    1.0042 </r>
       <r>   -4.4724    1.0047 </r>
       <r>   -4.4691    1.0056 </r>
       <r>   -4.4630    1.0075 </r>
       <r>   -4.4586    1.0089 </r>
       <r>   -4.4553    1.0100 </r>
       <r>   -4.4504    1.0118 </r>
       <r>   -4.4493    1.0122 </r>
       <r>   -4.4431    1.0146 </r>
       <r>   -4.4426    1.0148 </r>
       <r>   -4.4409    1.0155 </r>
       <r>   -4.4292    1.0206 </r>
       <r>   -4.4202    1.0247 </r>
       <r>   -4.4158    1.0268 </r>
       <r>   -4.4129    1.0282 </r>
       <r>   -4.4108    1.0292 </r>
       <r>   -4.4102    1.0295 </r>
       <r>   -4.4037    1.0326 </r>
       <r>   -4.3968    1.0359 </r>
       <r>   -4.3761    1.0448 </r>
       <r>   -4.3740    1.0456 </r>
       <r>   -4.3702    1.0469 </r>
       <r>   -4.3681    1.0476 </r>
       <r>   -4.3624    1.0492 </r>
       <r>   -4.3513    1.0512 </r>
       <r>   -4.3447    1.0516 </r>
       <r>   -4.3409    1.0515 </r>
       <r>   -4.3403    1.0515 </r>
       <r>   -4.3368    1.0511 </r>
       <r>   -4.3360    1.0510 </r>
       <r>   -4.3356    1.0509 </r>
       <r>   -4.3346    1.0507 </r>
       <r>   -4.3309    1.0499 </r>
       <r>   -4.3284    1.0492 </r>
       <r>   -4.3269    1.0487 </r>
       <r>   -4.3240    1.0476 </r>
       <r>   -4.3233    1.0472 </r>
       <r>   -4.3230    1.0471 </r>
       <r>   -4.3199    1.0456 </r>
       <r>   -4.3122    1.0408 </r>
       <r>   -4.3070    1.0366 </r>
       <r>   -4.3057    1.0354 </r>
       <r>   -4.2908    1.0183 </r>
       <r>   -4.2903    1.0175 </r>
       <r>   -4.2887    1.0152 </r>
       <r>   -4.2869    1.0126 </r>
       <r>   -4.2868    1.0123 </r>
       <r>   -4.2856    1.0105 </r>
       <r>   -4.2801    1.0013 </r>
       <r>   -4.2759    0.9934 </r>
       <r>   -4.2687    0.9787 </r>
       <r>   -4.2661    0.9728 </r>
       <r>   -4.2637    0.9670 </r>
       <r>   -4.2573    0.9509 </r>
       <r>   -4.2566    0.9491 </r>
       <r>   -4.2541    0.9425 </r>
       <r>   -4.2515    0.9351 </r>
       <r>   -4.2505    0.9321 </r>
       <r>   -4.2501    0.9310 </r>
       <r>   -4.2472    0.9223 </r>
       <r>   -4.2458    0.9182 </r>
       <r>   -4.2443    0.9133 </r>
       <r>   -4.2422    0.9066 </r>
       <r>   -4.2397    0.8985 </r>
       <r>   -4.2370    0.8895 </r>
       <r>   -4.2365    0.8877 </r>
       <r>   -4.2288    0.8601 </r>
       <r>   -4.2244    0.8433 </r>
       <r>   -4.2225    0.8359 </r>
       <r>   -4.2207    0.8289 </r>
       <r>   -4.2167    0.8124 </r>
       <r>   -4.2112    0.7893 </r>
       <r>   -4.2087    0.7786 </r>
       <r>   -4.2049    0.7616 </r>
       <r>   -4.1865    0.6743 </r>
       <r>   -4.1852    0.6677 </r>
       <r>   -4.1824    0.6538 </r>
       <r>   -4.1765    0.6239 </r>
       <r>   -4.1754    0.6184 </r>
       <r>   -4.1753    0.6180 </r>
       <r>   -4.1684    0.5820 </r>
       <r>   -4.1597    0.5367 </r>
       <r>   -4.1350    0.4064 </r>
       <r>   -4.1340    0.4015 </r>
       <r>   -4.1313    0.3871 </r>
       <r>   -4.1295    0.3782 </r>
       <r>   -4.1183    0.3214 </r>
       <r>   -4.1147    0.3039 </r>
       <r>   -4.0750    0.1331 </r>
       <r>   -3.9657   -0.0514 </r>
       <r>   -3.9125   -0.0376 </r>
       <r>   -3.8175   -0.0009 </r>
       <r>   -3.8171   -0.0008 </r>
       <r>   -3.7047    0.0039 </r>
       <r>   -3.5045    0.0001 </r>
       <r>   -3.4997    0.0001 </r>
       <r>   -3.4301    0.0000 </r>
       <r>   -3.0868    0.0000 </r>
       <r>   -3.0676    0.0000 </r>
       <r>   -3.0425    0.0000 </r>
       <r>   -3.0389    0.0000 </r>
       <r>   -3.0127    0.0000 </r>
       <r>   -2.9796    0.0000 </r>
       <r>   -2.9511    0.0000 </r>
       <r>   -2.8116    0.0000 </r>
       <r>   -2.5701    0.0000 </r>
       <r>   -2.5283    0.0000 </r>
       <r>   -2.4138    0.0000 </r>
       <r>   -2.3668    0.0000 </r>
       <r>   -2.1359    0.0000 </r>
       <r>   -2.1181    0.0000 </r>
       <r>   -2.1165    0.0000 </r>
       <r>   -2.0262    0.0000 </r>
       <r>   -1.9866    0.0000 </r>
       <r>   -1.9130    0.0000 </r>
       <r>   -1.8925    0.0000 </r>
       <r>   -1.8615    0.0000 </r>
       <r>   -1.7511    0.0000 </r>
       <r>   -1.7101    0.0000 </r>
       <r>   -1.6544    0.0000 </r>
       <r>   -1.6138    0.0000 </r>
       <r>   -1.5611    0.0000 </r>
       <r>   -1.4532    0.0000 </r>
       <r>   -1.2716    0.0000 </r>
       <r>   -1.2634    0.0000 </r>
       <r>   -1.1629    0.0000 </r>
       <r>   -1.0811    0.0000 </r>
       <r>   -1.0431    0.0000 </r>
       <r>   -0.9872    0.0000 </r>
       <r>   -0.9689    0.0000 </r>
       <r>   -0.9517    0.0000 </r>
       <r>   -0.9438    0.0000 </r>
       <r>   -0.9165    0.0000 </r>
       <r>   -0.8697    0.0000 </r>
       <r>   -0.7933    0.0000 </r>
       <r>   -0.5613    0.0000 </r>
      </set>
     </set>
    </set>
   </array>
  </eigenvalues>
  <separator name="orbital magnetization" >
   <v name="MAGDIPOLOUT">      0.00000000      0.00000000      0.00000000</v>
  </separator>
  <dos>
   <i name="efermi">     -4.15280431 </i>
   <total>
    <array>
     <dimension dim="1">gridpoints</dimension>
     <dimension dim="2">spin</dimension>
     <field>energy</field>
     <field>total</field>
     <field>integrated</field>
     <set>
      <set comment="spin 1">
       <r>   -30.2761     0.0000     0.0000 </r>
       <r>   -30.1704     0.0000     0.0000 </r>
       <r>   -30.0647     0.0000     0.0000 </r>
       <r>   -29.9590     0.0000     0.0000 </r>
       <r>   -29.8533     0.0000     0.0000 </r>
       <r>   -29.7475     0.0000     0.0000 </r>
       <r>   -29.6418     0.0000     0.0000 </r>
       <r>   -29.5361     0.0000     0.0000 </r>
       <r>   -29.4304     0.0000     0.0000 </r>
       <r>   -29.3247     0.0000     0.0000 </r>
       <r>   -29.2190     0.0000     0.0000 </r>
       <r>   -29.1133     0.0000     0.0000 </r>
       <r>   -29.0075     0.0001     0.0000 </r>
       <r>   -28.9018     0.0029     0.0003 </r>
       <r>   -28.7961     0.0254     0.0030 </r>
       <r>   -28.6904     0.0635     0.0097 </r>
       <r>   -28.5847    -0.2432    -0.0160 </r>
       <r>   -28.4790    -0.8070    -0.1013 </r>
       <r>   -28.3732     2.2738     0.1391 </r>
       <r>   -28.2675     9.0035     1.0909 </r>
       <r>   -28.1618     8.1283     1.9502 </r>
       <r>   -28.0561     1.3422     2.0921 </r>
       <r>   -27.9504    -0.8127     2.0062 </r>
       <r>   -27.8447    -0.1432     1.9910 </r>
       <r>   -27.7389     0.0639     1.9978 </r>
       <r>   -27.6332     0.0190     1.9998 </r>
       <r>   -27.5275     0.0019     2.0000 </r>
       <r>   -27.4218     0.0001     2.0000 </r>
       <r>   -27.3161     0.0000     2.0000 </r>
       <r>   -27.2104     0.0000     2.0000 </r>
       <r>   -27.1046     0.0000     2.0000 </r>
       <r>   -26.9989     0.0000     2.0000 </r>
       <r>   -26.8932     0.0000     2.0000 </r>
       <r>   -26.7875     0.0000     2.0000 </r>
       <r>   -26.6818     0.0000     2.0000 </r>
       <r>   -26.5761     0.0000     2.0000 </r>
       <r>   -26.4704     0.0000     2.0000 </r>
       <r>   -26.3646     0.0000     2.0000 </r>
       <r>   -26.2589     0.0000     2.0000 </r>
       <r>   -26.1532     0.0000     2.0000 </r>
       <r>   -26.0475     0.0000     2.0000 </r>
       <r>   -25.9418     0.0000     2.0000 </r>
       <r>   -25.8361     0.0000     2.0000 </r>
       <r>   -25.7303     0.0000     2.0000 </r>
       <r>   -25.6246     0.0000     2.0000 </r>
       <r>   -25.5189     0.0000     2.0000 </r>
       <r>   -25.4132     0.0000     2.0000 </r>
       <r>   -25.3075     0.0000     2.0000 </r>
       <r>   -25.2018     0.0000     2.0000 </r>
       <r>   -25.0960     0.0000     2.0000 </r>
       <r>   -24.9903     0.0000     2.0000 </r>
       <r>   -24.8846     0.0000     2.0000 </r>
       <r>   -24.7789     0.0000     2.0000 </r>
       <r>   -24.6732     0.0000     2.0000 </r>
       <r>   -24.5675     0.0000     2.0000 </r>
       <r>   -24.4617     0.0000     2.0000 </r>
       <r>   -24.3560     0.0000     2.0000 </r>
       <r>   -24.2503     0.0000     2.0000 </r>
       <r>   -24.1446     0.0000     2.0000 </r>
       <r>   -24.0389     0.0000     2.0000 </r>
       <r>   -23.9332     0.0000     2.0000 </r>
       <r>   -23.8275     0.0000     2.0000 </r>
       <r>   -23.7217     0.0000     2.0000 </r>
       <r>   -23.6160     0.0000     2.0000 </r>
       <r>   -23.5103     0.0000     2.0000 </r>
       <r>   -23.4046     0.0000     2.0000 </r>
       <r>   -23.2989     0.0000     2.0000 </r>
       <r>   -23.1932     0.0000     2.0000 </r>
       <r>   -23.0874     0.0000     2.0000 </r>
       <r>   -22.9817     0.0000     2.0000 </r>
       <r>   -22.8760     0.0000     2.0000 </r>
       <r>   -22.7703     0.0000     2.0000 </r>
       <r>   -22.6646     0.0000     2.0000 </r>
       <r>   -22.5589     0.0000     2.0000 </r>
       <r>   -22.4531     0.0000     2.0000 </r>
       <r>   -22.3474     0.0000     2.0000 </r>
       <r>   -22.2417     0.0000     2.0000 </r>
       <r>   -22.1360     0.0000     2.0000 </r>
       <r>   -22.0303     0.0000     2.0000 </r>
       <r>   -21.9246     0.0000     2.0000 </r>
       <r>   -21.8188     0.0000     2.0000 </r>
       <r>   -21.7131     0.0000     2.0000 </r>
       <r>   -21.6074     0.0000     2.0000 </r>
       <r>   -21.5017     0.0000     2.0000 </r>
       <r>   -21.3960     0.0000     2.0000 </r>
       <r>   -21.2903     0.0000     2.0000 </r>
       <r>   -21.1846     0.0000     2.0000 </r>
       <r>   -21.0788     0.0000     2.0000 </r>
       <r>   -20.9731     0.0000     2.0000 </r>
       <r>   -20.8674     0.0000     2.0000 </r>
       <r>   -20.7617     0.0000     2.0000 </r>
       <r>   -20.6560     0.0000     2.0000 </r>
       <r>   -20.5503     0.0000     2.0000 </r>
       <r>   -20.4445     0.0000     2.0000 </r>
       <r>   -20.3388     0.0000     2.0000 </r>
       <r>   -20.2331     0.0000     2.0000 </r>
       <r>   -20.1274     0.0000     2.0000 </r>
       <r>   -20.0217     0.0000     2.0000 </r>
       <r>   -19.9160     0.0000     2.0000 </r>
       <r>   -19.8102     0.0000     2.0000 </r>
       <r>   -19.7045     0.0000     2.0000 </r>
       <r>   -19.5988     0.0000     2.0000 </r>
       <r>   -19.4931     0.0000     2.0000 </r>
       <r>   -19.3874     0.0000     2.0000 </r>
       <r>   -19.2817     0.0000     2.0000 </r>
       <r>   -19.1759     0.0000     2.0000 </r>
       <r>   -19.0702     0.0000     2.0000 </r>
       <r>   -18.9645     0.0000     2.0000 </r>
       <r>   -18.8588     0.0000     2.0000 </r>
       <r>   -18.7531     0.0000     2.0000 </r>
       <r>   -18.6474     0.0000     2.0000 </r>
       <r>   -18.5417     0.0000     2.0000 </r>
       <r>   -18.4359     0.0000     2.0000 </r>
       <r>   -18.3302     0.0000     2.0000 </r>
       <r>   -18.2245     0.0000     2.0000 </r>
       <r>   -18.1188     0.0000     2.0000 </r>
       <r>   -18.0131     0.0000     2.0000 </r>
       <r>   -17.9074     0.0000     2.0000 </r>
       <r>   -17.8016     0.0000     2.0000 </r>
       <r>   -17.6959     0.0000     2.0000 </r>
       <r>   -17.5902     0.0000     2.0000 </r>
       <r>   -17.4845     0.0000     2.0000 </r>
       <r>   -17.3788     0.0000     2.0000 </r>
       <r>   -17.2731     0.0000     2.0000 </r>
       <r>   -17.1673     0.0000     2.0000 </r>
       <r>   -17.0616     0.0000     2.0000 </r>
       <r>   -16.9559     0.0000     2.0000 </r>
       <r>   -16.8502     0.0000     2.0000 </r>
       <r>   -16.7445     0.0000     2.0000 </r>
       <r>   -16.6388     0.0000     2.0000 </r>
       <r>   -16.5330     0.0000     2.0000 </r>
       <r>   -16.4273     0.0000     2.0000 </r>
       <r>   -16.3216     0.0000     2.0000 </r>
       <r>   -16.2159     0.0000     2.0000 </r>
       <r>   -16.1102     0.0000     2.0000 </r>
       <r>   -16.0045     0.0000     2.0000 </r>
       <r>   -15.8988     0.0000     2.0000 </r>
       <r>   -15.7930     0.0000     2.0000 </r>
       <r>   -15.6873     0.0000     2.0000 </r>
       <r>   -15.5816     0.0000     2.0000 </r>
       <r>   -15.4759     0.0000     2.0000 </r>
       <r>   -15.3702     0.0000     2.0000 </r>
       <r>   -15.2645     0.0000     2.0000 </r>
       <r>   -15.1587     0.0000     2.0000 </r>
       <r>   -15.0530     0.0000     2.0000 </r>
       <r>   -14.9473     0.0000     2.0000 </r>
       <r>   -14.8416     0.0000     2.0000 </r>
       <r>   -14.7359     0.0000     2.0000 </r>
       <r>   -14.6302     0.0000     2.0000 </r>
       <r>   -14.5244     0.0000     2.0000 </r>
       <r>   -14.4187     0.0000     2.0000 </r>
       <r>   -14.3130     0.0000     2.0000 </r>
       <r>   -14.2073     0.0000     2.0000 </r>
       <r>   -14.1016     0.0001     2.0000 </r>
       <r>   -13.9959     0.0018     2.0002 </r>
       <r>   -13.8901     0.0187     2.0022 </r>
       <r>   -13.7844     0.0637     2.0089 </r>
       <r>   -13.6787    -0.1384     1.9943 </r>
       <r>   -13.5730    -0.8107     1.9086 </r>
       <r>   -13.4673     1.2970     2.0457 </r>
       <r>   -13.3616     8.0758     2.8994 </r>
       <r>   -13.2559     9.0438     3.8555 </r>
       <r>   -13.1501     2.3279     4.1016 </r>
       <r>   -13.0444    -0.8042     4.0166 </r>
       <r>   -12.9387    -0.2491     3.9903 </r>
       <r>   -12.8330     0.0633     3.9969 </r>
       <r>   -12.7273     0.0258     3.9997 </r>
       <r>   -12.6216     0.0030     4.0000 </r>
       <r>   -12.5158     0.0002     4.0000 </r>
       <r>   -12.4101     0.0000     4.0000 </r>
       <r>   -12.3044     0.0000     4.0000 </r>
       <r>   -12.1987     0.0000     4.0000 </r>
       <r>   -12.0930     0.0001     4.0000 </r>
       <r>   -11.9873     0.0018     4.0002 </r>
       <r>   -11.8815     0.0188     4.0022 </r>
       <r>   -11.7758     0.0638     4.0089 </r>
       <r>   -11.6701    -0.1402     3.9941 </r>
       <r>   -11.5644    -0.8109     3.9084 </r>
       <r>   -11.4587     1.3235     4.0483 </r>
       <r>   -11.3530     8.1454     4.9094 </r>
       <r>   -11.2472     9.0327     5.8643 </r>
       <r>   -11.1415     1.7003     6.0441 </r>
       <r>   -11.0358    -0.9395     5.9447 </r>
       <r>   -10.9301     5.3309     6.5083 </r>
       <r>   -10.8244    10.0734     7.5732 </r>
       <r>   -10.7187     4.8631     8.0873 </r>
       <r>   -10.6130    -0.3614     8.0491 </r>
       <r>   -10.5072    -0.4665     7.9998 </r>
       <r>   -10.4015    -0.0522     7.9943 </r>
       <r>   -10.2958    -0.7219     7.9180 </r>
       <r>   -10.1901     0.7297     7.9951 </r>
       <r>   -10.0844     7.3020     8.7671 </r>
       <r>    -9.9787     9.5251     9.7740 </r>
       <r>    -9.8729     3.1133    10.1031 </r>
       <r>    -9.7672    -0.7330    10.0256 </r>
       <r>    -9.6615    -0.3358     9.9901 </r>
       <r>    -9.5558     0.0576     9.9962 </r>
       <r>    -9.4501     0.0313     9.9996 </r>
       <r>    -9.3444     0.0040    10.0000 </r>
       <r>    -9.2386     0.0002    10.0000 </r>
       <r>    -9.1329     0.0000    10.0000 </r>
       <r>    -9.0272     0.0000    10.0000 </r>
       <r>    -8.9215     0.0000    10.0000 </r>
       <r>    -8.8158     0.0000    10.0000 </r>
       <r>    -8.7101     0.0000    10.0000 </r>
       <r>    -8.6043     0.0000    10.0000 </r>
       <r>    -8.4986     0.0000    10.0000 </r>
       <r>    -8.3929     0.0000    10.0000 </r>
       <r>    -8.2872     0.0000    10.0000 </r>
       <r>    -8.1815     0.0000    10.0000 </r>
       <r>    -8.0758     0.0000    10.0000 </r>
       <r>    -7.9701     0.0000    10.0000 </r>
       <r>    -7.8643     0.0000    10.0000 </r>
       <r>    -7.7586     0.0000    10.0000 </r>
       <r>    -7.6529     0.0000    10.0000 </r>
       <r>    -7.5472     0.0000    10.0000 </r>
       <r>    -7.4415     0.0000    10.0000 </r>
       <r>    -7.3358     0.0009    10.0001 </r>
       <r>    -7.2300     0.0116    10.0013 </r>
       <r>    -7.1243     0.0552    10.0072 </r>
       <r>    -7.0186    -0.0303    10.0040 </r>
       <r>    -6.9129    -0.6788     9.9322 </r>
       <r>    -6.8072     0.3240     9.9664 </r>
       <r>    -6.7015     6.5012    10.6537 </r>
       <r>    -6.5957     9.0648    11.6120 </r>
       <r>    -6.4900     3.4995    11.9820 </r>
       <r>    -6.3843     6.5103    12.6702 </r>
       <r>    -6.2786    17.9984    14.5729 </r>
       <r>    -6.1729    26.8935    17.4160 </r>
       <r>    -6.0672    27.2601    20.2978 </r>
       <r>    -5.9614    17.7304    22.1722 </r>
       <r>    -5.8557    27.2973    25.0580 </r>
       <r>    -5.7500    56.6578    31.0476 </r>
       <r>    -5.6443   106.2588    42.2809 </r>
       <r>    -5.5386   210.4261    64.5263 </r>
       <r>    -5.4329   294.8278    95.6943 </r>
       <r>    -5.3272   261.4283   123.3315 </r>
       <r>    -5.2214   208.2424   145.3460 </r>
       <r>    -5.1157   251.0632   171.8874 </r>
       <r>    -5.0100   344.6608   208.3236 </r>
       <r>    -4.9043   362.7855   246.6758 </r>
       <r>    -4.7986   306.2457   279.0509 </r>
       <r>    -4.6929   322.0336   313.0950 </r>
       <r>    -4.5871   396.6281   355.0249 </r>
       <r>    -4.4814   413.0241   398.6882 </r>
       <r>    -4.3757   451.7099   446.4412 </r>
       <r>    -4.2700   553.4762   504.9525 </r>
       <r>    -4.1643   483.6617   556.0832 </r>
       <r>    -4.0586   210.8928   578.3780 </r>
       <r>    -3.9528    28.5216   581.3932 </r>
       <r>    -3.8471    14.1816   582.8924 </r>
       <r>    -3.7414    27.6826   585.8189 </r>
       <r>    -3.6357    17.8101   587.7017 </r>
       <r>    -3.5300    18.9741   589.7076 </r>
       <r>    -3.4243    27.2275   592.5860 </r>
       <r>    -3.3185    12.3101   593.8873 </r>
       <r>    -3.2128    -2.0026   593.6756 </r>
       <r>    -3.1071    23.2292   596.1313 </r>
       <r>    -3.0014    60.4126   602.5179 </r>
       <r>    -2.8957    50.2168   607.8266 </r>
       <r>    -2.7900    16.4875   609.5696 </r>
       <r>    -2.6843     3.8416   609.9757 </r>
       <r>    -2.5785    12.3045   611.2765 </r>
       <r>    -2.4728    25.1110   613.9311 </r>
       <r>    -2.3671    23.8982   616.4576 </r>
       <r>    -2.2614    13.1129   617.8438 </r>
       <r>    -2.1557    19.5380   619.9093 </r>
       <r>    -2.0500    38.7775   624.0087 </r>
       <r>    -1.9442    43.9857   628.6587 </r>
       <r>    -1.8385    38.4698   632.7256 </r>
       <r>    -1.7328    34.5536   636.3784 </r>
       <r>    -1.6271    37.3243   640.3242 </r>
       <r>    -1.5214    31.5733   643.6620 </r>
       <r>    -1.4157    17.2547   645.4861 </r>
       <r>    -1.3099    15.0441   647.0765 </r>
       <r>    -1.2042    22.5976   649.4655 </r>
       <r>    -1.0985    31.3453   652.7792 </r>
       <r>    -0.9928    53.7007   658.4562 </r>
       <r>    -0.8871    64.8737   665.3144 </r>
       <r>    -0.7814    37.7940   669.3098 </r>
       <r>    -0.6756     9.3698   670.3003 </r>
       <r>    -0.5699     6.3508   670.9717 </r>
       <r>    -0.4642     8.1131   671.8294 </r>
       <r>    -0.3585     2.4194   672.0852 </r>
       <r>    -0.2528    -0.6805   672.0132 </r>
       <r>    -0.1471    -0.2193   671.9901 </r>
       <r>    -0.0414     0.0655   671.9970 </r>
       <r>     0.0644     0.0255   671.9997 </r>
       <r>     0.1701     0.0029   672.0000 </r>
       <r>     0.2758     0.0001   672.0000 </r>
       <r>     0.3815     0.0000   672.0000 </r>
       <r>     0.4872     0.0000   672.0000 </r>
       <r>     0.5929     0.0000   672.0000 </r>
       <r>     0.6987     0.0000   672.0000 </r>
       <r>     0.8044     0.0000   672.0000 </r>
       <r>     0.9101     0.0000   672.0000 </r>
       <r>     1.0158     0.0000   672.0000 </r>
       <r>     1.1215     0.0000   672.0000 </r>
       <r>     1.2272     0.0000   672.0000 </r>
       <r>     1.3330     0.0000   672.0000 </r>
       <r>     1.4387     0.0000   672.0000 </r>
      </set>
     </set>
    </array>
   </total>
  </dos>
 </calculation>
 <structure name="finalpos" >
  <crystal>
   <varray name="basis" >
    <v>      30.00000000       0.00000000       0.00000000 </v>
    <v>       0.00000000      30.00000000       0.00000000 </v>
    <v>       0.00000000       0.00000000      30.00000000 </v>
   </varray>
   <i name="volume">  27000.00000000 </i>
   <varray name="rec_basis" >
    <v>       0.03333333       0.00000000       0.00000000 </v>
    <v>       0.00000000       0.03333333       0.00000000 </v>
    <v>       0.00000000       0.00000000       0.03333333 </v>
   </varray>
  </crystal>
  <varray name="positions" >
   <v>       0.44576020       0.32826710       0.41691983 </v>
   <v>       0.67173288       0.55423978       0.41691983 </v>
   <v>       0.55423980       0.32826710       0.41691983 </v>
   <v>       0.32826712       0.55423978       0.41691983 </v>
   <v>       0.50000000       0.38250690       0.34021317 </v>
   <v>       0.50000000       0.38250690       0.65978680 </v>
   <v>       0.50000000       0.27609440       0.50000000 </v>
   <v>       0.27609443       0.49999998       0.50000000 </v>
   <v>       0.72390557       0.49999998       0.50000000 </v>
   <v>       0.50000000       0.72390555       0.50000000 </v>
   <v>       0.61195280       0.38804720       0.34167483 </v>
   <v>       0.61195280       0.38804720       0.65832513 </v>
   <v>       0.38804722       0.61195278       0.34167483 </v>
   <v>       0.38804722       0.61195278       0.65832513 </v>
   <v>       0.38804720       0.38804720       0.34167483 </v>
   <v>       0.38804720       0.38804720       0.65832513 </v>
   <v>       0.61195278       0.61195278       0.34167483 </v>
   <v>       0.61195278       0.61195278       0.65832513 </v>
   <v>       0.44576020       0.32826710       0.58308023 </v>
   <v>       0.67173288       0.55423978       0.58308023 </v>
   <v>       0.55791699       0.44208301       0.41809300 </v>
   <v>       0.32826705       0.44576024       0.41691983 </v>
   <v>       0.55423973       0.67173293       0.41691983 </v>
   <v>       0.55423980       0.32826710       0.58308023 </v>
   <v>       0.32826712       0.55423978       0.58308023 </v>
   <v>       0.67173295       0.44576024       0.41691983 </v>
   <v>       0.44576027       0.67173293       0.41691983 </v>
   <v>       0.44208301       0.44208301       0.41809300 </v>
   <v>       0.50000000       0.38416601       0.50000000 </v>
   <v>       0.61749315       0.50000005       0.34021317 </v>
   <v>       0.61749315       0.50000005       0.65978680 </v>
   <v>       0.38250685       0.50000005       0.34021317 </v>
   <v>       0.38250685       0.50000005       0.65978680 </v>
   <v>       0.38317830       0.38317830       0.50000000 </v>
   <v>       0.61682172       0.61682172       0.50000000 </v>
   <v>       0.61682170       0.38317830       0.50000000 </v>
   <v>       0.38317828       0.61682172       0.50000000 </v>
   <v>       0.50000000       0.50000000       0.33478917 </v>
   <v>       0.50000000       0.50000000       0.66521087 </v>
   <v>       0.32826705       0.44576024       0.58308023 </v>
   <v>       0.55423973       0.67173293       0.58308023 </v>
   <v>       0.55791699       0.44208301       0.58190703 </v>
   <v>       0.44208298       0.55791702       0.41809300 </v>
   <v>       0.44208301       0.44208301       0.58190703 </v>
   <v>       0.67173295       0.44576024       0.58308023 </v>
   <v>       0.44576027       0.67173293       0.58308023 </v>
   <v>       0.55791702       0.55791702       0.41809300 </v>
   <v>       0.38416599       0.50000002       0.50000000 </v>
   <v>       0.61583401       0.50000002       0.50000000 </v>
   <v>       0.50000000       0.61749319       0.34021317 </v>
   <v>       0.50000000       0.61749319       0.65978680 </v>
   <v>       0.50000000       0.50000000       0.50000000 </v>
   <v>       0.44208298       0.55791702       0.58190703 </v>
   <v>       0.55791702       0.55791702       0.58190703 </v>
   <v>       0.50000000       0.61583404       0.50000000 </v>
   <v>       0.59438460       0.58876727       0.71088340 </v>
   <v>       0.60872300       0.60225230       0.74291967 </v>
  </varray>
  <varray name="selective"  type="logical" >
   <v type="logical" >  F  F  F </v>
   <v type="logical" >  F  F  F </v>
   <v type="logical" >  F  F  F </v>
   <v type="logical" >  F  F  F </v>
   <v type="logical" >  F  F  F </v>
   <v type="logical" >  F  F  F </v>
   <v type="logical" >  F  F  F </v>
   <v type="logical" >  F  F  F </v>
   <v type="logical" >  F  F  F </v>
   <v type="logical" >  F  F  F </v>
   <v type="logical" >  F  F  F </v>
   <v type="logical" >  F  F  F </v>
   <v type="logical" >  F  F  F </v>
   <v type="logical" >  F  F  F </v>
   <v type="logical" >  F  F  F </v>
   <v type="logical" >  F  F  F </v>
   <v type="logical" >  F  F  F </v>
   <v type="logical" >  F  F  F </v>
   <v type="logical" >  F  F  F </v>
   <v type="logical" >  F  F  F </v>
   <v type="logical" >  F  F  F </v>
   <v type="logical" >  F  F  F </v>
   <v type="logical" >  F  F  F </v>
   <v type="logical" >  F  F  F </v>
   <v type="logical" >  F  F  F </v>
   <v type="logical" >  F  F  F </v>
   <v type="logical" >  F  F  F </v>
   <v type="logical" >  F  F  F </v>
   <v type="logical" >  F  F  F </v>
   <v type="logical" >  F  F  F </v>
   <v type="logical" >  F  F  F </v>
   <v type="logical" >  F  F  F </v>
   <v type="logical" >  F  F  F </v>
   <v type="logical" >  F  F  F </v>
   <v type="logical" >  F  F  F </v>
   <v type="logical" >  F  F  F </v>
   <v type="logical" >  F  F  F </v>
   <v type="logical" >  F  F  F </v>
   <v type="logical" >  F  F  F </v>
   <v type="logical" >  F  F  F </v>
   <v type="logical" >  F  F  F </v>
   <v type="logical" >  F  F  F </v>
   <v type="logical" >  F  F  F </v>
   <v type="logical" >  F  F  F </v>
   <v type="logical" >  F  F  F </v>
   <v type="logical" >  F  F  F </v>
   <v type="logical" >  F  F  F </v>
   <v type="logical" >  F  F  F </v>
   <v type="logical" >  F  F  F </v>
   <v type="logical" >  F  F  F </v>
   <v type="logical" >  F  F  F </v>
   <v type="logical" >  F  F  F </v>
   <v type="logical" >  F  F  F </v>
   <v type="logical" >  F  F  F </v>
   <v type="logical" >  F  F  F </v>
   <v type="logical" >  F  F  F </v>
   <v type="logical" >  F  F  F </v>
  </varray>
  <nose>
   <v>      -3.00000000       0.00000000       0.00010000       0.00010000 </v>
  </nose>
 </structure>
</modeling>
