   57   57    1    1
  0.4736842E+03  0.3000000E-08  0.3000000E-08  0.3000000E-08  0.5000000E-15
  1.000000000000000E-004
  CAR 
 6_Pd100_top_free_z(O)                   
    560      1    336
 
  0.0000000E+00  0.0000000E+00  0.0000000E+00  0.1000000E+01
    1      -28.154720   1.000000
    2      -13.960378   1.000000
    3      -12.127991   1.000000
    4      -11.342955   1.000000
    5      -10.840265   1.000000
    6       -7.192176   1.000000
    7       -6.803820   1.000000
    8       -6.656273   1.000000
    9       -6.421471   1.000000
   10       -6.201682   1.000000
   11       -6.175173   1.000000
   12       -6.126915   1.000000
   13       -6.106753   1.000000
   14       -6.042669   1.000000
   15       -5.863381   1.000000
   16       -5.825693   1.000000
   17       -5.808372   1.000000
   18       -5.763565   1.000000
   19       -5.738627   1.000000
   20       -5.722493   1.000000
   21       -5.687272   1.000000
   22       -5.680406   1.000000
   23       -5.671876   1.000000
   24       -5.659689   1.000000
   25       -5.633604   1.000000
   26       -5.613064   1.000000
   27       -5.601077   1.000000
   28       -5.591325   1.000000
   29       -5.578714   1.000000
   30       -5.572749   1.000000
   31       -5.565179   1.000000
   32       -5.547264   1.000000
   33       -5.543003   1.000000
   34       -5.534098   1.000000
   35       -5.527106   1.000000
   36       -5.517718   1.000000
   37       -5.513706   1.000000
   38       -5.507376   1.000000
   39       -5.504490   1.000000
   40       -5.502024   1.000000
   41       -5.496618   1.000000
   42       -5.484240   1.000000
   43       -5.479649   1.000000
   44       -5.468976   1.000000
   45       -5.467369   1.000000
   46       -5.461799   1.000000
   47       -5.458589   1.000000
   48       -5.453710   1.000000
   49       -5.444436   1.000000
   50       -5.441386   1.000000
   51       -5.425213   1.000000
   52       -5.422790   1.000000
   53       -5.414769   1.000000
   54       -5.408909   1.000000
   55       -5.402157   1.000000
   56       -5.400266   1.000000
   57       -5.394380   1.000000
   58       -5.388965   1.000000
   59       -5.380570   1.000000
   60       -5.368372   1.000000
   61       -5.354366   1.000000
   62       -5.340829   1.000000
   63       -5.324771   1.000000
   64       -5.321739   1.000000
   65       -5.314053   1.000000
   66       -5.309296   1.000000
   67       -5.298814   1.000000
   68       -5.296678   1.000000
   69       -5.293275   1.000000
   70       -5.289086   1.000000
   71       -5.282734   1.000000
   72       -5.263867   1.000000
   73       -5.248483   1.000000
   74       -5.234979   1.000000
   75       -5.200987   1.000000
   76       -5.194124   1.000000
   77       -5.191550   1.000000
   78       -5.173862   1.000000
   79       -5.172040   1.000000
   80       -5.171447   1.000000
   81       -5.162396   1.000000
   82       -5.157935   1.000000
   83       -5.157450   1.000000
   84       -5.151938   1.000000
   85       -5.150814   1.000000
   86       -5.126707   1.000000
   87       -5.123612   1.000000
   88       -5.120266   1.000000
   89       -5.104106   1.000000
   90       -5.095359   1.000000
   91       -5.080909   1.000000
   92       -5.070188   1.000000
   93       -5.066802   1.000000
   94       -5.058469   1.000000
   95       -5.049322   1.000000
   96       -5.047435   1.000000
   97       -5.045802   1.000000
   98       -5.043120   1.000000
   99       -5.037228   1.000000
  100       -5.035084   1.000000
  101       -5.032375   1.000000
  102       -5.024816   1.000000
  103       -5.019411   1.000000
  104       -5.017428   1.000000
  105       -5.007889   1.000000
  106       -4.999798   1.000000
  107       -4.998787   1.000000
  108       -4.997004   1.000000
  109       -4.989761   1.000000
  110       -4.986457   1.000000
  111       -4.979058   1.000000
  112       -4.977610   1.000000
  113       -4.972293   1.000000
  114       -4.962067   1.000000
  115       -4.959981   1.000000
  116       -4.957171   1.000000
  117       -4.948049   0.999999
  118       -4.945642   0.999999
  119       -4.935330   0.999999
  120       -4.930418   0.999999
  121       -4.921492   0.999998
  122       -4.916472   0.999998
  123       -4.904732   0.999997
  124       -4.902296   0.999997
  125       -4.902010   0.999997
  126       -4.897959   0.999996
  127       -4.896225   0.999996
  128       -4.883351   0.999994
  129       -4.873434   0.999992
  130       -4.863610   0.999988
  131       -4.851139   0.999983
  132       -4.839421   0.999976
  133       -4.835270   0.999973
  134       -4.832787   0.999971
  135       -4.830892   0.999969
  136       -4.824849   0.999964
  137       -4.810567   0.999946
  138       -4.805912   0.999938
  139       -4.794134   0.999915
  140       -4.792932   0.999912
  141       -4.780569   0.999879
  142       -4.770836   0.999845
  143       -4.765485   0.999823
  144       -4.761369   0.999804
  145       -4.752331   0.999756
  146       -4.743191   0.999698
  147       -4.738145   0.999661
  148       -4.733290   0.999621
  149       -4.727224   0.999567
  150       -4.712195   0.999401
  151       -4.700617   0.999241
  152       -4.698489   0.999208
  153       -4.690214   0.999069
  154       -4.683223   0.998937
  155       -4.679238   0.998856
  156       -4.673435   0.998730
  157       -4.666563   0.998567
  158       -4.663991   0.998502
  159       -4.663632   0.998493
  160       -4.660335   0.998407
  161       -4.657997   0.998344
  162       -4.648399   0.998068
  163       -4.643417   0.997914
  164       -4.641711   0.997860
  165       -4.641024   0.997837
  166       -4.638163   0.997744
  167       -4.636783   0.997698
  168       -4.635501   0.997655
  169       -4.634017   0.997605
  170       -4.627665   0.997385
  171       -4.617175   0.997004
  172       -4.614227   0.996894
  173       -4.604597   0.996532
  174       -4.602414   0.996450
  175       -4.598236   0.996294
  176       -4.593456   0.996119
  177       -4.590362   0.996008
  178       -4.586179   0.995862
  179       -4.583050   0.995757
  180       -4.577129   0.995571
  181       -4.576607   0.995556
  182       -4.572432   0.995438
  183       -4.564442   0.995248
  184       -4.561411   0.995190
  185       -4.554809   0.995100
  186       -4.554397   0.995096
  187       -4.550758   0.995071
  188       -4.546996   0.995065
  189       -4.543559   0.995079
  190       -4.540410   0.995109
  191       -4.539857   0.995116
  192       -4.528557   0.995394
  193       -4.515685   0.996075
  194       -4.507709   0.996731
  195       -4.505175   0.996981
  196       -4.495494   0.998142
  197       -4.491824   0.998672
  198       -4.488932   0.999127
  199       -4.485676   0.999679
  200       -4.477697   1.001217
  201       -4.474623   1.001883
  202       -4.465334   1.004150
  203       -4.464739   1.004309
  204       -4.458881   1.005955
  205       -4.451103   1.008384
  206       -4.448156   1.009375
  207       -4.446089   1.010094
  208       -4.443840   1.010897
  209       -4.439479   1.012517
  210       -4.436085   1.013832
  211       -4.427219   1.017478
  212       -4.422334   1.019605
  213       -4.419308   1.020960
  214       -4.416360   1.022303
  215       -4.404814   1.027737
  216       -4.401445   1.029355
  217       -4.398639   1.030706
  218       -4.398243   1.030897
  219       -4.395991   1.031981
  220       -4.394831   1.032539
  221       -4.383452   1.037907
  222       -4.380379   1.039302
  223       -4.371550   1.043089
  224       -4.360052   1.047297
  225       -4.357198   1.048171
  226       -4.351052   1.049767
  227       -4.341778   1.051300
  228       -4.335781   1.051624
  229       -4.333700   1.051598
  230       -4.329258   1.051282
  231       -4.328648   1.051209
  232       -4.327419   1.051042
  233       -4.325637   1.050745
  234       -4.319972   1.049362
  235       -4.319528   1.049224
  236       -4.318717   1.048961
  237       -4.317697   1.048608
  238       -4.316247   1.048064
  239       -4.309981   1.045131
  240       -4.305626   1.042501
  241       -4.304336   1.041624
  242       -4.303926   1.041336
  243       -4.286981   1.025081
  244       -4.285428   1.023140
  245       -4.283714   1.020907
  246       -4.282475   1.019229
  247       -4.278533   1.013546
  248       -4.276043   1.009678
  249       -4.266546   0.992884
  250       -4.265275   0.990384
  251       -4.263770   0.987348
  252       -4.260539   0.980542
  253       -4.258921   0.976984
  254       -4.258565   0.976187
  255       -4.255377   0.968842
  256       -4.247873   0.950008
  257       -4.247177   0.948149
  258       -4.245907   0.944713
  259       -4.241579   0.932527
  260       -4.239446   0.926253
  261       -4.238989   0.924888
  262       -4.235888   0.915399
  263       -4.234320   0.910463
  264       -4.231814   0.902376
  265       -4.229752   0.895542
  266       -4.220980   0.864694
  267       -4.219375   0.858745
  268       -4.218008   0.853605
  269       -4.212360   0.831669
  270       -4.211589   0.828589
  271       -4.210567   0.824476
  272       -4.200893   0.783839
  273       -4.195620   0.760472
  274       -4.186744   0.719394
  275       -4.183169   0.702291
  276       -4.175040   0.662351
  277       -4.174382   0.659059
  278       -4.168468   0.629160
  279       -4.168250   0.628044
  280       -4.166614   0.619671
  281       -4.153094   0.549295
  282       -4.135853   0.458237
  283       -4.129052   0.422542
  284       -4.128324   0.418740
  285       -4.127208   0.412925
  286       -4.118929   0.370230
  287       -4.111551   0.333033
  288       -4.111284   0.331706
  289       -4.046166   0.068138
  290       -3.958153  -0.051294
  291       -3.830857  -0.006621
  292       -3.829605  -0.006243
  293       -3.810568  -0.001376
  294       -3.598547   0.000953
  295       -3.518133   0.000161
  296       -3.498126   0.000096
  297       -3.234789   0.000000
  298       -3.064723   0.000000
  299       -3.060623   0.000000
  300       -3.052553   0.000000
  301       -3.024871   0.000000
  302       -3.022299   0.000000
  303       -2.942003   0.000000
  304       -2.938909   0.000000
  305       -2.583127   0.000000
  306       -2.578822   0.000000
  307       -2.517677   0.000000
  308       -2.510924   0.000000
  309       -2.218028   0.000000
  310       -2.113943   0.000000
  311       -2.110939   0.000000
  312       -2.102282   0.000000
  313       -1.975854   0.000000
  314       -1.971667   0.000000
  315       -1.899403   0.000000
  316       -1.878218   0.000000
  317       -1.823666   0.000000
  318       -1.675547   0.000000
  319       -1.656380   0.000000
  320       -1.643480   0.000000
  321       -1.562352   0.000000
  322       -1.554657   0.000000
  323       -1.549603   0.000000
  324       -1.296728   0.000000
  325       -1.249531   0.000000
  326       -1.086543   0.000000
  327       -0.998372   0.000000
  328       -0.992494   0.000000
  329       -0.954262   0.000000
  330       -0.940046   0.000000
  331       -0.936526   0.000000
  332       -0.927876   0.000000
  333       -0.897927   0.000000
  334       -0.877817   0.000000
  335       -0.832772   0.000000
  336       -0.767343   0.000000
