   57   57    1    1
  0.4736842E+03  0.3000000E-08  0.3000000E-08  0.3000000E-08  0.5000000E-15
  1.000000000000000E-004
  CAR 
 6_Pd100_top_free_z(O)                   
    560      1    336
 
  0.0000000E+00  0.0000000E+00  0.0000000E+00  0.1000000E+01
    1      -28.388313   1.000000
    2      -13.396651   1.000000
    3      -11.154302   1.000000
    4      -10.906896   1.000000
    5      -10.604655   1.000000
    6       -6.656049   1.000000
    7       -6.383827   1.000000
    8       -6.343976   1.000000
    9       -6.152945   1.000000
   10       -6.132002   1.000000
   11       -6.123753   1.000000
   12       -5.839915   1.000000
   13       -5.820461   1.000000
   14       -5.809507   1.000000
   15       -5.749446   1.000000
   16       -5.704670   1.000000
   17       -5.693408   1.000000
   18       -5.686251   1.000000
   19       -5.684862   1.000000
   20       -5.680592   1.000000
   21       -5.668662   1.000000
   22       -5.667234   1.000000
   23       -5.609440   1.000000
   24       -5.596744   1.000000
   25       -5.592849   1.000000
   26       -5.592304   1.000000
   27       -5.582666   1.000000
   28       -5.567313   1.000000
   29       -5.543520   1.000000
   30       -5.531884   1.000000
   31       -5.529618   1.000000
   32       -5.523049   1.000000
   33       -5.517458   1.000000
   34       -5.515364   1.000000
   35       -5.514768   1.000000
   36       -5.509748   1.000000
   37       -5.503122   1.000000
   38       -5.495840   1.000000
   39       -5.489942   1.000000
   40       -5.479163   1.000000
   41       -5.475750   1.000000
   42       -5.471575   1.000000
   43       -5.467615   1.000000
   44       -5.465568   1.000000
   45       -5.464530   1.000000
   46       -5.462181   1.000000
   47       -5.451380   1.000000
   48       -5.434465   1.000000
   49       -5.426944   1.000000
   50       -5.425779   1.000000
   51       -5.423595   1.000000
   52       -5.415098   1.000000
   53       -5.404865   1.000000
   54       -5.404163   1.000000
   55       -5.393182   1.000000
   56       -5.389644   1.000000
   57       -5.379993   1.000000
   58       -5.365103   1.000000
   59       -5.350869   1.000000
   60       -5.321884   1.000000
   61       -5.318495   1.000000
   62       -5.314379   1.000000
   63       -5.312986   1.000000
   64       -5.312241   1.000000
   65       -5.306304   1.000000
   66       -5.302052   1.000000
   67       -5.301446   1.000000
   68       -5.296872   1.000000
   69       -5.281530   1.000000
   70       -5.274307   1.000000
   71       -5.248838   1.000000
   72       -5.203531   1.000000
   73       -5.182709   1.000000
   74       -5.182216   1.000000
   75       -5.178901   1.000000
   76       -5.177985   1.000000
   77       -5.175482   1.000000
   78       -5.173935   1.000000
   79       -5.172993   1.000000
   80       -5.152706   1.000000
   81       -5.146094   1.000000
   82       -5.144253   1.000000
   83       -5.134908   1.000000
   84       -5.132638   1.000000
   85       -5.120257   1.000000
   86       -5.119777   1.000000
   87       -5.110058   1.000000
   88       -5.098639   1.000000
   89       -5.095176   1.000000
   90       -5.093986   1.000000
   91       -5.075683   1.000000
   92       -5.055922   1.000000
   93       -5.054374   1.000000
   94       -5.050131   1.000000
   95       -5.048925   1.000000
   96       -5.045634   1.000000
   97       -5.044477   1.000000
   98       -5.036829   1.000000
   99       -5.025572   1.000000
  100       -5.018458   1.000000
  101       -5.017820   1.000000
  102       -5.014143   1.000000
  103       -5.005055   1.000000
  104       -5.004021   1.000000
  105       -5.002259   1.000000
  106       -5.001667   1.000000
  107       -5.000151   1.000000
  108       -4.987690   1.000000
  109       -4.982979   1.000000
  110       -4.978229   1.000000
  111       -4.976793   1.000000
  112       -4.975181   1.000000
  113       -4.966024   1.000000
  114       -4.964083   1.000000
  115       -4.958074   1.000000
  116       -4.955332   0.999999
  117       -4.946663   0.999999
  118       -4.945760   0.999999
  119       -4.928503   0.999999
  120       -4.921348   0.999998
  121       -4.914436   0.999998
  122       -4.913924   0.999998
  123       -4.911441   0.999998
  124       -4.907243   0.999997
  125       -4.899136   0.999996
  126       -4.898318   0.999996
  127       -4.895646   0.999996
  128       -4.874980   0.999992
  129       -4.870204   0.999991
  130       -4.865620   0.999989
  131       -4.840791   0.999977
  132       -4.836619   0.999974
  133       -4.834880   0.999973
  134       -4.828996   0.999968
  135       -4.827816   0.999967
  136       -4.827121   0.999966
  137       -4.816422   0.999954
  138       -4.799027   0.999926
  139       -4.797510   0.999923
  140       -4.787457   0.999899
  141       -4.780631   0.999880
  142       -4.770279   0.999844
  143       -4.758327   0.999790
  144       -4.753171   0.999762
  145       -4.734422   0.999633
  146       -4.733907   0.999628
  147       -4.732071   0.999613
  148       -4.728591   0.999582
  149       -4.712538   0.999409
  150       -4.705093   0.999310
  151       -4.701996   0.999265
  152       -4.699691   0.999231
  153       -4.679347   0.998863
  154       -4.678520   0.998846
  155       -4.676190   0.998796
  156       -4.672881   0.998722
  157       -4.669760   0.998650
  158       -4.669214   0.998637
  159       -4.663906   0.998506
  160       -4.659029   0.998378
  161       -4.654907   0.998265
  162       -4.649428   0.998106
  163       -4.648723   0.998085
  164       -4.647551   0.998049
  165       -4.645799   0.997996
  166       -4.641259   0.997853
  167       -4.640406   0.997825
  168       -4.632048   0.997546
  169       -4.629853   0.997470
  170       -4.627065   0.997372
  171       -4.624444   0.997278
  172       -4.620415   0.997132
  173       -4.612389   0.996834
  174       -4.593627   0.996134
  175       -4.592715   0.996101
  176       -4.588444   0.995949
  177       -4.588258   0.995942
  178       -4.584516   0.995814
  179       -4.582934   0.995761
  180       -4.574484   0.995501
  181       -4.570744   0.995399
  182       -4.563436   0.995232
  183       -4.551085   0.995074
  184       -4.549471   0.995068
  185       -4.547986   0.995065
  186       -4.547889   0.995065
  187       -4.547413   0.995065
  188       -4.546189   0.995066
  189       -4.544626   0.995072
  190       -4.542223   0.995088
  191       -4.512175   0.996320
  192       -4.509056   0.996584
  193       -4.506042   0.996869
  194       -4.502678   0.997222
  195       -4.498799   0.997678
  196       -4.486989   0.999410
  197       -4.478968   1.000905
  198       -4.477125   1.001287
  199       -4.470553   1.002771
  200       -4.468574   1.003255
  201       -4.463510   1.004576
  202       -4.461905   1.005018
  203       -4.459738   1.005635
  204       -4.457767   1.006215
  205       -4.454066   1.007351
  206       -4.452021   1.008005
  207       -4.448284   1.009250
  208       -4.443080   1.011086
  209       -4.440494   1.012042
  210       -4.435369   1.014020
  211       -4.426210   1.017808
  212       -4.416479   1.022138
  213       -4.407725   1.026233
  214       -4.404693   1.027680
  215       -4.402383   1.028789
  216       -4.398719   1.030552
  217       -4.397386   1.031194
  218       -4.395162   1.032265
  219       -4.393495   1.033064
  220       -4.391937   1.033810
  221       -4.387452   1.035936
  222       -4.380079   1.039329
  223       -4.362209   1.046505
  224       -4.348778   1.050200
  225       -4.347011   1.050534
  226       -4.337777   1.051571
  227       -4.333486   1.051599
  228       -4.332828   1.051575
  229       -4.331607   1.051510
  230       -4.329655   1.051350
  231       -4.325176   1.050704
  232       -4.324854   1.050642
  233       -4.322683   1.050168
  234       -4.321343   1.049826
  235       -4.319621   1.049328
  236       -4.316870   1.048394
  237       -4.316101   1.048101
  238       -4.311316   1.045960
  239       -4.310496   1.045537
  240       -4.305048   1.042276
  241       -4.304079   1.041612
  242       -4.295768   1.034825
  243       -4.295111   1.034200
  244       -4.292856   1.031960
  245       -4.287981   1.026573
  246       -4.285543   1.023591
  247       -4.279142   1.014815
  248       -4.278470   1.013813
  249       -4.277377   1.012148
  250       -4.277241   1.011938
  251       -4.263269   0.986812
  252       -4.254848   0.968157
  253       -4.254309   0.966869
  254       -4.251146   0.959095
  255       -4.246269   0.946348
  256       -4.245629   0.944606
  257       -4.245082   0.943106
  258       -4.244684   0.942006
  259       -4.239047   0.925777
  260       -4.238437   0.923950
  261       -4.233251   0.907811
  262       -4.232578   0.905644
  263       -4.231072   0.900725
  264       -4.230389   0.898466
  265       -4.228304   0.891465
  266       -4.216413   0.848444
  267       -4.215667   0.845572
  268       -4.213500   0.837129
  269       -4.212812   0.834414
  270       -4.209784   0.822274
  271       -4.209545   0.821302
  272       -4.195645   0.761663
  273       -4.190533   0.738298
  274       -4.189761   0.734705
  275       -4.183729   0.706142
  276       -4.178809   0.682215
  277       -4.175669   0.666681
  278       -4.172322   0.649917
  279       -4.164361   0.609315
  280       -4.163331   0.603997
  281       -4.162984   0.602203
  282       -4.149476   0.531488
  283       -4.142998   0.497247
  284       -4.126879   0.412460
  285       -4.125689   0.406276
  286       -4.120802   0.381045
  287       -4.114431   0.348650
  288       -4.104777   0.300947
  289       -4.015678  -0.002228
  290       -3.965564  -0.049861
  291       -3.901126  -0.036658
  292       -3.822368  -0.004263
  293       -3.817897  -0.003115
  294       -3.796516   0.001164
  295       -3.493918   0.000087
  296       -3.490333   0.000079
  297       -3.349851   0.000001
  298       -3.061578   0.000000
  299       -3.057420   0.000000
  300       -3.027143   0.000000
  301       -3.018930   0.000000
  302       -3.009083   0.000000
  303       -3.008011   0.000000
  304       -2.930162   0.000000
  305       -2.810809   0.000000
  306       -2.573503   0.000000
  307       -2.532453   0.000000
  308       -2.514868   0.000000
  309       -2.219754   0.000000
  310       -2.137484   0.000000
  311       -2.113851   0.000000
  312       -2.111307   0.000000
  313       -1.960243   0.000000
  314       -1.943452   0.000000
  315       -1.890712   0.000000
  316       -1.853372   0.000000
  317       -1.844841   0.000000
  318       -1.746624   0.000000
  319       -1.718296   0.000000
  320       -1.653042   0.000000
  321       -1.636272   0.000000
  322       -1.549829   0.000000
  323       -1.500023   0.000000
  324       -1.399413   0.000000
  325       -1.318705   0.000000
  326       -1.064021   0.000000
  327       -1.019633   0.000000
  328       -1.008804   0.000000
  329       -0.969469   0.000000
  330       -0.943413   0.000000
  331       -0.936799   0.000000
  332       -0.931002   0.000000
  333       -0.913385   0.000000
  334       -0.862849   0.000000
  335       -0.800786   0.000000
  336       -0.704468   0.000000
