<?xml version="1.0" encoding="ISO-8859-1"?>
<modeling>
 <generator>
  <i name="program" type="string">vasp </i>
  <i name="version" type="string">5.4.4.18Apr17-6-g9f103f2a35  </i>
  <i name="subversion" type="string">(build Sep 03 2018 23:53:05) complex            parallel </i>
  <i name="platform" type="string">LinuxIFC </i>
  <i name="date" type="string">2021 12 01 </i>
  <i name="time" type="string">10:27:10 </i>
 </generator>
 <incar>
  <i type="string" name="SYSTEM"> 6_Pd100_top_free_z(O)</i>
  <i type="int" name="ISTART">     0</i>
  <i type="string" name="PREC">normal   			! encut=max(enmax), ngx,y,z</i>
  <i type="string" name="ALGO"> Fast     			! Mix RMM-DIIS and Dav</i>
  <i type="logical" name="ADDGRID"> F  </i>
  <i type="int" name="ISPIN">     1</i>
  <i type="int" name="ICHARG">     2</i>
  <i type="int" name="NELM">   100</i>
  <i type="int" name="NELMIN">     6</i>
  <i type="int" name="IBRION">     2</i>
  <i name="EDIFF">      0.00010000</i>
  <i name="EDIFFG">     -0.05000000</i>
  <i type="int" name="NSW">     0</i>
  <i type="int" name="ISIF">     2</i>
  <i type="int" name="ISYM">     2</i>
  <i name="ENCUT">    400.00000000</i>
  <i type="string" name="LREAL"> Auto     			! Auto or A projection done</i>
  <i type="int" name="ISMEAR">     2</i>
  <i name="SIGMA">      0.20000000</i>
  <i type="logical" name="LWAVE"> F  </i>
  <i type="logical" name="LCHARG"> F  </i>
  <v type="int" name="KPOINT_BSE">    -1     0     0     0</v>
  <i type="int" name="MAXMEM"> 10000</i>
  <i type="int" name="NELM">   100</i>
  <i type="string" name="GGA"> RP         			! Revised PBE</i>
 </incar>
 <structure name="primitive_cell" >
  <crystal>
   <varray name="basis" >
    <v>      30.00000000       0.00000000       0.00000000 </v>
    <v>       0.00000000      30.00000000       0.00000000 </v>
    <v>       0.00000000       0.00000000      30.00000000 </v>
   </varray>
   <i name="volume">  27000.00000000 </i>
   <varray name="rec_basis" >
    <v>       0.03333333       0.00000000       0.00000000 </v>
    <v>       0.00000000       0.03333333       0.00000000 </v>
    <v>       0.00000000       0.00000000       0.03333333 </v>
   </varray>
  </crystal>
  <varray name="positions" >
   <v>       0.44576020       0.32826710       0.41691983 </v>
   <v>      -0.44576020       0.32826710       0.41691983 </v>
   <v>      -0.50000000       0.38250690       0.34021317 </v>
   <v>      -0.50000000       0.27609440      -0.50000000 </v>
   <v>       0.38804720       0.38804720       0.34167483 </v>
   <v>      -0.50000000       0.38416601      -0.50000000 </v>
   <v>       0.44208300       0.44208300       0.41809300 </v>
   <v>       0.38317830       0.38317830      -0.50000000 </v>
   <v>      -0.44208300       0.44208300       0.41809300 </v>
   <v>       0.44576020       0.32826710      -0.41691977 </v>
   <v>       0.32826705       0.44576024       0.41691983 </v>
   <v>      -0.38804720       0.38804720       0.34167483 </v>
   <v>      -0.38317830       0.38317830      -0.50000000 </v>
   <v>      -0.50000000      -0.50000000       0.33478917 </v>
   <v>      -0.50000000      -0.50000000      -0.50000000 </v>
   <v>      -0.44576020       0.32826710      -0.41691977 </v>
   <v>       0.38250685      -0.49999995       0.34021317 </v>
   <v>       0.44208300       0.44208300      -0.41809297 </v>
   <v>       0.38416599      -0.49999998      -0.50000000 </v>
   <v>      -0.44208300       0.44208300      -0.41809297 </v>
   <v>       0.44208298      -0.44208298       0.41809300 </v>
   <v>      -0.48673147       0.30112910      -0.36438997 </v>
   <v>       0.32826705       0.44576024      -0.41691977 </v>
   <v>      -0.50000000       0.38250690      -0.34021320 </v>
   <v>       0.32826712      -0.44576022       0.41691983 </v>
   <v>      -0.38250685      -0.49999995       0.34021317 </v>
   <v>      -0.32826705       0.44576024       0.41691983 </v>
   <v>       0.27609443       0.49999998      -0.50000000 </v>
   <v>       0.38804720       0.38804720      -0.34167487 </v>
   <v>      -0.38416599      -0.49999998      -0.50000000 </v>
   <v>      -0.44208298      -0.44208298       0.41809300 </v>
   <v>      -0.48466200       0.27011120      -0.34323890 </v>
   <v>       0.44208298      -0.44208298      -0.41809297 </v>
   <v>      -0.38804720       0.38804720      -0.34167487 </v>
   <v>       0.38804722      -0.38804722       0.34167483 </v>
   <v>       0.38250685      -0.49999995      -0.34021320 </v>
   <v>       0.32826712      -0.44576022      -0.41691977 </v>
   <v>      -0.32826705       0.44576024      -0.41691977 </v>
   <v>       0.50000000      -0.38250681       0.34021317 </v>
   <v>      -0.50000000      -0.38416596      -0.50000000 </v>
   <v>      -0.44208298      -0.44208298      -0.41809297 </v>
   <v>      -0.50000000      -0.50000000      -0.33478913 </v>
   <v>       0.38317828      -0.38317828      -0.50000000 </v>
   <v>      -0.32826712      -0.44576022       0.41691983 </v>
   <v>      -0.27609443       0.49999998      -0.50000000 </v>
   <v>      -0.38804722      -0.38804722       0.34167483 </v>
   <v>      -0.38250685      -0.49999995      -0.34021320 </v>
   <v>       0.44576027      -0.32826707       0.41691983 </v>
   <v>      -0.38317828      -0.38317828      -0.50000000 </v>
   <v>      -0.32826712      -0.44576022      -0.41691977 </v>
   <v>      -0.44576027      -0.32826707       0.41691983 </v>
   <v>       0.38804722      -0.38804722      -0.34167487 </v>
   <v>      -0.50000000      -0.38250681      -0.34021320 </v>
   <v>       0.44576027      -0.32826707      -0.41691977 </v>
   <v>      -0.44576027      -0.32826707      -0.41691977 </v>
   <v>      -0.50000000      -0.27609445       0.50000000 </v>
   <v>      -0.38804722      -0.38804722      -0.34167487 </v>
  </varray>
 </structure>
 <varray name="primitive_index" >
  <v type="int" >        1 </v>
  <v type="int" >        3 </v>
  <v type="int" >        5 </v>
  <v type="int" >        7 </v>
  <v type="int" >       15 </v>
  <v type="int" >       29 </v>
  <v type="int" >       28 </v>
  <v type="int" >       34 </v>
  <v type="int" >       21 </v>
  <v type="int" >       19 </v>
  <v type="int" >       22 </v>
  <v type="int" >       11 </v>
  <v type="int" >       36 </v>
  <v type="int" >       38 </v>
  <v type="int" >       52 </v>
  <v type="int" >       24 </v>
  <v type="int" >       32 </v>
  <v type="int" >       44 </v>
  <v type="int" >       48 </v>
  <v type="int" >       42 </v>
  <v type="int" >       43 </v>
  <v type="int" >       56 </v>
  <v type="int" >       40 </v>
  <v type="int" >        6 </v>
  <v type="int" >        4 </v>
  <v type="int" >       30 </v>
  <v type="int" >       26 </v>
  <v type="int" >        8 </v>
  <v type="int" >       16 </v>
  <v type="int" >       49 </v>
  <v type="int" >       47 </v>
  <v type="int" >       57 </v>
  <v type="int" >       53 </v>
  <v type="int" >       12 </v>
  <v type="int" >       13 </v>
  <v type="int" >       33 </v>
  <v type="int" >       25 </v>
  <v type="int" >       45 </v>
  <v type="int" >       50 </v>
  <v type="int" >       55 </v>
  <v type="int" >       54 </v>
  <v type="int" >       39 </v>
  <v type="int" >       37 </v>
  <v type="int" >        2 </v>
  <v type="int" >        9 </v>
  <v type="int" >       17 </v>
  <v type="int" >       31 </v>
  <v type="int" >       27 </v>
  <v type="int" >       35 </v>
  <v type="int" >       20 </v>
  <v type="int" >       23 </v>
  <v type="int" >       14 </v>
  <v type="int" >       51 </v>
  <v type="int" >       46 </v>
  <v type="int" >       41 </v>
  <v type="int" >       10 </v>
  <v type="int" >       18 </v>
 </varray>
 <kpoints>
  <generation param="Monkhorst-Pack">
   <v type="int" name="divisions">       1        1        1 </v>
   <v name="usershift">      0.00000000       0.00000000       0.00000000 </v>
   <v name="genvec1">      1.00000000       0.00000000       0.00000000 </v>
   <v name="genvec2">      0.00000000       1.00000000       0.00000000 </v>
   <v name="genvec3">      0.00000000       0.00000000       1.00000000 </v>
   <v name="shift">      0.00000000       0.00000000       0.00000000 </v>
  </generation>
  <varray name="kpointlist" >
   <v>       0.00000000       0.00000000       0.00000000 </v>
  </varray>
  <varray name="weights" >
   <v>       1.00000000 </v>
  </varray>
 </kpoints>
 <parameters>
  <separator name="general" >
   <i type="string" name="SYSTEM">6_Pd100_top_free_z(O)</i>
   <i type="logical" name="LCOMPAT"> F  </i>
  </separator>
  <separator name="electronic" >
   <i type="string" name="PREC">normal</i>
   <i name="ENMAX">    400.00000000</i>
   <i name="ENAUG">    644.87300000</i>
   <i name="EDIFF">      0.00010000</i>
   <i type="int" name="IALGO">    68</i>
   <i type="int" name="IWAVPR">    10</i>
   <i type="int" name="NBANDS">   336</i>
   <i name="NELECT">    560.00000000</i>
   <i type="int" name="TURBO">     0</i>
   <i type="int" name="IRESTART">     0</i>
   <i type="int" name="NREBOOT">     0</i>
   <i type="int" name="NMIN">     0</i>
   <i name="EREF">      0.00000000</i>
   <separator name="electronic smearing" >
    <i type="int" name="ISMEAR">     2</i>
    <i name="SIGMA">      0.20000000</i>
    <i name="KSPACING">      0.50000000</i>
    <i type="logical" name="KGAMMA"> T  </i>
   </separator>
   <separator name="electronic projectors" >
    <i type="logical" name="LREAL"> T  </i>
    <v name="ROPT">     -0.00050000     -0.00050000     -0.00050000</v>
    <i type="int" name="LMAXPAW">  -100</i>
    <i type="int" name="LMAXMIX">     2</i>
    <i type="logical" name="NLSPLINE"> F  </i>
   </separator>
   <separator name="electronic startup" >
    <i type="int" name="ISTART">     0</i>
    <i type="int" name="ICHARG">     2</i>
    <i type="int" name="INIWAV">     1</i>
   </separator>
   <separator name="electronic spin" >
    <i type="int" name="ISPIN">     1</i>
    <i type="logical" name="LNONCOLLINEAR"> F  </i>
    <v name="MAGMOM">      1.00000000      1.00000000      1.00000000      1.00000000      1.00000000      1.00000000      1.00000000      1.00000000      1.00000000      1.00000000      1.00000000      1.00000000      1.00000000      1.00000000      1.00000000      1.00000000      1.00000000      1.00000000      1.00000000      1.00000000
      1.00000000      1.00000000      1.00000000      1.00000000      1.00000000      1.00000000      1.00000000      1.00000000      1.00000000      1.00000000      1.00000000      1.00000000      1.00000000      1.00000000      1.00000000      1.00000000      1.00000000      1.00000000      1.00000000      1.00000000
      1.00000000      1.00000000      1.00000000      1.00000000      1.00000000      1.00000000      1.00000000      1.00000000      1.00000000      1.00000000      1.00000000      1.00000000      1.00000000      1.00000000      1.00000000      1.00000000      1.00000000</v>
    <i name="NUPDOWN">     -1.00000000</i>
    <i type="logical" name="LSORBIT"> F  </i>
    <v name="SAXIS">      0.00000000      0.00000000      1.00000000</v>
    <i type="logical" name="LSPIRAL"> F  </i>
    <v name="QSPIRAL">      0.00000000      0.00000000      0.00000000</v>
    <i type="logical" name="LZEROZ"> F  </i>
   </separator>
   <separator name="electronic exchange-correlation" >
    <i type="logical" name="LASPH"> F  </i>
    <i type="logical" name="LMETAGGA"> F  </i>
   </separator>
   <separator name="electronic convergence" >
    <i type="int" name="NELM">   100</i>
    <i type="int" name="NELMDL">    -5</i>
    <i type="int" name="NELMIN">     6</i>
    <i name="ENINI">    400.00000000</i>
    <separator name="electronic convergence detail" >
     <i type="logical" name="LDIAG"> T  </i>
     <i type="logical" name="LSUBROT"> F  </i>
     <i name="WEIMIN">      0.00000000</i>
     <i name="EBREAK">      0.00000007</i>
     <i name="DEPER">      0.30000000</i>
     <i type="int" name="NRMM">     4</i>
     <i name="TIME">      0.40000000</i>
    </separator>
   </separator>
   <separator name="electronic mixer" >
    <i name="AMIX">      0.40000000</i>
    <i name="BMIX">      1.00000000</i>
    <i name="AMIN">      0.10000000</i>
    <i name="AMIX_MAG">      1.60000000</i>
    <i name="BMIX_MAG">      1.00000000</i>
    <separator name="electronic mixer details" >
     <i type="int" name="IMIX">     4</i>
     <i type="logical" name="MIXFIRST"> F  </i>
     <i type="int" name="MAXMIX">   -45</i>
     <i name="WC">    100.00000000</i>
     <i type="int" name="INIMIX">     1</i>
     <i type="int" name="MIXPRE">     1</i>
     <i type="int" name="MREMOVE">     5</i>
    </separator>
   </separator>
   <separator name="electronic dipolcorrection" >
    <i type="logical" name="LDIPOL"> F  </i>
    <i type="logical" name="LMONO"> F  </i>
    <i type="int" name="IDIPOL">     0</i>
    <i name="EPSILON">      1.00000000</i>
    <v name="DIPOL">   -100.00000000   -100.00000000   -100.00000000</v>
    <i name="EFIELD">      0.00000000</i>
   </separator>
  </separator>
  <separator name="grids" >
   <i type="int" name="NGX">   150</i>
   <i type="int" name="NGY">   150</i>
   <i type="int" name="NGZ">   150</i>
   <i type="int" name="NGXF">   300</i>
   <i type="int" name="NGYF">   300</i>
   <i type="int" name="NGZF">   300</i>
   <i type="logical" name="ADDGRID"> F  </i>
  </separator>
  <separator name="ionic" >
   <i type="int" name="NSW">     0</i>
   <i type="int" name="IBRION">    -1</i>
   <i type="int" name="MDALGO">     0</i>
   <i type="int" name="ISIF">     2</i>
   <i name="PSTRESS">      0.00000000</i>
   <i name="EDIFFG">     -0.05000000</i>
   <i type="int" name="NFREE">     1</i>
   <i name="POTIM">      0.50000000</i>
   <i name="SMASS">     -3.00000000</i>
   <i name="SCALEE">      1.00000000</i>
  </separator>
  <separator name="ionic md" >
   <i name="TEBEG">      0.00010000</i>
   <i name="TEEND">      0.00010000</i>
   <i type="int" name="NBLOCK">     1</i>
   <i type="int" name="KBLOCK">     1</i>
   <i type="int" name="NPACO">   256</i>
   <i name="APACO">     16.00000000</i>
  </separator>
  <separator name="symmetry" >
   <i type="int" name="ISYM">     2</i>
   <i name="SYMPREC">      0.00001000</i>
  </separator>
  <separator name="dos" >
   <i type="int" name="LORBIT">     0</i>
   <v name="RWIGS">     -1.00000000     -1.00000000     -1.00000000</v>
   <i type="int" name="NEDOS">   301</i>
   <i name="EMIN">     10.00000000</i>
   <i name="EMAX">    -10.00000000</i>
   <i name="EFERMI">      0.00000000</i>
  </separator>
  <separator name="writing" >
   <i type="int" name="NWRITE">     2</i>
   <i type="logical" name="LWAVE"> F  </i>
   <i type="logical" name="LDOWNSAMPLE"> F  </i>
   <i type="logical" name="LCHARG"> F  </i>
   <i type="logical" name="LPARD"> F  </i>
   <i type="logical" name="LVTOT"> F  </i>
   <i type="logical" name="LVHAR"> F  </i>
   <i type="logical" name="LELF"> F  </i>
   <i type="logical" name="LOPTICS"> F  </i>
   <v name="STM">      0.00000000      0.00000000      0.00000000      0.00000000      0.00000000      0.00000000      0.00000000</v>
  </separator>
  <separator name="performance" >
   <i type="int" name="NPAR">     1</i>
   <i type="int" name="NSIM">     4</i>
   <i type="int" name="NBLK">    -1</i>
   <i type="logical" name="LPLANE"> T  </i>
   <i type="logical" name="LSCALAPACK"> T  </i>
   <i type="logical" name="LSCAAWARE"> F  </i>
   <i type="logical" name="LSCALU"> F  </i>
   <i type="logical" name="LASYNC"> F  </i>
   <i type="logical" name="LORBITALREAL"> F  </i>
  </separator>
  <separator name="miscellaneous" >
   <i type="int" name="IDIOT">     3</i>
   <i type="int" name="ISPECIAL">     0</i>
   <i type="logical" name="LMUSIC"> F  </i>
   <v name="POMASS">    106.42000000     12.01100000     16.00000000</v>
   <v name="DARWINR">      0.00000000      0.00000000      0.00000000</v>
   <v name="DARWINV">      1.00000000      1.00000000      1.00000000</v>
   <i type="logical" name="LCORR"> T  </i>
  </separator>
  <i type="logical" name="GGA_COMPAT"> T  </i>
  <i type="logical" name="LBERRY"> F  </i>
  <i type="int" name="ICORELEVEL">     0</i>
  <i type="logical" name="LDAU"> F  </i>
  <i type="int" name="I_CONSTRAINED_M">     0</i>
  <separator name="electronic exchange-correlation" >
   <i type="string" name="GGA">RP</i>
   <i type="int" name="VOSKOWN">     0</i>
   <i type="logical" name="LHFCALC"> F  </i>
   <i type="string" name="PRECFOCK"></i>
   <i type="logical" name="LSYMGRAD"> F  </i>
   <i type="logical" name="LHFONE"> F  </i>
   <i type="logical" name="LRHFCALC"> F  </i>
   <i type="logical" name="LTHOMAS"> F  </i>
   <i type="logical" name="LMODELHF"> F  </i>
   <i name="ENCUT4O">     -1.00000000</i>
   <i type="int" name="EXXOEP">     0</i>
   <i type="int" name="FOURORBIT">     0</i>
   <i name="AEXX">      0.00000000</i>
   <i name="HFALPHA">      0.00000000</i>
   <i name="MCALPHA">      0.00000000</i>
   <i name="ALDAX">      1.00000000</i>
   <i name="AGGAX">      1.00000000</i>
   <i name="ALDAC">      1.00000000</i>
   <i name="AGGAC">      1.00000000</i>
   <i type="int" name="NKREDX">     1</i>
   <i type="int" name="NKREDY">     1</i>
   <i type="int" name="NKREDZ">     1</i>
   <i type="logical" name="SHIFTRED"> F  </i>
   <i type="logical" name="ODDONLY"> F  </i>
   <i type="logical" name="EVENONLY"> F  </i>
   <i type="int" name="LMAXFOCK">     0</i>
   <i type="int" name="NMAXFOCKAE">     0</i>
   <i type="logical" name="LFOCKAEDFT"> F  </i>
   <i name="HFSCREEN">      0.00000000</i>
   <i name="HFSCREENC">      0.00000000</i>
   <i type="int" name="NBANDSGWLOW">     0</i>
  </separator>
  <separator name="vdW DFT" >
   <i type="logical" name="LUSE_VDW"> F  </i>
   <i name="Zab_VDW">     -0.84910000</i>
   <i name="PARAM1">      0.12340000</i>
   <i name="PARAM2">      1.00000000</i>
   <i name="PARAM3">      0.00000000</i>
  </separator>
  <separator name="model GW" >
   <i type="int" name="MODEL_GW">     0</i>
   <i name="MODEL_EPS0">    284.21052632</i>
   <i name="MODEL_ALPHA">      1.00000000</i>
  </separator>
  <separator name="linear response parameters" >
   <i type="logical" name="LEPSILON"> F  </i>
   <i type="logical" name="LRPA"> F  </i>
   <i type="logical" name="LNABLA"> F  </i>
   <i type="logical" name="LVEL"> F  </i>
   <i type="int" name="KINTER">     0</i>
   <i name="CSHIFT">      0.10000000</i>
   <i name="OMEGAMAX">     -1.00000000</i>
   <i name="DEG_THRESHOLD">      0.00200000</i>
   <i name="RTIME">     -0.10000000</i>
   <i name="WPLASMAI">      0.00000000</i>
   <v name="DFIELD">      0.00000000      0.00000000      0.00000000</v>
   <v name="WPLASMA">      0.00000000      0.00000000      0.00000000      0.00000000      0.00000000      0.00000000      0.00000000      0.00000000      0.00000000</v>
  </separator>
  <separator name="orbital magnetization" >
   <i type="logical" name="NUCIND"> F  </i>
   <v name="MAGPOS">      0.00000000      0.00000000      0.00000000</v>
   <i type="logical" name="LNICSALL"> T  </i>
   <i type="logical" name="ORBITALMAG"> F  </i>
   <i type="logical" name="LMAGBLOCH"> F  </i>
   <i type="logical" name="LCHIMAG"> F  </i>
   <i type="logical" name="LGAUGE"> T  </i>
   <i type="int" name="MAGATOM">     0</i>
   <v name="MAGDIPOL">      0.00000000      0.00000000      0.00000000</v>
   <v name="AVECCONST">      0.00000000      0.00000000      0.00000000</v>
  </separator>
  <separator name="response functions" >
   <i type="logical" name="LADDER"> F  </i>
   <i type="logical" name="LRPAFORCE"> F  </i>
   <i type="logical" name="LFXC"> F  </i>
   <i type="logical" name="LHARTREE"> T  </i>
   <i type="int" name="IBSE">     0</i>
   <v type="int" name="KPOINT">    -1     0     0     0</v>
   <i type="logical" name="LTCTE"> F  </i>
   <i type="logical" name="LTETE"> F  </i>
   <i type="logical" name="LTRIPLET"> F  </i>
   <i type="logical" name="LFXCEPS"> F  </i>
   <i type="logical" name="LFXHEG"> F  </i>
   <i type="int" name="NATURALO">     2</i>
   <i type="logical" name="L2ORDER"> F  </i>
   <i type="logical" name="LMP2LT"> F  </i>
   <i type="logical" name="LUSEW"> F  </i>
   <i name="ENCUTGW">     -2.00000000</i>
   <i name="ENCUTGWSOFT">     -2.00000000</i>
   <i name="ENCUTLF">     -1.00000000</i>
   <i type="int" name="LMAXMP2">    -1</i>
   <i name="SCISSOR">      0.00000000</i>
   <i type="int" name="NOMEGA">     0</i>
   <i type="int" name="NOMEGAR">     0</i>
   <i type="int" name="NBANDSGW">    -1</i>
   <i type="int" name="NBANDSO">    -1</i>
   <i type="int" name="NBANDSV">    -1</i>
   <i type="int" name="NELM">   100</i>
   <i type="int" name="NELMHF">     1</i>
   <i type="int" name="DIM">     3</i>
   <i type="int" name="ANTIRES">     0</i>
   <i name="OMEGAMAX">    -30.00000000</i>
   <i name="OMEGAMIN">    -30.00000000</i>
   <i name="OMEGATL">   -200.00000000</i>
   <i type="int" name="OMEGAGRID">   140</i>
   <i name="CSHIFT">     -0.10000000</i>
   <i type="logical" name="SELFENERGY"> F  </i>
   <i type="logical" name="LSPECTRAL"> F  </i>
   <i type="logical" name="LSPECTRALGW"> F  </i>
   <i type="logical" name="LSINGLES"> F  </i>
   <i type="logical" name="LFERMIGW"> F  </i>
   <i type="logical" name="ODDONLYGW"> F  </i>
   <i type="logical" name="EVENONLYGW"> F  </i>
   <i type="int" name="NKREDLFX">     1</i>
   <i type="int" name="NKREDLFY">     1</i>
   <i type="int" name="NKREDLFZ">     1</i>
   <i type="int" name="MAXMEM"> 10000</i>
   <i type="int" name="TELESCOPE">     0</i>
   <i type="int" name="TAUPAR">     1</i>
   <i type="int" name="OMEGAPAR">    -1</i>
   <i name="LAMBDA">      1.00000000</i>
  </separator>
  <separator name="External order field" >
   <i name="OFIELD_KAPPA">      0.00000000</i>
   <v name="OFIELD_K">      0.00000000      0.00000000      0.00000000</v>
   <i name="OFIELD_Q6_NEAR">      0.00000000</i>
   <i name="OFIELD_Q6_FAR">      0.00000000</i>
   <i name="OFIELD_A">      0.00000000</i>
  </separator>
 </parameters>
 <atominfo>
  <atoms>      57 </atoms>
  <types>       3 </types>
  <array name="atoms" >
   <dimension dim="1">ion</dimension>
   <field type="string">element</field>
   <field type="int">atomtype</field>
   <set>
    <rc><c>Pd</c><c>   1</c></rc>
    <rc><c>Pd</c><c>   1</c></rc>
    <rc><c>Pd</c><c>   1</c></rc>
    <rc><c>Pd</c><c>   1</c></rc>
    <rc><c>Pd</c><c>   1</c></rc>
    <rc><c>Pd</c><c>   1</c></rc>
    <rc><c>Pd</c><c>   1</c></rc>
    <rc><c>Pd</c><c>   1</c></rc>
    <rc><c>Pd</c><c>   1</c></rc>
    <rc><c>Pd</c><c>   1</c></rc>
    <rc><c>Pd</c><c>   1</c></rc>
    <rc><c>Pd</c><c>   1</c></rc>
    <rc><c>Pd</c><c>   1</c></rc>
    <rc><c>Pd</c><c>   1</c></rc>
    <rc><c>Pd</c><c>   1</c></rc>
    <rc><c>Pd</c><c>   1</c></rc>
    <rc><c>Pd</c><c>   1</c></rc>
    <rc><c>Pd</c><c>   1</c></rc>
    <rc><c>Pd</c><c>   1</c></rc>
    <rc><c>Pd</c><c>   1</c></rc>
    <rc><c>Pd</c><c>   1</c></rc>
    <rc><c>Pd</c><c>   1</c></rc>
    <rc><c>Pd</c><c>   1</c></rc>
    <rc><c>Pd</c><c>   1</c></rc>
    <rc><c>Pd</c><c>   1</c></rc>
    <rc><c>Pd</c><c>   1</c></rc>
    <rc><c>Pd</c><c>   1</c></rc>
    <rc><c>Pd</c><c>   1</c></rc>
    <rc><c>Pd</c><c>   1</c></rc>
    <rc><c>Pd</c><c>   1</c></rc>
    <rc><c>Pd</c><c>   1</c></rc>
    <rc><c>Pd</c><c>   1</c></rc>
    <rc><c>Pd</c><c>   1</c></rc>
    <rc><c>Pd</c><c>   1</c></rc>
    <rc><c>Pd</c><c>   1</c></rc>
    <rc><c>Pd</c><c>   1</c></rc>
    <rc><c>Pd</c><c>   1</c></rc>
    <rc><c>Pd</c><c>   1</c></rc>
    <rc><c>Pd</c><c>   1</c></rc>
    <rc><c>Pd</c><c>   1</c></rc>
    <rc><c>Pd</c><c>   1</c></rc>
    <rc><c>Pd</c><c>   1</c></rc>
    <rc><c>Pd</c><c>   1</c></rc>
    <rc><c>Pd</c><c>   1</c></rc>
    <rc><c>Pd</c><c>   1</c></rc>
    <rc><c>Pd</c><c>   1</c></rc>
    <rc><c>Pd</c><c>   1</c></rc>
    <rc><c>Pd</c><c>   1</c></rc>
    <rc><c>Pd</c><c>   1</c></rc>
    <rc><c>Pd</c><c>   1</c></rc>
    <rc><c>Pd</c><c>   1</c></rc>
    <rc><c>Pd</c><c>   1</c></rc>
    <rc><c>Pd</c><c>   1</c></rc>
    <rc><c>Pd</c><c>   1</c></rc>
    <rc><c>Pd</c><c>   1</c></rc>
    <rc><c>C </c><c>   2</c></rc>
    <rc><c>O </c><c>   3</c></rc>
   </set>
  </array>
  <array name="atomtypes" >
   <dimension dim="1">type</dimension>
   <field type="int">atomspertype</field>
   <field type="string">element</field>
   <field>mass</field>
   <field>valence</field>
   <field type="string">pseudopotential</field>
   <set>
    <rc><c>  55</c><c>Pd</c><c>    106.42000000</c><c>     10.00000000</c><c>  PAW_PBE Pd 04Jan2005                  </c></rc>
    <rc><c>   1</c><c>C </c><c>     12.01100000</c><c>      4.00000000</c><c>  PAW_PBE C 08Apr2002                   </c></rc>
    <rc><c>   1</c><c>O </c><c>     16.00000000</c><c>      6.00000000</c><c>  PAW_PBE O 08Apr2002                   </c></rc>
   </set>
  </array>
 </atominfo>
 <structure name="initialpos" >
  <crystal>
   <varray name="basis" >
    <v>      30.00000000       0.00000000       0.00000000 </v>
    <v>       0.00000000      30.00000000       0.00000000 </v>
    <v>       0.00000000       0.00000000      30.00000000 </v>
   </varray>
   <i name="volume">  27000.00000000 </i>
   <varray name="rec_basis" >
    <v>       0.03333333       0.00000000       0.00000000 </v>
    <v>       0.00000000       0.03333333       0.00000000 </v>
    <v>       0.00000000       0.00000000       0.03333333 </v>
   </varray>
  </crystal>
  <varray name="positions" >
   <v>       0.44576020       0.32826710       0.41691983 </v>
   <v>       0.67173288       0.55423978       0.41691983 </v>
   <v>       0.55423980       0.32826710       0.41691983 </v>
   <v>       0.32826712       0.55423978       0.41691983 </v>
   <v>       0.50000000       0.38250690       0.34021317 </v>
   <v>       0.50000000       0.38250690       0.65978680 </v>
   <v>       0.50000000       0.27609440       0.50000000 </v>
   <v>       0.27609443       0.49999998       0.50000000 </v>
   <v>       0.72390557       0.49999998       0.50000000 </v>
   <v>       0.50000000       0.72390555       0.50000000 </v>
   <v>       0.61195280       0.38804720       0.34167483 </v>
   <v>       0.61195280       0.38804720       0.65832513 </v>
   <v>       0.38804722       0.61195278       0.34167483 </v>
   <v>       0.38804722       0.61195278       0.65832513 </v>
   <v>       0.38804720       0.38804720       0.34167483 </v>
   <v>       0.38804720       0.38804720       0.65832513 </v>
   <v>       0.61195278       0.61195278       0.34167483 </v>
   <v>       0.61195278       0.61195278       0.65832513 </v>
   <v>       0.44576020       0.32826710       0.58308023 </v>
   <v>       0.67173288       0.55423978       0.58308023 </v>
   <v>       0.55791699       0.44208301       0.41809300 </v>
   <v>       0.32826705       0.44576024       0.41691983 </v>
   <v>       0.55423973       0.67173293       0.41691983 </v>
   <v>       0.55423980       0.32826710       0.58308023 </v>
   <v>       0.32826712       0.55423978       0.58308023 </v>
   <v>       0.67173295       0.44576024       0.41691983 </v>
   <v>       0.44576027       0.67173293       0.41691983 </v>
   <v>       0.44208301       0.44208301       0.41809300 </v>
   <v>       0.50000000       0.38416601       0.50000000 </v>
   <v>       0.61749315       0.50000005       0.34021317 </v>
   <v>       0.61749315       0.50000005       0.65978680 </v>
   <v>       0.38250685       0.50000005       0.34021317 </v>
   <v>       0.38250685       0.50000005       0.65978680 </v>
   <v>       0.38317830       0.38317830       0.50000000 </v>
   <v>       0.61682172       0.61682172       0.50000000 </v>
   <v>       0.61682170       0.38317830       0.50000000 </v>
   <v>       0.38317828       0.61682172       0.50000000 </v>
   <v>       0.50000000       0.50000000       0.33478917 </v>
   <v>       0.50000000       0.50000000       0.66521087 </v>
   <v>       0.32826705       0.44576024       0.58308023 </v>
   <v>       0.55423973       0.67173293       0.58308023 </v>
   <v>       0.55791699       0.44208301       0.58190703 </v>
   <v>       0.44208298       0.55791702       0.41809300 </v>
   <v>       0.44208301       0.44208301       0.58190703 </v>
   <v>       0.67173295       0.44576024       0.58308023 </v>
   <v>       0.44576027       0.67173293       0.58308023 </v>
   <v>       0.55791702       0.55791702       0.41809300 </v>
   <v>       0.38416599       0.50000002       0.50000000 </v>
   <v>       0.61583401       0.50000002       0.50000000 </v>
   <v>       0.50000000       0.61749319       0.34021317 </v>
   <v>       0.50000000       0.61749319       0.65978680 </v>
   <v>       0.50000000       0.50000000       0.50000000 </v>
   <v>       0.44208298       0.55791702       0.58190703 </v>
   <v>       0.55791702       0.55791702       0.58190703 </v>
   <v>       0.50000000       0.61583404       0.50000000 </v>
   <v>       0.51326853       0.30112910       0.63561003 </v>
   <v>       0.51533800       0.27011120       0.65676110 </v>
  </varray>
  <varray name="selective"  type="logical" >
   <v type="logical" >  F  F  F </v>
   <v type="logical" >  F  F  F </v>
   <v type="logical" >  F  F  F </v>
   <v type="logical" >  F  F  F </v>
   <v type="logical" >  F  F  F </v>
   <v type="logical" >  F  F  F </v>
   <v type="logical" >  F  F  F </v>
   <v type="logical" >  F  F  F </v>
   <v type="logical" >  F  F  F </v>
   <v type="logical" >  F  F  F </v>
   <v type="logical" >  F  F  F </v>
   <v type="logical" >  F  F  F </v>
   <v type="logical" >  F  F  F </v>
   <v type="logical" >  F  F  F </v>
   <v type="logical" >  F  F  F </v>
   <v type="logical" >  F  F  F </v>
   <v type="logical" >  F  F  F </v>
   <v type="logical" >  F  F  F </v>
   <v type="logical" >  F  F  F </v>
   <v type="logical" >  F  F  F </v>
   <v type="logical" >  F  F  F </v>
   <v type="logical" >  F  F  F </v>
   <v type="logical" >  F  F  F </v>
   <v type="logical" >  F  F  F </v>
   <v type="logical" >  F  F  F </v>
   <v type="logical" >  F  F  F </v>
   <v type="logical" >  F  F  F </v>
   <v type="logical" >  F  F  F </v>
   <v type="logical" >  F  F  F </v>
   <v type="logical" >  F  F  F </v>
   <v type="logical" >  F  F  F </v>
   <v type="logical" >  F  F  F </v>
   <v type="logical" >  F  F  F </v>
   <v type="logical" >  F  F  F </v>
   <v type="logical" >  F  F  F </v>
   <v type="logical" >  F  F  F </v>
   <v type="logical" >  F  F  F </v>
   <v type="logical" >  F  F  F </v>
   <v type="logical" >  F  F  F </v>
   <v type="logical" >  F  F  F </v>
   <v type="logical" >  F  F  F </v>
   <v type="logical" >  F  F  F </v>
   <v type="logical" >  F  F  F </v>
   <v type="logical" >  F  F  F </v>
   <v type="logical" >  F  F  F </v>
   <v type="logical" >  F  F  F </v>
   <v type="logical" >  F  F  F </v>
   <v type="logical" >  F  F  F </v>
   <v type="logical" >  F  F  F </v>
   <v type="logical" >  F  F  F </v>
   <v type="logical" >  F  F  F </v>
   <v type="logical" >  F  F  F </v>
   <v type="logical" >  F  F  F </v>
   <v type="logical" >  F  F  F </v>
   <v type="logical" >  F  F  F </v>
   <v type="logical" >  F  F  F </v>
   <v type="logical" >  F  F  F </v>
  </varray>
  <nose>
   <v>      -3.00000000       0.00000000       0.00010000       0.00010000 </v>
  </nose>
 </structure>
 <calculation>
  <scstep>
   <time name="dav">  367.13  367.21</time>
   <time name="total">  381.88  381.98</time>
   <energy>
    <i name="alphaZ">     75.25431677 </i>
    <i name="ewald"> 138535.00678499 </i>
    <i name="hartreedc">-181896.78218590 </i>
    <i name="XCdc">  -1702.92561600 </i>
    <i name="pawpsdc">  44873.02882129 </i>
    <i name="pawaedc"> -41398.84523641 </i>
    <i name="eentropy">      0.00812042 </i>
    <i name="bandstr">    816.10800237 </i>
    <i name="atom">  45086.50549395 </i>
    <i name="e_fr_energy">   4387.35850149 </i>
    <i name="e_wo_entrp">   4387.35038107 </i>
    <i name="e_0_energy">   4387.35647139 </i>
   </energy>
  </scstep>
  <scstep>
   <time name="dav">  582.07  582.08</time>
   <time name="total">  582.07  582.09</time>
   <energy>
    <i name="e_fr_energy">   2027.03416418 </i>
    <i name="e_wo_entrp">   2027.05848192 </i>
    <i name="e_0_energy">   2027.04024361 </i>
   </energy>
  </scstep>
  <scstep>
   <time name="dav">  494.65  494.64</time>
   <time name="total">  494.65  494.65</time>
   <energy>
    <i name="e_fr_energy">    241.20076226 </i>
    <i name="e_wo_entrp">    241.25924110 </i>
    <i name="e_0_energy">    241.21538197 </i>
   </energy>
  </scstep>
  <scstep>
   <time name="dav">  425.95  425.94</time>
   <time name="total">  425.95  425.94</time>
   <energy>
    <i name="e_fr_energy">   -133.05385839 </i>
    <i name="e_wo_entrp">   -133.03693508 </i>
    <i name="e_0_energy">   -133.04962756 </i>
   </energy>
  </scstep>
  <scstep>
   <time name="dav">  518.56  518.56</time>
   <time name="total">  544.74  544.73</time>
   <energy>
    <i name="e_fr_energy">   -179.63952344 </i>
    <i name="e_wo_entrp">   -180.08380712 </i>
    <i name="e_0_energy">   -179.75059436 </i>
   </energy>
  </scstep>
  <scstep>
   <time name="diag">   70.98   70.97</time>
   <time name="diis">  205.95  205.95</time>
   <time name="orth">   13.49   13.49</time>
   <time name="total">  329.92  329.92</time>
   <energy>
    <i name="e_fr_energy">   -180.08266618 </i>
    <i name="e_wo_entrp">   -180.11822006 </i>
    <i name="e_0_energy">   -180.09155465 </i>
   </energy>
  </scstep>
  <scstep>
   <time name="diag">   70.74   70.74</time>
   <time name="diis">  250.88  250.87</time>
   <time name="orth">   13.37   13.37</time>
   <time name="total">  374.90  374.90</time>
   <energy>
    <i name="e_fr_energy">   -182.23081229 </i>
    <i name="e_wo_entrp">   -182.17603220 </i>
    <i name="e_0_energy">   -182.21711726 </i>
   </energy>
  </scstep>
  <scstep>
   <time name="diag">   71.23   71.23</time>
   <time name="diis">  218.06  218.06</time>
   <time name="orth">   13.33   13.33</time>
   <time name="total">  342.65  342.65</time>
   <energy>
    <i name="e_fr_energy">   -184.27521039 </i>
    <i name="e_wo_entrp">   -184.11113105 </i>
    <i name="e_0_energy">   -184.23419055 </i>
   </energy>
  </scstep>
  <scstep>
   <time name="diag">   71.00   71.00</time>
   <time name="diis">  208.96  208.96</time>
   <time name="orth">   13.27   13.27</time>
   <time name="total">  333.05  333.05</time>
   <energy>
    <i name="e_fr_energy">   -182.83959584 </i>
    <i name="e_wo_entrp">   -182.76176584 </i>
    <i name="e_0_energy">   -182.82013834 </i>
   </energy>
  </scstep>
  <scstep>
   <time name="diag">   71.29   71.30</time>
   <time name="diis">  209.28  209.28</time>
   <time name="orth">   13.29   13.29</time>
   <time name="total">  333.82  333.82</time>
   <energy>
    <i name="e_fr_energy">   -181.15937481 </i>
    <i name="e_wo_entrp">   -180.96078660 </i>
    <i name="e_0_energy">   -181.10972776 </i>
   </energy>
  </scstep>
  <scstep>
   <time name="diag">   71.04   71.04</time>
   <time name="diis">  205.23  205.23</time>
   <time name="orth">   13.36   13.36</time>
   <time name="total">  329.59  329.59</time>
   <energy>
    <i name="e_fr_energy">   -178.74387108 </i>
    <i name="e_wo_entrp">   -178.61504849 </i>
    <i name="e_0_energy">   -178.71166543 </i>
   </energy>
  </scstep>
  <scstep>
   <time name="diag">   71.33   71.33</time>
   <time name="diis">  204.94  204.95</time>
   <time name="orth">   13.47   13.47</time>
   <time name="total">  329.76  329.78</time>
   <energy>
    <i name="e_fr_energy">   -177.76286342 </i>
    <i name="e_wo_entrp">   -177.69341301 </i>
    <i name="e_0_energy">   -177.74550082 </i>
   </energy>
  </scstep>
  <scstep>
   <time name="diag">   71.22   71.22</time>
   <time name="diis">  202.50  202.51</time>
   <time name="orth">   13.52   13.52</time>
   <time name="total">  327.35  327.36</time>
   <energy>
    <i name="e_fr_energy">   -177.30816102 </i>
    <i name="e_wo_entrp">   -177.20124769 </i>
    <i name="e_0_energy">   -177.28143269 </i>
   </energy>
  </scstep>
  <scstep>
   <time name="diag">   71.13   71.14</time>
   <time name="diis">  203.92  203.92</time>
   <time name="orth">   13.57   13.57</time>
   <time name="total">  328.62  328.63</time>
   <energy>
    <i name="e_fr_energy">   -177.49979525 </i>
    <i name="e_wo_entrp">   -177.42745540 </i>
    <i name="e_0_energy">   -177.48171029 </i>
   </energy>
  </scstep>
  <scstep>
   <time name="diag">   71.39   71.39</time>
   <time name="diis">  197.93  197.93</time>
   <time name="orth">   13.55   13.55</time>
   <time name="total">  323.08  323.08</time>
   <energy>
    <i name="e_fr_energy">   -176.90737015 </i>
    <i name="e_wo_entrp">   -176.83456347 </i>
    <i name="e_0_energy">   -176.88916848 </i>
   </energy>
  </scstep>
  <scstep>
   <time name="diag">   70.96   70.96</time>
   <time name="diis">  199.16  199.16</time>
   <time name="orth">   13.58   13.58</time>
   <time name="total">  323.97  323.97</time>
   <energy>
    <i name="e_fr_energy">   -176.18323819 </i>
    <i name="e_wo_entrp">   -176.03977209 </i>
    <i name="e_0_energy">   -176.14737167 </i>
   </energy>
  </scstep>
  <scstep>
   <time name="diag">   71.13   71.13</time>
   <time name="diis">  199.46  199.45</time>
   <time name="orth">   13.71   13.71</time>
   <time name="total">  324.33  324.33</time>
   <energy>
    <i name="e_fr_energy">   -175.64871984 </i>
    <i name="e_wo_entrp">   -175.55613276 </i>
    <i name="e_0_energy">   -175.62557307 </i>
   </energy>
  </scstep>
  <scstep>
   <time name="diag">   70.91   70.91</time>
   <time name="diis">  196.80  196.81</time>
   <time name="orth">   13.56   13.56</time>
   <time name="total">  321.64  321.64</time>
   <energy>
    <i name="e_fr_energy">   -175.53558323 </i>
    <i name="e_wo_entrp">   -175.46582541 </i>
    <i name="e_0_energy">   -175.51814378 </i>
   </energy>
  </scstep>
  <scstep>
   <time name="diag">   70.76   70.76</time>
   <time name="diis">  199.35  199.35</time>
   <time name="orth">   13.60   13.60</time>
   <time name="total">  324.11  324.10</time>
   <energy>
    <i name="e_fr_energy">   -175.75833311 </i>
    <i name="e_wo_entrp">   -175.72719575 </i>
    <i name="e_0_energy">   -175.75054877 </i>
   </energy>
  </scstep>
  <scstep>
   <time name="diag">   71.08   71.08</time>
   <time name="diis">  198.71  198.71</time>
   <time name="orth">   13.55   13.55</time>
   <time name="total">  323.81  323.81</time>
   <energy>
    <i name="e_fr_energy">   -175.46984306 </i>
    <i name="e_wo_entrp">   -175.39966906 </i>
    <i name="e_0_energy">   -175.45229956 </i>
   </energy>
  </scstep>
  <scstep>
   <time name="diag">   70.64   70.64</time>
   <time name="diis">  196.33  196.33</time>
   <time name="orth">   13.60   13.60</time>
   <time name="total">  321.06  321.06</time>
   <energy>
    <i name="e_fr_energy">   -175.24924398 </i>
    <i name="e_wo_entrp">   -175.16204740 </i>
    <i name="e_0_energy">   -175.22744484 </i>
   </energy>
  </scstep>
  <scstep>
   <time name="diag">   70.43   70.43</time>
   <time name="diis">  195.42  195.42</time>
   <time name="orth">   13.59   13.59</time>
   <time name="total">  320.06  320.06</time>
   <energy>
    <i name="e_fr_energy">   -175.26973139 </i>
    <i name="e_wo_entrp">   -175.18307211 </i>
    <i name="e_0_energy">   -175.24806657 </i>
   </energy>
  </scstep>
  <scstep>
   <time name="diag">   70.38   70.38</time>
   <time name="diis">  198.85  198.85</time>
   <time name="orth">   13.70   13.70</time>
   <time name="total">  323.60  323.60</time>
   <energy>
    <i name="e_fr_energy">   -175.27974132 </i>
    <i name="e_wo_entrp">   -175.16351102 </i>
    <i name="e_0_energy">   -175.25068375 </i>
   </energy>
  </scstep>
  <scstep>
   <time name="diag">   70.49   70.49</time>
   <time name="diis">  197.08  197.08</time>
   <time name="orth">   13.79   13.79</time>
   <time name="total">  322.20  322.20</time>
   <energy>
    <i name="e_fr_energy">   -175.21563367 </i>
    <i name="e_wo_entrp">   -175.06800689 </i>
    <i name="e_0_energy">   -175.17872698 </i>
   </energy>
  </scstep>
  <scstep>
   <time name="diag">   70.39   70.39</time>
   <time name="diis">  196.50  196.50</time>
   <time name="orth">   13.85   13.85</time>
   <time name="total">  321.57  321.56</time>
   <energy>
    <i name="e_fr_energy">   -175.09453519 </i>
    <i name="e_wo_entrp">   -174.96964546 </i>
    <i name="e_0_energy">   -175.06331276 </i>
   </energy>
  </scstep>
  <scstep>
   <time name="diag">   70.31   70.31</time>
   <time name="diis">  196.39  196.39</time>
   <time name="orth">   13.74   13.74</time>
   <time name="total">  321.37  321.36</time>
   <energy>
    <i name="e_fr_energy">   -175.04340437 </i>
    <i name="e_wo_entrp">   -174.92106073 </i>
    <i name="e_0_energy">   -175.01281846 </i>
   </energy>
  </scstep>
  <scstep>
   <time name="diag">   70.18   70.18</time>
   <time name="diis">  195.92  195.91</time>
   <time name="orth">   13.81   13.81</time>
   <time name="total">  321.11  321.10</time>
   <energy>
    <i name="e_fr_energy">   -175.00868948 </i>
    <i name="e_wo_entrp">   -174.87211165 </i>
    <i name="e_0_energy">   -174.97454502 </i>
   </energy>
  </scstep>
  <scstep>
   <time name="diag">   70.05   70.05</time>
   <time name="diis">  196.06  196.07</time>
   <time name="orth">   13.69   13.69</time>
   <time name="total">  321.14  321.15</time>
   <energy>
    <i name="e_fr_energy">   -174.98946586 </i>
    <i name="e_wo_entrp">   -174.86277316 </i>
    <i name="e_0_energy">   -174.95779268 </i>
   </energy>
  </scstep>
  <scstep>
   <time name="diag">   70.30   70.30</time>
   <time name="diis">  195.45  195.45</time>
   <time name="orth">   13.67   13.67</time>
   <time name="total">  320.91  320.91</time>
   <energy>
    <i name="e_fr_energy">   -174.97358036 </i>
    <i name="e_wo_entrp">   -174.85172751 </i>
    <i name="e_0_energy">   -174.94311715 </i>
   </energy>
  </scstep>
  <scstep>
   <time name="diag">   70.37   70.37</time>
   <time name="diis">  195.53  195.53</time>
   <time name="orth">   13.52   13.52</time>
   <time name="total">  321.06  321.06</time>
   <energy>
    <i name="e_fr_energy">   -174.96773262 </i>
    <i name="e_wo_entrp">   -174.84094379 </i>
    <i name="e_0_energy">   -174.93603542 </i>
   </energy>
  </scstep>
  <scstep>
   <time name="diag">   70.07   70.07</time>
   <time name="diis">  196.46  196.46</time>
   <time name="orth">   13.58   13.58</time>
   <time name="total">  321.99  321.99</time>
   <energy>
    <i name="e_fr_energy">   -174.96204825 </i>
    <i name="e_wo_entrp">   -174.84040831 </i>
    <i name="e_0_energy">   -174.93163826 </i>
   </energy>
  </scstep>
  <scstep>
   <time name="diag">   69.86   69.86</time>
   <time name="diis">  198.10  198.10</time>
   <time name="orth">   13.50   13.50</time>
   <time name="total">  323.40  323.40</time>
   <energy>
    <i name="e_fr_energy">   -174.96033811 </i>
    <i name="e_wo_entrp">   -174.83665309 </i>
    <i name="e_0_energy">   -174.92941685 </i>
   </energy>
  </scstep>
  <scstep>
   <time name="diag">   69.63   69.63</time>
   <time name="diis">  195.39  195.39</time>
   <time name="orth">   13.42   13.42</time>
   <time name="total">  320.59  320.58</time>
   <energy>
    <i name="e_fr_energy">   -174.95909138 </i>
    <i name="e_wo_entrp">   -174.83709789 </i>
    <i name="e_0_energy">   -174.92859300 </i>
   </energy>
  </scstep>
  <scstep>
   <time name="diag">   69.60   69.60</time>
   <time name="diis">  196.12  196.12</time>
   <time name="orth">   13.37   13.36</time>
   <time name="total">  321.84  321.83</time>
   <energy>
    <i name="e_fr_energy">   -174.95653017 </i>
    <i name="e_wo_entrp">   -174.82839259 </i>
    <i name="e_0_energy">   -174.92449578 </i>
   </energy>
  </scstep>
  <scstep>
   <time name="diag">   69.61   69.61</time>
   <time name="diis">  195.65  195.65</time>
   <time name="orth">   13.41   13.41</time>
   <time name="total">  321.52  321.52</time>
   <energy>
    <i name="e_fr_energy">   -174.95733949 </i>
    <i name="e_wo_entrp">   -174.83268952 </i>
    <i name="e_0_energy">   -174.92617699 </i>
   </energy>
  </scstep>
  <scstep>
   <time name="diag">   69.73   69.73</time>
   <time name="diis">  195.40  195.40</time>
   <time name="orth">   13.52   13.51</time>
   <time name="total">  321.59  321.58</time>
   <energy>
    <i name="e_fr_energy">   -174.95907930 </i>
    <i name="e_wo_entrp">   -174.83670325 </i>
    <i name="e_0_energy">   -174.92848529 </i>
   </energy>
  </scstep>
  <scstep>
   <time name="diag">   69.58   69.58</time>
   <time name="diis">  194.88  194.88</time>
   <time name="orth">   13.58   13.58</time>
   <time name="total">  321.00  321.00</time>
   <energy>
    <i name="e_fr_energy">   -174.96006166 </i>
    <i name="e_wo_entrp">   -174.83742359 </i>
    <i name="e_0_energy">   -174.92940215 </i>
   </energy>
  </scstep>
  <scstep>
   <time name="diag">   69.70   69.70</time>
   <time name="diis">  193.68  193.68</time>
   <time name="orth">   13.82   13.82</time>
   <time name="total">  320.44  320.43</time>
   <energy>
    <i name="e_fr_energy">   -174.96277363 </i>
    <i name="e_wo_entrp">   -174.83939115 </i>
    <i name="e_0_energy">   -174.93192801 </i>
   </energy>
  </scstep>
  <scstep>
   <time name="diag">   69.64   69.64</time>
   <time name="diis">  169.80  169.79</time>
   <time name="orth">   13.89   13.89</time>
   <time name="total">  296.46  296.46</time>
   <energy>
    <i name="e_fr_energy">   -174.96467975 </i>
    <i name="e_wo_entrp">   -174.84111474 </i>
    <i name="e_0_energy">   -174.93378849 </i>
   </energy>
  </scstep>
  <scstep>
   <time name="diag">   69.78   69.78</time>
   <time name="diis">  158.20  158.20</time>
   <time name="orth">   14.05   14.05</time>
   <time name="total">  285.89  285.89</time>
   <energy>
    <i name="e_fr_energy">   -174.96645365 </i>
    <i name="e_wo_entrp">   -174.84291778 </i>
    <i name="e_0_energy">   -174.93556968 </i>
   </energy>
  </scstep>
  <scstep>
   <time name="diag">   70.18   70.18</time>
   <time name="diis">  132.65  132.65</time>
   <time name="orth">   14.00   14.00</time>
   <time name="total">  260.86  260.85</time>
   <energy>
    <i name="e_fr_energy">   -174.96840345 </i>
    <i name="e_wo_entrp">   -174.84397134 </i>
    <i name="e_0_energy">   -174.93729543 </i>
   </energy>
  </scstep>
  <scstep>
   <time name="diag">   70.79   70.79</time>
   <time name="diis">  133.57  133.57</time>
   <time name="orth">   13.79   13.79</time>
   <time name="total">  262.19  262.19</time>
   <energy>
    <i name="e_fr_energy">   -174.97066189 </i>
    <i name="e_wo_entrp">   -174.84637064 </i>
    <i name="e_0_energy">   -174.93958908 </i>
   </energy>
  </scstep>
  <scstep>
   <time name="diag">   70.47   70.47</time>
   <time name="diis">  127.77  127.77</time>
   <time name="orth">   13.53   13.53</time>
   <time name="total">  255.92  255.92</time>
   <energy>
    <i name="e_fr_energy">   -174.97272521 </i>
    <i name="e_wo_entrp">   -174.84800697 </i>
    <i name="e_0_energy">   -174.94154565 </i>
   </energy>
  </scstep>
  <scstep>
   <time name="diag">   70.10   70.10</time>
   <time name="diis">  126.81  126.81</time>
   <time name="orth">   13.57   13.57</time>
   <time name="total">  254.58  254.58</time>
   <energy>
    <i name="e_fr_energy">   -174.97464254 </i>
    <i name="e_wo_entrp">   -174.85057889 </i>
    <i name="e_0_energy">   -174.94362663 </i>
   </energy>
  </scstep>
  <scstep>
   <time name="diag">   69.98   69.98</time>
   <time name="diis">  135.48  135.48</time>
   <time name="orth">   13.86   13.86</time>
   <time name="total">  263.87  263.87</time>
   <energy>
    <i name="e_fr_energy">   -174.97703018 </i>
    <i name="e_wo_entrp">   -174.85231992 </i>
    <i name="e_0_energy">   -174.94585262 </i>
   </energy>
  </scstep>
  <scstep>
   <time name="diag">   70.52   70.52</time>
   <time name="diis">  123.65  123.65</time>
   <time name="orth">   13.51   13.51</time>
   <time name="total">  252.39  252.39</time>
   <energy>
    <i name="e_fr_energy">   -174.97801534 </i>
    <i name="e_wo_entrp">   -174.85427439 </i>
    <i name="e_0_energy">   -174.94708010 </i>
   </energy>
  </scstep>
  <scstep>
   <time name="diag">   70.49   70.49</time>
   <time name="diis">  120.05  120.05</time>
   <time name="orth">   13.58   13.58</time>
   <time name="total">  248.95  248.95</time>
   <energy>
    <i name="e_fr_energy">   -174.97902316 </i>
    <i name="e_wo_entrp">   -174.85510189 </i>
    <i name="e_0_energy">   -174.94804284 </i>
   </energy>
  </scstep>
  <scstep>
   <time name="diag">   70.24   70.24</time>
   <time name="diis">  120.97  120.97</time>
   <time name="orth">   13.58   13.58</time>
   <time name="total">  249.61  249.61</time>
   <energy>
    <i name="e_fr_energy">   -174.97987395 </i>
    <i name="e_wo_entrp">   -174.85581907 </i>
    <i name="e_0_energy">   -174.94886023 </i>
   </energy>
  </scstep>
  <scstep>
   <time name="diag">   70.18   70.18</time>
   <time name="diis">  119.07  119.07</time>
   <time name="orth">   13.61   13.61</time>
   <time name="total">  247.94  247.94</time>
   <energy>
    <i name="e_fr_energy">   -174.98036589 </i>
    <i name="e_wo_entrp">   -174.85611892 </i>
    <i name="e_0_energy">   -174.94930414 </i>
   </energy>
  </scstep>
  <scstep>
   <time name="diag">   70.58   70.57</time>
   <time name="diis">  118.18  118.18</time>
   <time name="orth">   13.45   13.45</time>
   <time name="total">  247.02  247.02</time>
   <energy>
    <i name="e_fr_energy">   -174.98163650 </i>
    <i name="e_wo_entrp">   -174.85761569 </i>
    <i name="e_0_energy">   -174.95063130 </i>
   </energy>
  </scstep>
  <scstep>
   <time name="diag">   70.38   70.39</time>
   <time name="diis">  117.45  117.47</time>
   <time name="orth">   13.57   13.57</time>
   <time name="total">  245.74  245.77</time>
   <energy>
    <i name="e_fr_energy">   -174.98214786 </i>
    <i name="e_wo_entrp">   -174.85805342 </i>
    <i name="e_0_energy">   -174.95112425 </i>
   </energy>
  </scstep>
  <scstep>
   <time name="diag">   70.21   70.21</time>
   <time name="diis">  115.57  115.58</time>
   <time name="orth">   13.61   13.61</time>
   <time name="total">  243.93  243.95</time>
   <energy>
    <i name="e_fr_energy">   -174.98281885 </i>
    <i name="e_wo_entrp">   -174.85893640 </i>
    <i name="e_0_energy">   -174.95184824 </i>
   </energy>
  </scstep>
  <scstep>
   <time name="diag">   70.42   70.42</time>
   <time name="diis">  104.18  104.19</time>
   <time name="orth">   13.49   13.49</time>
   <time name="total">  232.30  232.32</time>
   <energy>
    <i name="e_fr_energy">   -174.98339100 </i>
    <i name="e_wo_entrp">   -174.85920558 </i>
    <i name="e_0_energy">   -174.95234464 </i>
   </energy>
  </scstep>
  <scstep>
   <time name="diag">   70.48   70.48</time>
   <time name="diis">   93.92   93.93</time>
   <time name="orth">   13.47   13.47</time>
   <time name="total">  222.33  222.35</time>
   <energy>
    <i name="e_fr_energy">   -174.98368675 </i>
    <i name="e_wo_entrp">   -174.85956614 </i>
    <i name="e_0_energy">   -174.95265660 </i>
   </energy>
  </scstep>
  <scstep>
   <time name="diag">   69.92   69.92</time>
   <time name="diis">   97.38   97.39</time>
   <time name="orth">   13.73   13.73</time>
   <time name="total">  224.99  225.00</time>
   <energy>
    <i name="e_fr_energy">   -174.98411277 </i>
    <i name="e_wo_entrp">   -174.86012330 </i>
    <i name="e_0_energy">   -174.95311541 </i>
   </energy>
  </scstep>
  <scstep>
   <time name="diag">   69.67   69.68</time>
   <time name="diis">   76.72   76.73</time>
   <time name="orth">   13.51   13.51</time>
   <time name="total">  174.24  174.25</time>
   <energy>
    <i name="alphaZ">     75.25431677 </i>
    <i name="ewald"> 138535.00678499 </i>
    <i name="hartreedc">-182888.16930171 </i>
    <i name="XCdc">  -1692.40781077 </i>
    <i name="pawpsdc">  46109.98111130 </i>
    <i name="pawaedc"> -42580.45730524 </i>
    <i name="eentropy">     -0.12406882 </i>
    <i name="bandstr">  -2820.57339092 </i>
    <i name="atom">  45086.50549395 </i>
    <i name="e_fr_energy">   -174.98417043 </i>
    <i name="e_wo_entrp">   -174.86010162 </i>
    <i name="e_0_energy">   -174.95315323 </i>
   </energy>
  </scstep>
  <structure>
   <crystal>
    <varray name="basis" >
     <v>      30.00000000       0.00000000       0.00000000 </v>
     <v>       0.00000000      30.00000000       0.00000000 </v>
     <v>       0.00000000       0.00000000      30.00000000 </v>
    </varray>
    <i name="volume">  27000.00000000 </i>
    <varray name="rec_basis" >
     <v>       0.03333333       0.00000000       0.00000000 </v>
     <v>       0.00000000       0.03333333       0.00000000 </v>
     <v>       0.00000000       0.00000000       0.03333333 </v>
    </varray>
   </crystal>
   <varray name="positions" >
    <v>       0.44576020       0.32826710       0.41691983 </v>
    <v>       0.67173288       0.55423978       0.41691983 </v>
    <v>       0.55423980       0.32826710       0.41691983 </v>
    <v>       0.32826712       0.55423978       0.41691983 </v>
    <v>       0.50000000       0.38250690       0.34021317 </v>
    <v>       0.50000000       0.38250690       0.65978680 </v>
    <v>       0.50000000       0.27609440       0.50000000 </v>
    <v>       0.27609443       0.49999998       0.50000000 </v>
    <v>       0.72390557       0.49999998       0.50000000 </v>
    <v>       0.50000000       0.72390555       0.50000000 </v>
    <v>       0.61195280       0.38804720       0.34167483 </v>
    <v>       0.61195280       0.38804720       0.65832513 </v>
    <v>       0.38804722       0.61195278       0.34167483 </v>
    <v>       0.38804722       0.61195278       0.65832513 </v>
    <v>       0.38804720       0.38804720       0.34167483 </v>
    <v>       0.38804720       0.38804720       0.65832513 </v>
    <v>       0.61195278       0.61195278       0.34167483 </v>
    <v>       0.61195278       0.61195278       0.65832513 </v>
    <v>       0.44576020       0.32826710       0.58308023 </v>
    <v>       0.67173288       0.55423978       0.58308023 </v>
    <v>       0.55791699       0.44208301       0.41809300 </v>
    <v>       0.32826705       0.44576024       0.41691983 </v>
    <v>       0.55423973       0.67173293       0.41691983 </v>
    <v>       0.55423980       0.32826710       0.58308023 </v>
    <v>       0.32826712       0.55423978       0.58308023 </v>
    <v>       0.67173295       0.44576024       0.41691983 </v>
    <v>       0.44576027       0.67173293       0.41691983 </v>
    <v>       0.44208301       0.44208301       0.41809300 </v>
    <v>       0.50000000       0.38416601       0.50000000 </v>
    <v>       0.61749315       0.50000005       0.34021317 </v>
    <v>       0.61749315       0.50000005       0.65978680 </v>
    <v>       0.38250685       0.50000005       0.34021317 </v>
    <v>       0.38250685       0.50000005       0.65978680 </v>
    <v>       0.38317830       0.38317830       0.50000000 </v>
    <v>       0.61682172       0.61682172       0.50000000 </v>
    <v>       0.61682170       0.38317830       0.50000000 </v>
    <v>       0.38317828       0.61682172       0.50000000 </v>
    <v>       0.50000000       0.50000000       0.33478917 </v>
    <v>       0.50000000       0.50000000       0.66521087 </v>
    <v>       0.32826705       0.44576024       0.58308023 </v>
    <v>       0.55423973       0.67173293       0.58308023 </v>
    <v>       0.55791699       0.44208301       0.58190703 </v>
    <v>       0.44208298       0.55791702       0.41809300 </v>
    <v>       0.44208301       0.44208301       0.58190703 </v>
    <v>       0.67173295       0.44576024       0.58308023 </v>
    <v>       0.44576027       0.67173293       0.58308023 </v>
    <v>       0.55791702       0.55791702       0.41809300 </v>
    <v>       0.38416599       0.50000002       0.50000000 </v>
    <v>       0.61583401       0.50000002       0.50000000 </v>
    <v>       0.50000000       0.61749319       0.34021317 </v>
    <v>       0.50000000       0.61749319       0.65978680 </v>
    <v>       0.50000000       0.50000000       0.50000000 </v>
    <v>       0.44208298       0.55791702       0.58190703 </v>
    <v>       0.55791702       0.55791702       0.58190703 </v>
    <v>       0.50000000       0.61583404       0.50000000 </v>
    <v>       0.51326853       0.30112910       0.63561003 </v>
    <v>       0.51533800       0.27011120       0.65676110 </v>
   </varray>
  </structure>
  <varray name="forces" >
   <v>       0.71334051       1.09853230       0.29380715 </v>
   <v>      -1.10978025      -0.72090253       0.28804502 </v>
   <v>      -0.71024949       1.09902033       0.29390444 </v>
   <v>       1.10733821      -0.72097971       0.29295180 </v>
   <v>       0.00088486       0.41244822       1.28561241 </v>
   <v>       0.09537987      -0.37281265      -1.35058316 </v>
   <v>      -0.00642318       1.50810245      -0.07291457 </v>
   <v>       1.52231120       0.00319631      -0.01041406 </v>
   <v>      -1.52135684       0.00483296      -0.00847787 </v>
   <v>       0.00019453      -1.52341139       0.00731370 </v>
   <v>      -0.75433065       0.76636938       1.07136171 </v>
   <v>      -0.69787971       0.80533217      -1.05841201 </v>
   <v>       0.75472682      -0.76411325       1.07662104 </v>
   <v>       0.76462347      -0.75075285      -1.07909392 </v>
   <v>       0.75261542       0.76922527       1.07342703 </v>
   <v>       0.72621838       0.79697365      -1.08092263 </v>
   <v>      -0.75340500      -0.76583829       1.07721627 </v>
   <v>      -0.76474886      -0.74863804      -1.07908944 </v>
   <v>       1.01332355       0.83934990       0.05669177 </v>
   <v>      -1.11071947      -0.70953250      -0.29088748 </v>
   <v>       0.11557374      -0.11668752      -0.15578381 </v>
   <v>       1.10692646       0.73246366       0.27005213 </v>
   <v>      -0.71078626      -1.10946669       0.28818097 </v>
   <v>      -1.45819383       0.48076046       0.76062285 </v>
   <v>       1.11068403      -0.70487527      -0.29224291 </v>
   <v>      -1.10436756       0.74553147       0.26004813 </v>
   <v>       0.71114279      -1.10958180       0.28763504 </v>
   <v>      -0.12283649      -0.10655261      -0.16449035 </v>
   <v>       0.00027568      -0.18153674      -0.06031537 </v>
   <v>      -0.40300101      -0.00447605       1.29364305 </v>
   <v>      -0.40379612      -0.00856304      -1.28208912 </v>
   <v>       0.40568485      -0.01078469       1.29223286 </v>
   <v>       0.41025148      -0.01215984      -1.27861603 </v>
   <v>       0.83181851       0.82566732       0.01252624 </v>
   <v>      -0.82573616      -0.82670942      -0.00004953 </v>
   <v>      -0.84457925       0.81993025       0.01318639 </v>
   <v>       0.82611579      -0.82618136       0.00065390 </v>
   <v>       0.00092164      -0.00039179       1.17482794 </v>
   <v>      -0.00844270      -0.00974581      -1.17888223 </v>
   <v>       1.11055732       0.69752134      -0.27973107 </v>
   <v>      -0.71164258      -1.11718688      -0.27909569 </v>
   <v>       0.13105591      -0.03772004       0.11904030 </v>
   <v>      -0.10874387       0.11312027      -0.15622000 </v>
   <v>      -0.12947903      -0.06638324       0.13712399 </v>
   <v>      -1.10781500       0.70488340      -0.28094953 </v>
   <v>       0.71241305      -1.11612147      -0.27967864 </v>
   <v>       0.11213173       0.11044322      -0.15604148 </v>
   <v>      -0.23437995      -0.00014636      -0.00628033 </v>
   <v>       0.23295796      -0.00436259      -0.00019235 </v>
   <v>      -0.00030619      -0.40839009       1.28755166 </v>
   <v>       0.00038467      -0.38078129      -1.30218050 </v>
   <v>      -0.00186437      -0.01216288       0.00990904 </v>
   <v>      -0.11068614       0.11573898       0.16191889 </v>
   <v>       0.10907850       0.12333765       0.16101456 </v>
   <v>       0.00046631       0.22822646      -0.00178156 </v>
   <v>       0.28992370       5.72417986      -4.21160763 </v>
   <v>       0.04622903      -4.27723859       3.04990297 </v>
  </varray>
  <varray name="stress" >
   <v>      -6.83930441      -0.00764448       0.05374798 </v>
   <v>      -0.00764449      -6.63651333      -0.12744382 </v>
   <v>       0.05374801      -0.12744384      -6.75119144 </v>
  </varray>
  <energy>
   <i name="e_fr_energy">   -174.98417043 </i>
   <i name="e_wo_entrp">   -174.95315323 </i>
   <i name="e_0_energy">     -0.12406882 </i>
  </energy>
  <time name="totalsc">18006.9818007.20</time>
  <eigenvalues>
   <array>
    <dimension dim="1">band</dimension>
    <dimension dim="2">kpoint</dimension>
    <dimension dim="3">spin</dimension>
    <field>eigene</field>
    <field>occ</field>
    <set>
     <set comment="spin 1">
      <set comment="kpoint 1">
       <r>  -28.4178    1.0000 </r>
       <r>  -13.2250    1.0000 </r>
       <r>  -10.9982    1.0000 </r>
       <r>  -10.9005    1.0000 </r>
       <r>  -10.1568    1.0000 </r>
       <r>   -6.6591    1.0000 </r>
       <r>   -6.1473    1.0000 </r>
       <r>   -6.1427    1.0000 </r>
       <r>   -6.1425    1.0000 </r>
       <r>   -5.8806    1.0000 </r>
       <r>   -5.8373    1.0000 </r>
       <r>   -5.8347    1.0000 </r>
       <r>   -5.8046    1.0000 </r>
       <r>   -5.8001    1.0000 </r>
       <r>   -5.7651    1.0000 </r>
       <r>   -5.7076    1.0000 </r>
       <r>   -5.7021    1.0000 </r>
       <r>   -5.7010    1.0000 </r>
       <r>   -5.6925    1.0000 </r>
       <r>   -5.6463    1.0000 </r>
       <r>   -5.6412    1.0000 </r>
       <r>   -5.6393    1.0000 </r>
       <r>   -5.6228    1.0000 </r>
       <r>   -5.6128    1.0000 </r>
       <r>   -5.6125    1.0000 </r>
       <r>   -5.5798    1.0000 </r>
       <r>   -5.5693    1.0000 </r>
       <r>   -5.5654    1.0000 </r>
       <r>   -5.5610    1.0000 </r>
       <r>   -5.5547    1.0000 </r>
       <r>   -5.5510    1.0000 </r>
       <r>   -5.5397    1.0000 </r>
       <r>   -5.5365    1.0000 </r>
       <r>   -5.5343    1.0000 </r>
       <r>   -5.5321    1.0000 </r>
       <r>   -5.5289    1.0000 </r>
       <r>   -5.5200    1.0000 </r>
       <r>   -5.5051    1.0000 </r>
       <r>   -5.5016    1.0000 </r>
       <r>   -5.4905    1.0000 </r>
       <r>   -5.4887    1.0000 </r>
       <r>   -5.4866    1.0000 </r>
       <r>   -5.4842    1.0000 </r>
       <r>   -5.4817    1.0000 </r>
       <r>   -5.4794    1.0000 </r>
       <r>   -5.4593    1.0000 </r>
       <r>   -5.4543    1.0000 </r>
       <r>   -5.4484    1.0000 </r>
       <r>   -5.4449    1.0000 </r>
       <r>   -5.4446    1.0000 </r>
       <r>   -5.4398    1.0000 </r>
       <r>   -5.4243    1.0000 </r>
       <r>   -5.4219    1.0000 </r>
       <r>   -5.4177    1.0000 </r>
       <r>   -5.4053    1.0000 </r>
       <r>   -5.4007    1.0000 </r>
       <r>   -5.3832    1.0000 </r>
       <r>   -5.3570    1.0000 </r>
       <r>   -5.3454    1.0000 </r>
       <r>   -5.3436    1.0000 </r>
       <r>   -5.3396    1.0000 </r>
       <r>   -5.3321    1.0000 </r>
       <r>   -5.3314    1.0000 </r>
       <r>   -5.3188    1.0000 </r>
       <r>   -5.3166    1.0000 </r>
       <r>   -5.3154    1.0000 </r>
       <r>   -5.3097    1.0000 </r>
       <r>   -5.2936    1.0000 </r>
       <r>   -5.2772    1.0000 </r>
       <r>   -5.2408    1.0000 </r>
       <r>   -5.2259    1.0000 </r>
       <r>   -5.2171    1.0000 </r>
       <r>   -5.2138    1.0000 </r>
       <r>   -5.2033    1.0000 </r>
       <r>   -5.1994    1.0000 </r>
       <r>   -5.1975    1.0000 </r>
       <r>   -5.1861    1.0000 </r>
       <r>   -5.1804    1.0000 </r>
       <r>   -5.1759    1.0000 </r>
       <r>   -5.1747    1.0000 </r>
       <r>   -5.1744    1.0000 </r>
       <r>   -5.1651    1.0000 </r>
       <r>   -5.1550    1.0000 </r>
       <r>   -5.1429    1.0000 </r>
       <r>   -5.1377    1.0000 </r>
       <r>   -5.1308    1.0000 </r>
       <r>   -5.1248    1.0000 </r>
       <r>   -5.1018    1.0000 </r>
       <r>   -5.0986    1.0000 </r>
       <r>   -5.0942    1.0000 </r>
       <r>   -5.0869    1.0000 </r>
       <r>   -5.0763    1.0000 </r>
       <r>   -5.0682    1.0000 </r>
       <r>   -5.0677    1.0000 </r>
       <r>   -5.0663    1.0000 </r>
       <r>   -5.0646    1.0000 </r>
       <r>   -5.0635    1.0000 </r>
       <r>   -5.0506    1.0000 </r>
       <r>   -5.0479    1.0000 </r>
       <r>   -5.0470    1.0000 </r>
       <r>   -5.0428    1.0000 </r>
       <r>   -5.0412    1.0000 </r>
       <r>   -5.0297    1.0000 </r>
       <r>   -5.0196    1.0000 </r>
       <r>   -5.0190    1.0000 </r>
       <r>   -5.0172    1.0000 </r>
       <r>   -5.0115    1.0000 </r>
       <r>   -5.0083    1.0000 </r>
       <r>   -4.9989    1.0000 </r>
       <r>   -4.9972    1.0000 </r>
       <r>   -4.9962    1.0000 </r>
       <r>   -4.9823    1.0000 </r>
       <r>   -4.9790    1.0000 </r>
       <r>   -4.9747    1.0000 </r>
       <r>   -4.9731    1.0000 </r>
       <r>   -4.9662    1.0000 </r>
       <r>   -4.9552    1.0000 </r>
       <r>   -4.9497    1.0000 </r>
       <r>   -4.9424    1.0000 </r>
       <r>   -4.9368    1.0000 </r>
       <r>   -4.9298    1.0000 </r>
       <r>   -4.9252    1.0000 </r>
       <r>   -4.9237    1.0000 </r>
       <r>   -4.9218    1.0000 </r>
       <r>   -4.9187    1.0000 </r>
       <r>   -4.9095    1.0000 </r>
       <r>   -4.8906    1.0000 </r>
       <r>   -4.8743    1.0000 </r>
       <r>   -4.8711    1.0000 </r>
       <r>   -4.8623    1.0000 </r>
       <r>   -4.8599    1.0000 </r>
       <r>   -4.8572    1.0000 </r>
       <r>   -4.8531    1.0000 </r>
       <r>   -4.8505    1.0000 </r>
       <r>   -4.8448    1.0000 </r>
       <r>   -4.8308    0.9999 </r>
       <r>   -4.8166    0.9999 </r>
       <r>   -4.8143    0.9999 </r>
       <r>   -4.7983    0.9999 </r>
       <r>   -4.7886    0.9998 </r>
       <r>   -4.7884    0.9998 </r>
       <r>   -4.7838    0.9998 </r>
       <r>   -4.7637    0.9997 </r>
       <r>   -4.7614    0.9997 </r>
       <r>   -4.7554    0.9996 </r>
       <r>   -4.7550    0.9996 </r>
       <r>   -4.7527    0.9996 </r>
       <r>   -4.7449    0.9995 </r>
       <r>   -4.7374    0.9994 </r>
       <r>   -4.7174    0.9991 </r>
       <r>   -4.7095    0.9990 </r>
       <r>   -4.7035    0.9989 </r>
       <r>   -4.7011    0.9988 </r>
       <r>   -4.6955    0.9987 </r>
       <r>   -4.6880    0.9985 </r>
       <r>   -4.6862    0.9985 </r>
       <r>   -4.6818    0.9984 </r>
       <r>   -4.6805    0.9983 </r>
       <r>   -4.6797    0.9983 </r>
       <r>   -4.6791    0.9983 </r>
       <r>   -4.6693    0.9980 </r>
       <r>   -4.6645    0.9979 </r>
       <r>   -4.6607    0.9977 </r>
       <r>   -4.6603    0.9977 </r>
       <r>   -4.6592    0.9977 </r>
       <r>   -4.6563    0.9976 </r>
       <r>   -4.6560    0.9976 </r>
       <r>   -4.6512    0.9974 </r>
       <r>   -4.6477    0.9973 </r>
       <r>   -4.6383    0.9969 </r>
       <r>   -4.6228    0.9964 </r>
       <r>   -4.6202    0.9963 </r>
       <r>   -4.6189    0.9962 </r>
       <r>   -4.6124    0.9960 </r>
       <r>   -4.6116    0.9960 </r>
       <r>   -4.6080    0.9958 </r>
       <r>   -4.6071    0.9958 </r>
       <r>   -4.6022    0.9956 </r>
       <r>   -4.5978    0.9955 </r>
       <r>   -4.5916    0.9953 </r>
       <r>   -4.5883    0.9953 </r>
       <r>   -4.5881    0.9953 </r>
       <r>   -4.5789    0.9951 </r>
       <r>   -4.5720    0.9951 </r>
       <r>   -4.5718    0.9951 </r>
       <r>   -4.5681    0.9951 </r>
       <r>   -4.5673    0.9951 </r>
       <r>   -4.5639    0.9951 </r>
       <r>   -4.5634    0.9951 </r>
       <r>   -4.5545    0.9953 </r>
       <r>   -4.5536    0.9953 </r>
       <r>   -4.5269    0.9971 </r>
       <r>   -4.5223    0.9976 </r>
       <r>   -4.5212    0.9977 </r>
       <r>   -4.5143    0.9987 </r>
       <r>   -4.5100    0.9994 </r>
       <r>   -4.5051    1.0003 </r>
       <r>   -4.5030    1.0007 </r>
       <r>   -4.4949    1.0024 </r>
       <r>   -4.4897    1.0037 </r>
       <r>   -4.4883    1.0041 </r>
       <r>   -4.4833    1.0054 </r>
       <r>   -4.4786    1.0068 </r>
       <r>   -4.4692    1.0099 </r>
       <r>   -4.4690    1.0100 </r>
       <r>   -4.4650    1.0114 </r>
       <r>   -4.4628    1.0122 </r>
       <r>   -4.4602    1.0133 </r>
       <r>   -4.4559    1.0149 </r>
       <r>   -4.4419    1.0210 </r>
       <r>   -4.4382    1.0227 </r>
       <r>   -4.4371    1.0232 </r>
       <r>   -4.4267    1.0281 </r>
       <r>   -4.4263    1.0283 </r>
       <r>   -4.4227    1.0300 </r>
       <r>   -4.4213    1.0307 </r>
       <r>   -4.4199    1.0314 </r>
       <r>   -4.4168    1.0328 </r>
       <r>   -4.4100    1.0361 </r>
       <r>   -4.4015    1.0400 </r>
       <r>   -4.3961    1.0423 </r>
       <r>   -4.3818    1.0476 </r>
       <r>   -4.3799    1.0482 </r>
       <r>   -4.3786    1.0485 </r>
       <r>   -4.3687    1.0507 </r>
       <r>   -4.3606    1.0516 </r>
       <r>   -4.3591    1.0516 </r>
       <r>   -4.3542    1.0515 </r>
       <r>   -4.3504    1.0511 </r>
       <r>   -4.3497    1.0510 </r>
       <r>   -4.3489    1.0509 </r>
       <r>   -4.3476    1.0506 </r>
       <r>   -4.3467    1.0504 </r>
       <r>   -4.3407    1.0487 </r>
       <r>   -4.3406    1.0487 </r>
       <r>   -4.3393    1.0482 </r>
       <r>   -4.3381    1.0477 </r>
       <r>   -4.3373    1.0474 </r>
       <r>   -4.3358    1.0467 </r>
       <r>   -4.3233    1.0388 </r>
       <r>   -4.3224    1.0382 </r>
       <r>   -4.3220    1.0378 </r>
       <r>   -4.3118    1.0277 </r>
       <r>   -4.3046    1.0185 </r>
       <r>   -4.3016    1.0142 </r>
       <r>   -4.3014    1.0139 </r>
       <r>   -4.2997    1.0114 </r>
       <r>   -4.2964    1.0060 </r>
       <r>   -4.2891    0.9927 </r>
       <r>   -4.2875    0.9896 </r>
       <r>   -4.2853    0.9851 </r>
       <r>   -4.2792    0.9715 </r>
       <r>   -4.2775    0.9676 </r>
       <r>   -4.2747    0.9607 </r>
       <r>   -4.2713    0.9521 </r>
       <r>   -4.2669    0.9401 </r>
       <r>   -4.2663    0.9384 </r>
       <r>   -4.2636    0.9306 </r>
       <r>   -4.2607    0.9219 </r>
       <r>   -4.2590    0.9169 </r>
       <r>   -4.2583    0.9146 </r>
       <r>   -4.2578    0.9131 </r>
       <r>   -4.2539    0.9007 </r>
       <r>   -4.2534    0.8990 </r>
       <r>   -4.2523    0.8951 </r>
       <r>   -4.2412    0.8556 </r>
       <r>   -4.2397    0.8499 </r>
       <r>   -4.2395    0.8492 </r>
       <r>   -4.2349    0.8313 </r>
       <r>   -4.2317    0.8185 </r>
       <r>   -4.2305    0.8133 </r>
       <r>   -4.2142    0.7418 </r>
       <r>   -4.2107    0.7257 </r>
       <r>   -4.2076    0.7108 </r>
       <r>   -4.1967    0.6574 </r>
       <r>   -4.1964    0.6558 </r>
       <r>   -4.1946    0.6467 </r>
       <r>   -4.1894    0.6206 </r>
       <r>   -4.1878    0.6124 </r>
       <r>   -4.1870    0.6081 </r>
       <r>   -4.1746    0.5436 </r>
       <r>   -4.1681    0.5091 </r>
       <r>   -4.1541    0.4353 </r>
       <r>   -4.1483    0.4049 </r>
       <r>   -4.1438    0.3815 </r>
       <r>   -4.1421    0.3728 </r>
       <r>   -4.1404    0.3644 </r>
       <r>   -4.1326    0.3252 </r>
       <r>   -4.1314    0.3192 </r>
       <r>   -3.9736   -0.0516 </r>
       <r>   -3.8435   -0.0038 </r>
       <r>   -3.8425   -0.0036 </r>
       <r>   -3.8290   -0.0005 </r>
       <r>   -3.7228    0.0041 </r>
       <r>   -3.5105    0.0001 </r>
       <r>   -3.5041    0.0001 </r>
       <r>   -3.3273    0.0000 </r>
       <r>   -3.1013    0.0000 </r>
       <r>   -3.0869    0.0000 </r>
       <r>   -3.0663    0.0000 </r>
       <r>   -3.0463    0.0000 </r>
       <r>   -3.0451    0.0000 </r>
       <r>   -2.9541    0.0000 </r>
       <r>   -2.9520    0.0000 </r>
       <r>   -2.7572    0.0000 </r>
       <r>   -2.5961    0.0000 </r>
       <r>   -2.5638    0.0000 </r>
       <r>   -2.5293    0.0000 </r>
       <r>   -2.2920    0.0000 </r>
       <r>   -2.1239    0.0000 </r>
       <r>   -2.1238    0.0000 </r>
       <r>   -2.0776    0.0000 </r>
       <r>   -2.0657    0.0000 </r>
       <r>   -2.0536    0.0000 </r>
       <r>   -1.9269    0.0000 </r>
       <r>   -1.9058    0.0000 </r>
       <r>   -1.8092    0.0000 </r>
       <r>   -1.6691    0.0000 </r>
       <r>   -1.6527    0.0000 </r>
       <r>   -1.6506    0.0000 </r>
       <r>   -1.6473    0.0000 </r>
       <r>   -1.6051    0.0000 </r>
       <r>   -1.5683    0.0000 </r>
       <r>   -1.3971    0.0000 </r>
       <r>   -1.3278    0.0000 </r>
       <r>   -1.1451    0.0000 </r>
       <r>   -1.1281    0.0000 </r>
       <r>   -1.0591    0.0000 </r>
       <r>   -0.9870    0.0000 </r>
       <r>   -0.9720    0.0000 </r>
       <r>   -0.9511    0.0000 </r>
       <r>   -0.9370    0.0000 </r>
       <r>   -0.9258    0.0000 </r>
       <r>   -0.9205    0.0000 </r>
       <r>   -0.8291    0.0000 </r>
       <r>   -0.6643    0.0000 </r>
      </set>
     </set>
    </set>
   </array>
  </eigenvalues>
  <separator name="orbital magnetization" >
   <v name="MAGDIPOLOUT">      0.00000000      0.00000000      0.00000000</v>
  </separator>
  <dos>
   <i name="efermi">     -4.16639701 </i>
   <total>
    <array>
     <dimension dim="1">gridpoints</dimension>
     <dimension dim="2">spin</dimension>
     <field>energy</field>
     <field>total</field>
     <field>integrated</field>
     <set>
      <set comment="spin 1">
       <r>   -30.4178     0.0000     0.0000 </r>
       <r>   -30.3120     0.0000     0.0000 </r>
       <r>   -30.2061     0.0000     0.0000 </r>
       <r>   -30.1003     0.0000     0.0000 </r>
       <r>   -29.9944     0.0000     0.0000 </r>
       <r>   -29.8886     0.0000     0.0000 </r>
       <r>   -29.7827     0.0000     0.0000 </r>
       <r>   -29.6769     0.0000     0.0000 </r>
       <r>   -29.5711     0.0000     0.0000 </r>
       <r>   -29.4652     0.0000     0.0000 </r>
       <r>   -29.3594     0.0000     0.0000 </r>
       <r>   -29.2535     0.0000     0.0000 </r>
       <r>   -29.1477     0.0002     0.0000 </r>
       <r>   -29.0418     0.0030     0.0003 </r>
       <r>   -28.9360     0.0261     0.0031 </r>
       <r>   -28.8301     0.0630     0.0098 </r>
       <r>   -28.7243    -0.2562    -0.0173 </r>
       <r>   -28.6185    -0.7996    -0.1020 </r>
       <r>   -28.5126     2.4080     0.1529 </r>
       <r>   -28.4068     9.1059     1.1167 </r>
       <r>   -28.3009     7.9825     1.9616 </r>
       <r>   -28.1951     1.2140     2.0901 </r>
       <r>   -28.0892    -0.8060     2.0048 </r>
       <r>   -27.9834    -0.1285     1.9912 </r>
       <r>   -27.8775     0.0633     1.9979 </r>
       <r>   -27.7717     0.0180     1.9998 </r>
       <r>   -27.6658     0.0017     2.0000 </r>
       <r>   -27.5600     0.0001     2.0000 </r>
       <r>   -27.4542     0.0000     2.0000 </r>
       <r>   -27.3483     0.0000     2.0000 </r>
       <r>   -27.2425     0.0000     2.0000 </r>
       <r>   -27.1366     0.0000     2.0000 </r>
       <r>   -27.0308     0.0000     2.0000 </r>
       <r>   -26.9249     0.0000     2.0000 </r>
       <r>   -26.8191     0.0000     2.0000 </r>
       <r>   -26.7132     0.0000     2.0000 </r>
       <r>   -26.6074     0.0000     2.0000 </r>
       <r>   -26.5015     0.0000     2.0000 </r>
       <r>   -26.3957     0.0000     2.0000 </r>
       <r>   -26.2899     0.0000     2.0000 </r>
       <r>   -26.1840     0.0000     2.0000 </r>
       <r>   -26.0782     0.0000     2.0000 </r>
       <r>   -25.9723     0.0000     2.0000 </r>
       <r>   -25.8665     0.0000     2.0000 </r>
       <r>   -25.7606     0.0000     2.0000 </r>
       <r>   -25.6548     0.0000     2.0000 </r>
       <r>   -25.5489     0.0000     2.0000 </r>
       <r>   -25.4431     0.0000     2.0000 </r>
       <r>   -25.3372     0.0000     2.0000 </r>
       <r>   -25.2314     0.0000     2.0000 </r>
       <r>   -25.1256     0.0000     2.0000 </r>
       <r>   -25.0197     0.0000     2.0000 </r>
       <r>   -24.9139     0.0000     2.0000 </r>
       <r>   -24.8080     0.0000     2.0000 </r>
       <r>   -24.7022     0.0000     2.0000 </r>
       <r>   -24.5963     0.0000     2.0000 </r>
       <r>   -24.4905     0.0000     2.0000 </r>
       <r>   -24.3846     0.0000     2.0000 </r>
       <r>   -24.2788     0.0000     2.0000 </r>
       <r>   -24.1730     0.0000     2.0000 </r>
       <r>   -24.0671     0.0000     2.0000 </r>
       <r>   -23.9613     0.0000     2.0000 </r>
       <r>   -23.8554     0.0000     2.0000 </r>
       <r>   -23.7496     0.0000     2.0000 </r>
       <r>   -23.6437     0.0000     2.0000 </r>
       <r>   -23.5379     0.0000     2.0000 </r>
       <r>   -23.4320     0.0000     2.0000 </r>
       <r>   -23.3262     0.0000     2.0000 </r>
       <r>   -23.2203     0.0000     2.0000 </r>
       <r>   -23.1145     0.0000     2.0000 </r>
       <r>   -23.0087     0.0000     2.0000 </r>
       <r>   -22.9028     0.0000     2.0000 </r>
       <r>   -22.7970     0.0000     2.0000 </r>
       <r>   -22.6911     0.0000     2.0000 </r>
       <r>   -22.5853     0.0000     2.0000 </r>
       <r>   -22.4794     0.0000     2.0000 </r>
       <r>   -22.3736     0.0000     2.0000 </r>
       <r>   -22.2677     0.0000     2.0000 </r>
       <r>   -22.1619     0.0000     2.0000 </r>
       <r>   -22.0560     0.0000     2.0000 </r>
       <r>   -21.9502     0.0000     2.0000 </r>
       <r>   -21.8444     0.0000     2.0000 </r>
       <r>   -21.7385     0.0000     2.0000 </r>
       <r>   -21.6327     0.0000     2.0000 </r>
       <r>   -21.5268     0.0000     2.0000 </r>
       <r>   -21.4210     0.0000     2.0000 </r>
       <r>   -21.3151     0.0000     2.0000 </r>
       <r>   -21.2093     0.0000     2.0000 </r>
       <r>   -21.1034     0.0000     2.0000 </r>
       <r>   -20.9976     0.0000     2.0000 </r>
       <r>   -20.8918     0.0000     2.0000 </r>
       <r>   -20.7859     0.0000     2.0000 </r>
       <r>   -20.6801     0.0000     2.0000 </r>
       <r>   -20.5742     0.0000     2.0000 </r>
       <r>   -20.4684     0.0000     2.0000 </r>
       <r>   -20.3625     0.0000     2.0000 </r>
       <r>   -20.2567     0.0000     2.0000 </r>
       <r>   -20.1508     0.0000     2.0000 </r>
       <r>   -20.0450     0.0000     2.0000 </r>
       <r>   -19.9391     0.0000     2.0000 </r>
       <r>   -19.8333     0.0000     2.0000 </r>
       <r>   -19.7275     0.0000     2.0000 </r>
       <r>   -19.6216     0.0000     2.0000 </r>
       <r>   -19.5158     0.0000     2.0000 </r>
       <r>   -19.4099     0.0000     2.0000 </r>
       <r>   -19.3041     0.0000     2.0000 </r>
       <r>   -19.1982     0.0000     2.0000 </r>
       <r>   -19.0924     0.0000     2.0000 </r>
       <r>   -18.9865     0.0000     2.0000 </r>
       <r>   -18.8807     0.0000     2.0000 </r>
       <r>   -18.7748     0.0000     2.0000 </r>
       <r>   -18.6690     0.0000     2.0000 </r>
       <r>   -18.5632     0.0000     2.0000 </r>
       <r>   -18.4573     0.0000     2.0000 </r>
       <r>   -18.3515     0.0000     2.0000 </r>
       <r>   -18.2456     0.0000     2.0000 </r>
       <r>   -18.1398     0.0000     2.0000 </r>
       <r>   -18.0339     0.0000     2.0000 </r>
       <r>   -17.9281     0.0000     2.0000 </r>
       <r>   -17.8222     0.0000     2.0000 </r>
       <r>   -17.7164     0.0000     2.0000 </r>
       <r>   -17.6105     0.0000     2.0000 </r>
       <r>   -17.5047     0.0000     2.0000 </r>
       <r>   -17.3989     0.0000     2.0000 </r>
       <r>   -17.2930     0.0000     2.0000 </r>
       <r>   -17.1872     0.0000     2.0000 </r>
       <r>   -17.0813     0.0000     2.0000 </r>
       <r>   -16.9755     0.0000     2.0000 </r>
       <r>   -16.8696     0.0000     2.0000 </r>
       <r>   -16.7638     0.0000     2.0000 </r>
       <r>   -16.6579     0.0000     2.0000 </r>
       <r>   -16.5521     0.0000     2.0000 </r>
       <r>   -16.4463     0.0000     2.0000 </r>
       <r>   -16.3404     0.0000     2.0000 </r>
       <r>   -16.2346     0.0000     2.0000 </r>
       <r>   -16.1287     0.0000     2.0000 </r>
       <r>   -16.0229     0.0000     2.0000 </r>
       <r>   -15.9170     0.0000     2.0000 </r>
       <r>   -15.8112     0.0000     2.0000 </r>
       <r>   -15.7053     0.0000     2.0000 </r>
       <r>   -15.5995     0.0000     2.0000 </r>
       <r>   -15.4936     0.0000     2.0000 </r>
       <r>   -15.3878     0.0000     2.0000 </r>
       <r>   -15.2820     0.0000     2.0000 </r>
       <r>   -15.1761     0.0000     2.0000 </r>
       <r>   -15.0703     0.0000     2.0000 </r>
       <r>   -14.9644     0.0000     2.0000 </r>
       <r>   -14.8586     0.0000     2.0000 </r>
       <r>   -14.7527     0.0000     2.0000 </r>
       <r>   -14.6469     0.0000     2.0000 </r>
       <r>   -14.5410     0.0000     2.0000 </r>
       <r>   -14.4352     0.0000     2.0000 </r>
       <r>   -14.3293     0.0000     2.0000 </r>
       <r>   -14.2235     0.0000     2.0000 </r>
       <r>   -14.1177     0.0000     2.0000 </r>
       <r>   -14.0118     0.0000     2.0000 </r>
       <r>   -13.9060     0.0007     2.0001 </r>
       <r>   -13.8001     0.0091     2.0010 </r>
       <r>   -13.6943     0.0497     2.0063 </r>
       <r>   -13.5884     0.0012     2.0064 </r>
       <r>   -13.4826    -0.6167     1.9412 </r>
       <r>   -13.3767    -0.0923     1.9314 </r>
       <r>   -13.2709     5.6951     2.5342 </r>
       <r>   -13.1650     9.9966     3.5923 </r>
       <r>   -13.0592     4.7008     4.0898 </r>
       <r>   -12.9534    -0.4193     4.0455 </r>
       <r>   -12.8475    -0.5102     3.9915 </r>
       <r>   -12.7417     0.0310     3.9947 </r>
       <r>   -12.6358     0.0426     3.9992 </r>
       <r>   -12.5300     0.0067     4.0000 </r>
       <r>   -12.4241     0.0004     4.0000 </r>
       <r>   -12.3183     0.0000     4.0000 </r>
       <r>   -12.2124     0.0000     4.0000 </r>
       <r>   -12.1066     0.0000     4.0000 </r>
       <r>   -12.0008     0.0000     4.0000 </r>
       <r>   -11.8949     0.0000     4.0000 </r>
       <r>   -11.7891     0.0000     4.0000 </r>
       <r>   -11.6832     0.0006     4.0001 </r>
       <r>   -11.5774     0.0091     4.0010 </r>
       <r>   -11.4715     0.0576     4.0071 </r>
       <r>   -11.3657     0.0627     4.0138 </r>
       <r>   -11.2598    -0.5960     3.9507 </r>
       <r>   -11.1540    -0.8438     3.8614 </r>
       <r>   -11.0481     5.4289     4.4360 </r>
       <r>   -10.9423    15.9944     6.1289 </r>
       <r>   -10.8365    14.9458     7.7109 </r>
       <r>   -10.7306     4.0943     8.1442 </r>
       <r>   -10.6248    -0.9833     8.0401 </r>
       <r>   -10.5189    -0.4579     7.9917 </r>
       <r>   -10.4131    -0.5440     7.9341 </r>
       <r>   -10.3072    -0.0088     7.9332 </r>
       <r>   -10.2014     5.7924     8.5462 </r>
       <r>   -10.0955     9.9862     9.6032 </r>
       <r>    -9.9897     4.6104    10.0912 </r>
       <r>    -9.8838    -0.4437    10.0443 </r>
       <r>    -9.7780    -0.5003     9.9913 </r>
       <r>    -9.6722     0.0332     9.9948 </r>
       <r>    -9.5663     0.0419     9.9993 </r>
       <r>    -9.4605     0.0066    10.0000 </r>
       <r>    -9.3546     0.0004    10.0000 </r>
       <r>    -9.2488     0.0000    10.0000 </r>
       <r>    -9.1429     0.0000    10.0000 </r>
       <r>    -9.0371     0.0000    10.0000 </r>
       <r>    -8.9312     0.0000    10.0000 </r>
       <r>    -8.8254     0.0000    10.0000 </r>
       <r>    -8.7196     0.0000    10.0000 </r>
       <r>    -8.6137     0.0000    10.0000 </r>
       <r>    -8.5079     0.0000    10.0000 </r>
       <r>    -8.4020     0.0000    10.0000 </r>
       <r>    -8.2962     0.0000    10.0000 </r>
       <r>    -8.1903     0.0000    10.0000 </r>
       <r>    -8.0845     0.0000    10.0000 </r>
       <r>    -7.9786     0.0000    10.0000 </r>
       <r>    -7.8728     0.0000    10.0000 </r>
       <r>    -7.7669     0.0000    10.0000 </r>
       <r>    -7.6611     0.0000    10.0000 </r>
       <r>    -7.5553     0.0000    10.0000 </r>
       <r>    -7.4494     0.0000    10.0000 </r>
       <r>    -7.3436     0.0006    10.0001 </r>
       <r>    -7.2377     0.0085    10.0010 </r>
       <r>    -7.1319     0.0480    10.0060 </r>
       <r>    -7.0260     0.0097    10.0071 </r>
       <r>    -6.9202    -0.5910     9.9445 </r>
       <r>    -6.8143    -0.1807     9.9254 </r>
       <r>    -6.7085     5.4841    10.5059 </r>
       <r>    -6.6026    10.1816    11.5835 </r>
       <r>    -6.4968     4.8627    12.0982 </r>
       <r>    -6.3910    -2.3452    11.8500 </r>
       <r>    -6.2851     0.4997    11.9029 </r>
       <r>    -6.1793    19.3496    13.9510 </r>
       <r>    -6.0734    26.8806    16.7961 </r>
       <r>    -5.9676    12.9128    18.1629 </r>
       <r>    -5.8617    26.2729    20.9438 </r>
       <r>    -5.7559    65.0984    27.8341 </r>
       <r>    -5.6500   123.5460    40.9109 </r>
       <r>    -5.5442   229.6366    65.2168 </r>
       <r>    -5.4383   297.3690    96.6919 </r>
       <r>    -5.3325   252.1560   123.3814 </r>
       <r>    -5.2267   208.1394   145.4120 </r>
       <r>    -5.1208   264.8250   173.4424 </r>
       <r>    -5.0150   349.0744   210.3903 </r>
       <r>    -4.9091   341.4680   246.5330 </r>
       <r>    -4.8033   288.4458   277.0636 </r>
       <r>    -4.6974   332.6154   312.2694 </r>
       <r>    -4.5916   417.4270   356.4520 </r>
       <r>    -4.4857   426.0956   401.5522 </r>
       <r>    -4.3799   466.8150   450.9624 </r>
       <r>    -4.2741   558.3795   510.0642 </r>
       <r>    -4.1682   466.1050   559.3991 </r>
       <r>    -4.0624   188.4945   579.3504 </r>
       <r>    -3.9565    14.9151   580.9291 </r>
       <r>    -3.8507    14.1405   582.4258 </r>
       <r>    -3.7448    33.4737   585.9688 </r>
       <r>    -3.6390    19.0475   587.9849 </r>
       <r>    -3.5331    14.6926   589.5400 </r>
       <r>    -3.4273    19.8849   591.6448 </r>
       <r>    -3.3214    12.2971   592.9463 </r>
       <r>    -3.2156     6.9349   593.6804 </r>
       <r>    -3.1098    30.4599   596.9044 </r>
       <r>    -3.0039    57.8812   603.0309 </r>
       <r>    -2.8981    41.7065   607.4453 </r>
       <r>    -2.7922    12.5653   608.7753 </r>
       <r>    -2.6864    10.3663   609.8725 </r>
       <r>    -2.5805    25.0492   612.5238 </r>
       <r>    -2.4747    26.1832   615.2952 </r>
       <r>    -2.3688     9.9627   616.3497 </r>
       <r>    -2.2630     6.1622   617.0019 </r>
       <r>    -2.1571    25.6151   619.7132 </r>
       <r>    -2.0513    48.3776   624.8337 </r>
       <r>    -1.9455    42.8766   629.3720 </r>
       <r>    -1.8396    24.1815   631.9315 </r>
       <r>    -1.7338    27.6988   634.8633 </r>
       <r>    -1.6279    51.6179   640.3268 </r>
       <r>    -1.5221    46.5606   645.2550 </r>
       <r>    -1.4162    20.4506   647.4196 </r>
       <r>    -1.3104    13.2994   648.8273 </r>
       <r>    -1.2045    14.1529   650.3253 </r>
       <r>    -1.0987    26.6299   653.1439 </r>
       <r>    -0.9928    55.6312   659.0322 </r>
       <r>    -0.8870    66.6750   666.0894 </r>
       <r>    -0.7812    37.1285   670.0193 </r>
       <r>    -0.6753    11.1922   671.2040 </r>
       <r>    -0.5695     6.1279   671.8526 </r>
       <r>    -0.4636     1.9859   672.0628 </r>
       <r>    -0.3578    -0.5342   672.0062 </r>
       <r>    -0.2519    -0.1638   671.9889 </r>
       <r>    -0.1461     0.0749   671.9968 </r>
       <r>    -0.0402     0.0269   671.9997 </r>
       <r>     0.0656     0.0030   672.0000 </r>
       <r>     0.1714     0.0002   672.0000 </r>
       <r>     0.2773     0.0000   672.0000 </r>
       <r>     0.3831     0.0000   672.0000 </r>
       <r>     0.4890     0.0000   672.0000 </r>
       <r>     0.5948     0.0000   672.0000 </r>
       <r>     0.7007     0.0000   672.0000 </r>
       <r>     0.8065     0.0000   672.0000 </r>
       <r>     0.9124     0.0000   672.0000 </r>
       <r>     1.0182     0.0000   672.0000 </r>
       <r>     1.1241     0.0000   672.0000 </r>
       <r>     1.2299     0.0000   672.0000 </r>
       <r>     1.3357     0.0000   672.0000 </r>
      </set>
     </set>
    </array>
   </total>
  </dos>
 </calculation>
 <structure name="finalpos" >
  <crystal>
   <varray name="basis" >
    <v>      30.00000000       0.00000000       0.00000000 </v>
    <v>       0.00000000      30.00000000       0.00000000 </v>
    <v>       0.00000000       0.00000000      30.00000000 </v>
   </varray>
   <i name="volume">  27000.00000000 </i>
   <varray name="rec_basis" >
    <v>       0.03333333       0.00000000       0.00000000 </v>
    <v>       0.00000000       0.03333333       0.00000000 </v>
    <v>       0.00000000       0.00000000       0.03333333 </v>
   </varray>
  </crystal>
  <varray name="positions" >
   <v>       0.44576020       0.32826710       0.41691983 </v>
   <v>       0.67173288       0.55423978       0.41691983 </v>
   <v>       0.55423980       0.32826710       0.41691983 </v>
   <v>       0.32826712       0.55423978       0.41691983 </v>
   <v>       0.50000000       0.38250690       0.34021317 </v>
   <v>       0.50000000       0.38250690       0.65978680 </v>
   <v>       0.50000000       0.27609440       0.50000000 </v>
   <v>       0.27609443       0.49999998       0.50000000 </v>
   <v>       0.72390557       0.49999998       0.50000000 </v>
   <v>       0.50000000       0.72390555       0.50000000 </v>
   <v>       0.61195280       0.38804720       0.34167483 </v>
   <v>       0.61195280       0.38804720       0.65832513 </v>
   <v>       0.38804722       0.61195278       0.34167483 </v>
   <v>       0.38804722       0.61195278       0.65832513 </v>
   <v>       0.38804720       0.38804720       0.34167483 </v>
   <v>       0.38804720       0.38804720       0.65832513 </v>
   <v>       0.61195278       0.61195278       0.34167483 </v>
   <v>       0.61195278       0.61195278       0.65832513 </v>
   <v>       0.44576020       0.32826710       0.58308023 </v>
   <v>       0.67173288       0.55423978       0.58308023 </v>
   <v>       0.55791699       0.44208301       0.41809300 </v>
   <v>       0.32826705       0.44576024       0.41691983 </v>
   <v>       0.55423973       0.67173293       0.41691983 </v>
   <v>       0.55423980       0.32826710       0.58308023 </v>
   <v>       0.32826712       0.55423978       0.58308023 </v>
   <v>       0.67173295       0.44576024       0.41691983 </v>
   <v>       0.44576027       0.67173293       0.41691983 </v>
   <v>       0.44208301       0.44208301       0.41809300 </v>
   <v>       0.50000000       0.38416601       0.50000000 </v>
   <v>       0.61749315       0.50000005       0.34021317 </v>
   <v>       0.61749315       0.50000005       0.65978680 </v>
   <v>       0.38250685       0.50000005       0.34021317 </v>
   <v>       0.38250685       0.50000005       0.65978680 </v>
   <v>       0.38317830       0.38317830       0.50000000 </v>
   <v>       0.61682172       0.61682172       0.50000000 </v>
   <v>       0.61682170       0.38317830       0.50000000 </v>
   <v>       0.38317828       0.61682172       0.50000000 </v>
   <v>       0.50000000       0.50000000       0.33478917 </v>
   <v>       0.50000000       0.50000000       0.66521087 </v>
   <v>       0.32826705       0.44576024       0.58308023 </v>
   <v>       0.55423973       0.67173293       0.58308023 </v>
   <v>       0.55791699       0.44208301       0.58190703 </v>
   <v>       0.44208298       0.55791702       0.41809300 </v>
   <v>       0.44208301       0.44208301       0.58190703 </v>
   <v>       0.67173295       0.44576024       0.58308023 </v>
   <v>       0.44576027       0.67173293       0.58308023 </v>
   <v>       0.55791702       0.55791702       0.41809300 </v>
   <v>       0.38416599       0.50000002       0.50000000 </v>
   <v>       0.61583401       0.50000002       0.50000000 </v>
   <v>       0.50000000       0.61749319       0.34021317 </v>
   <v>       0.50000000       0.61749319       0.65978680 </v>
   <v>       0.50000000       0.50000000       0.50000000 </v>
   <v>       0.44208298       0.55791702       0.58190703 </v>
   <v>       0.55791702       0.55791702       0.58190703 </v>
   <v>       0.50000000       0.61583404       0.50000000 </v>
   <v>       0.51326853       0.30112910       0.63561003 </v>
   <v>       0.51533800       0.27011120       0.65676110 </v>
  </varray>
  <varray name="selective"  type="logical" >
   <v type="logical" >  F  F  F </v>
   <v type="logical" >  F  F  F </v>
   <v type="logical" >  F  F  F </v>
   <v type="logical" >  F  F  F </v>
   <v type="logical" >  F  F  F </v>
   <v type="logical" >  F  F  F </v>
   <v type="logical" >  F  F  F </v>
   <v type="logical" >  F  F  F </v>
   <v type="logical" >  F  F  F </v>
   <v type="logical" >  F  F  F </v>
   <v type="logical" >  F  F  F </v>
   <v type="logical" >  F  F  F </v>
   <v type="logical" >  F  F  F </v>
   <v type="logical" >  F  F  F </v>
   <v type="logical" >  F  F  F </v>
   <v type="logical" >  F  F  F </v>
   <v type="logical" >  F  F  F </v>
   <v type="logical" >  F  F  F </v>
   <v type="logical" >  F  F  F </v>
   <v type="logical" >  F  F  F </v>
   <v type="logical" >  F  F  F </v>
   <v type="logical" >  F  F  F </v>
   <v type="logical" >  F  F  F </v>
   <v type="logical" >  F  F  F </v>
   <v type="logical" >  F  F  F </v>
   <v type="logical" >  F  F  F </v>
   <v type="logical" >  F  F  F </v>
   <v type="logical" >  F  F  F </v>
   <v type="logical" >  F  F  F </v>
   <v type="logical" >  F  F  F </v>
   <v type="logical" >  F  F  F </v>
   <v type="logical" >  F  F  F </v>
   <v type="logical" >  F  F  F </v>
   <v type="logical" >  F  F  F </v>
   <v type="logical" >  F  F  F </v>
   <v type="logical" >  F  F  F </v>
   <v type="logical" >  F  F  F </v>
   <v type="logical" >  F  F  F </v>
   <v type="logical" >  F  F  F </v>
   <v type="logical" >  F  F  F </v>
   <v type="logical" >  F  F  F </v>
   <v type="logical" >  F  F  F </v>
   <v type="logical" >  F  F  F </v>
   <v type="logical" >  F  F  F </v>
   <v type="logical" >  F  F  F </v>
   <v type="logical" >  F  F  F </v>
   <v type="logical" >  F  F  F </v>
   <v type="logical" >  F  F  F </v>
   <v type="logical" >  F  F  F </v>
   <v type="logical" >  F  F  F </v>
   <v type="logical" >  F  F  F </v>
   <v type="logical" >  F  F  F </v>
   <v type="logical" >  F  F  F </v>
   <v type="logical" >  F  F  F </v>
   <v type="logical" >  F  F  F </v>
   <v type="logical" >  F  F  F </v>
   <v type="logical" >  F  F  F </v>
  </varray>
  <nose>
   <v>      -3.00000000       0.00000000       0.00010000       0.00010000 </v>
  </nose>
 </structure>
</modeling>
