       N       E                     dE             d eps       ncg     rms          rms(c)
DAV:   1     0.438642851921E+04    0.43864E+04   -0.10049E+05   688   0.815E+02
DAV:   2     0.201031467121E+04   -0.23761E+04   -0.21373E+04  1224   0.105E+02
DAV:   3     0.235260240143E+03   -0.17751E+04   -0.16704E+04  1000   0.920E+01
DAV:   4    -0.134411816169E+03   -0.36967E+03   -0.31537E+03   832   0.436E+01
DAV:   5    -0.179347781918E+03   -0.44936E+02   -0.37110E+02  1056   0.144E+01    0.140E+01
RMM:   6    -0.178481376029E+03    0.86641E+00   -0.49008E+01   727   0.856E+00    0.210E+01
RMM:   7    -0.179933325050E+03   -0.14519E+01   -0.17905E+01   867   0.407E+00    0.177E+01
RMM:   8    -0.184584926691E+03   -0.46516E+01   -0.63680E+00   747   0.346E+00    0.307E+01
RMM:   9    -0.181834596466E+03    0.27503E+01   -0.38208E+00   754   0.269E+00    0.257E+01
RMM:  10    -0.179778014609E+03    0.20566E+01   -0.26793E+00   739   0.239E+00    0.235E+01
RMM:  11    -0.178048309889E+03    0.17297E+01   -0.15297E+00   733   0.180E+00    0.184E+01
RMM:  12    -0.177133583948E+03    0.91473E+00   -0.13538E+00   719   0.172E+00    0.151E+01
RMM:  13    -0.176650571541E+03    0.48301E+00   -0.89415E-01   722   0.140E+00    0.143E+01
RMM:  14    -0.176722039629E+03   -0.71468E-01   -0.84869E-01   724   0.137E+00    0.163E+01
RMM:  15    -0.176734923022E+03   -0.12883E-01   -0.12339E+00   710   0.164E+00    0.214E+01
RMM:  16    -0.175676454828E+03    0.10585E+01   -0.83965E-01   714   0.136E+00    0.119E+01
RMM:  17    -0.175257257349E+03    0.41920E+00   -0.68550E-01   707   0.124E+00    0.899E+00
RMM:  18    -0.175131331051E+03    0.12593E+00   -0.47759E-01   702   0.103E+00    0.929E+00
RMM:  19    -0.175043136580E+03    0.88194E-01   -0.33389E-01   699   0.869E-01    0.789E+00
RMM:  20    -0.174862626204E+03    0.18051E+00   -0.24082E-01   698   0.772E-01    0.623E+00
RMM:  21    -0.174769487099E+03    0.93139E-01   -0.20996E-01   699   0.721E-01    0.623E+00
RMM:  22    -0.174848932447E+03   -0.79445E-01   -0.23315E-01   697   0.720E-01    0.659E+00
RMM:  23    -0.174769762484E+03    0.79170E-01   -0.16376E-01   704   0.644E-01    0.634E+00
RMM:  24    -0.174615848565E+03    0.15391E+00   -0.11239E-01   697   0.551E-01    0.344E+00
RMM:  25    -0.174583642350E+03    0.32206E-01   -0.53495E-02   696   0.369E-01    0.293E+00
RMM:  26    -0.174571358700E+03    0.12284E-01   -0.39534E-02   695   0.309E-01    0.280E+00
RMM:  27    -0.174540735863E+03    0.30623E-01   -0.26993E-02   696   0.262E-01    0.205E+00
RMM:  28    -0.174533729624E+03    0.70062E-02   -0.18463E-02   696   0.220E-01    0.188E+00
RMM:  29    -0.174532724627E+03    0.10050E-02   -0.16610E-02   697   0.211E-01    0.200E+00
RMM:  30    -0.174517503415E+03    0.15221E-01   -0.10657E-02   694   0.180E-01    0.109E+00
RMM:  31    -0.174514301922E+03    0.32015E-02   -0.55536E-03   695   0.125E-01    0.103E+00
RMM:  32    -0.174509322429E+03    0.49795E-02   -0.48775E-03   695   0.108E-01    0.747E-01
RMM:  33    -0.174507559287E+03    0.17631E-02   -0.26695E-03   692   0.873E-02    0.588E-01
RMM:  34    -0.174508553164E+03   -0.99388E-03   -0.27175E-03   695   0.799E-02    0.646E-01
RMM:  35    -0.174508917814E+03   -0.36465E-03   -0.20798E-03   695   0.739E-02    0.491E-01
RMM:  36    -0.174510177226E+03   -0.12594E-02   -0.13507E-03   692   0.594E-02    0.389E-01
RMM:  37    -0.174512317985E+03   -0.21408E-02   -0.10122E-03   691   0.497E-02    0.296E-01
RMM:  38    -0.174514016069E+03   -0.16981E-02   -0.61529E-04   641   0.400E-02    0.191E-01
RMM:  39    -0.174515660443E+03   -0.16444E-02   -0.35211E-04   454   0.306E-02    0.203E-01
RMM:  40    -0.174519169954E+03   -0.35095E-02   -0.60360E-04   592   0.343E-02    0.244E-01
RMM:  41    -0.174521712097E+03   -0.25421E-02   -0.47507E-04   527   0.317E-02    0.180E-01
RMM:  42    -0.174523749061E+03   -0.20370E-02   -0.36207E-04   465   0.261E-02    0.173E-01
RMM:  43    -0.174526268819E+03   -0.25198E-02   -0.44543E-04   512   0.265E-02    0.163E-01
RMM:  44    -0.174527078901E+03   -0.81008E-03   -0.17141E-04   422   0.184E-02    0.118E-01
RMM:  45    -0.174528664694E+03   -0.15858E-02   -0.18562E-04   418   0.171E-02    0.805E-02
RMM:  46    -0.174529488595E+03   -0.82390E-03   -0.10223E-04   420   0.132E-02    0.671E-02
RMM:  47    -0.174530811193E+03   -0.13226E-02   -0.93100E-05   405   0.122E-02    0.583E-02
RMM:  48    -0.174531526726E+03   -0.71553E-03   -0.61947E-05   407   0.979E-03    0.343E-02
RMM:  49    -0.174532527361E+03   -0.10006E-02   -0.54735E-05   414   0.904E-03    0.527E-02
RMM:  50    -0.174533369075E+03   -0.84171E-03   -0.45326E-05   401   0.800E-03    0.260E-02
RMM:  51    -0.174533637181E+03   -0.26811E-03   -0.17304E-05   291   0.509E-03    0.235E-02
RMM:  52    -0.174534415333E+03   -0.77815E-03   -0.23619E-05   357   0.553E-03    0.199E-02
RMM:  53    -0.174534643878E+03   -0.22854E-03   -0.49096E-06   165   0.398E-03    0.129E-02
RMM:  54    -0.174535062119E+03   -0.41824E-03   -0.15220E-05   276   0.474E-03    0.171E-02
RMM:  55    -0.174535334830E+03   -0.27271E-03   -0.67047E-06   178   0.413E-03    0.754E-03
RMM:  56    -0.174535463844E+03   -0.12901E-03   -0.83169E-06   199   0.404E-03    0.191E-02
RMM:  57    -0.174535699476E+03   -0.23563E-03   -0.95245E-06   191   0.403E-03    0.808E-03
RMM:  58    -0.174535805089E+03   -0.10561E-03   -0.67420E-06   166   0.370E-03    0.713E-03
RMM:  59    -0.174535966104E+03   -0.16101E-03   -0.82445E-06   162   0.394E-03    0.538E-03
RMM:  60    -0.174536036095E+03   -0.69991E-04   -0.46342E-06   138   0.376E-03
   1 F= -.17453604E+03 E0= -.17452283E+03  d E =-.528395E-01
