  57  57   0   0
  0.4736842E+03  0.3000000E-08  0.3000000E-08  0.3000000E-08  0.5000000E-15
  1.000000000000000E-004
  CAR 
 6_Pd100_top_free_z(O)                   
      1.21022901    -30.71390021  301     -4.15572807      1.00000000
    -30.714  0.0000E+00  0.0000E+00
    -30.607  0.0000E+00  0.0000E+00
    -30.501  0.0000E+00  0.0000E+00
    -30.395  0.3186E-27  0.3390E-28
    -30.288  0.1498E-23  0.1595E-24
    -30.182  0.3939E-20  0.4193E-21
    -30.075  0.5772E-17  0.6147E-18
    -29.969  0.4698E-14  0.5006E-15
    -29.863  0.2118E-11  0.2259E-12
    -29.756  0.5238E-09  0.5596E-10
    -29.650  0.7045E-07  0.7553E-08
    -29.543  0.5078E-05  0.5479E-06
    -29.437  0.1912E-03  0.2090E-04
    -29.331  0.3579E-02  0.4018E-03
    -29.224  0.2947E-01  0.3538E-02
    -29.118  0.5951E-01  0.9870E-02
    -29.011 -0.3162E+00 -0.2378E-01
    -28.905 -0.7467E+00 -0.1032E+00
    -28.798  0.3025E+01  0.2187E+00
    -28.692  0.9496E+01  0.1229E+01
    -28.586  0.7300E+01  0.2006E+01
    -28.479  0.6987E+00  0.2080E+01
    -28.373 -0.7581E+00  0.2000E+01
    -28.266 -0.7110E-01  0.1992E+01
    -28.160  0.5930E-01  0.1998E+01
    -28.054  0.1390E-01  0.2000E+01
    -27.947  0.1175E-02  0.2000E+01
    -27.841  0.4669E-04  0.2000E+01
    -27.734  0.9456E-06  0.2000E+01
    -27.628  0.1013E-07  0.2000E+01
    -27.521  0.5855E-10  0.2000E+01
    -27.415  0.1857E-12  0.2000E+01
    -27.309  0.0000E+00  0.2000E+01
    -27.202  0.0000E+00  0.2000E+01
    -27.096  0.0000E+00  0.2000E+01
    -26.989  0.0000E+00  0.2000E+01
    -26.883  0.0000E+00  0.2000E+01
    -26.777  0.0000E+00  0.2000E+01
    -26.670  0.0000E+00  0.2000E+01
    -26.564  0.0000E+00  0.2000E+01
    -26.457  0.0000E+00  0.2000E+01
    -26.351  0.0000E+00  0.2000E+01
    -26.245  0.0000E+00  0.2000E+01
    -26.138  0.0000E+00  0.2000E+01
    -26.032  0.0000E+00  0.2000E+01
    -25.925  0.0000E+00  0.2000E+01
    -25.819  0.0000E+00  0.2000E+01
    -25.712  0.0000E+00  0.2000E+01
    -25.606  0.0000E+00  0.2000E+01
    -25.500  0.0000E+00  0.2000E+01
    -25.393  0.0000E+00  0.2000E+01
    -25.287  0.0000E+00  0.2000E+01
    -25.180  0.0000E+00  0.2000E+01
    -25.074  0.0000E+00  0.2000E+01
    -24.968  0.0000E+00  0.2000E+01
    -24.861  0.0000E+00  0.2000E+01
    -24.755  0.0000E+00  0.2000E+01
    -24.648  0.0000E+00  0.2000E+01
    -24.542  0.0000E+00  0.2000E+01
    -24.435  0.0000E+00  0.2000E+01
    -24.329  0.0000E+00  0.2000E+01
    -24.223  0.0000E+00  0.2000E+01
    -24.116  0.0000E+00  0.2000E+01
    -24.010  0.0000E+00  0.2000E+01
    -23.903  0.0000E+00  0.2000E+01
    -23.797  0.0000E+00  0.2000E+01
    -23.691  0.0000E+00  0.2000E+01
    -23.584  0.0000E+00  0.2000E+01
    -23.478  0.0000E+00  0.2000E+01
    -23.371  0.0000E+00  0.2000E+01
    -23.265  0.0000E+00  0.2000E+01
    -23.159  0.0000E+00  0.2000E+01
    -23.052  0.0000E+00  0.2000E+01
    -22.946  0.0000E+00  0.2000E+01
    -22.839  0.0000E+00  0.2000E+01
    -22.733  0.0000E+00  0.2000E+01
    -22.626  0.0000E+00  0.2000E+01
    -22.520  0.0000E+00  0.2000E+01
    -22.414  0.0000E+00  0.2000E+01
    -22.307  0.0000E+00  0.2000E+01
    -22.201  0.0000E+00  0.2000E+01
    -22.094  0.0000E+00  0.2000E+01
    -21.988  0.0000E+00  0.2000E+01
    -21.882  0.0000E+00  0.2000E+01
    -21.775  0.0000E+00  0.2000E+01
    -21.669  0.0000E+00  0.2000E+01
    -21.562  0.0000E+00  0.2000E+01
    -21.456  0.0000E+00  0.2000E+01
    -21.349  0.0000E+00  0.2000E+01
    -21.243  0.0000E+00  0.2000E+01
    -21.137  0.0000E+00  0.2000E+01
    -21.030  0.0000E+00  0.2000E+01
    -20.924  0.0000E+00  0.2000E+01
    -20.817  0.0000E+00  0.2000E+01
    -20.711  0.0000E+00  0.2000E+01
    -20.605  0.0000E+00  0.2000E+01
    -20.498  0.0000E+00  0.2000E+01
    -20.392  0.0000E+00  0.2000E+01
    -20.285  0.0000E+00  0.2000E+01
    -20.179  0.0000E+00  0.2000E+01
    -20.073  0.0000E+00  0.2000E+01
    -19.966  0.0000E+00  0.2000E+01
    -19.860  0.0000E+00  0.2000E+01
    -19.753  0.0000E+00  0.2000E+01
    -19.647  0.0000E+00  0.2000E+01
    -19.540  0.0000E+00  0.2000E+01
    -19.434  0.0000E+00  0.2000E+01
    -19.328  0.0000E+00  0.2000E+01
    -19.221  0.0000E+00  0.2000E+01
    -19.115  0.0000E+00  0.2000E+01
    -19.008  0.0000E+00  0.2000E+01
    -18.902  0.0000E+00  0.2000E+01
    -18.796  0.0000E+00  0.2000E+01
    -18.689  0.0000E+00  0.2000E+01
    -18.583  0.0000E+00  0.2000E+01
    -18.476  0.0000E+00  0.2000E+01
    -18.370  0.0000E+00  0.2000E+01
    -18.263  0.0000E+00  0.2000E+01
    -18.157  0.0000E+00  0.2000E+01
    -18.051  0.0000E+00  0.2000E+01
    -17.944  0.0000E+00  0.2000E+01
    -17.838  0.0000E+00  0.2000E+01
    -17.731  0.0000E+00  0.2000E+01
    -17.625  0.0000E+00  0.2000E+01
    -17.519  0.0000E+00  0.2000E+01
    -17.412  0.0000E+00  0.2000E+01
    -17.306  0.0000E+00  0.2000E+01
    -17.199  0.0000E+00  0.2000E+01
    -17.093  0.0000E+00  0.2000E+01
    -16.987  0.0000E+00  0.2000E+01
    -16.880  0.0000E+00  0.2000E+01
    -16.774  0.0000E+00  0.2000E+01
    -16.667  0.0000E+00  0.2000E+01
    -16.561  0.0000E+00  0.2000E+01
    -16.454  0.0000E+00  0.2000E+01
    -16.348  0.0000E+00  0.2000E+01
    -16.242  0.0000E+00  0.2000E+01
    -16.135  0.0000E+00  0.2000E+01
    -16.029  0.0000E+00  0.2000E+01
    -15.922  0.0000E+00  0.2000E+01
    -15.816  0.0000E+00  0.2000E+01
    -15.710  0.0000E+00  0.2000E+01
    -15.603  0.0000E+00  0.2000E+01
    -15.497  0.0000E+00  0.2000E+01
    -15.390  0.0000E+00  0.2000E+01
    -15.284  0.0000E+00  0.2000E+01
    -15.177  0.0000E+00  0.2000E+01
    -15.071  0.2271E-26  0.2000E+01
    -14.965  0.9366E-23  0.2000E+01
    -14.858  0.2158E-19  0.2000E+01
    -14.752  0.2769E-16  0.2000E+01
    -14.645  0.1972E-13  0.2000E+01
    -14.539  0.7769E-11  0.2000E+01
    -14.433  0.1675E-08  0.2000E+01
    -14.326  0.1960E-06  0.2000E+01
    -14.220  0.1223E-04  0.2000E+01
    -14.113  0.3955E-03  0.2000E+01
    -14.007  0.6243E-02  0.2001E+01
    -13.901  0.4103E-01  0.2005E+01
    -13.794  0.3479E-01  0.2009E+01
    -13.688 -0.4956E+00  0.1956E+01
    -13.581 -0.4418E+00  0.1909E+01
    -13.475  0.4648E+01  0.2404E+01
    -13.368  0.9989E+01  0.3467E+01
    -13.262  0.5669E+01  0.4070E+01
    -13.156 -0.1144E+00  0.4058E+01
    -13.049 -0.6055E+00  0.3993E+01
    -12.943  0.6007E-02  0.3994E+01
    -12.836  0.4841E-01  0.3999E+01
    -12.730  0.8555E-02  0.4000E+01
    -12.624  0.6025E-03  0.4000E+01
    -12.517  0.2046E-04  0.4000E+01
    -12.411  0.3579E-06  0.4000E+01
    -12.304  0.3357E-08  0.4000E+01
    -12.198  0.5103E-08  0.4000E+01
    -12.091  0.5209E-06  0.4000E+01
    -11.985  0.2842E-04  0.4000E+01
    -11.879  0.8021E-03  0.4000E+01
    -11.772  0.1103E-01  0.4001E+01
    -11.666  0.6259E-01  0.4008E+01
    -11.559  0.3338E-01  0.4011E+01
    -11.453 -0.6797E+00  0.3939E+01
    -11.347 -0.5027E+00  0.3886E+01
    -11.240  0.6363E+01  0.4563E+01
    -11.134  0.1599E+02  0.6264E+01
    -11.027  0.1394E+02  0.7748E+01
    -10.921  0.3615E+01  0.8133E+01
    -10.815 -0.9767E+00  0.8029E+01
    -10.708 -0.3957E+00  0.7987E+01
    -10.602  0.1113E+00  0.7999E+01
    -10.495  0.1005E+00  0.8009E+01
    -10.389 -0.3330E+00  0.7974E+01
    -10.282 -0.7213E+00  0.7897E+01
    -10.176  0.3229E+01  0.8241E+01
    -10.070  0.9594E+01  0.9262E+01
     -9.963  0.7096E+01  0.1002E+02
     -9.857  0.5719E+00  0.1008E+02
     -9.750 -0.7418E+00  0.9999E+01
     -9.644 -0.5867E-01  0.9992E+01
     -9.538  0.5808E-01  0.9998E+01
     -9.431  0.1307E-01  0.1000E+02
     -9.325  0.1078E-02  0.1000E+02
     -9.218  0.4197E-04  0.1000E+02
     -9.112  0.8338E-06  0.1000E+02
     -9.005  0.8767E-08  0.1000E+02
     -8.899  0.4977E-10  0.1000E+02
     -8.793  0.1544E-12  0.1000E+02
     -8.686  0.0000E+00  0.1000E+02
     -8.580  0.0000E+00  0.1000E+02
     -8.473  0.0000E+00  0.1000E+02
     -8.367  0.0000E+00  0.1000E+02
     -8.261  0.1314E-24  0.1000E+02
     -8.154  0.4102E-21  0.1000E+02
     -8.048  0.7144E-18  0.1000E+02
     -7.941  0.6919E-15  0.1000E+02
     -7.835  0.3721E-12  0.1000E+02
     -7.729  0.1098E-09  0.1000E+02
     -7.622  0.1769E-07  0.1000E+02
     -7.516  0.1536E-05  0.1000E+02
     -7.409  0.7030E-04  0.1000E+02
     -7.303  0.1630E-02  0.1000E+02
     -7.196  0.1749E-01  0.1000E+02
     -7.090  0.6302E-01  0.1001E+02
     -6.984 -0.1266E+00  0.9995E+01
     -6.877 -0.8048E+00  0.9910E+01
     -6.771  0.1257E+01  0.1004E+02
     -6.664  0.8118E+01  0.1091E+02
     -6.558  0.9217E+01  0.1189E+02
     -6.452  0.1681E+01  0.1207E+02
     -6.345 -0.3122E+01  0.1173E+02
     -6.239  0.6055E+01  0.1238E+02
     -6.132  0.2569E+02  0.1511E+02
     -6.026  0.2179E+02  0.1743E+02
     -5.919  0.1252E+02  0.1876E+02
     -5.813  0.3816E+02  0.2282E+02
     -5.707  0.7600E+02  0.3091E+02
     -5.600  0.1515E+03  0.4703E+02
     -5.494  0.2678E+03  0.7553E+02
     -5.387  0.2978E+03  0.1072E+03
     -5.281  0.2328E+03  0.1320E+03
     -5.175  0.2206E+03  0.1555E+03
     -5.068  0.2978E+03  0.1872E+03
     -4.962  0.3628E+03  0.2258E+03
     -4.855  0.3337E+03  0.2613E+03
     -4.749  0.3061E+03  0.2938E+03
     -4.643  0.3691E+03  0.3331E+03
     -4.536  0.4133E+03  0.3771E+03
     -4.430  0.4186E+03  0.4217E+03
     -4.323  0.5070E+03  0.4756E+03
     -4.217  0.5544E+03  0.5346E+03
     -4.110  0.3503E+03  0.5719E+03
     -4.004  0.8698E+02  0.5811E+03
     -3.898  0.6730E+01  0.5819E+03
     -3.791  0.2656E+02  0.5847E+03
     -3.685  0.2384E+02  0.5872E+03
     -3.578  0.1442E+02  0.5888E+03
     -3.472  0.2615E+02  0.5915E+03
     -3.366  0.2165E+02  0.5938E+03
     -3.259 -0.8957E+00  0.5937E+03
     -3.153  0.5327E+01  0.5943E+03
     -3.046  0.4684E+02  0.5993E+03
     -2.940  0.6189E+02  0.6059E+03
     -2.833  0.3075E+02  0.6092E+03
     -2.727  0.5293E+01  0.6097E+03
     -2.621  0.7232E+01  0.6105E+03
     -2.514  0.2576E+02  0.6132E+03
     -2.408  0.2744E+02  0.6161E+03
     -2.301  0.1249E+02  0.6175E+03
     -2.195  0.1304E+02  0.6189E+03
     -2.089  0.3035E+02  0.6221E+03
     -1.982  0.4243E+02  0.6266E+03
     -1.876  0.4501E+02  0.6314E+03
     -1.769  0.3936E+02  0.6356E+03
     -1.663  0.3485E+02  0.6393E+03
     -1.557  0.3359E+02  0.6429E+03
     -1.450  0.2096E+02  0.6451E+03
     -1.344  0.1847E+02  0.6471E+03
     -1.237  0.3748E+02  0.6511E+03
     -1.131  0.3431E+02  0.6547E+03
     -1.024  0.2851E+02  0.6577E+03
     -0.918  0.5675E+02  0.6638E+03
     -0.812  0.5863E+02  0.6700E+03
     -0.705  0.2142E+02  0.6723E+03
     -0.599 -0.1063E+01  0.6722E+03
     -0.492 -0.1992E+01  0.6720E+03
     -0.386  0.2033E-01  0.6720E+03
     -0.280  0.2036E+00  0.6720E+03
     -0.173  0.4723E-01  0.6720E+03
     -0.067  0.4580E-02  0.6720E+03
      0.040  0.2199E-03  0.6720E+03
      0.146  0.5513E-05  0.6720E+03
      0.253  0.7402E-07  0.6720E+03
      0.359  0.5398E-09  0.6720E+03
      0.465  0.2158E-11  0.6720E+03
      0.572  0.4173E-14  0.6720E+03
      0.678  0.0000E+00  0.6720E+03
      0.785  0.0000E+00  0.6720E+03
      0.891  0.0000E+00  0.6720E+03
      0.997  0.0000E+00  0.6720E+03
      1.104  0.0000E+00  0.6720E+03
      1.210  0.0000E+00  0.6720E+03
