 running on    1 total cores
 distrk:  each k-point on    1 cores,    1 groups
 distr:  one band on    1 cores,    1 groups
 using from now: INCAR     
 vasp.5.4.4.18Apr17-6-g9f103f2a35 (build Sep 03 2018 23:53:05) complex          
  
 POSCAR found type information on POSCAR  Pd C  O 
 POSCAR found :  3 types and      57 ions
 scaLAPACK will be used

 ----------------------------------------------------------------------------- 
|                                                                             |
|  ADVICE TO THIS USER RUNNING 'VASP/VAMP'   (HEAR YOUR MASTER'S VOICE ...):  |
|                                                                             |
|      You enforced a specific xc-type in the INCAR file,                     |
|      a different type was found on the POTCAR file                          |
|          I HOPE YOU KNOW, WHAT YOU ARE  DOING                               |
|                                                                             |
 ----------------------------------------------------------------------------- 

 LDA part: xc-table for Pade appr. of Perdew
 POSCAR, INCAR and KPOINTS ok, starting setup
 FFT: planning ...
 WAVECAR not read
 entering main loop
       N       E                     dE             d eps       ncg     rms          rms(c)
DAV:   1     0.438369331178E+04    0.43837E+04   -0.10053E+05   688   0.815E+02
DAV:   2     0.200948858690E+04   -0.23742E+04   -0.21346E+04  1224   0.105E+02
DAV:   3     0.237161003988E+03   -0.17723E+04   -0.16660E+04   984   0.916E+01
DAV:   4    -0.135141571491E+03   -0.37230E+03   -0.31755E+03   832   0.435E+01
DAV:   5    -0.179738582535E+03   -0.44597E+02   -0.37262E+02  1040   0.145E+01    0.146E+01
RMM:   6    -0.179857206163E+03   -0.11862E+00   -0.54125E+01   724   0.883E+00    0.229E+01
RMM:   7    -0.180977483434E+03   -0.11203E+01   -0.18891E+01   846   0.448E+00    0.199E+01
RMM:   8    -0.184526499840E+03   -0.35490E+01   -0.72293E+00   772   0.358E+00    0.272E+01
RMM:   9    -0.182587398955E+03    0.19391E+01   -0.49007E+00   735   0.311E+00    0.273E+01
RMM:  10    -0.180158148592E+03    0.24293E+01   -0.25685E+00   743   0.233E+00    0.221E+01
RMM:  11    -0.178394182673E+03    0.17640E+01   -0.16185E+00   736   0.188E+00    0.179E+01
RMM:  12    -0.177248703852E+03    0.11455E+01   -0.11876E+00   729   0.163E+00    0.149E+01
RMM:  13    -0.176802327697E+03    0.44638E+00   -0.11545E+00   721   0.159E+00    0.130E+01
RMM:  14    -0.176977856709E+03   -0.17553E+00   -0.95295E-01   721   0.145E+00    0.179E+01
RMM:  15    -0.176521598132E+03    0.45626E+00   -0.12650E+00   711   0.167E+00    0.161E+01
RMM:  16    -0.175713168739E+03    0.80843E+00   -0.92349E-01   701   0.143E+00    0.108E+01
RMM:  17    -0.175535694973E+03    0.17747E+00   -0.53603E-01   701   0.108E+00    0.934E+00
RMM:  18    -0.175650219491E+03   -0.11452E+00   -0.43606E-01   701   0.998E-01    0.114E+01
RMM:  19    -0.175469210577E+03    0.18101E+00   -0.35417E-01   700   0.918E-01    0.107E+01
RMM:  20    -0.175294755926E+03    0.17445E+00   -0.28717E-01   697   0.831E-01    0.863E+00
RMM:  21    -0.175118424913E+03    0.17633E+00   -0.21276E-01   697   0.718E-01    0.616E+00
RMM:  22    -0.175088809955E+03    0.29615E-01   -0.21669E-01   706   0.727E-01    0.655E+00
RMM:  23    -0.175068817197E+03    0.19993E-01   -0.17511E-01   698   0.645E-01    0.612E+00
RMM:  24    -0.174944650134E+03    0.12417E+00   -0.98867E-02   697   0.493E-01    0.431E+00
RMM:  25    -0.174878506727E+03    0.66143E-01   -0.61847E-02   699   0.396E-01    0.329E+00
RMM:  26    -0.174850382768E+03    0.28124E-01   -0.47791E-02   695   0.341E-01    0.236E+00
RMM:  27    -0.174842444588E+03    0.79382E-02   -0.34451E-02   694   0.294E-01    0.221E+00
RMM:  28    -0.174827017007E+03    0.15428E-01   -0.19133E-02   696   0.233E-01    0.171E+00
RMM:  29    -0.174814701652E+03    0.12315E-01   -0.12428E-02   694   0.178E-01    0.134E+00
RMM:  30    -0.174805231850E+03    0.94698E-02   -0.67523E-03   698   0.136E-01    0.781E-01
RMM:  31    -0.174805121420E+03    0.11043E-03   -0.52957E-03   697   0.113E-01    0.831E-01
RMM:  32    -0.174802166377E+03    0.29550E-02   -0.41693E-03   695   0.103E-01    0.677E-01
RMM:  33    -0.174800640877E+03    0.15255E-02   -0.22373E-03   695   0.803E-02    0.429E-01
RMM:  34    -0.174802378137E+03   -0.17373E-02   -0.19196E-03   692   0.701E-02    0.559E-01
RMM:  35    -0.174803710143E+03   -0.13320E-02   -0.15964E-03   689   0.650E-02    0.312E-01
RMM:  36    -0.174804762699E+03   -0.10526E-02   -0.75656E-04   689   0.450E-02    0.261E-01
RMM:  37    -0.174808275345E+03   -0.35126E-02   -0.85957E-04   680   0.430E-02    0.420E-01
RMM:  38    -0.174810610906E+03   -0.23356E-02   -0.65302E-04   630   0.396E-02    0.204E-01
RMM:  39    -0.174812357227E+03   -0.17463E-02   -0.35915E-04   463   0.301E-02    0.197E-01
RMM:  40    -0.174816587194E+03   -0.42300E-02   -0.72008E-04   611   0.354E-02    0.201E-01
RMM:  41    -0.174817902295E+03   -0.13151E-02   -0.27655E-04   441   0.237E-02    0.106E-01
RMM:  42    -0.174819676368E+03   -0.17741E-02   -0.24883E-04   431   0.209E-02    0.143E-01
RMM:  43    -0.174822046091E+03   -0.23697E-02   -0.35956E-04   478   0.234E-02    0.933E-02
RMM:  44    -0.174822982191E+03   -0.93610E-03   -0.13599E-04   417   0.157E-02    0.863E-02
RMM:  45    -0.174824888028E+03   -0.19058E-02   -0.16953E-04   415   0.157E-02    0.774E-02
RMM:  46    -0.174825462655E+03   -0.57463E-03   -0.80690E-05   414   0.111E-02    0.551E-02
RMM:  47    -0.174826519940E+03   -0.10573E-02   -0.68205E-05   409   0.991E-03    0.584E-02
RMM:  48    -0.174827214392E+03   -0.69445E-03   -0.48140E-05   410   0.830E-03    0.327E-02
RMM:  49    -0.174827655016E+03   -0.44062E-03   -0.25628E-05   374   0.621E-03    0.340E-02
RMM:  50    -0.174828425016E+03   -0.77000E-03   -0.23791E-05   359   0.582E-03    0.280E-02
RMM:  51    -0.174828655244E+03   -0.23023E-03   -0.98353E-06   251   0.455E-03    0.207E-02
RMM:  52    -0.174829062849E+03   -0.40761E-03   -0.64472E-06   191   0.429E-03    0.210E-02
RMM:  53    -0.174829360867E+03   -0.29802E-03   -0.10562E-05   237   0.443E-03    0.131E-02
RMM:  54    -0.174829802308E+03   -0.44144E-03   -0.17499E-05   278   0.489E-03    0.154E-02
RMM:  55    -0.174830001639E+03   -0.19933E-03   -0.79132E-06   176   0.397E-03    0.986E-03
RMM:  56    -0.174830121360E+03   -0.11972E-03   -0.75030E-06   175   0.388E-03    0.109E-02
RMM:  57    -0.174830312577E+03   -0.19122E-03   -0.93477E-06   180   0.404E-03    0.534E-03
RMM:  58    -0.174830386084E+03   -0.73507E-04   -0.44581E-06   133   0.367E-03
   1 F= -.17483039E+03 E0= -.17480682E+03  d E =-.942591E-01
================================= SLURM INFO ===================================
Command: run-cluster -n 1 -m 10000 -j 0477_vasp --same-node /opt/VASP/vasp
Exit code: 0
Job name: 0477_vasp
Job time: 0 days 4h:54m:54s
MPI task count: 1
Working dir: /home/pashkov/pyFitIt/pyfitit/data/random_pd_co_new/sample/0477
Job was running on nodes: h3
Task per node: 1
       JobID     MaxRSS  MaxDiskRead MaxDiskWrite    Elapsed    JobName 
------------ ---------- ------------ ------------ ---------- ---------- 
106066                                              04:54:54  0477_vasp 
106066.batch                                        04:54:54      batch 
