  57  57   0   0
  0.4736842E+03  0.3000000E-08  0.3000000E-08  0.3000000E-08  0.5000000E-15
  1.000000000000000E-004
  CAR 
 6_Pd100_top_free_z(O)                   
      1.44609660    -31.10800163  301     -4.13865006      1.00000000
    -31.108  0.0000E+00  0.0000E+00
    -30.999  0.0000E+00  0.0000E+00
    -30.891  0.0000E+00  0.0000E+00
    -30.782  0.5238E-27  0.5684E-28
    -30.674  0.2794E-23  0.3033E-24
    -30.565  0.8140E-20  0.8836E-21
    -30.457  0.1291E-16  0.1402E-17
    -30.348  0.1110E-13  0.1206E-14
    -30.240  0.5162E-11  0.5613E-12
    -30.131  0.1283E-08  0.1398E-09
    -30.023  0.1691E-06  0.1849E-07
    -29.914  0.1160E-04  0.1277E-05
    -29.806  0.4017E-03  0.4487E-04
    -29.697  0.6601E-02  0.7611E-03
    -29.589  0.4323E-01  0.5452E-02
    -29.480  0.2258E-01  0.7902E-02
    -29.372 -0.5600E+00 -0.5287E-01
    -29.263 -0.2043E+00 -0.7504E-01
    -29.155  0.5537E+01  0.5258E+00
    -29.046  0.9966E+01  0.1607E+01
    -28.938  0.4488E+01  0.2094E+01
    -28.829 -0.5092E+00  0.2039E+01
    -28.721 -0.4461E+00  0.1991E+01
    -28.612  0.4573E-01  0.1996E+01
    -28.504  0.3576E-01  0.1999E+01
    -28.395  0.4705E-02  0.2000E+01
    -28.287  0.2567E-03  0.2000E+01
    -28.178  0.6725E-05  0.2000E+01
    -28.070  0.8946E-07  0.2000E+01
    -27.961  0.6215E-09  0.2000E+01
    -27.853  0.2292E-11  0.2000E+01
    -27.744  0.4092E-14  0.2000E+01
    -27.636  0.0000E+00  0.2000E+01
    -27.527  0.0000E+00  0.2000E+01
    -27.419  0.0000E+00  0.2000E+01
    -27.310  0.0000E+00  0.2000E+01
    -27.202  0.0000E+00  0.2000E+01
    -27.093  0.0000E+00  0.2000E+01
    -26.984  0.0000E+00  0.2000E+01
    -26.876  0.0000E+00  0.2000E+01
    -26.767  0.0000E+00  0.2000E+01
    -26.659  0.0000E+00  0.2000E+01
    -26.550  0.0000E+00  0.2000E+01
    -26.442  0.0000E+00  0.2000E+01
    -26.333  0.0000E+00  0.2000E+01
    -26.225  0.0000E+00  0.2000E+01
    -26.116  0.0000E+00  0.2000E+01
    -26.008  0.0000E+00  0.2000E+01
    -25.899  0.0000E+00  0.2000E+01
    -25.791  0.0000E+00  0.2000E+01
    -25.682  0.0000E+00  0.2000E+01
    -25.574  0.0000E+00  0.2000E+01
    -25.465  0.0000E+00  0.2000E+01
    -25.357  0.0000E+00  0.2000E+01
    -25.248  0.0000E+00  0.2000E+01
    -25.140  0.0000E+00  0.2000E+01
    -25.031  0.0000E+00  0.2000E+01
    -24.923  0.0000E+00  0.2000E+01
    -24.814  0.0000E+00  0.2000E+01
    -24.706  0.0000E+00  0.2000E+01
    -24.597  0.0000E+00  0.2000E+01
    -24.489  0.0000E+00  0.2000E+01
    -24.380  0.0000E+00  0.2000E+01
    -24.272  0.0000E+00  0.2000E+01
    -24.163  0.0000E+00  0.2000E+01
    -24.055  0.0000E+00  0.2000E+01
    -23.946  0.0000E+00  0.2000E+01
    -23.838  0.0000E+00  0.2000E+01
    -23.729  0.0000E+00  0.2000E+01
    -23.621  0.0000E+00  0.2000E+01
    -23.512  0.0000E+00  0.2000E+01
    -23.404  0.0000E+00  0.2000E+01
    -23.295  0.0000E+00  0.2000E+01
    -23.187  0.0000E+00  0.2000E+01
    -23.078  0.0000E+00  0.2000E+01
    -22.969  0.0000E+00  0.2000E+01
    -22.861  0.0000E+00  0.2000E+01
    -22.752  0.0000E+00  0.2000E+01
    -22.644  0.0000E+00  0.2000E+01
    -22.535  0.0000E+00  0.2000E+01
    -22.427  0.0000E+00  0.2000E+01
    -22.318  0.0000E+00  0.2000E+01
    -22.210  0.0000E+00  0.2000E+01
    -22.101  0.0000E+00  0.2000E+01
    -21.993  0.0000E+00  0.2000E+01
    -21.884  0.0000E+00  0.2000E+01
    -21.776  0.0000E+00  0.2000E+01
    -21.667  0.0000E+00  0.2000E+01
    -21.559  0.0000E+00  0.2000E+01
    -21.450  0.0000E+00  0.2000E+01
    -21.342  0.0000E+00  0.2000E+01
    -21.233  0.0000E+00  0.2000E+01
    -21.125  0.0000E+00  0.2000E+01
    -21.016  0.0000E+00  0.2000E+01
    -20.908  0.0000E+00  0.2000E+01
    -20.799  0.0000E+00  0.2000E+01
    -20.691  0.0000E+00  0.2000E+01
    -20.582  0.0000E+00  0.2000E+01
    -20.474  0.0000E+00  0.2000E+01
    -20.365  0.0000E+00  0.2000E+01
    -20.257  0.0000E+00  0.2000E+01
    -20.148  0.0000E+00  0.2000E+01
    -20.040  0.0000E+00  0.2000E+01
    -19.931  0.0000E+00  0.2000E+01
    -19.823  0.0000E+00  0.2000E+01
    -19.714  0.0000E+00  0.2000E+01
    -19.606  0.0000E+00  0.2000E+01
    -19.497  0.0000E+00  0.2000E+01
    -19.389  0.0000E+00  0.2000E+01
    -19.280  0.0000E+00  0.2000E+01
    -19.171  0.0000E+00  0.2000E+01
    -19.063  0.0000E+00  0.2000E+01
    -18.954  0.0000E+00  0.2000E+01
    -18.846  0.0000E+00  0.2000E+01
    -18.737  0.0000E+00  0.2000E+01
    -18.629  0.0000E+00  0.2000E+01
    -18.520  0.0000E+00  0.2000E+01
    -18.412  0.0000E+00  0.2000E+01
    -18.303  0.0000E+00  0.2000E+01
    -18.195  0.0000E+00  0.2000E+01
    -18.086  0.0000E+00  0.2000E+01
    -17.978  0.0000E+00  0.2000E+01
    -17.869  0.0000E+00  0.2000E+01
    -17.761  0.0000E+00  0.2000E+01
    -17.652  0.0000E+00  0.2000E+01
    -17.544  0.0000E+00  0.2000E+01
    -17.435  0.0000E+00  0.2000E+01
    -17.327  0.0000E+00  0.2000E+01
    -17.218  0.0000E+00  0.2000E+01
    -17.110  0.0000E+00  0.2000E+01
    -17.001  0.0000E+00  0.2000E+01
    -16.893  0.0000E+00  0.2000E+01
    -16.784  0.0000E+00  0.2000E+01
    -16.676  0.0000E+00  0.2000E+01
    -16.567  0.0000E+00  0.2000E+01
    -16.459  0.0000E+00  0.2000E+01
    -16.350  0.0000E+00  0.2000E+01
    -16.242  0.0000E+00  0.2000E+01
    -16.133  0.0000E+00  0.2000E+01
    -16.025  0.0000E+00  0.2000E+01
    -15.916  0.0000E+00  0.2000E+01
    -15.808  0.0000E+00  0.2000E+01
    -15.699  0.0000E+00  0.2000E+01
    -15.591  0.0000E+00  0.2000E+01
    -15.482  0.0000E+00  0.2000E+01
    -15.374  0.0000E+00  0.2000E+01
    -15.265  0.2004E-24  0.2000E+01
    -15.156  0.7062E-21  0.2000E+01
    -15.048  0.1357E-17  0.2000E+01
    -14.939  0.1415E-14  0.2000E+01
    -14.831  0.7988E-12  0.2000E+01
    -14.722  0.2421E-09  0.2000E+01
    -14.614  0.3901E-07  0.2000E+01
    -14.505  0.3294E-05  0.2000E+01
    -14.397  0.1421E-03  0.2000E+01
    -14.288  0.2984E-02  0.2000E+01
    -14.180  0.2704E-01  0.2003E+01
    -14.071  0.6071E-01  0.2010E+01
    -13.963 -0.3063E+00  0.1977E+01
    -13.854 -0.7352E+00  0.1897E+01
    -13.746  0.3200E+01  0.2244E+01
    -13.637  0.9619E+01  0.3288E+01
    -13.529  0.6850E+01  0.4031E+01
    -13.420  0.3695E+00  0.4071E+01
    -13.312 -0.6940E+00  0.3996E+01
    -13.203 -0.2557E-01  0.3993E+01
    -13.095  0.5270E-01  0.3999E+01
    -12.986  0.9917E-02  0.4000E+01
    -12.878  0.6967E-03  0.4000E+01
    -12.769  0.2280E-04  0.4000E+01
    -12.661  0.3740E-06  0.4000E+01
    -12.552  0.3203E-08  0.4000E+01
    -12.444  0.5168E-08  0.4000E+01
    -12.335  0.6159E-06  0.4000E+01
    -12.227  0.3830E-04  0.4000E+01
    -12.118  0.1199E-02  0.4000E+01
    -12.010  0.1762E-01  0.4002E+01
    -11.901  0.9893E-01  0.4013E+01
    -11.793 -0.1915E-01  0.4011E+01
    -11.684 -0.1296E+01  0.3870E+01
    -11.576  0.3555E+00  0.3909E+01
    -11.467  0.1281E+02  0.5298E+01
    -11.359  0.1947E+02  0.7411E+01
    -11.250  0.7275E+01  0.8200E+01
    -11.141 -0.1315E+01  0.8057E+01
    -11.033 -0.7078E+00  0.7981E+01
    -10.924  0.1111E+00  0.7993E+01
    -10.816  0.6001E-01  0.7999E+01
    -10.707  0.7141E-02  0.8000E+01
    -10.599  0.3627E-03  0.8000E+01
    -10.490  0.3607E-04  0.8000E+01
    -10.382  0.8025E-03  0.8000E+01
    -10.273  0.1099E-01  0.8001E+01
    -10.165  0.5501E-01  0.8007E+01
    -10.056 -0.4224E-01  0.8003E+01
     -9.948 -0.7241E+00  0.7924E+01
     -9.839  0.5570E+00  0.7985E+01
     -9.731  0.7180E+01  0.8764E+01
     -9.622  0.9466E+01  0.9791E+01
     -9.514  0.2879E+01  0.1010E+02
     -9.405 -0.7684E+00  0.1002E+02
     -9.297 -0.2721E+00  0.9990E+01
     -9.188  0.6251E-01  0.9997E+01
     -9.080  0.2496E-01  0.1000E+02
     -8.971  0.2635E-02  0.1000E+02
     -8.863  0.1212E-03  0.1000E+02
     -8.754  0.2720E-05  0.1000E+02
     -8.646  0.3124E-07  0.1000E+02
     -8.537  0.1882E-09  0.1000E+02
     -8.429  0.6016E-12  0.1000E+02
     -8.320  0.2046E-14  0.1000E+02
     -8.212  0.1393E-23  0.1000E+02
     -8.103  0.4269E-20  0.1000E+02
     -7.995  0.7124E-17  0.1000E+02
     -7.886  0.6451E-14  0.1000E+02
     -7.778  0.3159E-11  0.1000E+02
     -7.669  0.8280E-09  0.1000E+02
     -7.561  0.1151E-06  0.1000E+02
     -7.452  0.8347E-05  0.1000E+02
     -7.344  0.3067E-03  0.1000E+02
     -7.235  0.5387E-02  0.1000E+02
     -7.126  0.3866E-01  0.1000E+02
     -7.018  0.3798E-01  0.1001E+02
     -6.909 -0.4910E+00  0.9956E+01
     -6.801 -0.4018E+00  0.9912E+01
     -6.692  0.4926E+01  0.1045E+02
     -6.584  0.1014E+02  0.1155E+02
     -6.475  0.5105E+01  0.1210E+02
     -6.367 -0.2253E+01  0.1186E+02
     -6.258  0.1741E+00  0.1188E+02
     -6.150  0.1953E+02  0.1399E+02
     -6.041  0.2766E+02  0.1700E+02
     -5.933  0.9944E+01  0.1807E+02
     -5.824  0.1616E+02  0.1983E+02
     -5.716  0.5402E+02  0.2569E+02
     -5.607  0.1270E+03  0.3947E+02
     -5.499  0.2512E+03  0.6673E+02
     -5.390  0.3080E+03  0.1001E+03
     -5.282  0.2414E+03  0.1263E+03
     -5.173  0.2109E+03  0.1492E+03
     -5.065  0.2877E+03  0.1805E+03
     -4.956  0.3627E+03  0.2198E+03
     -4.848  0.3364E+03  0.2563E+03
     -4.739  0.3054E+03  0.2895E+03
     -4.631  0.3738E+03  0.3300E+03
     -4.522  0.4196E+03  0.3756E+03
     -4.414  0.4189E+03  0.4210E+03
     -4.305  0.5072E+03  0.4761E+03
     -4.197  0.5533E+03  0.5361E+03
     -4.088  0.3394E+03  0.5729E+03
     -3.980  0.7691E+02  0.5813E+03
     -3.871  0.7695E+01  0.5821E+03
     -3.763  0.2950E+02  0.5853E+03
     -3.654  0.2126E+02  0.5876E+03
     -3.546  0.1405E+02  0.5891E+03
     -3.437  0.2781E+02  0.5922E+03
     -3.329  0.1728E+02  0.5940E+03
     -3.220 -0.3844E+01  0.5936E+03
     -3.111  0.1223E+02  0.5949E+03
     -3.003  0.5576E+02  0.6010E+03
     -2.894  0.5908E+02  0.6074E+03
     -2.786  0.2220E+02  0.6098E+03
     -2.677  0.8524E+00  0.6099E+03
     -2.569  0.1274E+02  0.6113E+03
     -2.460  0.3020E+02  0.6146E+03
     -2.352  0.2100E+02  0.6168E+03
     -2.243  0.9506E+01  0.6179E+03
     -2.135  0.2048E+02  0.6201E+03
     -2.026  0.3814E+02  0.6242E+03
     -1.918  0.4639E+02  0.6293E+03
     -1.809  0.4385E+02  0.6340E+03
     -1.701  0.3333E+02  0.6376E+03
     -1.592  0.3609E+02  0.6416E+03
     -1.484  0.3868E+02  0.6458E+03
     -1.375  0.2666E+02  0.6487E+03
     -1.267  0.2517E+02  0.6514E+03
     -1.158  0.2673E+02  0.6543E+03
     -1.050  0.2072E+02  0.6565E+03
     -0.941  0.4092E+02  0.6610E+03
     -0.833  0.5295E+02  0.6667E+03
     -0.724  0.2701E+02  0.6697E+03
     -0.616  0.8537E+01  0.6706E+03
     -0.507  0.8479E+01  0.6715E+03
     -0.399  0.5078E+01  0.6720E+03
     -0.290 -0.5654E-01  0.6720E+03
     -0.182 -0.4862E+00  0.6720E+03
     -0.073  0.3299E-01  0.6720E+03
      0.035  0.4387E-01  0.6720E+03
      0.144  0.6620E-02  0.6720E+03
      0.252  0.4020E-03  0.6720E+03
      0.361  0.1160E-04  0.6720E+03
      0.469  0.1691E-06  0.6720E+03
      0.578  0.1283E-08  0.6720E+03
      0.687  0.5163E-11  0.6720E+03
      0.795  0.1023E-13  0.6720E+03
      0.904  0.0000E+00  0.6720E+03
      1.012  0.0000E+00  0.6720E+03
      1.121  0.0000E+00  0.6720E+03
      1.229  0.0000E+00  0.6720E+03
      1.338  0.0000E+00  0.6720E+03
      1.446  0.0000E+00  0.6720E+03
