   57   57    1    1
  0.4736842E+03  0.3000000E-08  0.3000000E-08  0.3000000E-08  0.5000000E-15
  1.000000000000000E-004
  CAR 
 6_Pd100_top_free_z(O)                   
    560      1    336
 
  0.0000000E+00  0.0000000E+00  0.0000000E+00  0.1000000E+01
    1      -29.139551   1.000000
    2      -13.674683   1.000000
    3      -11.445945   1.000000
    4      -11.443400   1.000000
    5       -9.544431   1.000000
    6       -6.623876   1.000000
    7       -6.107456   1.000000
    8       -6.107043   1.000000
    9       -6.099103   1.000000
   10       -5.793594   1.000000
   11       -5.793191   1.000000
   12       -5.790677   1.000000
   13       -5.723996   1.000000
   14       -5.672162   1.000000
   15       -5.663644   1.000000
   16       -5.663604   1.000000
   17       -5.663262   1.000000
   18       -5.603102   1.000000
   19       -5.601232   1.000000
   20       -5.586013   1.000000
   21       -5.575779   1.000000
   22       -5.575662   1.000000
   23       -5.574269   1.000000
   24       -5.536140   1.000000
   25       -5.533595   1.000000
   26       -5.531977   1.000000
   27       -5.527381   1.000000
   28       -5.501004   1.000000
   29       -5.500246   1.000000
   30       -5.500122   1.000000
   31       -5.495657   1.000000
   32       -5.493990   1.000000
   33       -5.493598   1.000000
   34       -5.493128   1.000000
   35       -5.490519   1.000000
   36       -5.457759   1.000000
   37       -5.456592   1.000000
   38       -5.452899   1.000000
   39       -5.451162   1.000000
   40       -5.447360   1.000000
   41       -5.445918   1.000000
   42       -5.445701   1.000000
   43       -5.445409   1.000000
   44       -5.417618   1.000000
   45       -5.415593   1.000000
   46       -5.408646   1.000000
   47       -5.407345   1.000000
   48       -5.406985   1.000000
   49       -5.405370   1.000000
   50       -5.403910   1.000000
   51       -5.402007   1.000000
   52       -5.388590   1.000000
   53       -5.385092   1.000000
   54       -5.384904   1.000000
   55       -5.370740   1.000000
   56       -5.312634   1.000000
   57       -5.310636   1.000000
   58       -5.309186   1.000000
   59       -5.306685   1.000000
   60       -5.294842   1.000000
   61       -5.294560   1.000000
   62       -5.294275   1.000000
   63       -5.282906   1.000000
   64       -5.281535   1.000000
   65       -5.279963   1.000000
   66       -5.272343   1.000000
   67       -5.267960   1.000000
   68       -5.200144   1.000000
   69       -5.197065   1.000000
   70       -5.190638   1.000000
   71       -5.187800   1.000000
   72       -5.159167   1.000000
   73       -5.158213   1.000000
   74       -5.157520   1.000000
   75       -5.155503   1.000000
   76       -5.153235   1.000000
   77       -5.144673   1.000000
   78       -5.143230   1.000000
   79       -5.141581   1.000000
   80       -5.125591   1.000000
   81       -5.109142   1.000000
   82       -5.102505   1.000000
   83       -5.101802   1.000000
   84       -5.095330   1.000000
   85       -5.083675   1.000000
   86       -5.082679   1.000000
   87       -5.080555   1.000000
   88       -5.047344   1.000000
   89       -5.042573   1.000000
   90       -5.036666   1.000000
   91       -5.036137   1.000000
   92       -5.033948   1.000000
   93       -5.033350   1.000000
   94       -5.026249   1.000000
   95       -5.026117   1.000000
   96       -5.026090   1.000000
   97       -5.023829   1.000000
   98       -5.005444   1.000000
   99       -4.996426   1.000000
  100       -4.995951   1.000000
  101       -4.984783   1.000000
  102       -4.983391   1.000000
  103       -4.983320   1.000000
  104       -4.976865   1.000000
  105       -4.975704   1.000000
  106       -4.968848   1.000000
  107       -4.960289   1.000000
  108       -4.957977   1.000000
  109       -4.957739   1.000000
  110       -4.956277   1.000000
  111       -4.949495   1.000000
  112       -4.946462   1.000000
  113       -4.943990   1.000000
  114       -4.935182   0.999999
  115       -4.931673   0.999999
  116       -4.930966   0.999999
  117       -4.921831   0.999999
  118       -4.898185   0.999998
  119       -4.895554   0.999998
  120       -4.894991   0.999998
  121       -4.894498   0.999998
  122       -4.892030   0.999997
  123       -4.886764   0.999997
  124       -4.883656   0.999997
  125       -4.879894   0.999996
  126       -4.879595   0.999996
  127       -4.837500   0.999985
  128       -4.834746   0.999984
  129       -4.827346   0.999980
  130       -4.823779   0.999978
  131       -4.821102   0.999976
  132       -4.818883   0.999974
  133       -4.809522   0.999966
  134       -4.809281   0.999966
  135       -4.808074   0.999965
  136       -4.792121   0.999945
  137       -4.778386   0.999920
  138       -4.772879   0.999908
  139       -4.769633   0.999900
  140       -4.766722   0.999892
  141       -4.756094   0.999858
  142       -4.738598   0.999781
  143       -4.715478   0.999624
  144       -4.715360   0.999623
  145       -4.714605   0.999617
  146       -4.714400   0.999615
  147       -4.708492   0.999561
  148       -4.689882   0.999348
  149       -4.686923   0.999307
  150       -4.681900   0.999233
  151       -4.671721   0.999064
  152       -4.660372   0.998842
  153       -4.658258   0.998796
  154       -4.654293   0.998708
  155       -4.653467   0.998688
  156       -4.651353   0.998639
  157       -4.650312   0.998614
  158       -4.650236   0.998612
  159       -4.644181   0.998460
  160       -4.632454   0.998134
  161       -4.629290   0.998039
  162       -4.628309   0.998009
  163       -4.627714   0.997991
  164       -4.626550   0.997955
  165       -4.623191   0.997849
  166       -4.623097   0.997845
  167       -4.620781   0.997770
  168       -4.617734   0.997669
  169       -4.607615   0.997318
  170       -4.605732   0.997250
  171       -4.597503   0.996948
  172       -4.588266   0.996602
  173       -4.582217   0.996375
  174       -4.575041   0.996110
  175       -4.574848   0.996103
  176       -4.571155   0.995972
  177       -4.570900   0.995963
  178       -4.564824   0.995756
  179       -4.563449   0.995711
  180       -4.563164   0.995702
  181       -4.550972   0.995353
  182       -4.534749   0.995084
  183       -4.530739   0.995066
  184       -4.530239   0.995065
  185       -4.529587   0.995065
  186       -4.528906   0.995065
  187       -4.528703   0.995066
  188       -4.528587   0.995066
  189       -4.526523   0.995072
  190       -4.526085   0.995075
  191       -4.488147   0.996865
  192       -4.484583   0.997240
  193       -4.484019   0.997303
  194       -4.481766   0.997567
  195       -4.480980   0.997664
  196       -4.468597   0.999488
  197       -4.458793   1.001371
  198       -4.458442   1.001446
  199       -4.454693   1.002281
  200       -4.446439   1.004341
  201       -4.445413   1.004619
  202       -4.438552   1.006599
  203       -4.434663   1.007818
  204       -4.434027   1.008023
  205       -4.427010   1.010414
  206       -4.425475   1.010965
  207       -4.424980   1.011145
  208       -4.424185   1.011437
  209       -4.423970   1.011516
  210       -4.416937   1.014216
  211       -4.405237   1.019129
  212       -4.389923   1.026169
  213       -4.386678   1.027717
  214       -4.386018   1.028034
  215       -4.385176   1.028438
  216       -4.380540   1.030669
  217       -4.378539   1.031632
  218       -4.378093   1.031847
  219       -4.376510   1.032608
  220       -4.356690   1.041711
  221       -4.353735   1.042942
  222       -4.341994   1.047259
  223       -4.324807   1.051168
  224       -4.321951   1.051446
  225       -4.317211   1.051625
  226       -4.315840   1.051607
  227       -4.314857   1.051573
  228       -4.313994   1.051530
  229       -4.313603   1.051506
  230       -4.310519   1.051215
  231       -4.306537   1.050566
  232       -4.306134   1.050483
  233       -4.302291   1.049511
  234       -4.300464   1.048935
  235       -4.298934   1.048394
  236       -4.298184   1.048109
  237       -4.297919   1.048005
  238       -4.296837   1.047563
  239       -4.294088   1.046314
  240       -4.293987   1.046264
  241       -4.281675   1.038213
  242       -4.277298   1.034320
  243       -4.270009   1.026532
  244       -4.269312   1.025698
  245       -4.263087   1.017540
  246       -4.261091   1.014647
  247       -4.260742   1.014127
  248       -4.260144   1.013225
  249       -4.255219   1.005326
  250       -4.253233   1.001895
  251       -4.240382   0.976174
  252       -4.233628   0.960148
  253       -4.233489   0.959799
  254       -4.232726   0.957873
  255       -4.226594   0.941583
  256       -4.226240   0.940598
  257       -4.226106   0.940224
  258       -4.222901   0.931068
  259       -4.220342   0.923472
  260       -4.220288   0.923310
  261       -4.214649   0.905669
  262       -4.213583   0.902197
  263       -4.213227   0.901030
  264       -4.212928   0.900046
  265       -4.210205   0.890913
  266       -4.198230   0.847501
  267       -4.196671   0.841470
  268       -4.194972   0.834798
  269       -4.194709   0.833761
  270       -4.191858   0.822319
  271       -4.191101   0.819234
  272       -4.187726   0.805261
  273       -4.170050   0.726401
  274       -4.168679   0.719924
  275       -4.167054   0.712191
  276       -4.158994   0.672950
  277       -4.158527   0.670633
  278       -4.153287   0.644376
  279       -4.145915   0.606693
  280       -4.145572   0.604920
  281       -4.145047   0.602205
  282       -4.131396   0.530734
  283       -4.107496   0.404949
  284       -4.106299   0.398746
  285       -4.105758   0.395944
  286       -4.101801   0.375592
  287       -4.091428   0.323387
  288       -4.087081   0.302113
  289       -4.064767   0.200354
  290       -3.945858  -0.050300
  291       -3.876060  -0.033283
  292       -3.797287  -0.002472
  293       -3.795958  -0.002164
  294       -3.793698  -0.001658
  295       -3.470615   0.000075
  296       -3.469163   0.000072
  297       -3.407608   0.000012
  298       -3.034653   0.000000
  299       -3.033973   0.000000
  300       -2.999372   0.000000
  301       -2.992827   0.000000
  302       -2.991280   0.000000
  303       -2.989571   0.000000
  304       -2.907956   0.000000
  305       -2.849720   0.000000
  306       -2.544292   0.000000
  307       -2.532821   0.000000
  308       -2.496269   0.000000
  309       -2.255611   0.000000
  310       -2.103370   0.000000
  311       -2.100185   0.000000
  312       -2.095854   0.000000
  313       -1.939374   0.000000
  314       -1.931937   0.000000
  315       -1.892801   0.000000
  316       -1.849173   0.000000
  317       -1.827013   0.000000
  318       -1.759189   0.000000
  319       -1.752125   0.000000
  320       -1.698478   0.000000
  321       -1.621330   0.000000
  322       -1.529901   0.000000
  323       -1.509428   0.000000
  324       -1.473610   0.000000
  325       -1.463853   0.000000
  326       -1.139271   0.000000
  327       -1.133036   0.000000
  328       -1.031215   0.000000
  329       -0.967455   0.000000
  330       -0.961597   0.000000
  331       -0.943367   0.000000
  332       -0.918821   0.000000
  333       -0.909328   0.000000
  334       -0.834254   0.000000
  335       -0.795894   0.000000
  336       -0.585517   0.000000
