   57   57    1    1
  0.4736842E+03  0.3000000E-08  0.3000000E-08  0.3000000E-08  0.5000000E-15
  1.000000000000000E-004
  CAR 
 6_Pd100_top_free_z(O)                   
    560      1    336
 
  0.0000000E+00  0.0000000E+00  0.0000000E+00  0.1000000E+01
    1      -28.294728   1.000000
    2      -13.384612   1.000000
    3      -11.266052   1.000000
    4      -10.857109   1.000000
    5      -10.375959   1.000000
    6       -6.670918   1.000000
    7       -6.386083   1.000000
    8       -6.344164   1.000000
    9       -6.171570   1.000000
   10       -6.144348   1.000000
   11       -6.139861   1.000000
   12       -5.904541   1.000000
   13       -5.830936   1.000000
   14       -5.828395   1.000000
   15       -5.768515   1.000000
   16       -5.735426   1.000000
   17       -5.709699   1.000000
   18       -5.705255   1.000000
   19       -5.700363   1.000000
   20       -5.687482   1.000000
   21       -5.655134   1.000000
   22       -5.634039   1.000000
   23       -5.630238   1.000000
   24       -5.622383   1.000000
   25       -5.613441   1.000000
   26       -5.604606   1.000000
   27       -5.577707   1.000000
   28       -5.575202   1.000000
   29       -5.564610   1.000000
   30       -5.562441   1.000000
   31       -5.561130   1.000000
   32       -5.537684   1.000000
   33       -5.534351   1.000000
   34       -5.533711   1.000000
   35       -5.531488   1.000000
   36       -5.529525   1.000000
   37       -5.524250   1.000000
   38       -5.512399   1.000000
   39       -5.495068   1.000000
   40       -5.493371   1.000000
   41       -5.489314   1.000000
   42       -5.486945   1.000000
   43       -5.485590   1.000000
   44       -5.483627   1.000000
   45       -5.473066   1.000000
   46       -5.465864   1.000000
   47       -5.450189   1.000000
   48       -5.448264   1.000000
   49       -5.443084   1.000000
   50       -5.441395   1.000000
   51       -5.436158   1.000000
   52       -5.431186   1.000000
   53       -5.427366   1.000000
   54       -5.423592   1.000000
   55       -5.421547   1.000000
   56       -5.410355   1.000000
   57       -5.403268   1.000000
   58       -5.398353   1.000000
   59       -5.364934   1.000000
   60       -5.345705   1.000000
   61       -5.343605   1.000000
   62       -5.341383   1.000000
   63       -5.333187   1.000000
   64       -5.325542   1.000000
   65       -5.320074   1.000000
   66       -5.317443   1.000000
   67       -5.312373   1.000000
   68       -5.300779   1.000000
   69       -5.299703   1.000000
   70       -5.282135   1.000000
   71       -5.258231   1.000000
   72       -5.225759   1.000000
   73       -5.222495   1.000000
   74       -5.219993   1.000000
   75       -5.215598   1.000000
   76       -5.199177   1.000000
   77       -5.194695   1.000000
   78       -5.193165   1.000000
   79       -5.188895   1.000000
   80       -5.184139   1.000000
   81       -5.178206   1.000000
   82       -5.174692   1.000000
   83       -5.171092   1.000000
   84       -5.155111   1.000000
   85       -5.143921   1.000000
   86       -5.139419   1.000000
   87       -5.131314   1.000000
   88       -5.128518   1.000000
   89       -5.120253   1.000000
   90       -5.094618   1.000000
   91       -5.093230   1.000000
   92       -5.075496   1.000000
   93       -5.073593   1.000000
   94       -5.070699   1.000000
   95       -5.068839   1.000000
   96       -5.061429   1.000000
   97       -5.056385   1.000000
   98       -5.052233   1.000000
   99       -5.049442   1.000000
  100       -5.046721   1.000000
  101       -5.039079   1.000000
  102       -5.035064   1.000000
  103       -5.033930   1.000000
  104       -5.028218   1.000000
  105       -5.025796   1.000000
  106       -5.012904   1.000000
  107       -5.008525   1.000000
  108       -5.005949   1.000000
  109       -5.004235   1.000000
  110       -4.996174   1.000000
  111       -4.989745   1.000000
  112       -4.987636   1.000000
  113       -4.984949   1.000000
  114       -4.980718   1.000000
  115       -4.978921   0.999999
  116       -4.974060   0.999999
  117       -4.971355   0.999999
  118       -4.963867   0.999999
  119       -4.960393   0.999999
  120       -4.955823   0.999999
  121       -4.946137   0.999998
  122       -4.933922   0.999998
  123       -4.932064   0.999997
  124       -4.919138   0.999996
  125       -4.918673   0.999996
  126       -4.917391   0.999996
  127       -4.913496   0.999995
  128       -4.896332   0.999992
  129       -4.889065   0.999989
  130       -4.876214   0.999984
  131       -4.861390   0.999975
  132       -4.859907   0.999974
  133       -4.858494   0.999973
  134       -4.857162   0.999972
  135       -4.850665   0.999966
  136       -4.847387   0.999963
  137       -4.846985   0.999963
  138       -4.834544   0.999947
  139       -4.816360   0.999914
  140       -4.810364   0.999899
  141       -4.808934   0.999895
  142       -4.806780   0.999889
  143       -4.795283   0.999851
  144       -4.784402   0.999805
  145       -4.781095   0.999788
  146       -4.775514   0.999758
  147       -4.772317   0.999739
  148       -4.748161   0.999548
  149       -4.740935   0.999472
  150       -4.736295   0.999417
  151       -4.732958   0.999375
  152       -4.724756   0.999261
  153       -4.708195   0.998979
  154       -4.702415   0.998863
  155       -4.701934   0.998853
  156       -4.699783   0.998807
  157       -4.694278   0.998684
  158       -4.689822   0.998577
  159       -4.684348   0.998438
  160       -4.681377   0.998358
  161       -4.674402   0.998162
  162       -4.670746   0.998053
  163       -4.667613   0.997956
  164       -4.666474   0.997921
  165       -4.663474   0.997825
  166       -4.662536   0.997794
  167       -4.662161   0.997782
  168       -4.660163   0.997716
  169       -4.656728   0.997601
  170       -4.651855   0.997432
  171       -4.641585   0.997062
  172       -4.635573   0.996838
  173       -4.624771   0.996432
  174       -4.614802   0.996065
  175       -4.613991   0.996036
  176       -4.612557   0.995985
  177       -4.611913   0.995963
  178       -4.607609   0.995815
  179       -4.595920   0.995455
  180       -4.593379   0.995388
  181       -4.591589   0.995344
  182       -4.588779   0.995279
  183       -4.587924   0.995261
  184       -4.583954   0.995185
  185       -4.571413   0.995065
  186       -4.568369   0.995069
  187       -4.566889   0.995076
  188       -4.566406   0.995079
  189       -4.565439   0.995086
  190       -4.564307   0.995097
  191       -4.538543   0.996073
  192       -4.526442   0.997147
  193       -4.524175   0.997402
  194       -4.522048   0.997657
  195       -4.521611   0.997711
  196       -4.516425   0.998411
  197       -4.511722   0.999135
  198       -4.504926   1.000337
  199       -4.501796   1.000956
  200       -4.497416   1.001893
  201       -4.485666   1.004829
  202       -4.483770   1.005361
  203       -4.482094   1.005845
  204       -4.476590   1.007526
  205       -4.475682   1.007816
  206       -4.468095   1.010389
  207       -4.465616   1.011284
  208       -4.459467   1.013618
  209       -4.457614   1.014352
  210       -4.454577   1.015583
  211       -4.450329   1.017363
  212       -4.442078   1.020991
  213       -4.438055   1.022830
  214       -4.428877   1.027151
  215       -4.426257   1.028406
  216       -4.425462   1.028788
  217       -4.424296   1.029349
  218       -4.419039   1.031880
  219       -4.415848   1.033412
  220       -4.391584   1.044204
  221       -4.388435   1.045392
  222       -4.383086   1.047234
  223       -4.380099   1.048152
  224       -4.371351   1.050299
  225       -4.363912   1.051367
  226       -4.354659   1.051508
  227       -4.354085   1.051468
  228       -4.352212   1.051295
  229       -4.349913   1.050989
  230       -4.349078   1.050853
  231       -4.348494   1.050749
  232       -4.346487   1.050338
  233       -4.344351   1.049807
  234       -4.343572   1.049588
  235       -4.338732   1.047925
  236       -4.337432   1.047384
  237       -4.336312   1.046886
  238       -4.335157   1.046340
  239       -4.333627   1.045565
  240       -4.323957   1.039234
  241       -4.319704   1.035618
  242       -4.315123   1.031117
  243       -4.307056   1.021573
  244       -4.303111   1.016121
  245       -4.301901   1.014342
  246       -4.300693   1.012514
  247       -4.300350   1.011987
  248       -4.299082   1.009998
  249       -4.294661   1.002620
  250       -4.292742   0.999196
  251       -4.281984   0.977484
  252       -4.280526   0.974205
  253       -4.273597   0.957508
  254       -4.271533   0.952176
  255       -4.269909   0.947864
  256       -4.268374   0.943695
  257       -4.265463   0.935538
  258       -4.264029   0.931398
  259       -4.262761   0.927671
  260       -4.259706   0.918436
  261       -4.258231   0.913850
  262       -4.257030   0.910054
  263       -4.255691   0.905757
  264       -4.253152   0.897419
  265       -4.250885   0.889770
  266       -4.249681   0.885631
  267       -4.248519   0.881582
  268       -4.237632   0.841256
  269       -4.235536   0.833012
  270       -4.234281   0.828003
  271       -4.231999   0.818758
  272       -4.226318   0.794996
  273       -4.222175   0.777027
  274       -4.215865   0.748691
  275       -4.200003   0.672917
  276       -4.196432   0.655111
  277       -4.192764   0.636583
  278       -4.189555   0.620200
  279       -4.188859   0.616625
  280       -4.187939   0.611890
  281       -4.183704   0.589976
  282       -4.173507   0.536519
  283       -4.148032   0.402463
  284       -4.146695   0.395540
  285       -4.143544   0.379319
  286       -4.142886   0.375950
  287       -4.131610   0.319281
  288       -4.129452   0.308707
  289       -4.104658   0.195605
  290       -3.981089  -0.051283
  291       -3.910728  -0.030231
  292       -3.829483  -0.000573
  293       -3.828831  -0.000446
  294       -3.695249   0.003073
  295       -3.518139   0.000089
  296       -3.508732   0.000070
  297       -3.450923   0.000013
  298       -3.092699   0.000000
  299       -3.073715   0.000000
  300       -3.062288   0.000000
  301       -3.048702   0.000000
  302       -3.024425   0.000000
  303       -2.977270   0.000000
  304       -2.953380   0.000000
  305       -2.756668   0.000000
  306       -2.563374   0.000000
  307       -2.539615   0.000000
  308       -2.467248   0.000000
  309       -2.350402   0.000000
  310       -2.188360   0.000000
  311       -2.129087   0.000000
  312       -2.088205   0.000000
  313       -2.039969   0.000000
  314       -1.974346   0.000000
  315       -1.911578   0.000000
  316       -1.880777   0.000000
  317       -1.833753   0.000000
  318       -1.771659   0.000000
  319       -1.722560   0.000000
  320       -1.663220   0.000000
  321       -1.614334   0.000000
  322       -1.572963   0.000000
  323       -1.448712   0.000000
  324       -1.308272   0.000000
  325       -1.273021   0.000000
  326       -1.251815   0.000000
  327       -1.180873   0.000000
  328       -1.058426   0.000000
  329       -0.997029   0.000000
  330       -0.980116   0.000000
  331       -0.960495   0.000000
  332       -0.953521   0.000000
  333       -0.920876   0.000000
  334       -0.892358   0.000000
  335       -0.819599   0.000000
  336       -0.763907   0.000000
