   57   57    1    1
  0.4736842E+03  0.3000000E-08  0.3000000E-08  0.3000000E-08  0.5000000E-15
  1.000000000000000E-004
  CAR 
 6_Pd100_top_free_z(O)                   
    560      1    336
 
  0.0000000E+00  0.0000000E+00  0.0000000E+00  0.1000000E+01
    1      -29.045453   1.000000
    2      -14.059058   1.000000
    3      -12.411951   1.000000
    4      -12.029955   1.000000
    5      -10.807461   1.000000
    6       -7.077770   1.000000
    7       -6.676709   1.000000
    8       -6.568041   1.000000
    9       -6.125093   1.000000
   10       -6.114163   1.000000
   11       -6.086444   1.000000
   12       -6.050592   1.000000
   13       -5.896383   1.000000
   14       -5.861127   1.000000
   15       -5.811711   1.000000
   16       -5.797185   1.000000
   17       -5.755464   1.000000
   18       -5.724585   1.000000
   19       -5.706144   1.000000
   20       -5.661323   1.000000
   21       -5.658403   1.000000
   22       -5.656205   1.000000
   23       -5.621976   1.000000
   24       -5.617927   1.000000
   25       -5.596380   1.000000
   26       -5.574379   1.000000
   27       -5.565980   1.000000
   28       -5.560516   1.000000
   29       -5.549791   1.000000
   30       -5.537996   1.000000
   31       -5.523709   1.000000
   32       -5.509276   1.000000
   33       -5.507233   1.000000
   34       -5.503121   1.000000
   35       -5.499463   1.000000
   36       -5.494377   1.000000
   37       -5.485433   1.000000
   38       -5.482440   1.000000
   39       -5.474965   1.000000
   40       -5.471437   1.000000
   41       -5.468737   1.000000
   42       -5.460964   1.000000
   43       -5.456035   1.000000
   44       -5.445300   1.000000
   45       -5.439954   1.000000
   46       -5.439290   1.000000
   47       -5.431210   1.000000
   48       -5.427198   1.000000
   49       -5.424463   1.000000
   50       -5.405486   1.000000
   51       -5.401189   1.000000
   52       -5.396340   1.000000
   53       -5.387080   1.000000
   54       -5.384967   1.000000
   55       -5.375339   1.000000
   56       -5.370107   1.000000
   57       -5.357260   1.000000
   58       -5.351263   1.000000
   59       -5.337380   1.000000
   60       -5.335317   1.000000
   61       -5.321007   1.000000
   62       -5.303220   1.000000
   63       -5.294174   1.000000
   64       -5.291864   1.000000
   65       -5.289826   1.000000
   66       -5.284993   1.000000
   67       -5.282426   1.000000
   68       -5.280143   1.000000
   69       -5.262936   1.000000
   70       -5.257207   1.000000
   71       -5.237801   1.000000
   72       -5.215535   1.000000
   73       -5.206621   1.000000
   74       -5.183536   1.000000
   75       -5.167313   1.000000
   76       -5.163071   1.000000
   77       -5.158840   1.000000
   78       -5.152994   1.000000
   79       -5.151910   1.000000
   80       -5.150310   1.000000
   81       -5.138464   1.000000
   82       -5.133066   1.000000
   83       -5.122307   1.000000
   84       -5.118769   1.000000
   85       -5.109874   1.000000
   86       -5.096812   1.000000
   87       -5.093090   1.000000
   88       -5.089162   1.000000
   89       -5.079966   1.000000
   90       -5.076725   1.000000
   91       -5.070950   1.000000
   92       -5.051405   1.000000
   93       -5.043142   1.000000
   94       -5.039930   1.000000
   95       -5.037640   1.000000
   96       -5.036529   1.000000
   97       -5.022801   1.000000
   98       -5.020996   1.000000
   99       -5.014107   1.000000
  100       -5.007416   1.000000
  101       -4.998606   1.000000
  102       -4.995175   1.000000
  103       -4.991023   1.000000
  104       -4.988596   1.000000
  105       -4.982568   1.000000
  106       -4.977930   1.000000
  107       -4.977581   1.000000
  108       -4.975262   1.000000
  109       -4.962697   1.000000
  110       -4.958015   1.000000
  111       -4.956314   1.000000
  112       -4.953353   1.000000
  113       -4.947577   1.000000
  114       -4.943678   1.000000
  115       -4.938252   1.000000
  116       -4.928900   0.999999
  117       -4.927370   0.999999
  118       -4.924600   0.999999
  119       -4.919821   0.999999
  120       -4.904940   0.999999
  121       -4.898988   0.999998
  122       -4.893418   0.999998
  123       -4.889062   0.999998
  124       -4.886937   0.999998
  125       -4.878968   0.999997
  126       -4.874230   0.999996
  127       -4.872994   0.999996
  128       -4.862266   0.999995
  129       -4.849846   0.999992
  130       -4.842627   0.999990
  131       -4.836975   0.999988
  132       -4.831896   0.999986
  133       -4.820981   0.999980
  134       -4.816251   0.999977
  135       -4.808160   0.999971
  136       -4.802771   0.999967
  137       -4.800104   0.999964
  138       -4.792838   0.999956
  139       -4.788247   0.999950
  140       -4.774144   0.999926
  141       -4.766476   0.999909
  142       -4.756566   0.999883
  143       -4.745518   0.999845
  144       -4.729969   0.999772
  145       -4.723560   0.999735
  146       -4.713001   0.999661
  147       -4.709016   0.999629
  148       -4.708812   0.999628
  149       -4.698617   0.999533
  150       -4.694172   0.999486
  151       -4.685587   0.999384
  152       -4.674787   0.999232
  153       -4.670242   0.999160
  154       -4.661968   0.999014
  155       -4.656110   0.998900
  156       -4.651910   0.998812
  157       -4.646328   0.998687
  158       -4.645265   0.998662
  159       -4.639995   0.998534
  160       -4.637438   0.998468
  161       -4.631501   0.998309
  162       -4.627056   0.998183
  163       -4.625641   0.998142
  164       -4.622561   0.998050
  165       -4.620759   0.997994
  166       -4.619037   0.997941
  167       -4.615068   0.997814
  168       -4.610404   0.997660
  169       -4.609588   0.997633
  170       -4.602656   0.997393
  171       -4.599659   0.997286
  172       -4.595412   0.997132
  173       -4.578738   0.996509
  174       -4.575035   0.996370
  175       -4.573679   0.996320
  176       -4.567848   0.996106
  177       -4.566845   0.996069
  178       -4.563958   0.995967
  179       -4.557791   0.995757
  180       -4.554801   0.995660
  181       -4.552026   0.995575
  182       -4.546968   0.995432
  183       -4.540192   0.995268
  184       -4.528492   0.995090
  185       -4.527560   0.995083
  186       -4.524375   0.995067
  187       -4.522445   0.995065
  188       -4.520934   0.995067
  189       -4.518041   0.995081
  190       -4.512087   0.995156
  191       -4.501428   0.995468
  192       -4.491561   0.995998
  193       -4.488320   0.996230
  194       -4.480986   0.996875
  195       -4.478184   0.997167
  196       -4.468795   0.998347
  197       -4.465362   0.998860
  198       -4.463177   0.999211
  199       -4.456855   1.000336
  200       -4.453756   1.000948
  201       -4.453484   1.001004
  202       -4.447472   1.002318
  203       -4.443971   1.003157
  204       -4.438885   1.004474
  205       -4.432496   1.006295
  206       -4.429286   1.007281
  207       -4.426732   1.008099
  208       -4.423474   1.009185
  209       -4.415409   1.012074
  210       -4.413473   1.012809
  211       -4.410708   1.013886
  212       -4.402309   1.017337
  213       -4.391700   1.022037
  214       -4.390191   1.022731
  215       -4.381686   1.026727
  216       -4.380798   1.027151
  217       -4.378887   1.028066
  218       -4.373189   1.030807
  219       -4.372547   1.031116
  220       -4.367674   1.033457
  221       -4.366273   1.034126
  222       -4.355632   1.039080
  223       -4.348332   1.042256
  224       -4.332479   1.048017
  225       -4.322768   1.050395
  226       -4.320718   1.050752
  227       -4.313587   1.051531
  228       -4.309722   1.051623
  229       -4.308822   1.051608
  230       -4.307695   1.051569
  231       -4.305698   1.051444
  232       -4.300115   1.050693
  233       -4.299815   1.050635
  234       -4.298307   1.050315
  235       -4.297759   1.050187
  236       -4.296468   1.049859
  237       -4.294002   1.049133
  238       -4.288460   1.046990
  239       -4.286120   1.045861
  240       -4.283065   1.044179
  241       -4.278533   1.041227
  242       -4.274148   1.037827
  243       -4.273614   1.037375
  244       -4.268015   1.032124
  245       -4.267463   1.031555
  246       -4.260885   1.024021
  247       -4.256500   1.018212
  248       -4.254170   1.014857
  249       -4.249253   1.007160
  250       -4.244079   0.998128
  251       -4.240367   0.991043
  252       -4.237270   0.984741
  253       -4.230749   0.970282
  254       -4.228960   0.966032
  255       -4.224041   0.953707
  256       -4.222254   0.948998
  257       -4.218993   0.940085
  258       -4.216619   0.933337
  259       -4.214784   0.927973
  260       -4.213268   0.923442
  261       -4.210131   0.913783
  262       -4.208763   0.909453
  263       -4.207580   0.905652
  264       -4.205225   0.897924
  265       -4.204177   0.894418
  266       -4.197139   0.869808
  267       -4.195158   0.862550
  268       -4.189113   0.839538
  269       -4.188178   0.835864
  270       -4.185874   0.826681
  271       -4.183442   0.816795
  272       -4.176231   0.786352
  273       -4.169803   0.757869
  274       -4.161562   0.719674
  275       -4.158209   0.703644
  276       -4.154975   0.687936
  277       -4.151128   0.668970
  278       -4.144948   0.637914
  279       -4.140664   0.616025
  280       -4.137560   0.600015
  281       -4.128018   0.550160
  282       -4.127171   0.545700
  283       -4.115571   0.484415
  284       -4.106624   0.437261
  285       -4.100269   0.404099
  286       -4.095123   0.377566
  287       -4.087898   0.340961
  288       -4.080785   0.305841
  289       -3.965764  -0.035294
  290       -3.892371  -0.043749
  291       -3.878934  -0.037957
  292       -3.795653  -0.003812
  293       -3.786194  -0.001562
  294       -3.666053   0.003780
  295       -3.478679   0.000112
  296       -3.452324   0.000055
  297       -3.198532   0.000000
  298       -3.038911   0.000000
  299       -3.029364   0.000000
  300       -3.024213   0.000000
  301       -3.000032   0.000000
  302       -2.985883   0.000000
  303       -2.964626   0.000000
  304       -2.896972   0.000000
  305       -2.767576   0.000000
  306       -2.494637   0.000000
  307       -2.485077   0.000000
  308       -2.394699   0.000000
  309       -2.305486   0.000000
  310       -2.156569   0.000000
  311       -2.092740   0.000000
  312       -2.003010   0.000000
  313       -1.933884   0.000000
  314       -1.918895   0.000000
  315       -1.843353   0.000000
  316       -1.827260   0.000000
  317       -1.806399   0.000000
  318       -1.738615   0.000000
  319       -1.655361   0.000000
  320       -1.610545   0.000000
  321       -1.554013   0.000000
  322       -1.522245   0.000000
  323       -1.379610   0.000000
  324       -1.317631   0.000000
  325       -1.248204   0.000000
  326       -1.207036   0.000000
  327       -1.125002   0.000000
  328       -1.032098   0.000000
  329       -0.956318   0.000000
  330       -0.953345   0.000000
  331       -0.911139   0.000000
  332       -0.896034   0.000000
  333       -0.824216   0.000000
  334       -0.759049   0.000000
  335       -0.731974   0.000000
  336       -0.619538   0.000000
