<?xml version="1.0" encoding="ISO-8859-1"?>
<modeling>
 <generator>
  <i name="program" type="string">vasp </i>
  <i name="version" type="string">5.4.4.18Apr17-6-g9f103f2a35  </i>
  <i name="subversion" type="string">(build Sep 03 2018 23:53:05) complex            parallel </i>
  <i name="platform" type="string">LinuxIFC </i>
  <i name="date" type="string">2021 11 26 </i>
  <i name="time" type="string">23:39:11 </i>
 </generator>
 <incar>
  <i type="string" name="SYSTEM"> 6_Pd100_top_free_z(O)</i>
  <i type="int" name="ISTART">     0</i>
  <i type="string" name="PREC">normal   			! encut=max(enmax), ngx,y,z</i>
  <i type="string" name="ALGO"> Fast     			! Mix RMM-DIIS and Dav</i>
  <i type="logical" name="ADDGRID"> F  </i>
  <i type="int" name="ISPIN">     1</i>
  <i type="int" name="ICHARG">     2</i>
  <i type="int" name="NELM">   100</i>
  <i type="int" name="NELMIN">     6</i>
  <i type="int" name="IBRION">     2</i>
  <i name="EDIFF">      0.00010000</i>
  <i name="EDIFFG">     -0.05000000</i>
  <i type="int" name="NSW">     0</i>
  <i type="int" name="ISIF">     2</i>
  <i type="int" name="ISYM">     2</i>
  <i name="ENCUT">    400.00000000</i>
  <i type="string" name="LREAL"> Auto     			! Auto or A projection done</i>
  <i type="int" name="ISMEAR">     2</i>
  <i name="SIGMA">      0.20000000</i>
  <i type="logical" name="LWAVE"> F  </i>
  <i type="logical" name="LCHARG"> F  </i>
  <v type="int" name="KPOINT_BSE">    -1     0     0     0</v>
  <i type="int" name="MAXMEM"> 10000</i>
  <i type="int" name="NELM">   100</i>
  <i type="string" name="GGA"> RP         			! Revised PBE</i>
 </incar>
 <structure name="primitive_cell" >
  <crystal>
   <varray name="basis" >
    <v>      30.00000000       0.00000000       0.00000000 </v>
    <v>       0.00000000      30.00000000       0.00000000 </v>
    <v>       0.00000000       0.00000000      30.00000000 </v>
   </varray>
   <i name="volume">  27000.00000000 </i>
   <varray name="rec_basis" >
    <v>       0.03333333       0.00000000       0.00000000 </v>
    <v>       0.00000000       0.03333333       0.00000000 </v>
    <v>       0.00000000       0.00000000       0.03333333 </v>
   </varray>
  </crystal>
  <varray name="positions" >
   <v>       0.44576020       0.32826710       0.41691983 </v>
   <v>      -0.44576020       0.32826710       0.41691983 </v>
   <v>      -0.50000000       0.38250690       0.34021317 </v>
   <v>      -0.50000000       0.27609440      -0.50000000 </v>
   <v>       0.38804720       0.38804720       0.34167483 </v>
   <v>      -0.50000000       0.38416601      -0.50000000 </v>
   <v>       0.44208300       0.44208300       0.41809300 </v>
   <v>       0.38317830       0.38317830      -0.50000000 </v>
   <v>      -0.44208300       0.44208300       0.41809300 </v>
   <v>       0.44576020       0.32826710      -0.41691977 </v>
   <v>       0.32826705       0.44576024       0.41691983 </v>
   <v>      -0.38804720       0.38804720       0.34167483 </v>
   <v>      -0.38317830       0.38317830      -0.50000000 </v>
   <v>      -0.50000000      -0.50000000       0.33478917 </v>
   <v>      -0.50000000      -0.50000000      -0.50000000 </v>
   <v>      -0.44576020       0.32826710      -0.41691977 </v>
   <v>       0.38250685      -0.49999995       0.34021317 </v>
   <v>       0.44208300       0.44208300      -0.41809297 </v>
   <v>       0.38416599      -0.49999998      -0.50000000 </v>
   <v>      -0.44208300       0.44208300      -0.41809297 </v>
   <v>       0.44208298      -0.44208298       0.41809300 </v>
   <v>       0.32826705       0.44576024      -0.41691977 </v>
   <v>      -0.50000000       0.38250690      -0.34021320 </v>
   <v>       0.32826712      -0.44576022       0.41691983 </v>
   <v>      -0.38250685      -0.49999995       0.34021317 </v>
   <v>      -0.32826705       0.44576024       0.41691983 </v>
   <v>       0.27609443       0.49999998      -0.50000000 </v>
   <v>       0.38804720       0.38804720      -0.34167487 </v>
   <v>      -0.38416599      -0.49999998      -0.50000000 </v>
   <v>      -0.44208298      -0.44208298       0.41809300 </v>
   <v>       0.44208298      -0.44208298      -0.41809297 </v>
   <v>      -0.38804720       0.38804720      -0.34167487 </v>
   <v>       0.38804722      -0.38804722       0.34167483 </v>
   <v>       0.38250685      -0.49999995      -0.34021320 </v>
   <v>       0.32826712      -0.44576022      -0.41691977 </v>
   <v>      -0.32826705       0.44576024      -0.41691977 </v>
   <v>       0.50000000      -0.38250681       0.34021317 </v>
   <v>      -0.50000000      -0.38416596      -0.50000000 </v>
   <v>      -0.44208298      -0.44208298      -0.41809297 </v>
   <v>      -0.50000000      -0.50000000      -0.33478913 </v>
   <v>       0.38317828      -0.38317828      -0.50000000 </v>
   <v>      -0.32826712      -0.44576022       0.41691983 </v>
   <v>      -0.27609443       0.49999998      -0.50000000 </v>
   <v>      -0.38804722      -0.38804722       0.34167483 </v>
   <v>      -0.38250685      -0.49999995      -0.34021320 </v>
   <v>       0.44576027      -0.32826707       0.41691983 </v>
   <v>      -0.38317828      -0.38317828      -0.50000000 </v>
   <v>      -0.43028727      -0.35234617      -0.48975843 </v>
   <v>      -0.32826712      -0.44576022      -0.41691977 </v>
   <v>      -0.44576027      -0.32826707       0.41691983 </v>
   <v>       0.38804722      -0.38804722      -0.34167487 </v>
   <v>      -0.50000000      -0.38250681      -0.34021320 </v>
   <v>       0.44576027      -0.32826707      -0.41691977 </v>
   <v>      -0.41426570      -0.31841200      -0.48740467 </v>
   <v>      -0.44576027      -0.32826707      -0.41691977 </v>
   <v>      -0.50000000      -0.27609445       0.50000000 </v>
   <v>      -0.38804722      -0.38804722      -0.34167487 </v>
  </varray>
 </structure>
 <varray name="primitive_index" >
  <v type="int" >        1 </v>
  <v type="int" >        3 </v>
  <v type="int" >        5 </v>
  <v type="int" >        7 </v>
  <v type="int" >       15 </v>
  <v type="int" >       29 </v>
  <v type="int" >       28 </v>
  <v type="int" >       34 </v>
  <v type="int" >       21 </v>
  <v type="int" >       19 </v>
  <v type="int" >       22 </v>
  <v type="int" >       11 </v>
  <v type="int" >       36 </v>
  <v type="int" >       38 </v>
  <v type="int" >       52 </v>
  <v type="int" >       24 </v>
  <v type="int" >       32 </v>
  <v type="int" >       44 </v>
  <v type="int" >       48 </v>
  <v type="int" >       42 </v>
  <v type="int" >       43 </v>
  <v type="int" >       40 </v>
  <v type="int" >        6 </v>
  <v type="int" >        4 </v>
  <v type="int" >       30 </v>
  <v type="int" >       26 </v>
  <v type="int" >        8 </v>
  <v type="int" >       16 </v>
  <v type="int" >       49 </v>
  <v type="int" >       47 </v>
  <v type="int" >       53 </v>
  <v type="int" >       12 </v>
  <v type="int" >       13 </v>
  <v type="int" >       33 </v>
  <v type="int" >       25 </v>
  <v type="int" >       45 </v>
  <v type="int" >       50 </v>
  <v type="int" >       55 </v>
  <v type="int" >       54 </v>
  <v type="int" >       39 </v>
  <v type="int" >       37 </v>
  <v type="int" >        2 </v>
  <v type="int" >        9 </v>
  <v type="int" >       17 </v>
  <v type="int" >       31 </v>
  <v type="int" >       27 </v>
  <v type="int" >       35 </v>
  <v type="int" >       56 </v>
  <v type="int" >       20 </v>
  <v type="int" >       23 </v>
  <v type="int" >       14 </v>
  <v type="int" >       51 </v>
  <v type="int" >       46 </v>
  <v type="int" >       57 </v>
  <v type="int" >       41 </v>
  <v type="int" >       10 </v>
  <v type="int" >       18 </v>
 </varray>
 <kpoints>
  <generation param="Monkhorst-Pack">
   <v type="int" name="divisions">       1        1        1 </v>
   <v name="usershift">      0.00000000       0.00000000       0.00000000 </v>
   <v name="genvec1">      1.00000000       0.00000000       0.00000000 </v>
   <v name="genvec2">      0.00000000       1.00000000       0.00000000 </v>
   <v name="genvec3">      0.00000000       0.00000000       1.00000000 </v>
   <v name="shift">      0.00000000       0.00000000       0.00000000 </v>
  </generation>
  <varray name="kpointlist" >
   <v>       0.00000000       0.00000000       0.00000000 </v>
  </varray>
  <varray name="weights" >
   <v>       1.00000000 </v>
  </varray>
 </kpoints>
 <parameters>
  <separator name="general" >
   <i type="string" name="SYSTEM">6_Pd100_top_free_z(O)</i>
   <i type="logical" name="LCOMPAT"> F  </i>
  </separator>
  <separator name="electronic" >
   <i type="string" name="PREC">normal</i>
   <i name="ENMAX">    400.00000000</i>
   <i name="ENAUG">    644.87300000</i>
   <i name="EDIFF">      0.00010000</i>
   <i type="int" name="IALGO">    68</i>
   <i type="int" name="IWAVPR">    10</i>
   <i type="int" name="NBANDS">   336</i>
   <i name="NELECT">    560.00000000</i>
   <i type="int" name="TURBO">     0</i>
   <i type="int" name="IRESTART">     0</i>
   <i type="int" name="NREBOOT">     0</i>
   <i type="int" name="NMIN">     0</i>
   <i name="EREF">      0.00000000</i>
   <separator name="electronic smearing" >
    <i type="int" name="ISMEAR">     2</i>
    <i name="SIGMA">      0.20000000</i>
    <i name="KSPACING">      0.50000000</i>
    <i type="logical" name="KGAMMA"> T  </i>
   </separator>
   <separator name="electronic projectors" >
    <i type="logical" name="LREAL"> T  </i>
    <v name="ROPT">     -0.00050000     -0.00050000     -0.00050000</v>
    <i type="int" name="LMAXPAW">  -100</i>
    <i type="int" name="LMAXMIX">     2</i>
    <i type="logical" name="NLSPLINE"> F  </i>
   </separator>
   <separator name="electronic startup" >
    <i type="int" name="ISTART">     0</i>
    <i type="int" name="ICHARG">     2</i>
    <i type="int" name="INIWAV">     1</i>
   </separator>
   <separator name="electronic spin" >
    <i type="int" name="ISPIN">     1</i>
    <i type="logical" name="LNONCOLLINEAR"> F  </i>
    <v name="MAGMOM">      1.00000000      1.00000000      1.00000000      1.00000000      1.00000000      1.00000000      1.00000000      1.00000000      1.00000000      1.00000000      1.00000000      1.00000000      1.00000000      1.00000000      1.00000000      1.00000000      1.00000000      1.00000000      1.00000000      1.00000000
      1.00000000      1.00000000      1.00000000      1.00000000      1.00000000      1.00000000      1.00000000      1.00000000      1.00000000      1.00000000      1.00000000      1.00000000      1.00000000      1.00000000      1.00000000      1.00000000      1.00000000      1.00000000      1.00000000      1.00000000
      1.00000000      1.00000000      1.00000000      1.00000000      1.00000000      1.00000000      1.00000000      1.00000000      1.00000000      1.00000000      1.00000000      1.00000000      1.00000000      1.00000000      1.00000000      1.00000000      1.00000000</v>
    <i name="NUPDOWN">     -1.00000000</i>
    <i type="logical" name="LSORBIT"> F  </i>
    <v name="SAXIS">      0.00000000      0.00000000      1.00000000</v>
    <i type="logical" name="LSPIRAL"> F  </i>
    <v name="QSPIRAL">      0.00000000      0.00000000      0.00000000</v>
    <i type="logical" name="LZEROZ"> F  </i>
   </separator>
   <separator name="electronic exchange-correlation" >
    <i type="logical" name="LASPH"> F  </i>
    <i type="logical" name="LMETAGGA"> F  </i>
   </separator>
   <separator name="electronic convergence" >
    <i type="int" name="NELM">   100</i>
    <i type="int" name="NELMDL">    -5</i>
    <i type="int" name="NELMIN">     6</i>
    <i name="ENINI">    400.00000000</i>
    <separator name="electronic convergence detail" >
     <i type="logical" name="LDIAG"> T  </i>
     <i type="logical" name="LSUBROT"> F  </i>
     <i name="WEIMIN">      0.00000000</i>
     <i name="EBREAK">      0.00000007</i>
     <i name="DEPER">      0.30000000</i>
     <i type="int" name="NRMM">     4</i>
     <i name="TIME">      0.40000000</i>
    </separator>
   </separator>
   <separator name="electronic mixer" >
    <i name="AMIX">      0.40000000</i>
    <i name="BMIX">      1.00000000</i>
    <i name="AMIN">      0.10000000</i>
    <i name="AMIX_MAG">      1.60000000</i>
    <i name="BMIX_MAG">      1.00000000</i>
    <separator name="electronic mixer details" >
     <i type="int" name="IMIX">     4</i>
     <i type="logical" name="MIXFIRST"> F  </i>
     <i type="int" name="MAXMIX">   -45</i>
     <i name="WC">    100.00000000</i>
     <i type="int" name="INIMIX">     1</i>
     <i type="int" name="MIXPRE">     1</i>
     <i type="int" name="MREMOVE">     5</i>
    </separator>
   </separator>
   <separator name="electronic dipolcorrection" >
    <i type="logical" name="LDIPOL"> F  </i>
    <i type="logical" name="LMONO"> F  </i>
    <i type="int" name="IDIPOL">     0</i>
    <i name="EPSILON">      1.00000000</i>
    <v name="DIPOL">   -100.00000000   -100.00000000   -100.00000000</v>
    <i name="EFIELD">      0.00000000</i>
   </separator>
  </separator>
  <separator name="grids" >
   <i type="int" name="NGX">   150</i>
   <i type="int" name="NGY">   150</i>
   <i type="int" name="NGZ">   150</i>
   <i type="int" name="NGXF">   300</i>
   <i type="int" name="NGYF">   300</i>
   <i type="int" name="NGZF">   300</i>
   <i type="logical" name="ADDGRID"> F  </i>
  </separator>
  <separator name="ionic" >
   <i type="int" name="NSW">     0</i>
   <i type="int" name="IBRION">    -1</i>
   <i type="int" name="MDALGO">     0</i>
   <i type="int" name="ISIF">     2</i>
   <i name="PSTRESS">      0.00000000</i>
   <i name="EDIFFG">     -0.05000000</i>
   <i type="int" name="NFREE">     1</i>
   <i name="POTIM">      0.50000000</i>
   <i name="SMASS">     -3.00000000</i>
   <i name="SCALEE">      1.00000000</i>
  </separator>
  <separator name="ionic md" >
   <i name="TEBEG">      0.00010000</i>
   <i name="TEEND">      0.00010000</i>
   <i type="int" name="NBLOCK">     1</i>
   <i type="int" name="KBLOCK">     1</i>
   <i type="int" name="NPACO">   256</i>
   <i name="APACO">     16.00000000</i>
  </separator>
  <separator name="symmetry" >
   <i type="int" name="ISYM">     2</i>
   <i name="SYMPREC">      0.00001000</i>
  </separator>
  <separator name="dos" >
   <i type="int" name="LORBIT">     0</i>
   <v name="RWIGS">     -1.00000000     -1.00000000     -1.00000000</v>
   <i type="int" name="NEDOS">   301</i>
   <i name="EMIN">     10.00000000</i>
   <i name="EMAX">    -10.00000000</i>
   <i name="EFERMI">      0.00000000</i>
  </separator>
  <separator name="writing" >
   <i type="int" name="NWRITE">     2</i>
   <i type="logical" name="LWAVE"> F  </i>
   <i type="logical" name="LDOWNSAMPLE"> F  </i>
   <i type="logical" name="LCHARG"> F  </i>
   <i type="logical" name="LPARD"> F  </i>
   <i type="logical" name="LVTOT"> F  </i>
   <i type="logical" name="LVHAR"> F  </i>
   <i type="logical" name="LELF"> F  </i>
   <i type="logical" name="LOPTICS"> F  </i>
   <v name="STM">      0.00000000      0.00000000      0.00000000      0.00000000      0.00000000      0.00000000      0.00000000</v>
  </separator>
  <separator name="performance" >
   <i type="int" name="NPAR">     1</i>
   <i type="int" name="NSIM">     4</i>
   <i type="int" name="NBLK">    -1</i>
   <i type="logical" name="LPLANE"> T  </i>
   <i type="logical" name="LSCALAPACK"> T  </i>
   <i type="logical" name="LSCAAWARE"> F  </i>
   <i type="logical" name="LSCALU"> F  </i>
   <i type="logical" name="LASYNC"> F  </i>
   <i type="logical" name="LORBITALREAL"> F  </i>
  </separator>
  <separator name="miscellaneous" >
   <i type="int" name="IDIOT">     3</i>
   <i type="int" name="ISPECIAL">     0</i>
   <i type="logical" name="LMUSIC"> F  </i>
   <v name="POMASS">    106.42000000     12.01100000     16.00000000</v>
   <v name="DARWINR">      0.00000000      0.00000000      0.00000000</v>
   <v name="DARWINV">      1.00000000      1.00000000      1.00000000</v>
   <i type="logical" name="LCORR"> T  </i>
  </separator>
  <i type="logical" name="GGA_COMPAT"> T  </i>
  <i type="logical" name="LBERRY"> F  </i>
  <i type="int" name="ICORELEVEL">     0</i>
  <i type="logical" name="LDAU"> F  </i>
  <i type="int" name="I_CONSTRAINED_M">     0</i>
  <separator name="electronic exchange-correlation" >
   <i type="string" name="GGA">RP</i>
   <i type="int" name="VOSKOWN">     0</i>
   <i type="logical" name="LHFCALC"> F  </i>
   <i type="string" name="PRECFOCK"></i>
   <i type="logical" name="LSYMGRAD"> F  </i>
   <i type="logical" name="LHFONE"> F  </i>
   <i type="logical" name="LRHFCALC"> F  </i>
   <i type="logical" name="LTHOMAS"> F  </i>
   <i type="logical" name="LMODELHF"> F  </i>
   <i name="ENCUT4O">     -1.00000000</i>
   <i type="int" name="EXXOEP">     0</i>
   <i type="int" name="FOURORBIT">     0</i>
   <i name="AEXX">      0.00000000</i>
   <i name="HFALPHA">      0.00000000</i>
   <i name="MCALPHA">      0.00000000</i>
   <i name="ALDAX">      1.00000000</i>
   <i name="AGGAX">      1.00000000</i>
   <i name="ALDAC">      1.00000000</i>
   <i name="AGGAC">      1.00000000</i>
   <i type="int" name="NKREDX">     1</i>
   <i type="int" name="NKREDY">     1</i>
   <i type="int" name="NKREDZ">     1</i>
   <i type="logical" name="SHIFTRED"> F  </i>
   <i type="logical" name="ODDONLY"> F  </i>
   <i type="logical" name="EVENONLY"> F  </i>
   <i type="int" name="LMAXFOCK">     0</i>
   <i type="int" name="NMAXFOCKAE">     0</i>
   <i type="logical" name="LFOCKAEDFT"> F  </i>
   <i name="HFSCREEN">      0.00000000</i>
   <i name="HFSCREENC">      0.00000000</i>
   <i type="int" name="NBANDSGWLOW">     0</i>
  </separator>
  <separator name="vdW DFT" >
   <i type="logical" name="LUSE_VDW"> F  </i>
   <i name="Zab_VDW">     -0.84910000</i>
   <i name="PARAM1">      0.12340000</i>
   <i name="PARAM2">      1.00000000</i>
   <i name="PARAM3">      0.00000000</i>
  </separator>
  <separator name="model GW" >
   <i type="int" name="MODEL_GW">     0</i>
   <i name="MODEL_EPS0">    284.21052632</i>
   <i name="MODEL_ALPHA">      1.00000000</i>
  </separator>
  <separator name="linear response parameters" >
   <i type="logical" name="LEPSILON"> F  </i>
   <i type="logical" name="LRPA"> F  </i>
   <i type="logical" name="LNABLA"> F  </i>
   <i type="logical" name="LVEL"> F  </i>
   <i type="int" name="KINTER">     0</i>
   <i name="CSHIFT">      0.10000000</i>
   <i name="OMEGAMAX">     -1.00000000</i>
   <i name="DEG_THRESHOLD">      0.00200000</i>
   <i name="RTIME">     -0.10000000</i>
   <i name="WPLASMAI">      0.00000000</i>
   <v name="DFIELD">      0.00000000      0.00000000      0.00000000</v>
   <v name="WPLASMA">      0.00000000      0.00000000      0.00000000      0.00000000      0.00000000      0.00000000      0.00000000      0.00000000      0.00000000</v>
  </separator>
  <separator name="orbital magnetization" >
   <i type="logical" name="NUCIND"> F  </i>
   <v name="MAGPOS">      0.00000000      0.00000000      0.00000000</v>
   <i type="logical" name="LNICSALL"> T  </i>
   <i type="logical" name="ORBITALMAG"> F  </i>
   <i type="logical" name="LMAGBLOCH"> F  </i>
   <i type="logical" name="LCHIMAG"> F  </i>
   <i type="logical" name="LGAUGE"> T  </i>
   <i type="int" name="MAGATOM">     0</i>
   <v name="MAGDIPOL">      0.00000000      0.00000000      0.00000000</v>
   <v name="AVECCONST">      0.00000000      0.00000000      0.00000000</v>
  </separator>
  <separator name="response functions" >
   <i type="logical" name="LADDER"> F  </i>
   <i type="logical" name="LRPAFORCE"> F  </i>
   <i type="logical" name="LFXC"> F  </i>
   <i type="logical" name="LHARTREE"> T  </i>
   <i type="int" name="IBSE">     0</i>
   <v type="int" name="KPOINT">    -1     0     0     0</v>
   <i type="logical" name="LTCTE"> F  </i>
   <i type="logical" name="LTETE"> F  </i>
   <i type="logical" name="LTRIPLET"> F  </i>
   <i type="logical" name="LFXCEPS"> F  </i>
   <i type="logical" name="LFXHEG"> F  </i>
   <i type="int" name="NATURALO">     2</i>
   <i type="logical" name="L2ORDER"> F  </i>
   <i type="logical" name="LMP2LT"> F  </i>
   <i type="logical" name="LUSEW"> F  </i>
   <i name="ENCUTGW">     -2.00000000</i>
   <i name="ENCUTGWSOFT">     -2.00000000</i>
   <i name="ENCUTLF">     -1.00000000</i>
   <i type="int" name="LMAXMP2">    -1</i>
   <i name="SCISSOR">      0.00000000</i>
   <i type="int" name="NOMEGA">     0</i>
   <i type="int" name="NOMEGAR">     0</i>
   <i type="int" name="NBANDSGW">    -1</i>
   <i type="int" name="NBANDSO">    -1</i>
   <i type="int" name="NBANDSV">    -1</i>
   <i type="int" name="NELM">   100</i>
   <i type="int" name="NELMHF">     1</i>
   <i type="int" name="DIM">     3</i>
   <i type="int" name="ANTIRES">     0</i>
   <i name="OMEGAMAX">    -30.00000000</i>
   <i name="OMEGAMIN">    -30.00000000</i>
   <i name="OMEGATL">   -200.00000000</i>
   <i type="int" name="OMEGAGRID">   140</i>
   <i name="CSHIFT">     -0.10000000</i>
   <i type="logical" name="SELFENERGY"> F  </i>
   <i type="logical" name="LSPECTRAL"> F  </i>
   <i type="logical" name="LSPECTRALGW"> F  </i>
   <i type="logical" name="LSINGLES"> F  </i>
   <i type="logical" name="LFERMIGW"> F  </i>
   <i type="logical" name="ODDONLYGW"> F  </i>
   <i type="logical" name="EVENONLYGW"> F  </i>
   <i type="int" name="NKREDLFX">     1</i>
   <i type="int" name="NKREDLFY">     1</i>
   <i type="int" name="NKREDLFZ">     1</i>
   <i type="int" name="MAXMEM"> 10000</i>
   <i type="int" name="TELESCOPE">     0</i>
   <i type="int" name="TAUPAR">     1</i>
   <i type="int" name="OMEGAPAR">    -1</i>
   <i name="LAMBDA">      1.00000000</i>
  </separator>
  <separator name="External order field" >
   <i name="OFIELD_KAPPA">      0.00000000</i>
   <v name="OFIELD_K">      0.00000000      0.00000000      0.00000000</v>
   <i name="OFIELD_Q6_NEAR">      0.00000000</i>
   <i name="OFIELD_Q6_FAR">      0.00000000</i>
   <i name="OFIELD_A">      0.00000000</i>
  </separator>
 </parameters>
 <atominfo>
  <atoms>      57 </atoms>
  <types>       3 </types>
  <array name="atoms" >
   <dimension dim="1">ion</dimension>
   <field type="string">element</field>
   <field type="int">atomtype</field>
   <set>
    <rc><c>Pd</c><c>   1</c></rc>
    <rc><c>Pd</c><c>   1</c></rc>
    <rc><c>Pd</c><c>   1</c></rc>
    <rc><c>Pd</c><c>   1</c></rc>
    <rc><c>Pd</c><c>   1</c></rc>
    <rc><c>Pd</c><c>   1</c></rc>
    <rc><c>Pd</c><c>   1</c></rc>
    <rc><c>Pd</c><c>   1</c></rc>
    <rc><c>Pd</c><c>   1</c></rc>
    <rc><c>Pd</c><c>   1</c></rc>
    <rc><c>Pd</c><c>   1</c></rc>
    <rc><c>Pd</c><c>   1</c></rc>
    <rc><c>Pd</c><c>   1</c></rc>
    <rc><c>Pd</c><c>   1</c></rc>
    <rc><c>Pd</c><c>   1</c></rc>
    <rc><c>Pd</c><c>   1</c></rc>
    <rc><c>Pd</c><c>   1</c></rc>
    <rc><c>Pd</c><c>   1</c></rc>
    <rc><c>Pd</c><c>   1</c></rc>
    <rc><c>Pd</c><c>   1</c></rc>
    <rc><c>Pd</c><c>   1</c></rc>
    <rc><c>Pd</c><c>   1</c></rc>
    <rc><c>Pd</c><c>   1</c></rc>
    <rc><c>Pd</c><c>   1</c></rc>
    <rc><c>Pd</c><c>   1</c></rc>
    <rc><c>Pd</c><c>   1</c></rc>
    <rc><c>Pd</c><c>   1</c></rc>
    <rc><c>Pd</c><c>   1</c></rc>
    <rc><c>Pd</c><c>   1</c></rc>
    <rc><c>Pd</c><c>   1</c></rc>
    <rc><c>Pd</c><c>   1</c></rc>
    <rc><c>Pd</c><c>   1</c></rc>
    <rc><c>Pd</c><c>   1</c></rc>
    <rc><c>Pd</c><c>   1</c></rc>
    <rc><c>Pd</c><c>   1</c></rc>
    <rc><c>Pd</c><c>   1</c></rc>
    <rc><c>Pd</c><c>   1</c></rc>
    <rc><c>Pd</c><c>   1</c></rc>
    <rc><c>Pd</c><c>   1</c></rc>
    <rc><c>Pd</c><c>   1</c></rc>
    <rc><c>Pd</c><c>   1</c></rc>
    <rc><c>Pd</c><c>   1</c></rc>
    <rc><c>Pd</c><c>   1</c></rc>
    <rc><c>Pd</c><c>   1</c></rc>
    <rc><c>Pd</c><c>   1</c></rc>
    <rc><c>Pd</c><c>   1</c></rc>
    <rc><c>Pd</c><c>   1</c></rc>
    <rc><c>Pd</c><c>   1</c></rc>
    <rc><c>Pd</c><c>   1</c></rc>
    <rc><c>Pd</c><c>   1</c></rc>
    <rc><c>Pd</c><c>   1</c></rc>
    <rc><c>Pd</c><c>   1</c></rc>
    <rc><c>Pd</c><c>   1</c></rc>
    <rc><c>Pd</c><c>   1</c></rc>
    <rc><c>Pd</c><c>   1</c></rc>
    <rc><c>C </c><c>   2</c></rc>
    <rc><c>O </c><c>   3</c></rc>
   </set>
  </array>
  <array name="atomtypes" >
   <dimension dim="1">type</dimension>
   <field type="int">atomspertype</field>
   <field type="string">element</field>
   <field>mass</field>
   <field>valence</field>
   <field type="string">pseudopotential</field>
   <set>
    <rc><c>  55</c><c>Pd</c><c>    106.42000000</c><c>     10.00000000</c><c>  PAW_PBE Pd 04Jan2005                  </c></rc>
    <rc><c>   1</c><c>C </c><c>     12.01100000</c><c>      4.00000000</c><c>  PAW_PBE C 08Apr2002                   </c></rc>
    <rc><c>   1</c><c>O </c><c>     16.00000000</c><c>      6.00000000</c><c>  PAW_PBE O 08Apr2002                   </c></rc>
   </set>
  </array>
 </atominfo>
 <structure name="initialpos" >
  <crystal>
   <varray name="basis" >
    <v>      30.00000000       0.00000000       0.00000000 </v>
    <v>       0.00000000      30.00000000       0.00000000 </v>
    <v>       0.00000000       0.00000000      30.00000000 </v>
   </varray>
   <i name="volume">  27000.00000000 </i>
   <varray name="rec_basis" >
    <v>       0.03333333       0.00000000       0.00000000 </v>
    <v>       0.00000000       0.03333333       0.00000000 </v>
    <v>       0.00000000       0.00000000       0.03333333 </v>
   </varray>
  </crystal>
  <varray name="positions" >
   <v>       0.44576020       0.32826710       0.41691983 </v>
   <v>       0.67173288       0.55423978       0.41691983 </v>
   <v>       0.55423980       0.32826710       0.41691983 </v>
   <v>       0.32826712       0.55423978       0.41691983 </v>
   <v>       0.50000000       0.38250690       0.34021317 </v>
   <v>       0.50000000       0.38250690       0.65978680 </v>
   <v>       0.50000000       0.27609440       0.50000000 </v>
   <v>       0.27609443       0.49999998       0.50000000 </v>
   <v>       0.72390557       0.49999998       0.50000000 </v>
   <v>       0.50000000       0.72390555       0.50000000 </v>
   <v>       0.61195280       0.38804720       0.34167483 </v>
   <v>       0.61195280       0.38804720       0.65832513 </v>
   <v>       0.38804722       0.61195278       0.34167483 </v>
   <v>       0.38804722       0.61195278       0.65832513 </v>
   <v>       0.38804720       0.38804720       0.34167483 </v>
   <v>       0.38804720       0.38804720       0.65832513 </v>
   <v>       0.61195278       0.61195278       0.34167483 </v>
   <v>       0.61195278       0.61195278       0.65832513 </v>
   <v>       0.44576020       0.32826710       0.58308023 </v>
   <v>       0.67173288       0.55423978       0.58308023 </v>
   <v>       0.55791699       0.44208301       0.41809300 </v>
   <v>       0.32826705       0.44576024       0.41691983 </v>
   <v>       0.55423973       0.67173293       0.41691983 </v>
   <v>       0.55423980       0.32826710       0.58308023 </v>
   <v>       0.32826712       0.55423978       0.58308023 </v>
   <v>       0.67173295       0.44576024       0.41691983 </v>
   <v>       0.44576027       0.67173293       0.41691983 </v>
   <v>       0.44208301       0.44208301       0.41809300 </v>
   <v>       0.50000000       0.38416601       0.50000000 </v>
   <v>       0.61749315       0.50000005       0.34021317 </v>
   <v>       0.61749315       0.50000005       0.65978680 </v>
   <v>       0.38250685       0.50000005       0.34021317 </v>
   <v>       0.38250685       0.50000005       0.65978680 </v>
   <v>       0.38317830       0.38317830       0.50000000 </v>
   <v>       0.61682172       0.61682172       0.50000000 </v>
   <v>       0.61682170       0.38317830       0.50000000 </v>
   <v>       0.38317828       0.61682172       0.50000000 </v>
   <v>       0.50000000       0.50000000       0.33478917 </v>
   <v>       0.50000000       0.50000000       0.66521087 </v>
   <v>       0.32826705       0.44576024       0.58308023 </v>
   <v>       0.55423973       0.67173293       0.58308023 </v>
   <v>       0.55791699       0.44208301       0.58190703 </v>
   <v>       0.44208298       0.55791702       0.41809300 </v>
   <v>       0.44208301       0.44208301       0.58190703 </v>
   <v>       0.67173295       0.44576024       0.58308023 </v>
   <v>       0.44576027       0.67173293       0.58308023 </v>
   <v>       0.55791702       0.55791702       0.41809300 </v>
   <v>       0.38416599       0.50000002       0.50000000 </v>
   <v>       0.61583401       0.50000002       0.50000000 </v>
   <v>       0.50000000       0.61749319       0.34021317 </v>
   <v>       0.50000000       0.61749319       0.65978680 </v>
   <v>       0.50000000       0.50000000       0.50000000 </v>
   <v>       0.44208298       0.55791702       0.58190703 </v>
   <v>       0.55791702       0.55791702       0.58190703 </v>
   <v>       0.50000000       0.61583404       0.50000000 </v>
   <v>       0.56971273       0.64765383       0.51024157 </v>
   <v>       0.58573430       0.68158800       0.51259533 </v>
  </varray>
  <varray name="selective"  type="logical" >
   <v type="logical" >  F  F  F </v>
   <v type="logical" >  F  F  F </v>
   <v type="logical" >  F  F  F </v>
   <v type="logical" >  F  F  F </v>
   <v type="logical" >  F  F  F </v>
   <v type="logical" >  F  F  F </v>
   <v type="logical" >  F  F  F </v>
   <v type="logical" >  F  F  F </v>
   <v type="logical" >  F  F  F </v>
   <v type="logical" >  F  F  F </v>
   <v type="logical" >  F  F  F </v>
   <v type="logical" >  F  F  F </v>
   <v type="logical" >  F  F  F </v>
   <v type="logical" >  F  F  F </v>
   <v type="logical" >  F  F  F </v>
   <v type="logical" >  F  F  F </v>
   <v type="logical" >  F  F  F </v>
   <v type="logical" >  F  F  F </v>
   <v type="logical" >  F  F  F </v>
   <v type="logical" >  F  F  F </v>
   <v type="logical" >  F  F  F </v>
   <v type="logical" >  F  F  F </v>
   <v type="logical" >  F  F  F </v>
   <v type="logical" >  F  F  F </v>
   <v type="logical" >  F  F  F </v>
   <v type="logical" >  F  F  F </v>
   <v type="logical" >  F  F  F </v>
   <v type="logical" >  F  F  F </v>
   <v type="logical" >  F  F  F </v>
   <v type="logical" >  F  F  F </v>
   <v type="logical" >  F  F  F </v>
   <v type="logical" >  F  F  F </v>
   <v type="logical" >  F  F  F </v>
   <v type="logical" >  F  F  F </v>
   <v type="logical" >  F  F  F </v>
   <v type="logical" >  F  F  F </v>
   <v type="logical" >  F  F  F </v>
   <v type="logical" >  F  F  F </v>
   <v type="logical" >  F  F  F </v>
   <v type="logical" >  F  F  F </v>
   <v type="logical" >  F  F  F </v>
   <v type="logical" >  F  F  F </v>
   <v type="logical" >  F  F  F </v>
   <v type="logical" >  F  F  F </v>
   <v type="logical" >  F  F  F </v>
   <v type="logical" >  F  F  F </v>
   <v type="logical" >  F  F  F </v>
   <v type="logical" >  F  F  F </v>
   <v type="logical" >  F  F  F </v>
   <v type="logical" >  F  F  F </v>
   <v type="logical" >  F  F  F </v>
   <v type="logical" >  F  F  F </v>
   <v type="logical" >  F  F  F </v>
   <v type="logical" >  F  F  F </v>
   <v type="logical" >  F  F  F </v>
   <v type="logical" >  F  F  F </v>
   <v type="logical" >  F  F  F </v>
  </varray>
  <nose>
   <v>      -3.00000000       0.00000000       0.00010000       0.00010000 </v>
  </nose>
 </structure>
 <calculation>
  <scstep>
   <time name="dav">  364.65  364.75</time>
   <time name="total">  379.35  379.45</time>
   <energy>
    <i name="alphaZ">     75.25431677 </i>
    <i name="ewald"> 141022.48838945 </i>
    <i name="hartreedc">-184363.74883124 </i>
    <i name="XCdc">  -1700.72015591 </i>
    <i name="pawpsdc">  44873.02882129 </i>
    <i name="pawaedc"> -41398.84523641 </i>
    <i name="eentropy">      0.01402904 </i>
    <i name="bandstr">    814.46930187 </i>
    <i name="atom">  45086.50549395 </i>
    <i name="e_fr_energy">   4408.44612882 </i>
    <i name="e_wo_entrp">   4408.43209978 </i>
    <i name="e_0_energy">   4408.44262156 </i>
   </energy>
  </scstep>
  <scstep>
   <time name="dav">  585.13  585.14</time>
   <time name="total">  585.13  585.14</time>
   <energy>
    <i name="e_fr_energy">   2014.30361779 </i>
    <i name="e_wo_entrp">   2014.36724261 </i>
    <i name="e_0_energy">   2014.31952399 </i>
   </energy>
  </scstep>
  <scstep>
   <time name="dav">  501.44  501.44</time>
   <time name="total">  501.44  501.44</time>
   <energy>
    <i name="e_fr_energy">    230.29866904 </i>
    <i name="e_wo_entrp">    230.30574608 </i>
    <i name="e_0_energy">    230.30043830 </i>
   </energy>
  </scstep>
  <scstep>
   <time name="dav">  431.64  431.65</time>
   <time name="total">  431.64  431.66</time>
   <energy>
    <i name="e_fr_energy">   -134.87614476 </i>
    <i name="e_wo_entrp">   -134.88610277 </i>
    <i name="e_0_energy">   -134.87863426 </i>
   </energy>
  </scstep>
  <scstep>
   <time name="dav">  523.76  523.77</time>
   <time name="total">  550.64  550.65</time>
   <energy>
    <i name="e_fr_energy">   -179.55272708 </i>
    <i name="e_wo_entrp">   -179.98541066 </i>
    <i name="e_0_energy">   -179.66089797 </i>
   </energy>
  </scstep>
  <scstep>
   <time name="diag">   69.14   69.14</time>
   <time name="diis">  193.54  193.54</time>
   <time name="orth">   13.55   13.55</time>
   <time name="total">  316.37  316.37</time>
   <energy>
    <i name="e_fr_energy">   -179.07470363 </i>
    <i name="e_wo_entrp">   -178.82434516 </i>
    <i name="e_0_energy">   -179.01211401 </i>
   </energy>
  </scstep>
  <scstep>
   <time name="diag">   69.00   69.00</time>
   <time name="diis">  222.59  222.59</time>
   <time name="orth">   13.91   13.91</time>
   <time name="total">  345.42  345.42</time>
   <energy>
    <i name="e_fr_energy">   -182.46484496 </i>
    <i name="e_wo_entrp">   -182.44099333 </i>
    <i name="e_0_energy">   -182.45888205 </i>
   </energy>
  </scstep>
  <scstep>
   <time name="diag">   68.96   68.96</time>
   <time name="diis">  209.09  209.09</time>
   <time name="orth">   13.55   13.55</time>
   <time name="total">  331.74  331.74</time>
   <energy>
    <i name="e_fr_energy">   -186.12901677 </i>
    <i name="e_wo_entrp">   -186.09586522 </i>
    <i name="e_0_energy">   -186.12072888 </i>
   </energy>
  </scstep>
  <scstep>
   <time name="diag">   68.29   68.29</time>
   <time name="diis">  205.20  205.20</time>
   <time name="orth">   13.57   13.57</time>
   <time name="total">  327.12  327.12</time>
   <energy>
    <i name="e_fr_energy">   -182.68639635 </i>
    <i name="e_wo_entrp">   -182.51983500 </i>
    <i name="e_0_energy">   -182.64475601 </i>
   </energy>
  </scstep>
  <scstep>
   <time name="diag">   67.77   67.77</time>
   <time name="diis">  196.15  196.15</time>
   <time name="orth">   13.54   13.54</time>
   <time name="total">  317.64  317.64</time>
   <energy>
    <i name="e_fr_energy">   -180.28791735 </i>
    <i name="e_wo_entrp">   -180.21279975 </i>
    <i name="e_0_energy">   -180.26913795 </i>
   </energy>
  </scstep>
  <scstep>
   <time name="diag">   67.61   67.61</time>
   <time name="diis">  195.42  195.42</time>
   <time name="orth">   13.75   13.75</time>
   <time name="total">  316.33  316.33</time>
   <energy>
    <i name="e_fr_energy">   -177.93275958 </i>
    <i name="e_wo_entrp">   -177.89021015 </i>
    <i name="e_0_energy">   -177.92212222 </i>
   </energy>
  </scstep>
  <scstep>
   <time name="diag">   67.42   67.42</time>
   <time name="diis">  195.96  195.97</time>
   <time name="orth">   13.72   13.72</time>
   <time name="total">  316.15  316.15</time>
   <energy>
    <i name="e_fr_energy">   -177.32810346 </i>
    <i name="e_wo_entrp">   -177.40526719 </i>
    <i name="e_0_energy">   -177.34739439 </i>
   </energy>
  </scstep>
  <scstep>
   <time name="diag">   67.07   67.07</time>
   <time name="diis">  193.85  193.85</time>
   <time name="orth">   13.48   13.48</time>
   <time name="total">  313.59  313.60</time>
   <energy>
    <i name="e_fr_energy">   -176.28955311 </i>
    <i name="e_wo_entrp">   -176.39522970 </i>
    <i name="e_0_energy">   -176.31597225 </i>
   </energy>
  </scstep>
  <scstep>
   <time name="diag">   67.54   67.54</time>
   <time name="diis">  190.63  190.63</time>
   <time name="orth">   13.48   13.48</time>
   <time name="total">  310.84  310.85</time>
   <energy>
    <i name="e_fr_energy">   -176.31986760 </i>
    <i name="e_wo_entrp">   -176.44660082 </i>
    <i name="e_0_energy">   -176.35155091 </i>
   </energy>
  </scstep>
  <scstep>
   <time name="diag">   68.30   68.30</time>
   <time name="diis">  189.44  189.44</time>
   <time name="orth">   13.87   13.87</time>
   <time name="total">  311.39  311.39</time>
   <energy>
    <i name="e_fr_energy">   -175.72661984 </i>
    <i name="e_wo_entrp">   -175.71417373 </i>
    <i name="e_0_energy">   -175.72350831 </i>
   </energy>
  </scstep>
  <scstep>
   <time name="diag">   68.31   68.31</time>
   <time name="diis">  190.26  190.26</time>
   <time name="orth">   13.89   13.89</time>
   <time name="total">  312.40  312.40</time>
   <energy>
    <i name="e_fr_energy">   -174.87709969 </i>
    <i name="e_wo_entrp">   -174.82605662 </i>
    <i name="e_0_energy">   -174.86433892 </i>
   </energy>
  </scstep>
  <scstep>
   <time name="diag">   67.18   67.19</time>
   <time name="diis">  191.88  191.88</time>
   <time name="orth">   13.62   13.62</time>
   <time name="total">  312.55  312.55</time>
   <energy>
    <i name="e_fr_energy">   -175.01250643 </i>
    <i name="e_wo_entrp">   -175.04944872 </i>
    <i name="e_0_energy">   -175.02174200 </i>
   </energy>
  </scstep>
  <scstep>
   <time name="diag">   67.34   67.34</time>
   <time name="diis">  190.37  190.38</time>
   <time name="orth">   13.73   13.72</time>
   <time name="total">  310.95  310.96</time>
   <energy>
    <i name="e_fr_energy">   -174.84962382 </i>
    <i name="e_wo_entrp">   -174.86645150 </i>
    <i name="e_0_energy">   -174.85383074 </i>
   </energy>
  </scstep>
  <scstep>
   <time name="diag">   68.42   68.42</time>
   <time name="diis">  185.20  185.22</time>
   <time name="orth">   13.89   13.89</time>
   <time name="total">  307.68  307.70</time>
   <energy>
    <i name="e_fr_energy">   -174.66555004 </i>
    <i name="e_wo_entrp">   -174.73688676 </i>
    <i name="e_0_energy">   -174.68338422 </i>
   </energy>
  </scstep>
  <scstep>
   <time name="diag">   68.05   68.05</time>
   <time name="diis">  187.76  187.77</time>
   <time name="orth">   13.88   13.88</time>
   <time name="total">  310.17  310.19</time>
   <energy>
    <i name="e_fr_energy">   -174.57409818 </i>
    <i name="e_wo_entrp">   -174.69530008 </i>
    <i name="e_0_energy">   -174.60439865 </i>
   </energy>
  </scstep>
  <scstep>
   <time name="diag">   67.56   67.56</time>
   <time name="diis">  187.38  187.38</time>
   <time name="orth">   13.83   13.83</time>
   <time name="total">  308.17  308.17</time>
   <energy>
    <i name="e_fr_energy">   -174.21774342 </i>
    <i name="e_wo_entrp">   -174.25519625 </i>
    <i name="e_0_energy">   -174.22710663 </i>
   </energy>
  </scstep>
  <scstep>
   <time name="diag">   67.86   67.86</time>
   <time name="diis">  185.26  185.26</time>
   <time name="orth">   13.77   13.77</time>
   <time name="total">  306.82  306.82</time>
   <energy>
    <i name="e_fr_energy">   -173.99139716 </i>
    <i name="e_wo_entrp">   -173.99173691 </i>
    <i name="e_0_energy">   -173.99148210 </i>
   </energy>
  </scstep>
  <scstep>
   <time name="diag">   68.26   68.26</time>
   <time name="diis">  184.18  184.19</time>
   <time name="orth">   13.74   13.74</time>
   <time name="total">  306.56  306.58</time>
   <energy>
    <i name="e_fr_energy">   -173.87356758 </i>
    <i name="e_wo_entrp">   -173.82114016 </i>
    <i name="e_0_energy">   -173.86046072 </i>
   </energy>
  </scstep>
  <scstep>
   <time name="diag">   67.46   67.46</time>
   <time name="diis">  184.96  184.96</time>
   <time name="orth">   13.42   13.42</time>
   <time name="total">  305.41  305.42</time>
   <energy>
    <i name="e_fr_energy">   -173.83668145 </i>
    <i name="e_wo_entrp">   -173.79897379 </i>
    <i name="e_0_energy">   -173.82725453 </i>
   </energy>
  </scstep>
  <scstep>
   <time name="diag">   67.68   67.68</time>
   <time name="diis">  184.11  184.12</time>
   <time name="orth">   13.56   13.56</time>
   <time name="total">  305.40  305.41</time>
   <energy>
    <i name="e_fr_energy">   -173.74203673 </i>
    <i name="e_wo_entrp">   -173.70660511 </i>
    <i name="e_0_energy">   -173.73317882 </i>
   </energy>
  </scstep>
  <scstep>
   <time name="diag">   67.51   67.51</time>
   <time name="diis">  183.50  183.50</time>
   <time name="orth">   13.75   13.75</time>
   <time name="total">  304.86  304.86</time>
   <energy>
    <i name="e_fr_energy">   -173.71277868 </i>
    <i name="e_wo_entrp">   -173.67935297 </i>
    <i name="e_0_energy">   -173.70442225 </i>
   </energy>
  </scstep>
  <scstep>
   <time name="diag">   67.28   67.28</time>
   <time name="diis">  181.73  181.73</time>
   <time name="orth">   13.59   13.59</time>
   <time name="total">  302.44  302.45</time>
   <energy>
    <i name="e_fr_energy">   -173.72073892 </i>
    <i name="e_wo_entrp">   -173.68713308 </i>
    <i name="e_0_energy">   -173.71233746 </i>
   </energy>
  </scstep>
  <scstep>
   <time name="diag">   67.50   67.50</time>
   <time name="diis">  183.07  183.07</time>
   <time name="orth">   13.55   13.55</time>
   <time name="total">  303.95  303.95</time>
   <energy>
    <i name="e_fr_energy">   -173.70508797 </i>
    <i name="e_wo_entrp">   -173.66625954 </i>
    <i name="e_0_energy">   -173.69538086 </i>
   </energy>
  </scstep>
  <scstep>
   <time name="diag">   66.87   66.87</time>
   <time name="diis">  182.34  182.35</time>
   <time name="orth">   13.50   13.50</time>
   <time name="total">  302.95  302.96</time>
   <energy>
    <i name="e_fr_energy">   -173.65641400 </i>
    <i name="e_wo_entrp">   -173.60446803 </i>
    <i name="e_0_energy">   -173.64342751 </i>
   </energy>
  </scstep>
  <scstep>
   <time name="diag">   67.52   67.52</time>
   <time name="diis">  182.70  182.70</time>
   <time name="orth">   13.39   13.39</time>
   <time name="total">  304.15  304.16</time>
   <energy>
    <i name="e_fr_energy">   -173.65323281 </i>
    <i name="e_wo_entrp">   -173.60009190 </i>
    <i name="e_0_energy">   -173.63994758 </i>
   </energy>
  </scstep>
  <scstep>
   <time name="diag">   67.31   67.32</time>
   <time name="diis">  183.01  183.02</time>
   <time name="orth">   13.27   13.27</time>
   <time name="total">  304.13  304.14</time>
   <energy>
    <i name="e_fr_energy">   -173.63863071 </i>
    <i name="e_wo_entrp">   -173.59059166 </i>
    <i name="e_0_energy">   -173.62662094 </i>
   </energy>
  </scstep>
  <scstep>
   <time name="diag">   67.39   67.39</time>
   <time name="diis">  182.71  182.71</time>
   <time name="orth">   13.31   13.31</time>
   <time name="total">  303.58  303.59</time>
   <energy>
    <i name="e_fr_energy">   -173.63538356 </i>
    <i name="e_wo_entrp">   -173.58737512 </i>
    <i name="e_0_energy">   -173.62338145 </i>
   </energy>
  </scstep>
  <scstep>
   <time name="diag">   67.69   67.69</time>
   <time name="diis">  182.05  182.05</time>
   <time name="orth">   13.44   13.44</time>
   <time name="total">  303.65  303.65</time>
   <energy>
    <i name="e_fr_energy">   -173.63378260 </i>
    <i name="e_wo_entrp">   -173.58730280 </i>
    <i name="e_0_energy">   -173.62216265 </i>
   </energy>
  </scstep>
  <scstep>
   <time name="diag">   67.94   67.94</time>
   <time name="diis">  180.66  180.67</time>
   <time name="orth">   13.48   13.48</time>
   <time name="total">  302.97  302.98</time>
   <energy>
    <i name="e_fr_energy">   -173.63099739 </i>
    <i name="e_wo_entrp">   -173.58137183 </i>
    <i name="e_0_energy">   -173.61859100 </i>
   </energy>
  </scstep>
  <scstep>
   <time name="diag">   68.10   68.11</time>
   <time name="diis">  179.84  179.85</time>
   <time name="orth">   13.53   13.53</time>
   <time name="total">  302.80  302.82</time>
   <energy>
    <i name="e_fr_energy">   -173.63134143 </i>
    <i name="e_wo_entrp">   -173.58056448 </i>
    <i name="e_0_energy">   -173.61864719 </i>
   </energy>
  </scstep>
  <scstep>
   <time name="diag">   67.49   67.49</time>
   <time name="diis">  182.48  182.49</time>
   <time name="orth">   13.80   13.81</time>
   <time name="total">  304.96  304.98</time>
   <energy>
    <i name="e_fr_energy">   -173.63044196 </i>
    <i name="e_wo_entrp">   -173.58039709 </i>
    <i name="e_0_energy">   -173.61793074 </i>
   </energy>
  </scstep>
  <scstep>
   <time name="diag">   67.47   67.47</time>
   <time name="diis">  182.82  182.83</time>
   <time name="orth">   13.92   13.92</time>
   <time name="total">  306.27  306.28</time>
   <energy>
    <i name="e_fr_energy">   -173.63151788 </i>
    <i name="e_wo_entrp">   -173.58187661 </i>
    <i name="e_0_energy">   -173.61910756 </i>
   </energy>
  </scstep>
  <scstep>
   <time name="diag">   68.92   68.92</time>
   <time name="diis">  180.89  180.89</time>
   <time name="orth">   13.91   13.91</time>
   <time name="total">  306.83  306.84</time>
   <energy>
    <i name="e_fr_energy">   -173.63397796 </i>
    <i name="e_wo_entrp">   -173.58495264 </i>
    <i name="e_0_energy">   -173.62172163 </i>
   </energy>
  </scstep>
  <scstep>
   <time name="diag">   68.93   68.93</time>
   <time name="diis">  181.23  181.23</time>
   <time name="orth">   13.78   13.78</time>
   <time name="total">  305.87  305.88</time>
   <energy>
    <i name="e_fr_energy">   -173.63569644 </i>
    <i name="e_wo_entrp">   -173.58827150 </i>
    <i name="e_0_energy">   -173.62384020 </i>
   </energy>
  </scstep>
  <scstep>
   <time name="diag">   68.58   68.58</time>
   <time name="diis">  171.53  171.53</time>
   <time name="orth">   13.61   13.61</time>
   <time name="total">  295.32  295.33</time>
   <energy>
    <i name="e_fr_energy">   -173.63762182 </i>
    <i name="e_wo_entrp">   -173.58844510 </i>
    <i name="e_0_energy">   -173.62532764 </i>
   </energy>
  </scstep>
  <scstep>
   <time name="diag">   68.82   68.82</time>
   <time name="diis">  158.46  158.46</time>
   <time name="orth">   13.57   13.57</time>
   <time name="total">  282.95  282.95</time>
   <energy>
    <i name="e_fr_energy">   -173.64085791 </i>
    <i name="e_wo_entrp">   -173.59247817 </i>
    <i name="e_0_energy">   -173.62876298 </i>
   </energy>
  </scstep>
  <scstep>
   <time name="diag">   68.24   68.24</time>
   <time name="diis">  137.12  137.12</time>
   <time name="orth">   13.49   13.49</time>
   <time name="total">  261.78  261.79</time>
   <energy>
    <i name="e_fr_energy">   -173.64294726 </i>
    <i name="e_wo_entrp">   -173.59496174 </i>
    <i name="e_0_energy">   -173.63095088 </i>
   </energy>
  </scstep>
  <scstep>
   <time name="diag">   69.10   69.10</time>
   <time name="diis">  152.25  152.25</time>
   <time name="orth">   13.70   13.70</time>
   <time name="total">  278.24  278.24</time>
   <energy>
    <i name="e_fr_energy">   -173.64593843 </i>
    <i name="e_wo_entrp">   -173.59704633 </i>
    <i name="e_0_energy">   -173.63371540 </i>
   </energy>
  </scstep>
  <scstep>
   <time name="diag">   68.75   68.75</time>
   <time name="diis">  136.11  136.11</time>
   <time name="orth">   13.89   13.89</time>
   <time name="total">  262.11  262.11</time>
   <energy>
    <i name="e_fr_energy">   -173.64817736 </i>
    <i name="e_wo_entrp">   -173.59999427 </i>
    <i name="e_0_energy">   -173.63613158 </i>
   </energy>
  </scstep>
  <scstep>
   <time name="diag">   67.98   67.99</time>
   <time name="diis">  120.15  120.15</time>
   <time name="orth">   13.98   13.98</time>
   <time name="total">  246.12  246.13</time>
   <energy>
    <i name="e_fr_energy">   -173.64972219 </i>
    <i name="e_wo_entrp">   -173.60156179 </i>
    <i name="e_0_energy">   -173.63768209 </i>
   </energy>
  </scstep>
  <scstep>
   <time name="diag">   67.69   67.69</time>
   <time name="diis">  123.45  123.45</time>
   <time name="orth">   13.41   13.41</time>
   <time name="total">  247.48  247.48</time>
   <energy>
    <i name="e_fr_energy">   -173.65145398 </i>
    <i name="e_wo_entrp">   -173.60330152 </i>
    <i name="e_0_energy">   -173.63941586 </i>
   </energy>
  </scstep>
  <scstep>
   <time name="diag">   67.89   67.89</time>
   <time name="diis">  117.08  117.08</time>
   <time name="orth">   13.65   13.65</time>
   <time name="total">  241.97  241.97</time>
   <energy>
    <i name="e_fr_energy">   -173.65264108 </i>
    <i name="e_wo_entrp">   -173.60452864 </i>
    <i name="e_0_energy">   -173.64061297 </i>
   </energy>
  </scstep>
  <scstep>
   <time name="diag">   67.77   67.77</time>
   <time name="diis">  115.94  115.95</time>
   <time name="orth">   13.69   13.69</time>
   <time name="total">  240.38  240.38</time>
   <energy>
    <i name="e_fr_energy">   -173.65349083 </i>
    <i name="e_wo_entrp">   -173.60550816 </i>
    <i name="e_0_energy">   -173.64149516 </i>
   </energy>
  </scstep>
  <scstep>
   <time name="diag">   68.11   68.11</time>
   <time name="diis">  114.44  114.45</time>
   <time name="orth">   13.38   13.38</time>
   <time name="total">  239.55  239.56</time>
   <energy>
    <i name="e_fr_energy">   -173.65463750 </i>
    <i name="e_wo_entrp">   -173.60635697 </i>
    <i name="e_0_energy">   -173.64256737 </i>
   </energy>
  </scstep>
  <scstep>
   <time name="diag">   67.43   67.43</time>
   <time name="diis">  115.45  115.45</time>
   <time name="orth">   13.49   13.49</time>
   <time name="total">  239.89  239.89</time>
   <energy>
    <i name="e_fr_energy">   -173.65511522 </i>
    <i name="e_wo_entrp">   -173.60667535 </i>
    <i name="e_0_energy">   -173.64300525 </i>
   </energy>
  </scstep>
  <scstep>
   <time name="diag">   68.20   68.20</time>
   <time name="diis">  112.95  112.95</time>
   <time name="orth">   13.53   13.53</time>
   <time name="total">  238.12  238.12</time>
   <energy>
    <i name="e_fr_energy">   -173.65622285 </i>
    <i name="e_wo_entrp">   -173.60806039 </i>
    <i name="e_0_energy">   -173.64418224 </i>
   </energy>
  </scstep>
  <scstep>
   <time name="diag">   67.97   67.97</time>
   <time name="diis">  106.98  106.98</time>
   <time name="orth">   13.61   13.61</time>
   <time name="total">  232.55  232.55</time>
   <energy>
    <i name="e_fr_energy">   -173.65663639 </i>
    <i name="e_wo_entrp">   -173.60847349 </i>
    <i name="e_0_energy">   -173.64459566 </i>
   </energy>
  </scstep>
  <scstep>
   <time name="diag">   67.65   67.65</time>
   <time name="diis">  102.06  102.06</time>
   <time name="orth">   13.50   13.50</time>
   <time name="total">  226.96  226.96</time>
   <energy>
    <i name="e_fr_energy">   -173.65712252 </i>
    <i name="e_wo_entrp">   -173.60902735 </i>
    <i name="e_0_energy">   -173.64509873 </i>
   </energy>
  </scstep>
  <scstep>
   <time name="diag">   68.12   68.13</time>
   <time name="diis">   98.19   98.19</time>
   <time name="orth">   13.50   13.50</time>
   <time name="total">  223.44  223.45</time>
   <energy>
    <i name="e_fr_energy">   -173.65764607 </i>
    <i name="e_wo_entrp">   -173.60948168 </i>
    <i name="e_0_energy">   -173.64560497 </i>
   </energy>
  </scstep>
  <scstep>
   <time name="diag">   67.71   67.71</time>
   <time name="diis">   84.54   84.54</time>
   <time name="orth">   13.71   13.71</time>
   <time name="total">  209.38  209.38</time>
   <energy>
    <i name="e_fr_energy">   -173.65787361 </i>
    <i name="e_wo_entrp">   -173.60975224 </i>
    <i name="e_0_energy">   -173.64584326 </i>
   </energy>
  </scstep>
  <scstep>
   <time name="diag">   68.39   68.40</time>
   <time name="diis">   96.83   96.83</time>
   <time name="orth">   13.44   13.44</time>
   <time name="total">  222.25  222.26</time>
   <energy>
    <i name="e_fr_energy">   -173.65833949 </i>
    <i name="e_wo_entrp">   -173.61034267 </i>
    <i name="e_0_energy">   -173.64634028 </i>
   </energy>
  </scstep>
  <scstep>
   <time name="diag">   68.41   68.41</time>
   <time name="diis">   76.92   76.92</time>
   <time name="orth">   13.52   13.52</time>
   <time name="total">  202.33  202.34</time>
   <energy>
    <i name="e_fr_energy">   -173.65849387 </i>
    <i name="e_wo_entrp">   -173.61035574 </i>
    <i name="e_0_energy">   -173.64645934 </i>
   </energy>
  </scstep>
  <scstep>
   <time name="diag">   67.81   67.81</time>
   <time name="diis">   91.88   91.88</time>
   <time name="orth">   13.52   13.52</time>
   <time name="total">  216.60  216.61</time>
   <energy>
    <i name="e_fr_energy">   -173.65870925 </i>
    <i name="e_wo_entrp">   -173.61062858 </i>
    <i name="e_0_energy">   -173.64668908 </i>
   </energy>
  </scstep>
  <scstep>
   <time name="diag">   67.68   67.68</time>
   <time name="diis">   83.13   83.14</time>
   <time name="orth">   13.44   13.44</time>
   <time name="total">  208.21  208.21</time>
   <energy>
    <i name="e_fr_energy">   -173.65884612 </i>
    <i name="e_wo_entrp">   -173.61075079 </i>
    <i name="e_0_energy">   -173.64682229 </i>
   </energy>
  </scstep>
  <scstep>
   <time name="diag">   68.26   68.26</time>
   <time name="diis">   79.00   79.00</time>
   <time name="orth">   13.52   13.52</time>
   <time name="total">  175.22  175.22</time>
   <energy>
    <i name="alphaZ">     75.25431677 </i>
    <i name="ewald"> 141022.48838945 </i>
    <i name="hartreedc">-185378.79451728 </i>
    <i name="XCdc">  -1689.98419585 </i>
    <i name="pawpsdc">  46404.25106320 </i>
    <i name="pawaedc"> -42875.53858255 </i>
    <i name="eentropy">     -0.04813362 </i>
    <i name="bandstr">  -2817.79277326 </i>
    <i name="atom">  45086.50549395 </i>
    <i name="e_fr_energy">   -173.65893919 </i>
    <i name="e_wo_entrp">   -173.61080557 </i>
    <i name="e_0_energy">   -173.64690578 </i>
   </energy>
  </scstep>
  <structure>
   <crystal>
    <varray name="basis" >
     <v>      30.00000000       0.00000000       0.00000000 </v>
     <v>       0.00000000      30.00000000       0.00000000 </v>
     <v>       0.00000000       0.00000000      30.00000000 </v>
    </varray>
    <i name="volume">  27000.00000000 </i>
    <varray name="rec_basis" >
     <v>       0.03333333       0.00000000       0.00000000 </v>
     <v>       0.00000000       0.03333333       0.00000000 </v>
     <v>       0.00000000       0.00000000       0.03333333 </v>
    </varray>
   </crystal>
   <varray name="positions" >
    <v>       0.44576020       0.32826710       0.41691983 </v>
    <v>       0.67173288       0.55423978       0.41691983 </v>
    <v>       0.55423980       0.32826710       0.41691983 </v>
    <v>       0.32826712       0.55423978       0.41691983 </v>
    <v>       0.50000000       0.38250690       0.34021317 </v>
    <v>       0.50000000       0.38250690       0.65978680 </v>
    <v>       0.50000000       0.27609440       0.50000000 </v>
    <v>       0.27609443       0.49999998       0.50000000 </v>
    <v>       0.72390557       0.49999998       0.50000000 </v>
    <v>       0.50000000       0.72390555       0.50000000 </v>
    <v>       0.61195280       0.38804720       0.34167483 </v>
    <v>       0.61195280       0.38804720       0.65832513 </v>
    <v>       0.38804722       0.61195278       0.34167483 </v>
    <v>       0.38804722       0.61195278       0.65832513 </v>
    <v>       0.38804720       0.38804720       0.34167483 </v>
    <v>       0.38804720       0.38804720       0.65832513 </v>
    <v>       0.61195278       0.61195278       0.34167483 </v>
    <v>       0.61195278       0.61195278       0.65832513 </v>
    <v>       0.44576020       0.32826710       0.58308023 </v>
    <v>       0.67173288       0.55423978       0.58308023 </v>
    <v>       0.55791699       0.44208301       0.41809300 </v>
    <v>       0.32826705       0.44576024       0.41691983 </v>
    <v>       0.55423973       0.67173293       0.41691983 </v>
    <v>       0.55423980       0.32826710       0.58308023 </v>
    <v>       0.32826712       0.55423978       0.58308023 </v>
    <v>       0.67173295       0.44576024       0.41691983 </v>
    <v>       0.44576027       0.67173293       0.41691983 </v>
    <v>       0.44208301       0.44208301       0.41809300 </v>
    <v>       0.50000000       0.38416601       0.50000000 </v>
    <v>       0.61749315       0.50000005       0.34021317 </v>
    <v>       0.61749315       0.50000005       0.65978680 </v>
    <v>       0.38250685       0.50000005       0.34021317 </v>
    <v>       0.38250685       0.50000005       0.65978680 </v>
    <v>       0.38317830       0.38317830       0.50000000 </v>
    <v>       0.61682172       0.61682172       0.50000000 </v>
    <v>       0.61682170       0.38317830       0.50000000 </v>
    <v>       0.38317828       0.61682172       0.50000000 </v>
    <v>       0.50000000       0.50000000       0.33478917 </v>
    <v>       0.50000000       0.50000000       0.66521087 </v>
    <v>       0.32826705       0.44576024       0.58308023 </v>
    <v>       0.55423973       0.67173293       0.58308023 </v>
    <v>       0.55791699       0.44208301       0.58190703 </v>
    <v>       0.44208298       0.55791702       0.41809300 </v>
    <v>       0.44208301       0.44208301       0.58190703 </v>
    <v>       0.67173295       0.44576024       0.58308023 </v>
    <v>       0.44576027       0.67173293       0.58308023 </v>
    <v>       0.55791702       0.55791702       0.41809300 </v>
    <v>       0.38416599       0.50000002       0.50000000 </v>
    <v>       0.61583401       0.50000002       0.50000000 </v>
    <v>       0.50000000       0.61749319       0.34021317 </v>
    <v>       0.50000000       0.61749319       0.65978680 </v>
    <v>       0.50000000       0.50000000       0.50000000 </v>
    <v>       0.44208298       0.55791702       0.58190703 </v>
    <v>       0.55791702       0.55791702       0.58190703 </v>
    <v>       0.50000000       0.61583404       0.50000000 </v>
    <v>       0.56971273       0.64765383       0.51024157 </v>
    <v>       0.58573430       0.68158800       0.51259533 </v>
   </varray>
  </structure>
  <varray name="forces" >
   <v>       0.69980750       1.10930416       0.28448234 </v>
   <v>      -1.06224518      -0.77688352       0.22962041 </v>
   <v>      -0.69890281       1.10283946       0.29659154 </v>
   <v>       1.11299941      -0.70312028       0.29598811 </v>
   <v>      -0.00360134       0.41657532       1.27819454 </v>
   <v>      -0.00567197       0.41605208      -1.27913532 </v>
   <v>       0.00798482       1.51635756       0.00102281 </v>
   <v>       1.51490705       0.00093482      -0.00003285 </v>
   <v>      -1.51132079       0.01786402      -0.00062967 </v>
   <v>      -0.30096291      -1.20360745      -0.06107867 </v>
   <v>      -0.75494112       0.75749252       1.06983674 </v>
   <v>      -0.75197134       0.75758647      -1.06925045 </v>
   <v>       0.75740265      -0.73849774       1.07158065 </v>
   <v>       0.75878425      -0.73311303      -1.08030881 </v>
   <v>       0.75188073       0.75958511       1.06932821 </v>
   <v>       0.75447252       0.75670721      -1.07058806 </v>
   <v>      -0.74845730      -0.75949584       1.04688047 </v>
   <v>      -0.73439472      -0.77752189      -1.01494115 </v>
   <v>       0.69819901       1.10963810      -0.28501279 </v>
   <v>      -1.06594902      -0.77846612      -0.23331836 </v>
   <v>       0.11147343      -0.10974711      -0.15622559 </v>
   <v>       1.10968834       0.69490269       0.29361552 </v>
   <v>      -0.80200985      -1.11324874       0.03039005 </v>
   <v>      -0.69941073       1.10556200      -0.29686124 </v>
   <v>       1.10925494      -0.70193364      -0.29413746 </v>
   <v>      -1.11091495       0.70810554       0.29675350 </v>
   <v>       0.66086348      -1.13115723       0.24265288 </v>
   <v>      -0.11324490      -0.10902028      -0.15141735 </v>
   <v>       0.00688328      -0.22722280       0.00029791 </v>
   <v>      -0.42838527       0.00007463       1.27269316 </v>
   <v>      -0.43250672       0.00201092      -1.27150539 </v>
   <v>       0.40868860      -0.01730819       1.26960358 </v>
   <v>       0.41392837      -0.00963646      -1.27447492 </v>
   <v>       0.82057714       0.83709658       0.00128069 </v>
   <v>       4.28993160      -5.72746434      -1.37704767 </v>
   <v>      -0.83575804       0.81655966      -0.00079248 </v>
   <v>       0.86161096      -0.84435485      -0.00990875 </v>
   <v>       0.00236771      -0.00033368       1.17890332 </v>
   <v>       0.00422999      -0.00121433      -1.18015355 </v>
   <v>       1.11038702       0.69687697      -0.29539242 </v>
   <v>      -1.02680338      -1.26603837       0.28265870 </v>
   <v>       0.10896133      -0.11027628       0.15285837 </v>
   <v>      -0.12212805       0.12381740      -0.16344936 </v>
   <v>      -0.11265158      -0.11548162       0.15181533 </v>
   <v>      -1.11000508       0.71198200      -0.29411984 </v>
   <v>       0.62098311      -1.13854996      -0.23015604 </v>
   <v>       0.10449518       0.02016350      -0.23894671 </v>
   <v>      -0.22406971       0.00249171      -0.00013411 </v>
   <v>       0.24888777       0.00245811      -0.00790723 </v>
   <v>      -0.00781232      -0.41528616       1.26705226 </v>
   <v>       0.00927678      -0.38683732      -1.26893347 </v>
   <v>      -0.01522688      -0.04847590       0.00078467 </v>
   <v>      -0.12612652       0.10715073       0.17695906 </v>
   <v>       0.09935720      -0.06140346       0.27505947 </v>
   <v>       1.08775995       0.80239352       0.12937721 </v>
   <v>      -9.26324269      -7.18298707       0.37923650 </v>
   <v>       3.82267105      11.83610086       0.56034173 </v>
  </varray>
  <varray name="stress" >
   <v>      -6.26744032      -0.18018778      -0.11433203 </v>
   <v>      -0.18018780      -5.69883383       0.10359907 </v>
   <v>      -0.11433206       0.10359907      -6.51599386 </v>
  </varray>
  <energy>
   <i name="e_fr_energy">   -173.65893919 </i>
   <i name="e_wo_entrp">   -173.64690578 </i>
   <i name="e_0_energy">     -0.04813362 </i>
  </energy>
  <time name="totalsc">18342.9318343.41</time>
  <eigenvalues>
   <array>
    <dimension dim="1">band</dimension>
    <dimension dim="2">kpoint</dimension>
    <dimension dim="3">spin</dimension>
    <field>eigene</field>
    <field>occ</field>
    <set>
     <set comment="spin 1">
      <set comment="kpoint 1">
       <r>  -29.0455    1.0000 </r>
       <r>  -14.0591    1.0000 </r>
       <r>  -12.4120    1.0000 </r>
       <r>  -12.0300    1.0000 </r>
       <r>  -10.8075    1.0000 </r>
       <r>   -7.0778    1.0000 </r>
       <r>   -6.6767    1.0000 </r>
       <r>   -6.5680    1.0000 </r>
       <r>   -6.1251    1.0000 </r>
       <r>   -6.1142    1.0000 </r>
       <r>   -6.0864    1.0000 </r>
       <r>   -6.0506    1.0000 </r>
       <r>   -5.8964    1.0000 </r>
       <r>   -5.8611    1.0000 </r>
       <r>   -5.8117    1.0000 </r>
       <r>   -5.7972    1.0000 </r>
       <r>   -5.7555    1.0000 </r>
       <r>   -5.7246    1.0000 </r>
       <r>   -5.7061    1.0000 </r>
       <r>   -5.6613    1.0000 </r>
       <r>   -5.6584    1.0000 </r>
       <r>   -5.6562    1.0000 </r>
       <r>   -5.6220    1.0000 </r>
       <r>   -5.6179    1.0000 </r>
       <r>   -5.5964    1.0000 </r>
       <r>   -5.5744    1.0000 </r>
       <r>   -5.5660    1.0000 </r>
       <r>   -5.5605    1.0000 </r>
       <r>   -5.5498    1.0000 </r>
       <r>   -5.5380    1.0000 </r>
       <r>   -5.5237    1.0000 </r>
       <r>   -5.5093    1.0000 </r>
       <r>   -5.5072    1.0000 </r>
       <r>   -5.5031    1.0000 </r>
       <r>   -5.4995    1.0000 </r>
       <r>   -5.4944    1.0000 </r>
       <r>   -5.4854    1.0000 </r>
       <r>   -5.4824    1.0000 </r>
       <r>   -5.4750    1.0000 </r>
       <r>   -5.4714    1.0000 </r>
       <r>   -5.4687    1.0000 </r>
       <r>   -5.4610    1.0000 </r>
       <r>   -5.4560    1.0000 </r>
       <r>   -5.4453    1.0000 </r>
       <r>   -5.4400    1.0000 </r>
       <r>   -5.4393    1.0000 </r>
       <r>   -5.4312    1.0000 </r>
       <r>   -5.4272    1.0000 </r>
       <r>   -5.4245    1.0000 </r>
       <r>   -5.4055    1.0000 </r>
       <r>   -5.4012    1.0000 </r>
       <r>   -5.3963    1.0000 </r>
       <r>   -5.3871    1.0000 </r>
       <r>   -5.3850    1.0000 </r>
       <r>   -5.3753    1.0000 </r>
       <r>   -5.3701    1.0000 </r>
       <r>   -5.3573    1.0000 </r>
       <r>   -5.3513    1.0000 </r>
       <r>   -5.3374    1.0000 </r>
       <r>   -5.3353    1.0000 </r>
       <r>   -5.3210    1.0000 </r>
       <r>   -5.3032    1.0000 </r>
       <r>   -5.2942    1.0000 </r>
       <r>   -5.2919    1.0000 </r>
       <r>   -5.2898    1.0000 </r>
       <r>   -5.2850    1.0000 </r>
       <r>   -5.2824    1.0000 </r>
       <r>   -5.2801    1.0000 </r>
       <r>   -5.2629    1.0000 </r>
       <r>   -5.2572    1.0000 </r>
       <r>   -5.2378    1.0000 </r>
       <r>   -5.2155    1.0000 </r>
       <r>   -5.2066    1.0000 </r>
       <r>   -5.1835    1.0000 </r>
       <r>   -5.1673    1.0000 </r>
       <r>   -5.1631    1.0000 </r>
       <r>   -5.1588    1.0000 </r>
       <r>   -5.1530    1.0000 </r>
       <r>   -5.1519    1.0000 </r>
       <r>   -5.1503    1.0000 </r>
       <r>   -5.1385    1.0000 </r>
       <r>   -5.1331    1.0000 </r>
       <r>   -5.1223    1.0000 </r>
       <r>   -5.1188    1.0000 </r>
       <r>   -5.1099    1.0000 </r>
       <r>   -5.0968    1.0000 </r>
       <r>   -5.0931    1.0000 </r>
       <r>   -5.0892    1.0000 </r>
       <r>   -5.0800    1.0000 </r>
       <r>   -5.0767    1.0000 </r>
       <r>   -5.0710    1.0000 </r>
       <r>   -5.0514    1.0000 </r>
       <r>   -5.0431    1.0000 </r>
       <r>   -5.0399    1.0000 </r>
       <r>   -5.0376    1.0000 </r>
       <r>   -5.0365    1.0000 </r>
       <r>   -5.0228    1.0000 </r>
       <r>   -5.0210    1.0000 </r>
       <r>   -5.0141    1.0000 </r>
       <r>   -5.0074    1.0000 </r>
       <r>   -4.9986    1.0000 </r>
       <r>   -4.9952    1.0000 </r>
       <r>   -4.9910    1.0000 </r>
       <r>   -4.9886    1.0000 </r>
       <r>   -4.9826    1.0000 </r>
       <r>   -4.9779    1.0000 </r>
       <r>   -4.9776    1.0000 </r>
       <r>   -4.9753    1.0000 </r>
       <r>   -4.9627    1.0000 </r>
       <r>   -4.9580    1.0000 </r>
       <r>   -4.9563    1.0000 </r>
       <r>   -4.9534    1.0000 </r>
       <r>   -4.9476    1.0000 </r>
       <r>   -4.9437    1.0000 </r>
       <r>   -4.9383    1.0000 </r>
       <r>   -4.9289    1.0000 </r>
       <r>   -4.9274    1.0000 </r>
       <r>   -4.9246    1.0000 </r>
       <r>   -4.9198    1.0000 </r>
       <r>   -4.9049    1.0000 </r>
       <r>   -4.8990    1.0000 </r>
       <r>   -4.8934    1.0000 </r>
       <r>   -4.8891    1.0000 </r>
       <r>   -4.8869    1.0000 </r>
       <r>   -4.8790    1.0000 </r>
       <r>   -4.8742    1.0000 </r>
       <r>   -4.8730    1.0000 </r>
       <r>   -4.8623    1.0000 </r>
       <r>   -4.8498    1.0000 </r>
       <r>   -4.8426    1.0000 </r>
       <r>   -4.8370    1.0000 </r>
       <r>   -4.8319    1.0000 </r>
       <r>   -4.8210    1.0000 </r>
       <r>   -4.8163    1.0000 </r>
       <r>   -4.8082    1.0000 </r>
       <r>   -4.8028    1.0000 </r>
       <r>   -4.8001    1.0000 </r>
       <r>   -4.7928    1.0000 </r>
       <r>   -4.7882    0.9999 </r>
       <r>   -4.7741    0.9999 </r>
       <r>   -4.7665    0.9999 </r>
       <r>   -4.7566    0.9999 </r>
       <r>   -4.7455    0.9998 </r>
       <r>   -4.7300    0.9998 </r>
       <r>   -4.7236    0.9997 </r>
       <r>   -4.7130    0.9997 </r>
       <r>   -4.7090    0.9996 </r>
       <r>   -4.7088    0.9996 </r>
       <r>   -4.6986    0.9995 </r>
       <r>   -4.6942    0.9995 </r>
       <r>   -4.6856    0.9994 </r>
       <r>   -4.6748    0.9992 </r>
       <r>   -4.6702    0.9992 </r>
       <r>   -4.6620    0.9990 </r>
       <r>   -4.6561    0.9989 </r>
       <r>   -4.6519    0.9988 </r>
       <r>   -4.6463    0.9987 </r>
       <r>   -4.6453    0.9987 </r>
       <r>   -4.6400    0.9985 </r>
       <r>   -4.6374    0.9985 </r>
       <r>   -4.6315    0.9983 </r>
       <r>   -4.6271    0.9982 </r>
       <r>   -4.6256    0.9981 </r>
       <r>   -4.6226    0.9980 </r>
       <r>   -4.6208    0.9980 </r>
       <r>   -4.6190    0.9979 </r>
       <r>   -4.6151    0.9978 </r>
       <r>   -4.6104    0.9977 </r>
       <r>   -4.6096    0.9976 </r>
       <r>   -4.6027    0.9974 </r>
       <r>   -4.5997    0.9973 </r>
       <r>   -4.5954    0.9971 </r>
       <r>   -4.5787    0.9965 </r>
       <r>   -4.5750    0.9964 </r>
       <r>   -4.5737    0.9963 </r>
       <r>   -4.5678    0.9961 </r>
       <r>   -4.5668    0.9961 </r>
       <r>   -4.5640    0.9960 </r>
       <r>   -4.5578    0.9958 </r>
       <r>   -4.5548    0.9957 </r>
       <r>   -4.5520    0.9956 </r>
       <r>   -4.5470    0.9954 </r>
       <r>   -4.5402    0.9953 </r>
       <r>   -4.5285    0.9951 </r>
       <r>   -4.5276    0.9951 </r>
       <r>   -4.5244    0.9951 </r>
       <r>   -4.5224    0.9951 </r>
       <r>   -4.5209    0.9951 </r>
       <r>   -4.5180    0.9951 </r>
       <r>   -4.5121    0.9952 </r>
       <r>   -4.5014    0.9955 </r>
       <r>   -4.4916    0.9960 </r>
       <r>   -4.4883    0.9962 </r>
       <r>   -4.4810    0.9969 </r>
       <r>   -4.4782    0.9972 </r>
       <r>   -4.4688    0.9983 </r>
       <r>   -4.4654    0.9989 </r>
       <r>   -4.4632    0.9992 </r>
       <r>   -4.4569    1.0003 </r>
       <r>   -4.4538    1.0009 </r>
       <r>   -4.4535    1.0010 </r>
       <r>   -4.4475    1.0023 </r>
       <r>   -4.4440    1.0032 </r>
       <r>   -4.4389    1.0045 </r>
       <r>   -4.4325    1.0063 </r>
       <r>   -4.4293    1.0073 </r>
       <r>   -4.4267    1.0081 </r>
       <r>   -4.4235    1.0092 </r>
       <r>   -4.4154    1.0121 </r>
       <r>   -4.4135    1.0128 </r>
       <r>   -4.4107    1.0139 </r>
       <r>   -4.4023    1.0173 </r>
       <r>   -4.3917    1.0220 </r>
       <r>   -4.3902    1.0227 </r>
       <r>   -4.3817    1.0267 </r>
       <r>   -4.3808    1.0272 </r>
       <r>   -4.3789    1.0281 </r>
       <r>   -4.3732    1.0308 </r>
       <r>   -4.3725    1.0311 </r>
       <r>   -4.3677    1.0335 </r>
       <r>   -4.3663    1.0341 </r>
       <r>   -4.3556    1.0391 </r>
       <r>   -4.3483    1.0423 </r>
       <r>   -4.3325    1.0480 </r>
       <r>   -4.3228    1.0504 </r>
       <r>   -4.3207    1.0508 </r>
       <r>   -4.3136    1.0515 </r>
       <r>   -4.3097    1.0516 </r>
       <r>   -4.3088    1.0516 </r>
       <r>   -4.3077    1.0516 </r>
       <r>   -4.3057    1.0514 </r>
       <r>   -4.3001    1.0507 </r>
       <r>   -4.2998    1.0506 </r>
       <r>   -4.2983    1.0503 </r>
       <r>   -4.2978    1.0502 </r>
       <r>   -4.2965    1.0499 </r>
       <r>   -4.2940    1.0491 </r>
       <r>   -4.2885    1.0470 </r>
       <r>   -4.2861    1.0459 </r>
       <r>   -4.2831    1.0442 </r>
       <r>   -4.2785    1.0412 </r>
       <r>   -4.2741    1.0378 </r>
       <r>   -4.2736    1.0374 </r>
       <r>   -4.2680    1.0321 </r>
       <r>   -4.2675    1.0316 </r>
       <r>   -4.2609    1.0240 </r>
       <r>   -4.2565    1.0182 </r>
       <r>   -4.2542    1.0149 </r>
       <r>   -4.2493    1.0072 </r>
       <r>   -4.2441    0.9981 </r>
       <r>   -4.2404    0.9910 </r>
       <r>   -4.2373    0.9847 </r>
       <r>   -4.2307    0.9703 </r>
       <r>   -4.2290    0.9660 </r>
       <r>   -4.2240    0.9537 </r>
       <r>   -4.2223    0.9490 </r>
       <r>   -4.2190    0.9401 </r>
       <r>   -4.2166    0.9333 </r>
       <r>   -4.2148    0.9280 </r>
       <r>   -4.2133    0.9234 </r>
       <r>   -4.2101    0.9138 </r>
       <r>   -4.2088    0.9095 </r>
       <r>   -4.2076    0.9057 </r>
       <r>   -4.2052    0.8979 </r>
       <r>   -4.2042    0.8944 </r>
       <r>   -4.1971    0.8698 </r>
       <r>   -4.1952    0.8626 </r>
       <r>   -4.1891    0.8395 </r>
       <r>   -4.1882    0.8359 </r>
       <r>   -4.1859    0.8267 </r>
       <r>   -4.1834    0.8168 </r>
       <r>   -4.1762    0.7864 </r>
       <r>   -4.1698    0.7579 </r>
       <r>   -4.1616    0.7197 </r>
       <r>   -4.1582    0.7036 </r>
       <r>   -4.1550    0.6879 </r>
       <r>   -4.1511    0.6690 </r>
       <r>   -4.1449    0.6379 </r>
       <r>   -4.1407    0.6160 </r>
       <r>   -4.1376    0.6000 </r>
       <r>   -4.1280    0.5502 </r>
       <r>   -4.1272    0.5457 </r>
       <r>   -4.1156    0.4844 </r>
       <r>   -4.1066    0.4373 </r>
       <r>   -4.1003    0.4041 </r>
       <r>   -4.0951    0.3776 </r>
       <r>   -4.0879    0.3410 </r>
       <r>   -4.0808    0.3058 </r>
       <r>   -3.9658   -0.0353 </r>
       <r>   -3.8924   -0.0437 </r>
       <r>   -3.8789   -0.0380 </r>
       <r>   -3.7957   -0.0038 </r>
       <r>   -3.7862   -0.0016 </r>
       <r>   -3.6661    0.0038 </r>
       <r>   -3.4787    0.0001 </r>
       <r>   -3.4523    0.0001 </r>
       <r>   -3.1985    0.0000 </r>
       <r>   -3.0389    0.0000 </r>
       <r>   -3.0294    0.0000 </r>
       <r>   -3.0242    0.0000 </r>
       <r>   -3.0000    0.0000 </r>
       <r>   -2.9859    0.0000 </r>
       <r>   -2.9646    0.0000 </r>
       <r>   -2.8970    0.0000 </r>
       <r>   -2.7676    0.0000 </r>
       <r>   -2.4946    0.0000 </r>
       <r>   -2.4851    0.0000 </r>
       <r>   -2.3947    0.0000 </r>
       <r>   -2.3055    0.0000 </r>
       <r>   -2.1566    0.0000 </r>
       <r>   -2.0927    0.0000 </r>
       <r>   -2.0030    0.0000 </r>
       <r>   -1.9339    0.0000 </r>
       <r>   -1.9189    0.0000 </r>
       <r>   -1.8434    0.0000 </r>
       <r>   -1.8273    0.0000 </r>
       <r>   -1.8064    0.0000 </r>
       <r>   -1.7386    0.0000 </r>
       <r>   -1.6554    0.0000 </r>
       <r>   -1.6105    0.0000 </r>
       <r>   -1.5540    0.0000 </r>
       <r>   -1.5222    0.0000 </r>
       <r>   -1.3796    0.0000 </r>
       <r>   -1.3176    0.0000 </r>
       <r>   -1.2482    0.0000 </r>
       <r>   -1.2070    0.0000 </r>
       <r>   -1.1250    0.0000 </r>
       <r>   -1.0321    0.0000 </r>
       <r>   -0.9563    0.0000 </r>
       <r>   -0.9533    0.0000 </r>
       <r>   -0.9111    0.0000 </r>
       <r>   -0.8960    0.0000 </r>
       <r>   -0.8242    0.0000 </r>
       <r>   -0.7590    0.0000 </r>
       <r>   -0.7320    0.0000 </r>
       <r>   -0.6195    0.0000 </r>
      </set>
     </set>
    </set>
   </array>
  </eigenvalues>
  <separator name="orbital magnetization" >
   <v name="MAGDIPOLOUT">      0.00000000      0.00000000      0.00000000</v>
  </separator>
  <dos>
   <i name="efermi">     -4.11851783 </i>
   <total>
    <array>
     <dimension dim="1">gridpoints</dimension>
     <dimension dim="2">spin</dimension>
     <field>energy</field>
     <field>total</field>
     <field>integrated</field>
     <set>
      <set comment="spin 1">
       <r>   -31.0455     0.0000     0.0000 </r>
       <r>   -30.9374     0.0000     0.0000 </r>
       <r>   -30.8293     0.0000     0.0000 </r>
       <r>   -30.7212     0.0000     0.0000 </r>
       <r>   -30.6131     0.0000     0.0000 </r>
       <r>   -30.5050     0.0000     0.0000 </r>
       <r>   -30.3969     0.0000     0.0000 </r>
       <r>   -30.2888     0.0000     0.0000 </r>
       <r>   -30.1808     0.0000     0.0000 </r>
       <r>   -30.0727     0.0000     0.0000 </r>
       <r>   -29.9646     0.0000     0.0000 </r>
       <r>   -29.8565     0.0000     0.0000 </r>
       <r>   -29.7484     0.0003     0.0000 </r>
       <r>   -29.6403     0.0059     0.0007 </r>
       <r>   -29.5322     0.0403     0.0050 </r>
       <r>   -29.4242     0.0337     0.0087 </r>
       <r>   -29.3161    -0.5099    -0.0464 </r>
       <r>   -29.2080    -0.3648    -0.0859 </r>
       <r>   -29.0999     5.0129     0.4560 </r>
       <r>   -28.9918    10.0008     1.5369 </r>
       <r>   -28.8837     5.0692     2.0848 </r>
       <r>   -28.7756    -0.3482     2.0472 </r>
       <r>   -28.6676    -0.5160     1.9914 </r>
       <r>   -28.5595     0.0324     1.9949 </r>
       <r>   -28.4514     0.0407     1.9993 </r>
       <r>   -28.3433     0.0060     2.0000 </r>
       <r>   -28.2352     0.0004     2.0000 </r>
       <r>   -28.1271     0.0000     2.0000 </r>
       <r>   -28.0190     0.0000     2.0000 </r>
       <r>   -27.9109     0.0000     2.0000 </r>
       <r>   -27.8029     0.0000     2.0000 </r>
       <r>   -27.6948     0.0000     2.0000 </r>
       <r>   -27.5867     0.0000     2.0000 </r>
       <r>   -27.4786     0.0000     2.0000 </r>
       <r>   -27.3705     0.0000     2.0000 </r>
       <r>   -27.2624     0.0000     2.0000 </r>
       <r>   -27.1543     0.0000     2.0000 </r>
       <r>   -27.0463     0.0000     2.0000 </r>
       <r>   -26.9382     0.0000     2.0000 </r>
       <r>   -26.8301     0.0000     2.0000 </r>
       <r>   -26.7220     0.0000     2.0000 </r>
       <r>   -26.6139     0.0000     2.0000 </r>
       <r>   -26.5058     0.0000     2.0000 </r>
       <r>   -26.3977     0.0000     2.0000 </r>
       <r>   -26.2897     0.0000     2.0000 </r>
       <r>   -26.1816     0.0000     2.0000 </r>
       <r>   -26.0735     0.0000     2.0000 </r>
       <r>   -25.9654     0.0000     2.0000 </r>
       <r>   -25.8573     0.0000     2.0000 </r>
       <r>   -25.7492     0.0000     2.0000 </r>
       <r>   -25.6411     0.0000     2.0000 </r>
       <r>   -25.5330     0.0000     2.0000 </r>
       <r>   -25.4250     0.0000     2.0000 </r>
       <r>   -25.3169     0.0000     2.0000 </r>
       <r>   -25.2088     0.0000     2.0000 </r>
       <r>   -25.1007     0.0000     2.0000 </r>
       <r>   -24.9926     0.0000     2.0000 </r>
       <r>   -24.8845     0.0000     2.0000 </r>
       <r>   -24.7764     0.0000     2.0000 </r>
       <r>   -24.6684     0.0000     2.0000 </r>
       <r>   -24.5603     0.0000     2.0000 </r>
       <r>   -24.4522     0.0000     2.0000 </r>
       <r>   -24.3441     0.0000     2.0000 </r>
       <r>   -24.2360     0.0000     2.0000 </r>
       <r>   -24.1279     0.0000     2.0000 </r>
       <r>   -24.0198     0.0000     2.0000 </r>
       <r>   -23.9118     0.0000     2.0000 </r>
       <r>   -23.8037     0.0000     2.0000 </r>
       <r>   -23.6956     0.0000     2.0000 </r>
       <r>   -23.5875     0.0000     2.0000 </r>
       <r>   -23.4794     0.0000     2.0000 </r>
       <r>   -23.3713     0.0000     2.0000 </r>
       <r>   -23.2632     0.0000     2.0000 </r>
       <r>   -23.1551     0.0000     2.0000 </r>
       <r>   -23.0471     0.0000     2.0000 </r>
       <r>   -22.9390     0.0000     2.0000 </r>
       <r>   -22.8309     0.0000     2.0000 </r>
       <r>   -22.7228     0.0000     2.0000 </r>
       <r>   -22.6147     0.0000     2.0000 </r>
       <r>   -22.5066     0.0000     2.0000 </r>
       <r>   -22.3985     0.0000     2.0000 </r>
       <r>   -22.2905     0.0000     2.0000 </r>
       <r>   -22.1824     0.0000     2.0000 </r>
       <r>   -22.0743     0.0000     2.0000 </r>
       <r>   -21.9662     0.0000     2.0000 </r>
       <r>   -21.8581     0.0000     2.0000 </r>
       <r>   -21.7500     0.0000     2.0000 </r>
       <r>   -21.6419     0.0000     2.0000 </r>
       <r>   -21.5339     0.0000     2.0000 </r>
       <r>   -21.4258     0.0000     2.0000 </r>
       <r>   -21.3177     0.0000     2.0000 </r>
       <r>   -21.2096     0.0000     2.0000 </r>
       <r>   -21.1015     0.0000     2.0000 </r>
       <r>   -20.9934     0.0000     2.0000 </r>
       <r>   -20.8853     0.0000     2.0000 </r>
       <r>   -20.7772     0.0000     2.0000 </r>
       <r>   -20.6692     0.0000     2.0000 </r>
       <r>   -20.5611     0.0000     2.0000 </r>
       <r>   -20.4530     0.0000     2.0000 </r>
       <r>   -20.3449     0.0000     2.0000 </r>
       <r>   -20.2368     0.0000     2.0000 </r>
       <r>   -20.1287     0.0000     2.0000 </r>
       <r>   -20.0206     0.0000     2.0000 </r>
       <r>   -19.9126     0.0000     2.0000 </r>
       <r>   -19.8045     0.0000     2.0000 </r>
       <r>   -19.6964     0.0000     2.0000 </r>
       <r>   -19.5883     0.0000     2.0000 </r>
       <r>   -19.4802     0.0000     2.0000 </r>
       <r>   -19.3721     0.0000     2.0000 </r>
       <r>   -19.2640     0.0000     2.0000 </r>
       <r>   -19.1560     0.0000     2.0000 </r>
       <r>   -19.0479     0.0000     2.0000 </r>
       <r>   -18.9398     0.0000     2.0000 </r>
       <r>   -18.8317     0.0000     2.0000 </r>
       <r>   -18.7236     0.0000     2.0000 </r>
       <r>   -18.6155     0.0000     2.0000 </r>
       <r>   -18.5074     0.0000     2.0000 </r>
       <r>   -18.3993     0.0000     2.0000 </r>
       <r>   -18.2913     0.0000     2.0000 </r>
       <r>   -18.1832     0.0000     2.0000 </r>
       <r>   -18.0751     0.0000     2.0000 </r>
       <r>   -17.9670     0.0000     2.0000 </r>
       <r>   -17.8589     0.0000     2.0000 </r>
       <r>   -17.7508     0.0000     2.0000 </r>
       <r>   -17.6427     0.0000     2.0000 </r>
       <r>   -17.5347     0.0000     2.0000 </r>
       <r>   -17.4266     0.0000     2.0000 </r>
       <r>   -17.3185     0.0000     2.0000 </r>
       <r>   -17.2104     0.0000     2.0000 </r>
       <r>   -17.1023     0.0000     2.0000 </r>
       <r>   -16.9942     0.0000     2.0000 </r>
       <r>   -16.8861     0.0000     2.0000 </r>
       <r>   -16.7781     0.0000     2.0000 </r>
       <r>   -16.6700     0.0000     2.0000 </r>
       <r>   -16.5619     0.0000     2.0000 </r>
       <r>   -16.4538     0.0000     2.0000 </r>
       <r>   -16.3457     0.0000     2.0000 </r>
       <r>   -16.2376     0.0000     2.0000 </r>
       <r>   -16.1295     0.0000     2.0000 </r>
       <r>   -16.0214     0.0000     2.0000 </r>
       <r>   -15.9134     0.0000     2.0000 </r>
       <r>   -15.8053     0.0000     2.0000 </r>
       <r>   -15.6972     0.0000     2.0000 </r>
       <r>   -15.5891     0.0000     2.0000 </r>
       <r>   -15.4810     0.0000     2.0000 </r>
       <r>   -15.3729     0.0000     2.0000 </r>
       <r>   -15.2648     0.0000     2.0000 </r>
       <r>   -15.1568     0.0000     2.0000 </r>
       <r>   -15.0487     0.0000     2.0000 </r>
       <r>   -14.9406     0.0000     2.0000 </r>
       <r>   -14.8325     0.0000     2.0000 </r>
       <r>   -14.7244     0.0010     2.0001 </r>
       <r>   -14.6163     0.0129     2.0015 </r>
       <r>   -14.5082     0.0582     2.0078 </r>
       <r>   -14.4002    -0.0689     2.0003 </r>
       <r>   -14.2921    -0.7600     1.9182 </r>
       <r>   -14.1840     0.8134     2.0061 </r>
       <r>   -14.0759     7.5568     2.8229 </r>
       <r>   -13.9678     9.2740     3.8253 </r>
       <r>   -13.8597     2.5628     4.1023 </r>
       <r>   -13.7516    -0.7919     4.0167 </r>
       <r>   -13.6435    -0.2443     3.9903 </r>
       <r>   -13.5355     0.0635     3.9972 </r>
       <r>   -13.4274     0.0236     3.9997 </r>
       <r>   -13.3193     0.0024     4.0000 </r>
       <r>   -13.2112     0.0001     4.0000 </r>
       <r>   -13.1031     0.0005     4.0001 </r>
       <r>   -12.9950     0.0076     4.0009 </r>
       <r>   -12.8869     0.0463     4.0059 </r>
       <r>   -12.7789     0.0111     4.0071 </r>
       <r>   -12.6708    -0.5966     3.9426 </r>
       <r>   -12.5627    -0.0640     3.9357 </r>
       <r>   -12.4546     5.9036     4.5738 </r>
       <r>   -12.3465     9.7420     5.6268 </r>
       <r>   -12.2384     3.4340     5.9979 </r>
       <r>   -12.1303     1.4708     6.1569 </r>
       <r>   -12.0222     8.4654     7.0719 </r>
       <r>   -11.9142     8.1468     7.9525 </r>
       <r>   -11.8061     1.2608     8.0887 </r>
       <r>   -11.6980    -0.7909     8.0033 </r>
       <r>   -11.5899    -0.1081     7.9916 </r>
       <r>   -11.4818     0.0622     7.9983 </r>
       <r>   -11.3737     0.0261     8.0011 </r>
       <r>   -11.2656     0.0557     8.0071 </r>
       <r>   -11.1576    -0.0358     8.0033 </r>
       <r>   -11.0495    -0.7117     7.9263 </r>
       <r>   -10.9414     0.4549     7.9755 </r>
       <r>   -10.8333     6.9822     8.7302 </r>
       <r>   -10.7252     9.5781     9.7654 </r>
       <r>   -10.6171     3.1251    10.1032 </r>
       <r>   -10.5090    -0.7421    10.0230 </r>
       <r>   -10.4010    -0.3041     9.9901 </r>
       <r>   -10.2929     0.0608     9.9967 </r>
       <r>   -10.1848     0.0273     9.9997 </r>
       <r>   -10.0767     0.0031    10.0000 </r>
       <r>    -9.9686     0.0001    10.0000 </r>
       <r>    -9.8605     0.0000    10.0000 </r>
       <r>    -9.7524     0.0000    10.0000 </r>
       <r>    -9.6443     0.0000    10.0000 </r>
       <r>    -9.5363     0.0000    10.0000 </r>
       <r>    -9.4282     0.0000    10.0000 </r>
       <r>    -9.3201     0.0000    10.0000 </r>
       <r>    -9.2120     0.0000    10.0000 </r>
       <r>    -9.1039     0.0000    10.0000 </r>
       <r>    -8.9958     0.0000    10.0000 </r>
       <r>    -8.8877     0.0000    10.0000 </r>
       <r>    -8.7797     0.0000    10.0000 </r>
       <r>    -8.6716     0.0000    10.0000 </r>
       <r>    -8.5635     0.0000    10.0000 </r>
       <r>    -8.4554     0.0000    10.0000 </r>
       <r>    -8.3473     0.0000    10.0000 </r>
       <r>    -8.2392     0.0000    10.0000 </r>
       <r>    -8.1311     0.0000    10.0000 </r>
       <r>    -8.0231     0.0000    10.0000 </r>
       <r>    -7.9150     0.0000    10.0000 </r>
       <r>    -7.8069     0.0002    10.0000 </r>
       <r>    -7.6988     0.0032    10.0004 </r>
       <r>    -7.5907     0.0280    10.0034 </r>
       <r>    -7.4826     0.0600    10.0099 </r>
       <r>    -7.3745    -0.3152     9.9758 </r>
       <r>    -7.2664    -0.7225     9.8977 </r>
       <r>    -7.1584     3.2812    10.2524 </r>
       <r>    -7.0503     9.6929    11.3000 </r>
       <r>    -6.9422     6.3501    11.9864 </r>
       <r>    -6.8341    -0.4018    11.9430 </r>
       <r>    -6.7260     4.4177    12.4205 </r>
       <r>    -6.6179    15.3916    14.0841 </r>
       <r>    -6.5098    14.9755    15.7027 </r>
       <r>    -6.4018     3.3018    16.0596 </r>
       <r>    -6.2937    -3.3071    15.7022 </r>
       <r>    -6.1856    10.3375    16.8195 </r>
       <r>    -6.0775    33.7172    20.4639 </r>
       <r>    -5.9694    32.2165    23.9460 </r>
       <r>    -5.8613    29.4816    27.1326 </r>
       <r>    -5.7532    49.9062    32.5268 </r>
       <r>    -5.6452    89.1754    42.1654 </r>
       <r>    -5.5371   179.1756    61.5319 </r>
       <r>    -5.4290   277.2855    91.5027 </r>
       <r>    -5.3209   273.3112   121.0439 </r>
       <r>    -5.2128   215.6021   144.3475 </r>
       <r>    -5.1047   237.3318   169.9999 </r>
       <r>    -4.9966   327.0792   205.3527 </r>
       <r>    -4.8885   354.4156   243.6602 </r>
       <r>    -4.7805   296.8206   275.7424 </r>
       <r>    -4.6724   307.2909   308.9564 </r>
       <r>    -4.5643   397.5478   351.9259 </r>
       <r>    -4.4562   425.5456   397.9216 </r>
       <r>    -4.3481   450.1198   446.5734 </r>
       <r>    -4.2400   537.0878   504.6253 </r>
       <r>    -4.1319   471.3668   555.5736 </r>
       <r>    -4.0239   202.5876   577.4706 </r>
       <r>    -3.9158    28.5885   580.5606 </r>
       <r>    -3.8077    22.2177   582.9620 </r>
       <r>    -3.6996    29.5862   586.1599 </r>
       <r>    -3.5915    16.4760   587.9407 </r>
       <r>    -3.4834    16.6023   589.7352 </r>
       <r>    -3.3753    16.9188   591.5639 </r>
       <r>    -3.2673     5.7823   592.1889 </r>
       <r>    -3.1592     8.3936   593.0961 </r>
       <r>    -3.0511    39.4080   597.3556 </r>
       <r>    -2.9430    62.8011   604.1435 </r>
       <r>    -2.8349    39.7339   608.4382 </r>
       <r>    -2.7268    10.6870   609.5933 </r>
       <r>    -2.6187     3.2784   609.9477 </r>
       <r>    -2.5106    14.8146   611.5489 </r>
       <r>    -2.4026    28.0296   614.5786 </r>
       <r>    -2.2945    22.9800   617.0624 </r>
       <r>    -2.1864    15.7977   618.7699 </r>
       <r>    -2.0783    20.1452   620.9473 </r>
       <r>    -1.9702    31.1490   624.3141 </r>
       <r>    -1.8621    44.4730   629.1210 </r>
       <r>    -1.7540    45.4853   634.0374 </r>
       <r>    -1.6460    37.2273   638.0611 </r>
       <r>    -1.5379    33.1698   641.6463 </r>
       <r>    -1.4298    25.1324   644.3628 </r>
       <r>    -1.3217    24.2129   646.9799 </r>
       <r>    -1.2136    30.1475   650.2384 </r>
       <r>    -1.1055    27.3904   653.1989 </r>
       <r>    -0.9974    32.9048   656.7555 </r>
       <r>    -0.8894    47.7835   661.9203 </r>
       <r>    -0.7813    45.3881   666.8261 </r>
       <r>    -0.6732    30.5345   670.1265 </r>
       <r>    -0.5651    15.2058   671.7700 </r>
       <r>    -0.4570     3.2003   672.1159 </r>
       <r>    -0.3489    -0.9116   672.0174 </r>
       <r>    -0.2408    -0.3244   671.9823 </r>
       <r>    -0.1327     0.1079   671.9940 </r>
       <r>    -0.0247     0.0490   671.9993 </r>
       <r>     0.0834     0.0063   672.0000 </r>
       <r>     0.1915     0.0004   672.0000 </r>
       <r>     0.2996     0.0000   672.0000 </r>
       <r>     0.4077     0.0000   672.0000 </r>
       <r>     0.5158     0.0000   672.0000 </r>
       <r>     0.6239     0.0000   672.0000 </r>
       <r>     0.7319     0.0000   672.0000 </r>
       <r>     0.8400     0.0000   672.0000 </r>
       <r>     0.9481     0.0000   672.0000 </r>
       <r>     1.0562     0.0000   672.0000 </r>
       <r>     1.1643     0.0000   672.0000 </r>
       <r>     1.2724     0.0000   672.0000 </r>
       <r>     1.3805     0.0000   672.0000 </r>
      </set>
     </set>
    </array>
   </total>
  </dos>
 </calculation>
 <structure name="finalpos" >
  <crystal>
   <varray name="basis" >
    <v>      30.00000000       0.00000000       0.00000000 </v>
    <v>       0.00000000      30.00000000       0.00000000 </v>
    <v>       0.00000000       0.00000000      30.00000000 </v>
   </varray>
   <i name="volume">  27000.00000000 </i>
   <varray name="rec_basis" >
    <v>       0.03333333       0.00000000       0.00000000 </v>
    <v>       0.00000000       0.03333333       0.00000000 </v>
    <v>       0.00000000       0.00000000       0.03333333 </v>
   </varray>
  </crystal>
  <varray name="positions" >
   <v>       0.44576020       0.32826710       0.41691983 </v>
   <v>       0.67173288       0.55423978       0.41691983 </v>
   <v>       0.55423980       0.32826710       0.41691983 </v>
   <v>       0.32826712       0.55423978       0.41691983 </v>
   <v>       0.50000000       0.38250690       0.34021317 </v>
   <v>       0.50000000       0.38250690       0.65978680 </v>
   <v>       0.50000000       0.27609440       0.50000000 </v>
   <v>       0.27609443       0.49999998       0.50000000 </v>
   <v>       0.72390557       0.49999998       0.50000000 </v>
   <v>       0.50000000       0.72390555       0.50000000 </v>
   <v>       0.61195280       0.38804720       0.34167483 </v>
   <v>       0.61195280       0.38804720       0.65832513 </v>
   <v>       0.38804722       0.61195278       0.34167483 </v>
   <v>       0.38804722       0.61195278       0.65832513 </v>
   <v>       0.38804720       0.38804720       0.34167483 </v>
   <v>       0.38804720       0.38804720       0.65832513 </v>
   <v>       0.61195278       0.61195278       0.34167483 </v>
   <v>       0.61195278       0.61195278       0.65832513 </v>
   <v>       0.44576020       0.32826710       0.58308023 </v>
   <v>       0.67173288       0.55423978       0.58308023 </v>
   <v>       0.55791699       0.44208301       0.41809300 </v>
   <v>       0.32826705       0.44576024       0.41691983 </v>
   <v>       0.55423973       0.67173293       0.41691983 </v>
   <v>       0.55423980       0.32826710       0.58308023 </v>
   <v>       0.32826712       0.55423978       0.58308023 </v>
   <v>       0.67173295       0.44576024       0.41691983 </v>
   <v>       0.44576027       0.67173293       0.41691983 </v>
   <v>       0.44208301       0.44208301       0.41809300 </v>
   <v>       0.50000000       0.38416601       0.50000000 </v>
   <v>       0.61749315       0.50000005       0.34021317 </v>
   <v>       0.61749315       0.50000005       0.65978680 </v>
   <v>       0.38250685       0.50000005       0.34021317 </v>
   <v>       0.38250685       0.50000005       0.65978680 </v>
   <v>       0.38317830       0.38317830       0.50000000 </v>
   <v>       0.61682172       0.61682172       0.50000000 </v>
   <v>       0.61682170       0.38317830       0.50000000 </v>
   <v>       0.38317828       0.61682172       0.50000000 </v>
   <v>       0.50000000       0.50000000       0.33478917 </v>
   <v>       0.50000000       0.50000000       0.66521087 </v>
   <v>       0.32826705       0.44576024       0.58308023 </v>
   <v>       0.55423973       0.67173293       0.58308023 </v>
   <v>       0.55791699       0.44208301       0.58190703 </v>
   <v>       0.44208298       0.55791702       0.41809300 </v>
   <v>       0.44208301       0.44208301       0.58190703 </v>
   <v>       0.67173295       0.44576024       0.58308023 </v>
   <v>       0.44576027       0.67173293       0.58308023 </v>
   <v>       0.55791702       0.55791702       0.41809300 </v>
   <v>       0.38416599       0.50000002       0.50000000 </v>
   <v>       0.61583401       0.50000002       0.50000000 </v>
   <v>       0.50000000       0.61749319       0.34021317 </v>
   <v>       0.50000000       0.61749319       0.65978680 </v>
   <v>       0.50000000       0.50000000       0.50000000 </v>
   <v>       0.44208298       0.55791702       0.58190703 </v>
   <v>       0.55791702       0.55791702       0.58190703 </v>
   <v>       0.50000000       0.61583404       0.50000000 </v>
   <v>       0.56971273       0.64765383       0.51024157 </v>
   <v>       0.58573430       0.68158800       0.51259533 </v>
  </varray>
  <varray name="selective"  type="logical" >
   <v type="logical" >  F  F  F </v>
   <v type="logical" >  F  F  F </v>
   <v type="logical" >  F  F  F </v>
   <v type="logical" >  F  F  F </v>
   <v type="logical" >  F  F  F </v>
   <v type="logical" >  F  F  F </v>
   <v type="logical" >  F  F  F </v>
   <v type="logical" >  F  F  F </v>
   <v type="logical" >  F  F  F </v>
   <v type="logical" >  F  F  F </v>
   <v type="logical" >  F  F  F </v>
   <v type="logical" >  F  F  F </v>
   <v type="logical" >  F  F  F </v>
   <v type="logical" >  F  F  F </v>
   <v type="logical" >  F  F  F </v>
   <v type="logical" >  F  F  F </v>
   <v type="logical" >  F  F  F </v>
   <v type="logical" >  F  F  F </v>
   <v type="logical" >  F  F  F </v>
   <v type="logical" >  F  F  F </v>
   <v type="logical" >  F  F  F </v>
   <v type="logical" >  F  F  F </v>
   <v type="logical" >  F  F  F </v>
   <v type="logical" >  F  F  F </v>
   <v type="logical" >  F  F  F </v>
   <v type="logical" >  F  F  F </v>
   <v type="logical" >  F  F  F </v>
   <v type="logical" >  F  F  F </v>
   <v type="logical" >  F  F  F </v>
   <v type="logical" >  F  F  F </v>
   <v type="logical" >  F  F  F </v>
   <v type="logical" >  F  F  F </v>
   <v type="logical" >  F  F  F </v>
   <v type="logical" >  F  F  F </v>
   <v type="logical" >  F  F  F </v>
   <v type="logical" >  F  F  F </v>
   <v type="logical" >  F  F  F </v>
   <v type="logical" >  F  F  F </v>
   <v type="logical" >  F  F  F </v>
   <v type="logical" >  F  F  F </v>
   <v type="logical" >  F  F  F </v>
   <v type="logical" >  F  F  F </v>
   <v type="logical" >  F  F  F </v>
   <v type="logical" >  F  F  F </v>
   <v type="logical" >  F  F  F </v>
   <v type="logical" >  F  F  F </v>
   <v type="logical" >  F  F  F </v>
   <v type="logical" >  F  F  F </v>
   <v type="logical" >  F  F  F </v>
   <v type="logical" >  F  F  F </v>
   <v type="logical" >  F  F  F </v>
   <v type="logical" >  F  F  F </v>
   <v type="logical" >  F  F  F </v>
   <v type="logical" >  F  F  F </v>
   <v type="logical" >  F  F  F </v>
   <v type="logical" >  F  F  F </v>
   <v type="logical" >  F  F  F </v>
  </varray>
  <nose>
   <v>      -3.00000000       0.00000000       0.00010000       0.00010000 </v>
  </nose>
 </structure>
</modeling>
