  57  57   0   0
  0.4736842E+03  0.3000000E-08  0.3000000E-08  0.3000000E-08  0.5000000E-15
  1.000000000000000E-004
  CAR 
 6_Pd100_top_free_z(O)                   
      1.24174329    -31.25121871  301     -4.12611931      1.00000000
    -31.251  0.0000E+00  0.0000E+00
    -31.143  0.0000E+00  0.0000E+00
    -31.035  0.0000E+00  0.0000E+00
    -30.926  0.4992E-27  0.5407E-28
    -30.818  0.2631E-23  0.2850E-24
    -30.710  0.7588E-20  0.8222E-21
    -30.601  0.1194E-16  0.1294E-17
    -30.493  0.1022E-13  0.1108E-14
    -30.385  0.4737E-11  0.5142E-12
    -30.276  0.1177E-08  0.1280E-09
    -30.168  0.1555E-06  0.1697E-07
    -30.060  0.1072E-04  0.1178E-05
    -29.952  0.3744E-03  0.4173E-04
    -29.843  0.6235E-02  0.7170E-03
    -29.735  0.4183E-01  0.5248E-02
    -29.627  0.2817E-01  0.8299E-02
    -29.518 -0.5362E+00 -0.4978E-01
    -29.410 -0.2843E+00 -0.8058E-01
    -29.302  0.5287E+01  0.4921E+00
    -29.193  0.9991E+01  0.1574E+01
    -29.085  0.4764E+01  0.2090E+01
    -28.977 -0.4374E+00  0.2043E+01
    -28.868 -0.4794E+00  0.1991E+01
    -28.760  0.3995E-01  0.1995E+01
    -28.652  0.3810E-01  0.1999E+01
    -28.543  0.5272E-02  0.2000E+01
    -28.435  0.2998E-03  0.2000E+01
    -28.327  0.8179E-05  0.2000E+01
    -28.219  0.1133E-06  0.2000E+01
    -28.110  0.8215E-09  0.2000E+01
    -28.002  0.3165E-11  0.2000E+01
    -27.894  0.6150E-14  0.2000E+01
    -27.785  0.0000E+00  0.2000E+01
    -27.677  0.0000E+00  0.2000E+01
    -27.569  0.0000E+00  0.2000E+01
    -27.460  0.0000E+00  0.2000E+01
    -27.352  0.0000E+00  0.2000E+01
    -27.244  0.0000E+00  0.2000E+01
    -27.135  0.0000E+00  0.2000E+01
    -27.027  0.0000E+00  0.2000E+01
    -26.919  0.0000E+00  0.2000E+01
    -26.811  0.0000E+00  0.2000E+01
    -26.702  0.0000E+00  0.2000E+01
    -26.594  0.0000E+00  0.2000E+01
    -26.486  0.0000E+00  0.2000E+01
    -26.377  0.0000E+00  0.2000E+01
    -26.269  0.0000E+00  0.2000E+01
    -26.161  0.0000E+00  0.2000E+01
    -26.052  0.0000E+00  0.2000E+01
    -25.944  0.0000E+00  0.2000E+01
    -25.836  0.0000E+00  0.2000E+01
    -25.727  0.0000E+00  0.2000E+01
    -25.619  0.0000E+00  0.2000E+01
    -25.511  0.0000E+00  0.2000E+01
    -25.402  0.0000E+00  0.2000E+01
    -25.294  0.0000E+00  0.2000E+01
    -25.186  0.0000E+00  0.2000E+01
    -25.078  0.0000E+00  0.2000E+01
    -24.969  0.0000E+00  0.2000E+01
    -24.861  0.0000E+00  0.2000E+01
    -24.753  0.0000E+00  0.2000E+01
    -24.644  0.0000E+00  0.2000E+01
    -24.536  0.0000E+00  0.2000E+01
    -24.428  0.0000E+00  0.2000E+01
    -24.319  0.0000E+00  0.2000E+01
    -24.211  0.0000E+00  0.2000E+01
    -24.103  0.0000E+00  0.2000E+01
    -23.994  0.0000E+00  0.2000E+01
    -23.886  0.0000E+00  0.2000E+01
    -23.778  0.0000E+00  0.2000E+01
    -23.670  0.0000E+00  0.2000E+01
    -23.561  0.0000E+00  0.2000E+01
    -23.453  0.0000E+00  0.2000E+01
    -23.345  0.0000E+00  0.2000E+01
    -23.236  0.0000E+00  0.2000E+01
    -23.128  0.0000E+00  0.2000E+01
    -23.020  0.0000E+00  0.2000E+01
    -22.911  0.0000E+00  0.2000E+01
    -22.803  0.0000E+00  0.2000E+01
    -22.695  0.0000E+00  0.2000E+01
    -22.586  0.0000E+00  0.2000E+01
    -22.478  0.0000E+00  0.2000E+01
    -22.370  0.0000E+00  0.2000E+01
    -22.261  0.0000E+00  0.2000E+01
    -22.153  0.0000E+00  0.2000E+01
    -22.045  0.0000E+00  0.2000E+01
    -21.937  0.0000E+00  0.2000E+01
    -21.828  0.0000E+00  0.2000E+01
    -21.720  0.0000E+00  0.2000E+01
    -21.612  0.0000E+00  0.2000E+01
    -21.503  0.0000E+00  0.2000E+01
    -21.395  0.0000E+00  0.2000E+01
    -21.287  0.0000E+00  0.2000E+01
    -21.178  0.0000E+00  0.2000E+01
    -21.070  0.0000E+00  0.2000E+01
    -20.962  0.0000E+00  0.2000E+01
    -20.853  0.0000E+00  0.2000E+01
    -20.745  0.0000E+00  0.2000E+01
    -20.637  0.0000E+00  0.2000E+01
    -20.529  0.0000E+00  0.2000E+01
    -20.420  0.0000E+00  0.2000E+01
    -20.312  0.0000E+00  0.2000E+01
    -20.204  0.0000E+00  0.2000E+01
    -20.095  0.0000E+00  0.2000E+01
    -19.987  0.0000E+00  0.2000E+01
    -19.879  0.0000E+00  0.2000E+01
    -19.770  0.0000E+00  0.2000E+01
    -19.662  0.0000E+00  0.2000E+01
    -19.554  0.0000E+00  0.2000E+01
    -19.445  0.0000E+00  0.2000E+01
    -19.337  0.0000E+00  0.2000E+01
    -19.229  0.0000E+00  0.2000E+01
    -19.121  0.0000E+00  0.2000E+01
    -19.012  0.0000E+00  0.2000E+01
    -18.904  0.0000E+00  0.2000E+01
    -18.796  0.0000E+00  0.2000E+01
    -18.687  0.0000E+00  0.2000E+01
    -18.579  0.0000E+00  0.2000E+01
    -18.471  0.0000E+00  0.2000E+01
    -18.362  0.0000E+00  0.2000E+01
    -18.254  0.0000E+00  0.2000E+01
    -18.146  0.0000E+00  0.2000E+01
    -18.037  0.0000E+00  0.2000E+01
    -17.929  0.0000E+00  0.2000E+01
    -17.821  0.0000E+00  0.2000E+01
    -17.712  0.0000E+00  0.2000E+01
    -17.604  0.0000E+00  0.2000E+01
    -17.496  0.0000E+00  0.2000E+01
    -17.388  0.0000E+00  0.2000E+01
    -17.279  0.0000E+00  0.2000E+01
    -17.171  0.0000E+00  0.2000E+01
    -17.063  0.0000E+00  0.2000E+01
    -16.954  0.0000E+00  0.2000E+01
    -16.846  0.0000E+00  0.2000E+01
    -16.738  0.0000E+00  0.2000E+01
    -16.629  0.0000E+00  0.2000E+01
    -16.521  0.0000E+00  0.2000E+01
    -16.413  0.0000E+00  0.2000E+01
    -16.304  0.0000E+00  0.2000E+01
    -16.196  0.0000E+00  0.2000E+01
    -16.088  0.0000E+00  0.2000E+01
    -15.980  0.0000E+00  0.2000E+01
    -15.871  0.0000E+00  0.2000E+01
    -15.763  0.0000E+00  0.2000E+01
    -15.655  0.0000E+00  0.2000E+01
    -15.546  0.0000E+00  0.2000E+01
    -15.438  0.9152E-27  0.2000E+01
    -15.330  0.4628E-23  0.2000E+01
    -15.221  0.1281E-19  0.2000E+01
    -15.113  0.1934E-16  0.2000E+01
    -15.005  0.1587E-13  0.2000E+01
    -14.896  0.7051E-11  0.2000E+01
    -14.788  0.1679E-08  0.2000E+01
    -14.680  0.2122E-06  0.2000E+01
    -14.571  0.1398E-04  0.2000E+01
    -14.463  0.4653E-03  0.2000E+01
    -14.355  0.7335E-02  0.2001E+01
    -14.247  0.4558E-01  0.2006E+01
    -14.138  0.1347E-01  0.2007E+01
    -14.030 -0.5917E+00  0.1943E+01
    -13.922 -0.1017E+00  0.1932E+01
    -13.813  0.5807E+01  0.2561E+01
    -13.705  0.9932E+01  0.3637E+01
    -13.597  0.4249E+01  0.4097E+01
    -13.488 -0.5605E+00  0.4036E+01
    -13.380 -0.4231E+00  0.3990E+01
    -13.272  0.4896E-01  0.3996E+01
    -13.163  0.3449E-01  0.3999E+01
    -13.055  0.4444E-02  0.4000E+01
    -12.947  0.2396E-03  0.4000E+01
    -12.839  0.6232E-05  0.4000E+01
    -12.730  0.8255E-07  0.4000E+01
    -12.622  0.8333E-09  0.4000E+01
    -12.514  0.4474E-07  0.4000E+01
    -12.405  0.4044E-05  0.4000E+01
    -12.297  0.1880E-03  0.4000E+01
    -12.189  0.4298E-02  0.4000E+01
    -12.080  0.4352E-01  0.4005E+01
    -11.972  0.1279E+00  0.4019E+01
    -11.864 -0.4333E+00  0.3972E+01
    -11.755 -0.1609E+01  0.3798E+01
    -11.647  0.4650E+01  0.4301E+01
    -11.539  0.1824E+02  0.6277E+01
    -11.431  0.1554E+02  0.7961E+01
    -11.322  0.1920E+01  0.8169E+01
    -11.214 -0.1547E+01  0.8002E+01
    -11.106 -0.1619E+00  0.7984E+01
    -10.997  0.1184E+00  0.7997E+01
    -10.889  0.2702E-01  0.8000E+01
    -10.781  0.2153E-02  0.8000E+01
    -10.672  0.7877E-04  0.8000E+01
    -10.564  0.1437E-05  0.8000E+01
    -10.456  0.1414E-07  0.8000E+01
    -10.347  0.8021E-07  0.8000E+01
    -10.239  0.6075E-05  0.8000E+01
    -10.131  0.2346E-03  0.8000E+01
    -10.022  0.4373E-02  0.8000E+01
     -9.914  0.3416E-01  0.8004E+01
     -9.806  0.4967E-01  0.8010E+01
     -9.698 -0.4179E+00  0.7964E+01
     -9.589 -0.5705E+00  0.7903E+01
     -9.481  0.4202E+01  0.8358E+01
     -9.373  0.9923E+01  0.9432E+01
     -9.264  0.5855E+01  0.1007E+02
     -9.156 -0.8316E-01  0.1006E+02
     -9.048 -0.5968E+00  0.9993E+01
     -8.939  0.1194E-01  0.9994E+01
     -8.831  0.4593E-01  0.9999E+01
     -8.723  0.7445E-02  0.1000E+02
     -8.614  0.4747E-03  0.1000E+02
     -8.506  0.1432E-04  0.1000E+02
     -8.398  0.2183E-06  0.1000E+02
     -8.290  0.1735E-08  0.1000E+02
     -8.181  0.7315E-11  0.1000E+02
     -8.073  0.1640E-13  0.1000E+02
     -7.965  0.2162E-16  0.1000E+02
     -7.856  0.1757E-13  0.1000E+02
     -7.748  0.7731E-11  0.1000E+02
     -7.640  0.1823E-08  0.1000E+02
     -7.531  0.2280E-06  0.1000E+02
     -7.423  0.1486E-04  0.1000E+02
     -7.315  0.4892E-03  0.1000E+02
     -7.206  0.7614E-02  0.1000E+02
     -7.098  0.4645E-01  0.1001E+02
     -6.990  0.9597E-02  0.1001E+02
     -6.881 -0.6043E+00  0.9942E+01
     -6.773 -0.5212E-01  0.9936E+01
     -6.665  0.5961E+01  0.1058E+02
     -6.557  0.1008E+02  0.1167E+02
     -6.448  0.3983E+01  0.1210E+02
     -6.340 -0.2737E+01  0.1181E+02
     -6.232  0.1754E+01  0.1200E+02
     -6.123  0.2203E+02  0.1438E+02
     -6.015  0.2628E+02  0.1723E+02
     -5.907  0.8857E+01  0.1819E+02
     -5.798  0.1902E+02  0.2025E+02
     -5.690  0.5888E+02  0.2663E+02
     -5.582  0.1402E+03  0.4181E+02
     -5.473  0.2649E+03  0.7051E+02
     -5.365  0.3045E+03  0.1035E+03
     -5.257  0.2315E+03  0.1286E+03
     -5.149  0.2120E+03  0.1515E+03
     -5.040  0.2997E+03  0.1840E+03
     -4.932  0.3681E+03  0.2238E+03
     -4.824  0.3225E+03  0.2588E+03
     -4.715  0.2951E+03  0.2907E+03
     -4.607  0.3843E+03  0.3324E+03
     -4.499  0.4326E+03  0.3792E+03
     -4.390  0.4290E+03  0.4257E+03
     -4.282  0.5197E+03  0.4820E+03
     -4.174  0.5449E+03  0.5410E+03
     -4.065  0.3112E+03  0.5747E+03
     -3.957  0.6125E+02  0.5813E+03
     -3.849  0.1097E+02  0.5825E+03
     -3.741  0.3294E+02  0.5861E+03
     -3.632  0.1711E+02  0.5879E+03
     -3.524  0.1179E+02  0.5892E+03
     -3.416  0.2799E+02  0.5922E+03
     -3.307  0.1652E+02  0.5940E+03
     -3.199 -0.4122E+01  0.5936E+03
     -3.091  0.1490E+02  0.5952E+03
     -2.982  0.6178E+02  0.6019E+03
     -2.874  0.6215E+02  0.6086E+03
     -2.766  0.1692E+02  0.6104E+03
     -2.657 -0.5179E+01  0.6099E+03
     -2.549  0.9412E+01  0.6109E+03
     -2.441  0.3027E+02  0.6142E+03
     -2.332  0.2493E+02  0.6169E+03
     -2.224  0.1028E+02  0.6180E+03
     -2.116  0.2268E+02  0.6204E+03
     -2.008  0.4233E+02  0.6250E+03
     -1.899  0.4104E+02  0.6295E+03
     -1.791  0.3579E+02  0.6334E+03
     -1.683  0.4072E+02  0.6378E+03
     -1.574  0.5006E+02  0.6432E+03
     -1.466  0.4311E+02  0.6479E+03
     -1.358  0.1890E+02  0.6499E+03
     -1.249  0.1282E+02  0.6513E+03
     -1.141  0.2353E+02  0.6538E+03
     -1.033  0.2817E+02  0.6569E+03
     -0.924  0.4902E+02  0.6622E+03
     -0.816  0.5655E+02  0.6683E+03
     -0.708  0.3037E+02  0.6716E+03
     -0.600  0.5730E+01  0.6722E+03
     -0.491 -0.1815E+01  0.6720E+03
     -0.383 -0.6443E+00  0.6720E+03
     -0.275  0.1886E+00  0.6720E+03
     -0.166  0.8831E-01  0.6720E+03
     -0.058  0.1127E-01  0.6720E+03
      0.050  0.6288E-03  0.6720E+03
      0.159  0.1715E-04  0.6720E+03
      0.267  0.2395E-06  0.6720E+03
      0.375  0.1757E-08  0.6720E+03
      0.484  0.6870E-11  0.6720E+03
      0.592  0.1435E-13  0.6720E+03
      0.700  0.0000E+00  0.6720E+03
      0.809  0.0000E+00  0.6720E+03
      0.917  0.0000E+00  0.6720E+03
      1.025  0.0000E+00  0.6720E+03
      1.133  0.0000E+00  0.6720E+03
      1.242  0.0000E+00  0.6720E+03
