   57   57    1    1
  0.4736842E+03  0.3000000E-08  0.3000000E-08  0.3000000E-08  0.5000000E-15
  1.000000000000000E-004
  CAR 
 6_Pd100_top_free_z(O)                   
    560      1    336
 
  0.0000000E+00  0.0000000E+00  0.0000000E+00  0.1000000E+01
    1      -29.162784   1.000000
    2      -13.690191   1.000000
    3      -11.475413   1.000000
    4      -11.471752   1.000000
    5       -9.302634   1.000000
    6       -6.625633   1.000000
    7       -6.107843   1.000000
    8       -6.107417   1.000000
    9       -6.098035   1.000000
   10       -5.795278   1.000000
   11       -5.792462   1.000000
   12       -5.789257   1.000000
   13       -5.726565   1.000000
   14       -5.672835   1.000000
   15       -5.665869   1.000000
   16       -5.665363   1.000000
   17       -5.661485   1.000000
   18       -5.603922   1.000000
   19       -5.602175   1.000000
   20       -5.590385   1.000000
   21       -5.583148   1.000000
   22       -5.578353   1.000000
   23       -5.575989   1.000000
   24       -5.536831   1.000000
   25       -5.528797   1.000000
   26       -5.527500   1.000000
   27       -5.526787   1.000000
   28       -5.510150   1.000000
   29       -5.503924   1.000000
   30       -5.500388   1.000000
   31       -5.498309   1.000000
   32       -5.494163   1.000000
   33       -5.493627   1.000000
   34       -5.493431   1.000000
   35       -5.491751   1.000000
   36       -5.463198   1.000000
   37       -5.459208   1.000000
   38       -5.452710   1.000000
   39       -5.449795   1.000000
   40       -5.448641   1.000000
   41       -5.448437   1.000000
   42       -5.447809   1.000000
   43       -5.445258   1.000000
   44       -5.414405   1.000000
   45       -5.411371   1.000000
   46       -5.409743   1.000000
   47       -5.408144   1.000000
   48       -5.407603   1.000000
   49       -5.403539   1.000000
   50       -5.402279   1.000000
   51       -5.400968   1.000000
   52       -5.387044   1.000000
   53       -5.386224   1.000000
   54       -5.385021   1.000000
   55       -5.371702   1.000000
   56       -5.316560   1.000000
   57       -5.308358   1.000000
   58       -5.306319   1.000000
   59       -5.306050   1.000000
   60       -5.300141   1.000000
   61       -5.297422   1.000000
   62       -5.297067   1.000000
   63       -5.290396   1.000000
   64       -5.281189   1.000000
   65       -5.280617   1.000000
   66       -5.268701   1.000000
   67       -5.267789   1.000000
   68       -5.196258   1.000000
   69       -5.189806   1.000000
   70       -5.184837   1.000000
   71       -5.184329   1.000000
   72       -5.166476   1.000000
   73       -5.163116   1.000000
   74       -5.160427   1.000000
   75       -5.159503   1.000000
   76       -5.159010   1.000000
   77       -5.154426   1.000000
   78       -5.142929   1.000000
   79       -5.141983   1.000000
   80       -5.130206   1.000000
   81       -5.107830   1.000000
   82       -5.106124   1.000000
   83       -5.104456   1.000000
   84       -5.096831   1.000000
   85       -5.085050   1.000000
   86       -5.084580   1.000000
   87       -5.083345   1.000000
   88       -5.047613   1.000000
   89       -5.041652   1.000000
   90       -5.036363   1.000000
   91       -5.034581   1.000000
   92       -5.034189   1.000000
   93       -5.032291   1.000000
   94       -5.030261   1.000000
   95       -5.028800   1.000000
   96       -5.012933   1.000000
   97       -5.009928   1.000000
   98       -5.008293   1.000000
   99       -5.004341   1.000000
  100       -4.998997   1.000000
  101       -4.991176   1.000000
  102       -4.985996   1.000000
  103       -4.985329   1.000000
  104       -4.975906   1.000000
  105       -4.973541   1.000000
  106       -4.971682   1.000000
  107       -4.966242   1.000000
  108       -4.963171   1.000000
  109       -4.960865   1.000000
  110       -4.951366   1.000000
  111       -4.950480   1.000000
  112       -4.940310   0.999999
  113       -4.937949   0.999999
  114       -4.935876   0.999999
  115       -4.935107   0.999999
  116       -4.933168   0.999999
  117       -4.917769   0.999999
  118       -4.903455   0.999998
  119       -4.899994   0.999998
  120       -4.897018   0.999998
  121       -4.885828   0.999997
  122       -4.883665   0.999996
  123       -4.882155   0.999996
  124       -4.880811   0.999996
  125       -4.880018   0.999996
  126       -4.879473   0.999996
  127       -4.830595   0.999980
  128       -4.826586   0.999978
  129       -4.823700   0.999976
  130       -4.821292   0.999974
  131       -4.820977   0.999974
  132       -4.820442   0.999973
  133       -4.811524   0.999966
  134       -4.810042   0.999964
  135       -4.808696   0.999963
  136       -4.779354   0.999916
  137       -4.774325   0.999905
  138       -4.772617   0.999900
  139       -4.771978   0.999898
  140       -4.748575   0.999816
  141       -4.746073   0.999805
  142       -4.744191   0.999795
  143       -4.722340   0.999658
  144       -4.717399   0.999617
  145       -4.716828   0.999612
  146       -4.711457   0.999563
  147       -4.703201   0.999478
  148       -4.686114   0.999255
  149       -4.672653   0.999030
  150       -4.668202   0.998946
  151       -4.666145   0.998904
  152       -4.664221   0.998865
  153       -4.656420   0.998693
  154       -4.653972   0.998636
  155       -4.652946   0.998611
  156       -4.652152   0.998592
  157       -4.651811   0.998583
  158       -4.649211   0.998519
  159       -4.640558   0.998288
  160       -4.632519   0.998054
  161       -4.631495   0.998023
  162       -4.629903   0.997974
  163       -4.626508   0.997867
  164       -4.626179   0.997856
  165       -4.625266   0.997827
  166       -4.624710   0.997809
  167       -4.622668   0.997742
  168       -4.621692   0.997710
  169       -4.610526   0.997324
  170       -4.608813   0.997263
  171       -4.582361   0.996278
  172       -4.578641   0.996141
  173       -4.577834   0.996112
  174       -4.576832   0.996076
  175       -4.575133   0.996015
  176       -4.573983   0.995974
  177       -4.572276   0.995915
  178       -4.568492   0.995786
  179       -4.558809   0.995487
  180       -4.554570   0.995374
  181       -4.552572   0.995326
  182       -4.537922   0.995087
  183       -4.535685   0.995073
  184       -4.532767   0.995065
  185       -4.532351   0.995065
  186       -4.531597   0.995065
  187       -4.531160   0.995066
  188       -4.529338   0.995072
  189       -4.527270   0.995086
  190       -4.526200   0.995095
  191       -4.491201   0.996835
  192       -4.487481   0.997223
  193       -4.485582   0.997440
  194       -4.484883   0.997523
  195       -4.483844   0.997649
  196       -4.474187   0.999016
  197       -4.463341   1.000995
  198       -4.460802   1.001529
  199       -4.456439   1.002515
  200       -4.453547   1.003215
  201       -4.449343   1.004299
  202       -4.444617   1.005615
  203       -4.438576   1.007445
  204       -4.437079   1.007924
  205       -4.430724   1.010071
  206       -4.429587   1.010474
  207       -4.426299   1.011671
  208       -4.423500   1.012726
  209       -4.420545   1.013875
  210       -4.419576   1.014260
  211       -4.403401   1.021175
  212       -4.393341   1.025850
  213       -4.390018   1.027433
  214       -4.388202   1.028304
  215       -4.387047   1.028858
  216       -4.384941   1.029872
  217       -4.383004   1.030805
  218       -4.381537   1.031511
  219       -4.377772   1.033319
  220       -4.355695   1.043261
  221       -4.346601   1.046646
  222       -4.345919   1.046874
  223       -4.329848   1.050858
  224       -4.322072   1.051590
  225       -4.318087   1.051592
  226       -4.316982   1.051543
  227       -4.316483   1.051514
  228       -4.314554   1.051358
  229       -4.313950   1.051295
  230       -4.312345   1.051093
  231       -4.311981   1.051041
  232       -4.307711   1.050220
  233       -4.306153   1.049826
  234       -4.303958   1.049180
  235       -4.301780   1.048431
  236       -4.301047   1.048154
  237       -4.299986   1.047731
  238       -4.297849   1.046796
  239       -4.297382   1.046577
  240       -4.296446   1.046122
  241       -4.282736   1.036781
  242       -4.278578   1.032885
  243       -4.268534   1.021238
  244       -4.264880   1.016174
  245       -4.263372   1.013951
  246       -4.262682   1.012907
  247       -4.261862   1.011646
  248       -4.261361   1.010863
  249       -4.257448   1.004445
  250       -4.244825   0.979924
  251       -4.242534   0.974831
  252       -4.235861   0.958855
  253       -4.233979   0.954040
  254       -4.232189   0.949332
  255       -4.229526   0.942095
  256       -4.227643   0.936815
  257       -4.227098   0.935262
  258       -4.224519   0.927749
  259       -4.222488   0.921652
  260       -4.221854   0.919718
  261       -4.220434   0.915325
  262       -4.217919   0.907358
  263       -4.216334   0.902213
  264       -4.215998   0.901108
  265       -4.213437   0.892562
  266       -4.207079   0.870276
  267       -4.201711   0.850310
  268       -4.199159   0.840461
  269       -4.198031   0.836032
  270       -4.196443   0.829726
  271       -4.195008   0.823953
  272       -4.191576   0.809867
  273       -4.172518   0.725085
  274       -4.170713   0.716542
  275       -4.164248   0.685306
  276       -4.158745   0.658025
  277       -4.156019   0.644302
  278       -4.155050   0.639396
  279       -4.150679   0.617080
  280       -4.149672   0.611898
  281       -4.148020   0.603373
  282       -4.135400   0.537366
  283       -4.107165   0.389030
  284       -4.106236   0.384252
  285       -4.105775   0.381883
  286       -4.104989   0.377850
  287       -4.092060   0.312989
  288       -4.091345   0.309492
  289       -4.089393   0.300011
  290       -3.948309  -0.050367
  291       -3.874743  -0.031330
  292       -3.801653  -0.002858
  293       -3.794127  -0.001162
  294       -3.767261   0.002983
  295       -3.472831   0.000074
  296       -3.467219   0.000064
  297       -3.433736   0.000025
  298       -3.036655   0.000000
  299       -3.034000   0.000000
  300       -3.015311   0.000000
  301       -3.003907   0.000000
  302       -2.995707   0.000000
  303       -2.957735   0.000000
  304       -2.917900   0.000000
  305       -2.902637   0.000000
  306       -2.503111   0.000000
  307       -2.499881   0.000000
  308       -2.433578   0.000000
  309       -2.345005   0.000000
  310       -2.131530   0.000000
  311       -2.110054   0.000000
  312       -2.095058   0.000000
  313       -2.014017   0.000000
  314       -1.962584   0.000000
  315       -1.915003   0.000000
  316       -1.850292   0.000000
  317       -1.841523   0.000000
  318       -1.733411   0.000000
  319       -1.713891   0.000000
  320       -1.623411   0.000000
  321       -1.606966   0.000000
  322       -1.578018   0.000000
  323       -1.533826   0.000000
  324       -1.456647   0.000000
  325       -1.430457   0.000000
  326       -1.205688   0.000000
  327       -1.180602   0.000000
  328       -1.162780   0.000000
  329       -0.969495   0.000000
  330       -0.965780   0.000000
  331       -0.954958   0.000000
  332       -0.915916   0.000000
  333       -0.911324   0.000000
  334       -0.826482   0.000000
  335       -0.801801   0.000000
  336       -0.610471   0.000000
