 running on    1 total cores
 distrk:  each k-point on    1 cores,    1 groups
 distr:  one band on    1 cores,    1 groups
 using from now: INCAR     
 vasp.5.4.4.18Apr17-6-g9f103f2a35 (build Sep 03 2018 23:53:05) complex          
  
 POSCAR found type information on POSCAR  Pd C  O 
 POSCAR found :  3 types and      57 ions
 scaLAPACK will be used

 ----------------------------------------------------------------------------- 
|                                                                             |
|  ADVICE TO THIS USER RUNNING 'VASP/VAMP'   (HEAR YOUR MASTER'S VOICE ...):  |
|                                                                             |
|      You enforced a specific xc-type in the INCAR file,                     |
|      a different type was found on the POTCAR file                          |
|          I HOPE YOU KNOW, WHAT YOU ARE  DOING                               |
|                                                                             |
 ----------------------------------------------------------------------------- 

 LDA part: xc-table for Pade appr. of Perdew
 POSCAR, INCAR and KPOINTS ok, starting setup
 FFT: planning ...
 WAVECAR not read
 entering main loop
       N       E                     dE             d eps       ncg     rms          rms(c)
DAV:   1     0.438247891818E+04    0.43825E+04   -0.10047E+05   688   0.815E+02
DAV:   2     0.201160322251E+04   -0.23709E+04   -0.21311E+04  1232   0.105E+02
DAV:   3     0.233488856556E+03   -0.17781E+04   -0.16700E+04   992   0.918E+01
DAV:   4    -0.134019873376E+03   -0.36751E+03   -0.31351E+03   832   0.435E+01
DAV:   5    -0.178805845864E+03   -0.44786E+02   -0.37029E+02  1040   0.143E+01    0.138E+01
RMM:   6    -0.177647760461E+03    0.11581E+01   -0.48437E+01   724   0.848E+00    0.185E+01
RMM:   7    -0.180980048069E+03   -0.33323E+01   -0.17355E+01   847   0.466E+00    0.238E+01
RMM:   8    -0.183288538325E+03   -0.23085E+01   -0.60251E+00   808   0.314E+00    0.280E+01
RMM:   9    -0.181697132101E+03    0.15914E+01   -0.47473E+00   734   0.304E+00    0.264E+01
RMM:  10    -0.178641289161E+03    0.30558E+01   -0.28740E+00   739   0.241E+00    0.193E+01
RMM:  11    -0.176855103987E+03    0.17862E+01   -0.17491E+00   730   0.199E+00    0.178E+01
RMM:  12    -0.175882537911E+03    0.97257E+00   -0.75808E-01   732   0.129E+00    0.145E+01
RMM:  13    -0.175174052724E+03    0.70849E+00   -0.79069E-01   718   0.130E+00    0.123E+01
RMM:  14    -0.175586937796E+03   -0.41289E+00   -0.94819E-01   724   0.142E+00    0.158E+01
RMM:  15    -0.175415351555E+03    0.17159E+00   -0.10504E+00   714   0.149E+00    0.141E+01
RMM:  16    -0.175317091880E+03    0.98260E-01   -0.72273E-01   727   0.126E+00    0.157E+01
RMM:  17    -0.175137257022E+03    0.17983E+00   -0.63655E-01   722   0.118E+00    0.129E+01
RMM:  18    -0.174798751786E+03    0.33851E+00   -0.49182E-01   719   0.106E+00    0.119E+01
RMM:  19    -0.174691381364E+03    0.10737E+00   -0.51037E-01   717   0.109E+00    0.102E+01
RMM:  20    -0.174410400895E+03    0.28098E+00   -0.38956E-01   714   0.962E-01    0.797E+00
RMM:  21    -0.174311254229E+03    0.99147E-01   -0.19507E-01   714   0.692E-01    0.764E+00
RMM:  22    -0.174163156753E+03    0.14810E+00   -0.13076E-01   717   0.557E-01    0.569E+00
RMM:  23    -0.174088021533E+03    0.75135E-01   -0.94875E-02   713   0.481E-01    0.521E+00
RMM:  24    -0.174023833666E+03    0.64188E-01   -0.57647E-02   713   0.386E-01    0.436E+00
RMM:  25    -0.174006875545E+03    0.16958E-01   -0.55662E-02   705   0.370E-01    0.404E+00
RMM:  26    -0.173961717866E+03    0.45158E-01   -0.42379E-02   704   0.337E-01    0.328E+00
RMM:  27    -0.173916906556E+03    0.44811E-01   -0.31016E-02   705   0.286E-01    0.200E+00
RMM:  28    -0.173912731296E+03    0.41753E-02   -0.26179E-02   702   0.253E-01    0.196E+00
RMM:  29    -0.173895826471E+03    0.16905E-01   -0.16974E-02   705   0.214E-01    0.163E+00
RMM:  30    -0.173883024934E+03    0.12802E-01   -0.87213E-03   701   0.157E-01    0.937E-01
RMM:  31    -0.173883085937E+03   -0.61003E-04   -0.71796E-03   698   0.133E-01    0.104E+00
RMM:  32    -0.173877649939E+03    0.54360E-02   -0.57137E-03   697   0.119E-01    0.719E-01
RMM:  33    -0.173876824006E+03    0.82593E-03   -0.26291E-03   698   0.867E-02    0.542E-01
RMM:  34    -0.173877253064E+03   -0.42906E-03   -0.18199E-03   697   0.701E-02    0.465E-01
RMM:  35    -0.173878308709E+03   -0.10556E-02   -0.14209E-03   694   0.620E-02    0.438E-01
RMM:  36    -0.173881440749E+03   -0.31320E-02   -0.15471E-03   693   0.620E-02    0.496E-01
RMM:  37    -0.173882594787E+03   -0.11540E-02   -0.93167E-04   695   0.494E-02    0.274E-01
RMM:  38    -0.173884719380E+03   -0.21246E-02   -0.61348E-04   629   0.380E-02    0.305E-01
RMM:  39    -0.173889003159E+03   -0.42838E-02   -0.88002E-04   665   0.410E-02    0.241E-01
RMM:  40    -0.173890595872E+03   -0.15927E-02   -0.38740E-04   486   0.294E-02    0.121E-01
RMM:  41    -0.173892993501E+03   -0.23976E-02   -0.31180E-04   445   0.249E-02    0.175E-01
RMM:  42    -0.173894793036E+03   -0.17995E-02   -0.23447E-04   427   0.226E-02    0.927E-02
RMM:  43    -0.173896085805E+03   -0.12928E-02   -0.17164E-04   421   0.185E-02    0.940E-02
RMM:  44    -0.173899627569E+03   -0.35418E-02   -0.46815E-04   505   0.236E-02    0.874E-02
RMM:  45    -0.173900480346E+03   -0.85278E-03   -0.14323E-04   421   0.149E-02    0.647E-02
RMM:  46    -0.173901561621E+03   -0.10813E-02   -0.11048E-04   420   0.126E-02    0.711E-02
RMM:  47    -0.173902493393E+03   -0.93177E-03   -0.91224E-05   405   0.111E-02    0.457E-02
RMM:  48    -0.173902896902E+03   -0.40351E-03   -0.43648E-05   410   0.760E-03    0.366E-02
RMM:  49    -0.173903741806E+03   -0.84490E-03   -0.36631E-05   395   0.685E-03    0.264E-02
RMM:  50    -0.173904069053E+03   -0.32725E-03   -0.15145E-05   267   0.487E-03    0.190E-02
RMM:  51    -0.173904641509E+03   -0.57246E-03   -0.17272E-05   337   0.513E-03    0.259E-02
RMM:  52    -0.173905086248E+03   -0.44474E-03   -0.11312E-05   239   0.463E-03    0.134E-02
RMM:  53    -0.173905341496E+03   -0.25525E-03   -0.75431E-06   204   0.423E-03    0.160E-02
RMM:  54    -0.173905695678E+03   -0.35418E-03   -0.16192E-05   261   0.444E-03    0.849E-03
RMM:  55    -0.173905797578E+03   -0.10190E-03   -0.11811E-06   104   0.322E-03    0.793E-03
RMM:  56    -0.173905996326E+03   -0.19875E-03   -0.83550E-06   167   0.384E-03    0.690E-03
RMM:  57    -0.173906112060E+03   -0.11573E-03   -0.72650E-06   159   0.379E-03    0.595E-03
RMM:  58    -0.173906251750E+03   -0.13969E-03   -0.12160E-05   191   0.411E-03    0.572E-03
RMM:  59    -0.173906307469E+03   -0.55718E-04   -0.38558E-06   126   0.363E-03
   1 F= -.17390631E+03 E0= -.17388108E+03  d E =-.100907E+00
================================= SLURM INFO ===================================
Command: run-cluster -n 1 -m 10000 -j 000204_vasp --same-node /opt/VASP/vasp
Exit code: 0
Job name: 000204_vasp
Job time: 0 days 4h:40m:33s
MPI task count: 1
Working dir: /home/pashkov/pyFitIt/pyfitit/data/adaptive_pd_co_new_2/sample/000204
Job was running on nodes: h6
Task per node: 1
       JobID     MaxRSS  MaxDiskRead MaxDiskWrite    Elapsed    JobName 
------------ ---------- ------------ ------------ ---------- ---------- 
106726                                              04:40:33 000204_va+ 
106726.batch                                        04:40:33      batch 
