 vasp.5.4.4.18Apr17-6-g9f103f2a35 (build Sep 03 2018 23:53:05) complex          
  
 executed on             LinuxIFC date 2021.11.27  08:12:29
 running on    1 total cores
 distrk:  each k-point on    1 cores,    1 groups
 distr:  one band on NCORES_PER_BAND=   1 cores,    1 groups


--------------------------------------------------------------------------------------------------------


 INCAR:
 POTCAR:    PAW_PBE Pd 04Jan2005                  
 POTCAR:    PAW_PBE C 08Apr2002                   
 POTCAR:    PAW_PBE O 08Apr2002                   
 POTCAR:    PAW_PBE Pd 04Jan2005                  
   VRHFIN =Pd : s1 d9                                                           
   LEXCH  = PE                                                                  
   EATOM  =   809.7530 eV,   59.5152 Ry                                         
                                                                                
   TITEL  = PAW_PBE Pd 04Jan2005                                                
   LULTRA =        F    use ultrasoft PP ?                                      
   IUNSCR =        1    unscreen: 0-lin 1-nonlin 2-no                           
   RPACOR =    2.000    partial core radius                                     
   POMASS =  106.420; ZVAL   =   10.000    mass and valenz                      
   RCORE  =    2.600    outmost cutoff radius                                   
   RWIGS  =    2.710; RWIGS  =    1.434    wigner-seitz radius (au A)           
   ENMAX  =  250.925; ENMIN  =  188.194 eV                                      
   ICORE  =        3    local potential                                         
   LCOR   =        T    correct aug charges                                     
   LPAW   =        T    paw PP                                                  
   EAUG   =  416.230                                                            
   DEXC   =    0.000                                                            
   RMAX   =    2.653    core radius for proj-oper                               
   RAUG   =    1.300    factor for augmentation sphere                          
   RDEP   =    2.734    radius for radial grids                                 
   RDEPT  =    2.103    core radius for aug-charge                              
                                                                                
   Atomic configuration                                                         
   12 entries                                                                   
     n  l   j            E        occ.                                          
     1  0  0.50    -24164.6631   2.0000                                         
     2  0  0.50     -3530.9218   2.0000                                         
     2  1  1.50     -3165.6822   6.0000                                         
     3  0  0.50      -639.4577   2.0000                                         
     3  1  1.50      -519.4532   6.0000                                         
     3  2  2.50      -328.9757  10.0000                                         
     4  0  0.50       -88.7014   2.0000                                         
     4  1  1.50       -54.4540   6.0000                                         
     4  2  2.50        -6.6878   9.0000                                         
     5  0  0.50        -4.3543   1.0000                                         
     5  1  0.50        -1.3606   0.0000                                         
     4  3  2.50        -1.3606   0.0000                                         
   Description                                                                  
     l       E           TYP  RCUT    TYP  RCUT                                 
     2     -6.6878251     23  2.400                                             
     2     -8.0484077     23  2.400                                             
     0     -4.3542939     23  2.400                                             
     0      4.3406793     23  2.400                                             
     1     -4.0817478     23  2.600                                             
     1     15.8380318     23  2.600                                             
     3     -4.0817478     23  2.400                                             
  local pseudopotential read in
  partial core-charges read in
  partial kinetic energy density read in
  atomic valenz-charges read in
  non local Contribution for L=           2  read in
    real space projection operators read in
  non local Contribution for L=           2  read in
    real space projection operators read in
  non local Contribution for L=           0  read in
    real space projection operators read in
  non local Contribution for L=           0  read in
    real space projection operators read in
  non local Contribution for L=           1  read in
    real space projection operators read in
  non local Contribution for L=           1  read in
    real space projection operators read in
    PAW grid and wavefunctions read in
 
   number of l-projection  operators is LMAX  =           6
   number of lm-projection operators is LMMAX =          18
 
 POTCAR:    PAW_PBE C 08Apr2002                   
   VRHFIN =C: s2p2                                                              
   LEXCH  = PE                                                                  
   EATOM  =   147.1560 eV,   10.8157 Ry                                         
                                                                                
   TITEL  = PAW_PBE C 08Apr2002                                                 
   LULTRA =        F    use ultrasoft PP ?                                      
   IUNSCR =        1    unscreen: 0-lin 1-nonlin 2-no                           
   RPACOR =    1.200    partial core radius                                     
   POMASS =   12.011; ZVAL   =    4.000    mass and valenz                      
   RCORE  =    1.500    outmost cutoff radius                                   
   RWIGS  =    1.630; RWIGS  =    0.863    wigner-seitz radius (au A)           
   ENMAX  =  400.000; ENMIN  =  300.000 eV                                      
   ICORE  =        2    local potential                                         
   LCOR   =        T    correct aug charges                                     
   LPAW   =        T    paw PP                                                  
   EAUG   =  644.873                                                            
   DEXC   =    0.000                                                            
   RMAX   =    1.529    core radius for proj-oper                               
   RAUG   =    1.300    factor for augmentation sphere                          
   RDEP   =    1.501    radius for radial grids                                 
   RDEPT  =    1.300    core radius for aug-charge                              
                                                                                
   Atomic configuration                                                         
    4 entries                                                                   
     n  l   j            E        occ.                                          
     1  0  0.50      -273.3789   2.0000                                         
     2  0  0.50       -13.7508   2.0000                                         
     2  1  0.50        -5.2854   2.0000                                         
     3  2  1.50        -5.4423   0.0000                                         
   Description                                                                  
     l       E           TYP  RCUT    TYP  RCUT                                 
     0    -13.7508458     23  1.200                                             
     0     -8.2022199     23  1.200                                             
     1     -5.2854383     23  1.500                                             
     1     34.0145650     23  1.500                                             
     2     -5.4423304      7  1.500                                             
  local pseudopotential read in
  partial core-charges read in
  partial kinetic energy density read in
  atomic valenz-charges read in
  non local Contribution for L=           0  read in
    real space projection operators read in
  non local Contribution for L=           0  read in
    real space projection operators read in
  non local Contribution for L=           1  read in
    real space projection operators read in
  non local Contribution for L=           1  read in
    real space projection operators read in
    PAW grid and wavefunctions read in
 
   number of l-projection  operators is LMAX  =           4
   number of lm-projection operators is LMMAX =           8
 
 POTCAR:    PAW_PBE O 08Apr2002                   
   VRHFIN =O: s2p4                                                              
   LEXCH  = PE                                                                  
   EATOM  =   432.3788 eV,   31.7789 Ry                                         
                                                                                
   TITEL  = PAW_PBE O 08Apr2002                                                 
   LULTRA =        F    use ultrasoft PP ?                                      
   IUNSCR =        1    unscreen: 0-lin 1-nonlin 2-no                           
   RPACOR =    1.200    partial core radius                                     
   POMASS =   16.000; ZVAL   =    6.000    mass and valenz                      
   RCORE  =    1.520    outmost cutoff radius                                   
   RWIGS  =    1.550; RWIGS  =    0.820    wigner-seitz radius (au A)           
   ENMAX  =  400.000; ENMIN  =  300.000 eV                                      
   ICORE  =        2    local potential                                         
   LCOR   =        T    correct aug charges                                     
   LPAW   =        T    paw PP                                                  
   EAUG   =  605.392                                                            
   DEXC   =    0.000                                                            
   RMAX   =    1.553    core radius for proj-oper                               
   RAUG   =    1.300    factor for augmentation sphere                          
   RDEP   =    1.550    radius for radial grids                                 
   RDEPT  =    1.329    core radius for aug-charge                              
                                                                                
   Atomic configuration                                                         
    4 entries                                                                   
     n  l   j            E        occ.                                          
     1  0  0.50      -514.6923   2.0000                                         
     2  0  0.50       -23.9615   2.0000                                         
     2  1  0.50        -9.0305   4.0000                                         
     3  2  1.50        -9.5241   0.0000                                         
   Description                                                                  
     l       E           TYP  RCUT    TYP  RCUT                                 
     0    -23.9615318     23  1.200                                             
     0     -9.5240782     23  1.200                                             
     1     -9.0304911     23  1.520                                             
     1      8.1634956     23  1.520                                             
     2     -9.5240782      7  1.500                                             
  local pseudopotential read in
  partial core-charges read in
  partial kinetic energy density read in
  kinetic energy density of atom read in
  atomic valenz-charges read in
  non local Contribution for L=           0  read in
    real space projection operators read in
  non local Contribution for L=           0  read in
    real space projection operators read in
  non local Contribution for L=           1  read in
    real space projection operators read in
  non local Contribution for L=           1  read in
    real space projection operators read in
    PAW grid and wavefunctions read in
 
   number of l-projection  operators is LMAX  =           4
   number of lm-projection operators is LMMAX =           8
 
 Optimization of the real space projectors (new method)

 maximal supplied QI-value         = 14.36
 optimisation between [QCUT,QGAM] = [ 10.20, 20.39] = [ 29.12,116.47] Ry 
 Optimized for a Real-space Cutoff    1.51 Angstroem

   l    n(q)    QCUT    max X(q) W(low)/X(q) W(high)/X(q)  e(spline) 
   2      8    10.197    59.108    0.26E-03    0.14E-03    0.96E-07
   2      8    10.197    58.101    0.27E-03    0.14E-03    0.98E-07
   0      9    10.197   102.235    0.54E-04    0.60E-05    0.72E-07
   0      9    10.197    58.388    0.52E-04    0.60E-05    0.68E-07
   1      9    10.197    22.191    0.18E-03    0.25E-03    0.79E-07
   1      9    10.197    15.590    0.15E-03    0.21E-03    0.69E-07
 Optimization of the real space projectors (new method)

 maximal supplied QI-value         = 25.13
 optimisation between [QCUT,QGAM] = [ 10.05, 20.36] = [ 28.30,116.06] Ry 
 Optimized for a Real-space Cutoff    1.30 Angstroem

   l    n(q)    QCUT    max X(q) W(low)/X(q) W(high)/X(q)  e(spline) 
   0      8    10.053   115.676    0.49E-03    0.72E-03    0.18E-06
   0      8    10.053    87.132    0.49E-03    0.71E-03    0.18E-06
   1      7    10.053     4.429    0.32E-03    0.31E-03    0.18E-06
   1      7    10.053     2.733    0.23E-03    0.19E-03    0.20E-06
 Optimization of the real space projectors (new method)

 maximal supplied QI-value         = 24.76
 optimisation between [QCUT,QGAM] = [ 10.15, 20.30] = [ 28.85,115.39] Ry 
 Optimized for a Real-space Cutoff    1.38 Angstroem

   l    n(q)    QCUT    max X(q) W(low)/X(q) W(high)/X(q)  e(spline) 
   0      8    10.150    20.381    0.22E-03    0.32E-03    0.29E-06
   0      8    10.150    15.268    0.23E-03    0.35E-03    0.30E-06
   1      8    10.150     5.964    0.46E-03    0.53E-03    0.21E-06
   1      8    10.150     5.382    0.38E-03    0.45E-03    0.19E-06

 ----------------------------------------------------------------------------- 
|                                                                             |
|  ADVICE TO THIS USER RUNNING 'VASP/VAMP'   (HEAR YOUR MASTER'S VOICE ...):  |
|                                                                             |
|      You enforced a specific xc-type in the INCAR file,                     |
|      a different type was found on the POTCAR file                          |
|          I HOPE YOU KNOW, WHAT YOU ARE  DOING                               |
|                                                                             |
 ----------------------------------------------------------------------------- 

  PAW_PBE Pd 04Jan2005                  :
 energy of atom  1       EATOM= -809.7530
 kinetic energy error for atom=    0.0091 (will be added to EATOM!!)
  PAW_PBE C 08Apr2002                   :
 energy of atom  2       EATOM= -147.1560
 kinetic energy error for atom=    0.0288 (will be added to EATOM!!)
  PAW_PBE O 08Apr2002                   :
 energy of atom  3       EATOM= -432.3788
 kinetic energy error for atom=    0.1156 (will be added to EATOM!!)
 
 
 POSCAR: Pd55PES                                 
  positions in cartesian coordinates
  No initial velocities read in
 exchange correlation table for  LEXCH =        9
   RHO(1)=    0.500       N(1)  =     2000
   RHO(2)=  100.500       N(2)  =     4000
 


--------------------------------------------------------------------------------------------------------


 ion  position               nearest neighbor table
   1  0.446  0.328  0.417-   3 3.25   5 3.25   7 3.36  15 3.36  29 3.42  28 3.42
   2  0.672  0.554  0.417-  26 3.25  30 3.25  17 3.36   9 3.36  47 3.42  49 3.42
   3  0.554  0.328  0.417-   1 3.25   5 3.25   7 3.36  11 3.36  29 3.42  21 3.42
   4  0.328  0.554  0.417-  32 3.25  22 3.25  13 3.36   8 3.36  43 3.42  48 3.42
   5  0.500  0.383  0.340-   1 3.25   3 3.25  11 3.36  15 3.36  21 3.42  28 3.42
   6  0.500  0.383  0.660-  24 3.25  19 3.25  16 3.36  12 3.36  42 3.42  44 3.42
   7  0.500  0.276  0.500-  29 3.24   3 3.36   1 3.36  19 3.36  24 3.36
   8  0.276  0.500  0.500-  48 3.24  22 3.36  40 3.36   4 3.36  25 3.36
   9  0.724  0.500  0.500-  49 3.24  26 3.36  45 3.36   2 3.36  20 3.36
  10  0.500  0.724  0.500-  55 3.24  27 3.36  23 3.36  46 3.36  41 3.36
  11  0.612  0.388  0.342-  21 3.24   5 3.36   3 3.36  30 3.36  26 3.36
  12  0.612  0.388  0.658-  42 3.24  24 3.36  45 3.36   6 3.36  31 3.36
  13  0.388  0.612  0.342-  43 3.24  32 3.36  50 3.36   4 3.36  27 3.36
  14  0.388  0.612  0.658-  56 2.31  53 3.24  25 3.36  33 3.36  51 3.36  46 3.36
  15  0.388  0.388  0.342-  28 3.24   5 3.36   1 3.36  32 3.36  22 3.36
  16  0.388  0.388  0.658-  44 3.24  19 3.36  40 3.36   6 3.36  33 3.36
  17  0.612  0.612  0.342-  47 3.24  30 3.36  50 3.36   2 3.36  23 3.36
  18  0.612  0.612  0.658-  54 3.24  31 3.36  20 3.36  51 3.36  41 3.36
  19  0.446  0.328  0.583-   6 3.25  24 3.25  16 3.36   7 3.36  44 3.42  29 3.42
  20  0.672  0.554  0.583-  31 3.25  45 3.25  18 3.36   9 3.36  54 3.42  49 3.42
  21  0.558  0.442  0.418-  11 3.24   5 3.42   3 3.42  30 3.42  26 3.42
  22  0.328  0.446  0.417-   4 3.25  32 3.25   8 3.36  15 3.36  48 3.42  28 3.42
  23  0.554  0.672  0.417-  27 3.25  50 3.25  10 3.36  17 3.36  55 3.42  47 3.42
  24  0.554  0.328  0.583-   6 3.25  19 3.25  12 3.36   7 3.36  42 3.42  29 3.42
  25  0.328  0.554  0.583-  33 3.25  40 3.25  14 3.36   8 3.36  53 3.42  48 3.42
  26  0.672  0.446  0.417-   2 3.25  30 3.25   9 3.36  11 3.36  49 3.42  21 3.42
  27  0.446  0.672  0.417-  23 3.25  50 3.25  10 3.36  13 3.36  55 3.42  43 3.42
  28  0.442  0.442  0.418-  15 3.24   5 3.42   1 3.42  32 3.42  22 3.42
  29  0.500  0.384  0.500-   7 3.24   3 3.42   1 3.42  24 3.42  19 3.42
  30  0.617  0.500  0.340-   2 3.25  26 3.25  17 3.36  11 3.36  47 3.42  21 3.42
  31  0.617  0.500  0.660-  20 3.25  45 3.25  18 3.36  12 3.36  54 3.42  42 3.42
  32  0.383  0.500  0.340-   4 3.25  22 3.25  13 3.36  15 3.36  43 3.42  28 3.42
  33  0.383  0.500  0.660-  25 3.25  40 3.25  14 3.36  16 3.36  53 3.42  44 3.42
  34  0.383  0.383  0.500-
  35  0.617  0.617  0.500-
  36  0.617  0.383  0.500-
  37  0.383  0.617  0.500-
  38  0.500  0.500  0.335-
  39  0.500  0.500  0.665-
  40  0.328  0.446  0.583-  33 3.25  25 3.25  16 3.36   8 3.36  44 3.42  48 3.42
  41  0.554  0.672  0.583-  46 3.25  51 3.25  10 3.36  18 3.36  54 3.42  55 3.42
  42  0.558  0.442  0.582-  12 3.24   6 3.42  24 3.42  31 3.42  45 3.42
  43  0.442  0.558  0.418-  13 3.24   4 3.42  32 3.42  27 3.42  50 3.42
  44  0.442  0.442  0.582-  16 3.24   6 3.42  19 3.42  33 3.42  40 3.42
  45  0.672  0.446  0.583-  20 3.25  31 3.25   9 3.36  12 3.36  49 3.42  42 3.42
  46  0.446  0.672  0.583-  56 1.67  57 2.59  41 3.25  51 3.25  10 3.36  14 3.36  53 3.42  55 3.42

  47  0.558  0.558  0.418-  17 3.24   2 3.42  30 3.42  23 3.42  50 3.42
  48  0.384  0.500  0.500-   8 3.24   4 3.42  22 3.42  25 3.42  40 3.42
  49  0.616  0.500  0.500-   9 3.24   2 3.42  26 3.42  20 3.42  45 3.42
  50  0.500  0.617  0.340-  27 3.25  23 3.25  13 3.36  17 3.36  43 3.42  47 3.42
  51  0.500  0.617  0.660-  41 3.25  46 3.25  14 3.36  18 3.36  53 3.42  54 3.42
  52  0.500  0.500  0.500-
  53  0.442  0.558  0.582-  14 3.24  25 3.42  33 3.42  51 3.42  46 3.42
  54  0.558  0.558  0.582-  18 3.24  31 3.42  20 3.42  51 3.42  41 3.42
  55  0.500  0.616  0.500-  10 3.24  23 3.42  27 3.42  41 3.42  46 3.42
  56  0.402  0.676  0.618-  57 1.13  46 1.67  14 2.31
  57  0.387  0.704  0.637-  56 1.13  46 2.59
 
  LATTYP: Found a simple cubic cell.
 ALAT       =    30.0000000000
  
  Lattice vectors:
  
 A1 = (  30.0000000000,   0.0000000000,   0.0000000000)
 A2 = (   0.0000000000,  30.0000000000,   0.0000000000)
 A3 = (   0.0000000000,   0.0000000000,  30.0000000000)


Analysis of symmetry for initial positions (statically):
=====================================================================
 Subroutine PRICEL returns:
 Original cell was already a primitive cell.
 

 Routine SETGRP: Setting up the symmetry group for a 
 simple cubic supercell.


 Subroutine GETGRP returns: Found  1 space group operations
 (whereof  1 operations were pure point group operations)
 out of a pool of 48 trial point group operations.


The static configuration has the point symmetry C_1 .


Analysis of symmetry for dynamics (positions and initial velocities):
=====================================================================
 Subroutine PRICEL returns:
 Original cell was already a primitive cell.
 

 Routine SETGRP: Setting up the symmetry group for a 
 simple cubic supercell.


 Subroutine GETGRP returns: Found  1 space group operations
 (whereof  1 operations were pure point group operations)
 out of a pool of 48 trial point group operations.


The dynamic configuration has the point symmetry C_1 .


Analysis of constrained symmetry for selective dynamics:
=====================================================================
 Subroutine PRICEL returns:
 Original cell was already a primitive cell.
 

 Routine SETGRP: Setting up the symmetry group for a 
 simple cubic supercell.


 Subroutine GETGRP returns: Found  1 space group operations
 (whereof  1 operations were pure point group operations)
 out of a pool of 48 trial point group operations.


The constrained configuration has the point symmetry C_1 .


 Subroutine INISYM returns: Found  1 space group operations
 (whereof  1 operations are pure point group operations),
 and found     1 'primitive' translations

 
 
 KPOINTS: K-points                                

Automatic generation of k-mesh.
Space group operators:
 irot       det(A)        alpha          n_x          n_y          n_z        tau_x        tau_y        tau_z
    1     1.000000     0.000000     1.000000     0.000000     0.000000     0.000000     0.000000     0.000000
 
 Subroutine IBZKPT returns following result:
 ===========================================
 
 Found      1 irreducible k-points:
 
 Following reciprocal coordinates:
            Coordinates               Weight
  0.000000  0.000000  0.000000      1.000000
 
 Following cartesian coordinates:
            Coordinates               Weight
  0.000000  0.000000  0.000000      1.000000
 


--------------------------------------------------------------------------------------------------------




 Dimension of arrays:
   k-points           NKPTS =      1   k-points in BZ     NKDIM =      1   number of bands    NBANDS=    336
   number of dos      NEDOS =    301   number of ions     NIONS =     57
   non local maximal  LDIM  =      6   non local SUM 2l+1 LMDIM =     18
   total plane-waves  NPLWV = ******
   max r-space proj   IRMAX =   1847   max aug-charges    IRDMAX=   6262
   dimension x,y,z NGX =   150 NGY =  150 NGZ =  150
   dimension x,y,z NGXF=   300 NGYF=  300 NGZF=  300
   support grid    NGXF=   300 NGYF=  300 NGZF=  300
   ions per type =              55   1   1
   NGX,Y,Z   is equivalent  to a cutoff of   8.31,  8.31,  8.31 a.u.
   NGXF,Y,Z  is equivalent  to a cutoff of  16.62, 16.62, 16.62 a.u.

 SYSTEM =  6_Pd100_top_free_z(O)                   
 POSCAR =  Pd55PES                                 

 Startparameter for this run:
   NWRITE =      2    write-flag & timer
   PREC   = normal    normal or accurate (medium, high low for compatibility)
   ISTART =      0    job   : 0-new  1-cont  2-samecut
   ICHARG =      2    charge: 1-file 2-atom 10-const
   ISPIN  =      1    spin polarized calculation?
   LNONCOLLINEAR =      F non collinear calculations
   LSORBIT =      F    spin-orbit coupling
   INIWAV =      1    electr: 0-lowe 1-rand  2-diag
   LASPH  =      F    aspherical Exc in radial PAW
   METAGGA=      F    non-selfconsistent MetaGGA calc.

 Electronic Relaxation 1
   ENCUT  =  400.0 eV  29.40 Ry    5.42 a.u.  48.92 48.92 48.92*2*pi/ulx,y,z
   ENINI  =  400.0     initial cutoff
   ENAUG  =  644.9 eV  augmentation charge cutoff
   NELM   =    100;   NELMIN=  6; NELMDL= -5     # of ELM steps 
   EDIFF  = 0.1E-03   stopping-criterion for ELM
   LREAL  =      T    real-space projection
   NLSPLINE    = F    spline interpolate recip. space projectors
   LCOMPAT=      F    compatible to vasp.4.4
   GGA_COMPAT  = T    GGA compatible to vasp.4.4-vasp.4.6
   LMAXPAW     = -100 max onsite density
   LMAXMIX     =    2 max onsite mixed and CHGCAR
   VOSKOWN=      0    Vosko Wilk Nusair interpolation
   ROPT   =   -0.00050  -0.00050  -0.00050
 Ionic relaxation
   EDIFFG = -.5E-01   stopping-criterion for IOM
   NSW    =      0    number of steps for IOM
   NBLOCK =      1;   KBLOCK =      1    inner block; outer block 
   IBRION =     -1    ionic relax: 0-MD 1-quasi-New 2-CG
   NFREE  =      1    steps in history (QN), initial steepest desc. (CG)
   ISIF   =      2    stress and relaxation
   IWAVPR =     10    prediction:  0-non 1-charg 2-wave 3-comb
   ISYM   =      2    0-nonsym 1-usesym 2-fastsym
   LCORR  =      T    Harris-Foulkes like correction to forces

   POTIM  = 0.5000    time-step for ionic-motion
   TEIN   =    0.0    initial temperature
   TEBEG  =    0.0;   TEEND  =   0.0 temperature during run
   SMASS  =  -3.00    Nose mass-parameter (am)
   estimated Nose-frequenzy (Omega)   =  0.10E-29 period in steps =****** mass=  -0.206E-25a.u.
   SCALEE = 1.0000    scale energy and forces
   NPACO  =    256;   APACO  = 16.0  distance and # of slots for P.C.
   PSTRESS=    0.0 pullay stress

  Mass of Ions in am
   POMASS = 106.42 12.01 16.00
  Ionic Valenz
   ZVAL   =  10.00  4.00  6.00
  Atomic Wigner-Seitz radii
   RWIGS  =  -1.00 -1.00 -1.00
  virtual crystal weights 
   VCA    =   1.00  1.00  1.00
   NELECT =     560.0000    total number of electrons
   NUPDOWN=      -1.0000    fix difference up-down

 DOS related values:
   EMIN   =  10.00;   EMAX   =-10.00  energy-range for DOS
   EFERMI =   0.00
   ISMEAR =     2;   SIGMA  =   0.20  broadening in eV -4-tet -1-fermi 0-gaus

 Electronic relaxation 2 (details)
   IALGO  =     68    algorithm
   LDIAG  =      T    sub-space diagonalisation (order eigenvalues)
   LSUBROT=      F    optimize rotation matrix (better conditioning)
   TURBO    =      0    0=normal 1=particle mesh
   IRESTART =      0    0=no restart 2=restart with 2 vectors
   NREBOOT  =      0    no. of reboots
   NMIN     =      0    reboot dimension
   EREF     =   0.00    reference energy to select bands
   IMIX   =      4    mixing-type and parameters
     AMIX     =   0.40;   BMIX     =  1.00
     AMIX_MAG =   1.60;   BMIX_MAG =  1.00
     AMIN     =   0.10
     WC   =   100.;   INIMIX=   1;  MIXPRE=   1;  MAXMIX= -45

 Intra band minimization:
   WEIMIN = 0.0000     energy-eigenvalue tresh-hold
   EBREAK =  0.74E-07  absolut break condition
   DEPER  =   0.30     relativ break condition  

   TIME   =   0.40     timestep for ELM

  volume/ion in A,a.u.               =     473.68      3196.58
  Fermi-wavevector in a.u.,A,eV,Ry     =   0.449797  0.849992  2.752691  0.202317
  Thomas-Fermi vector in A             =   1.430086
 
 Write flags
   LWAVE        =      F    write WAVECAR
   LDOWNSAMPLE  =      F    k-point downsampling of WAVECAR
   LCHARG       =      F    write CHGCAR
   LVTOT        =      F    write LOCPOT, total local potential
   LVHAR        =      F    write LOCPOT, Hartree potential only
   LELF         =      F    write electronic localiz. function (ELF)
   LORBIT       =      0    0 simple, 1 ext, 2 COOP (PROOUT), +10 PAW based schemes


 Dipole corrections
   LMONO  =      F    monopole corrections only (constant potential shift)
   LDIPOL =      F    correct potential (dipole corrections)
   IDIPOL =      0    1-x, 2-y, 3-z, 4-all directions 
   EPSILON=  1.0000000 bulk dielectric constant

 Exchange correlation treatment:
   GGA     =    RP    GGA type
   LEXCH   =     9    internal setting for exchange type
   VOSKOWN=      0    Vosko Wilk Nusair interpolation
   LHFCALC =     F    Hartree Fock is set to
   LHFONE  =     F    Hartree Fock one center treatment
   AEXX    =    0.0000 exact exchange contribution

 Linear response parameters
   LEPSILON=     F    determine dielectric tensor
   LRPA    =     F    only Hartree local field effects (RPA)
   LNABLA  =     F    use nabla operator in PAW spheres
   LVEL    =     F    velocity operator in full k-point grid
   LINTERFAST=   F  fast interpolation
   KINTER  =     0    interpolate to denser k-point grid
   CSHIFT  =0.1000    complex shift for real part using Kramers Kronig
   OMEGAMAX=  -1.0    maximum frequency
   DEG_THRESHOLD= 0.2000000E-02 threshold for treating states as degnerate
   RTIME   =   -0.100 relaxation time in fs
  (WPLASMAI=    0.000 imaginary part of plasma frequency in eV, 0.658/RTIME)
   DFIELD  = 0.0000000 0.0000000 0.0000000 field for delta impulse in time
 
 Orbital magnetization related:
   ORBITALMAG=     F  switch on orbital magnetization
   LCHIMAG   =     F  perturbation theory with respect to B field
   DQ        =  0.001000  dq finite difference perturbation B field
   LLRAUG    =     F  two centre corrections for induced B field



--------------------------------------------------------------------------------------------------------


 Static calculation
 charge density and potential will be updated during run
 non-spin polarized calculation
 RMM-DIIS sequential band-by-band and
  variant of blocked Davidson during initial phase
 perform sub-space diagonalisation
    before iterative eigenvector-optimisation
 modified Broyden-mixing scheme, WC =      100.0
 initial mixing is a Kerker type mixing with AMIX =  0.4000 and BMIX =      1.0000
 Hartree-type preconditioning will be used
 using additional bands           56
 real space projection scheme for non local part
 use partial core corrections
 calculate Harris-corrections to forces 
   (improved forces if not selfconsistent)
 use gradient corrections 
 use of overlap-Matrix (Vanderbilt PP)
 Methfessel and Paxton  Order N= 2 SIGMA  =   0.20


--------------------------------------------------------------------------------------------------------


  energy-cutoff  :      400.00
  volume of cell :    27000.00
      direct lattice vectors                 reciprocal lattice vectors
    30.000000000  0.000000000  0.000000000     0.033333333  0.000000000  0.000000000
     0.000000000 30.000000000  0.000000000     0.000000000  0.033333333  0.000000000
     0.000000000  0.000000000 30.000000000     0.000000000  0.000000000  0.033333333

  length of vectors
    30.000000000 30.000000000 30.000000000     0.033333333  0.033333333  0.033333333


 
 k-points in units of 2pi/SCALE and weight: K-points                                
   0.00000000  0.00000000  0.00000000       1.000
 
 k-points in reciprocal lattice and weights: K-points                                
   0.00000000  0.00000000  0.00000000       1.000
 
 position of ions in fractional coordinates (direct lattice) 
   0.44576020  0.32826710  0.41691983
   0.67173288  0.55423978  0.41691983
   0.55423980  0.32826710  0.41691983
   0.32826712  0.55423978  0.41691983
   0.50000000  0.38250690  0.34021317
   0.50000000  0.38250690  0.65978680
   0.50000000  0.27609440  0.50000000
   0.27609443  0.49999998  0.50000000
   0.72390557  0.49999998  0.50000000
   0.50000000  0.72390555  0.50000000
   0.61195280  0.38804720  0.34167483
   0.61195280  0.38804720  0.65832513
   0.38804722  0.61195278  0.34167483
   0.38804722  0.61195278  0.65832513
   0.38804720  0.38804720  0.34167483
   0.38804720  0.38804720  0.65832513
   0.61195278  0.61195278  0.34167483
   0.61195278  0.61195278  0.65832513
   0.44576020  0.32826710  0.58308023
   0.67173288  0.55423978  0.58308023
   0.55791699  0.44208301  0.41809300
   0.32826705  0.44576024  0.41691983
   0.55423973  0.67173293  0.41691983
   0.55423980  0.32826710  0.58308023
   0.32826712  0.55423978  0.58308023
   0.67173295  0.44576024  0.41691983
   0.44576027  0.67173293  0.41691983
   0.44208301  0.44208301  0.41809300
   0.50000000  0.38416601  0.50000000
   0.61749315  0.50000005  0.34021317
   0.61749315  0.50000005  0.65978680
   0.38250685  0.50000005  0.34021317
   0.38250685  0.50000005  0.65978680
   0.38317830  0.38317830  0.50000000
   0.61682172  0.61682172  0.50000000
   0.61682170  0.38317830  0.50000000
   0.38317828  0.61682172  0.50000000
   0.50000000  0.50000000  0.33478917
   0.50000000  0.50000000  0.66521087
   0.32826705  0.44576024  0.58308023
   0.55423973  0.67173293  0.58308023
   0.55791699  0.44208301  0.58190703
   0.44208298  0.55791702  0.41809300
   0.44208301  0.44208301  0.58190703
   0.67173295  0.44576024  0.58308023
   0.44576027  0.67173293  0.58308023
   0.55791702  0.55791702  0.41809300
   0.38416599  0.50000002  0.50000000
   0.61583401  0.50000002  0.50000000
   0.50000000  0.61749319  0.34021317
   0.50000000  0.61749319  0.65978680
   0.50000000  0.50000000  0.50000000
   0.44208298  0.55791702  0.58190703
   0.55791702  0.55791702  0.58190703
   0.50000000  0.61583404  0.50000000
   0.40237940  0.67600597  0.61794783
   0.38664493  0.70437457  0.63695863
 
 position of ions in cartesian coordinates  (Angst):
  13.37280588  9.84801292 12.50759500
  20.15198637 16.62719342 12.50759500
  16.62719412  9.84801292 12.50759500
   9.84801363 16.62719342 12.50759500
  15.00000000 11.47520705 10.20639500
  15.00000000 11.47520705 19.79360400
  15.00000000  8.28283206 15.00000000
   8.28283277 14.99999929 15.00000000
  21.71716723 14.99999929 15.00000000
  15.00000000 21.71716652 14.99999999
  18.35858397 11.64141603 10.25024500
  18.35858397 11.64141603 19.74975399
  11.64141674 18.35858326 10.25024500
  11.64141674 18.35858326 19.74975400
  11.64141603 11.64141603 10.25024500
  11.64141603 11.64141603 19.74975400
  18.35858326 18.35858326 10.25024500
  18.35858326 18.35858326 19.74975400
  13.37280588  9.84801291 17.49240700
  20.15198638 16.62719341 17.49240700
  16.73750985 13.26249015 12.54279000
   9.84801151 13.37280729 12.50759500
  16.62719200 20.15198779 12.50759500
  16.62719412  9.84801292 17.49240700
   9.84801363 16.62719342 17.49240700
  20.15198849 13.37280729 12.50759500
  13.37280800 20.15198779 12.50759500
  13.26249015 13.26249015 12.54279000
  15.00000000 11.52498029 15.00000000
  18.52479437 15.00000140 10.20639500
  18.52479437 15.00000141 19.79360400
  11.47520562 15.00000141 10.20639501
  11.47520563 15.00000141 19.79360400
  11.49534898 11.49534898 15.00000000
  18.50465172 18.50465172 15.00000000
  18.50465102 11.49534898 15.00000000
  11.49534828 18.50465172 15.00000000
  15.00000000 15.00000000 10.04367500
  15.00000000 15.00000000 19.95632599
   9.84801151 13.37280729 17.49240700
  16.62719200 20.15198779 17.49240700
  16.73750985 13.26249015 17.45721100
  13.26248944 16.73751056 12.54279001
  13.26249015 13.26249015 17.45721100
  20.15198849 13.37280729 17.49240699
  13.37280800 20.15198779 17.49240700
  16.73751056 16.73751056 12.54279000
  11.52497959 15.00000071 15.00000000
  18.47502041 15.00000071 15.00000000
  14.99999999 18.52479579 10.20639500
  15.00000000 18.52479578 19.79360400
  15.00000000 15.00000000 15.00000000
  13.26248944 16.73751057 17.45721101
  16.73751056 16.73751057 17.45721100
  15.00000000 18.47502112 15.00000000
  12.07138200 20.28017900 18.53843500
  11.59934800 21.13123700 19.10875900
 


--------------------------------------------------------------------------------------------------------


 k-point  1 :   0.0000 0.0000 0.0000  plane waves:  490521

 maximum and minimum number of plane-waves per node :    490521   490521

 maximum number of plane-waves:    490521
 maximum index in each direction: 
   IXMAX=   48   IYMAX=   48   IZMAX=   48
   IXMIN=  -48   IYMIN=  -48   IZMIN=  -48


 serial   3D FFT for wavefunctions
 parallel 3D FFT for charge:
    minimum data exchange during FFTs selected (reduces bandwidth)


 total amount of memory used by VASP MPI-rank0  5486940. kBytes
=======================================================================

   base      :      30000. kBytes
   nonlr-proj:      17125. kBytes
   fftplans  :     924480. kBytes
   grid      :    1872000. kBytes
   one-center:        886. kBytes
   wavefun   :    2642449. kBytes
 
     INWAV:  cpu time    0.0001: real time    0.0005
 Broyden mixing: mesh for mixing (old mesh)
   NGX = 97   NGY = 97   NGZ = 97
  (NGX  =300   NGY  =300   NGZ  =300)
  gives a total of 912673 points

 initial charge density was supplied:
 charge density of overlapping atoms calculated
 number of electron     560.0000000 magnetization 
 keeping initial charge density in first step


--------------------------------------------------------------------------------------------------------


 Maximum index for non-local projection operator         1763
 Maximum index for augmentation-charges         5898 (set IRDMAX)


--------------------------------------------------------------------------------------------------------


 First call to EWALD:  gamma=   0.059
 Maximum number of real-space cells 3x 3x 3
 Maximum number of reciprocal cells 3x 3x 3

    FEWALD:  cpu time    0.0151: real time    0.0151


--------------------------------------- Iteration      1(   1)  ---------------------------------------


    POTLOK:  cpu time   14.4793: real time   14.4832
    SETDIJ:  cpu time    0.1225: real time    0.1225
     EDDAV:  cpu time  363.9479: real time  364.0046
       DOS:  cpu time    0.0013: real time    0.0013
    --------------------------------------------
      LOOP:  cpu time  378.5511: real time  378.6116

 eigenvalue-minimisations  :   688
 total energy-change (2. order) : 0.4400309E+04  (-0.1005475E+05)
 number of electron     560.0000000 magnetization 
 augmentation part      560.0000000 magnetization 

 Free energy of the ion-electron system (eV)
  ---------------------------------------------------
  alpha Z        PSCENC =        75.25431677
  Ewald energy   TEWEN  =    138790.99659228
  -Hartree energ DENC   =   -182139.02080690
  -exchange      EXHF   =         0.00000000
  -V(xc)+E(xc)   XCENC  =     -1701.91034173
  PAW double counting   =     44873.02882129   -41398.84523641
  entropy T*S    EENTRO =         0.01465559
  eigenvalues    EBANDS =       814.28584543
  atomic energy  EATOM  =     45086.50549395
  Solvation  Ediel_sol  =         0.00000000
  ---------------------------------------------------
  free energy    TOTEN  =      4400.30934028 eV

  energy without entropy =     4400.29468469  energy(sigma->0) =     4400.30567638


--------------------------------------------------------------------------------------------------------




--------------------------------------- Iteration      1(   2)  ---------------------------------------


     EDDAV:  cpu time  584.7033: real time  584.7240
       DOS:  cpu time    0.0013: real time    0.0013
    --------------------------------------------
      LOOP:  cpu time  584.7046: real time  584.7253

 eigenvalue-minimisations  :  1224
 total energy-change (2. order) :-0.2388188E+04  (-0.2148725E+04)
 number of electron     560.0000000 magnetization 
 augmentation part      560.0000000 magnetization 

 Free energy of the ion-electron system (eV)
  ---------------------------------------------------
  alpha Z        PSCENC =        75.25431677
  Ewald energy   TEWEN  =    138790.99659228
  -Hartree energ DENC   =   -182139.02080690
  -exchange      EXHF   =         0.00000000
  -V(xc)+E(xc)   XCENC  =     -1701.91034173
  PAW double counting   =     44873.02882129   -41398.84523641
  entropy T*S    EENTRO =        -0.03497991
  eigenvalues    EBANDS =     -1573.85233050
  atomic energy  EATOM  =     45086.50549395
  Solvation  Ediel_sol  =         0.00000000
  ---------------------------------------------------
  free energy    TOTEN  =      2012.12152885 eV

  energy without entropy =     2012.15650876  energy(sigma->0) =     2012.13027383


--------------------------------------------------------------------------------------------------------




--------------------------------------- Iteration      1(   3)  ---------------------------------------


     EDDAV:  cpu time  491.8856: real time  491.8875
       DOS:  cpu time    0.0011: real time    0.0011
    --------------------------------------------
      LOOP:  cpu time  491.8867: real time  491.8886

 eigenvalue-minimisations  :  1000
 total energy-change (2. order) :-0.1783851E+04  (-0.1677839E+04)
 number of electron     560.0000000 magnetization 
 augmentation part      560.0000000 magnetization 

 Free energy of the ion-electron system (eV)
  ---------------------------------------------------
  alpha Z        PSCENC =        75.25431677
  Ewald energy   TEWEN  =    138790.99659228
  -Hartree energ DENC   =   -182139.02080690
  -exchange      EXHF   =         0.00000000
  -V(xc)+E(xc)   XCENC  =     -1701.91034173
  PAW double counting   =     44873.02882129   -41398.84523641
  entropy T*S    EENTRO =         0.00316884
  eigenvalues    EBANDS =     -3357.74158711
  atomic energy  EATOM  =     45086.50549395
  Solvation  Ediel_sol  =         0.00000000
  ---------------------------------------------------
  free energy    TOTEN  =       228.27042099 eV

  energy without entropy =      228.26725215  energy(sigma->0) =      228.26962878


--------------------------------------------------------------------------------------------------------




--------------------------------------- Iteration      1(   4)  ---------------------------------------


     EDDAV:  cpu time  421.3692: real time  421.3662
       DOS:  cpu time    0.0033: real time    0.0033
    --------------------------------------------
      LOOP:  cpu time  421.3725: real time  421.3695

 eigenvalue-minimisations  :   832
 total energy-change (2. order) :-0.3631698E+03  (-0.3039663E+03)
 number of electron     560.0000000 magnetization 
 augmentation part      560.0000000 magnetization 

 Free energy of the ion-electron system (eV)
  ---------------------------------------------------
  alpha Z        PSCENC =        75.25431677
  Ewald energy   TEWEN  =    138790.99659228
  -Hartree energ DENC   =   -182139.02080690
  -exchange      EXHF   =         0.00000000
  -V(xc)+E(xc)   XCENC  =     -1701.91034173
  PAW double counting   =     44873.02882129   -41398.84523641
  entropy T*S    EENTRO =        -0.04299736
  eigenvalues    EBANDS =     -3720.86519551
  atomic energy  EATOM  =     45086.50549395
  Solvation  Ediel_sol  =         0.00000000
  ---------------------------------------------------
  free energy    TOTEN  =      -134.89935361 eV

  energy without entropy =     -134.85635624  energy(sigma->0) =     -134.88860427


--------------------------------------------------------------------------------------------------------




--------------------------------------- Iteration      1(   5)  ---------------------------------------


     EDDAV:  cpu time  523.4009: real time  523.4065
       DOS:  cpu time    0.0014: real time    0.0014
    CHARGE:  cpu time   26.8239: real time   26.8233
    MIXING:  cpu time    0.4578: real time    0.4578
    --------------------------------------------
      LOOP:  cpu time  550.6840: real time  550.6890

 eigenvalue-minimisations  :  1064
 total energy-change (2. order) :-0.4546689E+02  (-0.3793071E+02)
 number of electron     559.9999910 magnetization 
 augmentation part      244.8941492 magnetization 

 Broyden mixing:
  rms(total) = 0.19525E+01    rms(broyden)= 0.19518E+01
  rms(prec ) = 0.20432E+01
  weight for this iteration     100.00

 Free energy of the ion-electron system (eV)
  ---------------------------------------------------
  alpha Z        PSCENC =        75.25431677
  Ewald energy   TEWEN  =    138790.99659228
  -Hartree energ DENC   =   -182139.02080690
  -exchange      EXHF   =         0.00000000
  -V(xc)+E(xc)   XCENC  =     -1701.91034173
  PAW double counting   =     44873.02882129   -41398.84523641
  entropy T*S    EENTRO =         0.48167051
  eigenvalues    EBANDS =     -3766.85675097
  atomic energy  EATOM  =     45086.50549395
  Solvation  Ediel_sol  =         0.00000000
  ---------------------------------------------------
  free energy    TOTEN  =      -180.36624119 eV

  energy without entropy =     -180.84791170  energy(sigma->0) =     -180.48665882


--------------------------------------------------------------------------------------------------------




--------------------------------------- Iteration      1(   6)  ---------------------------------------


    POTLOK:  cpu time   14.0812: real time   14.0818
    SETDIJ:  cpu time    0.1275: real time    0.1275
    EDDIAG:  cpu time   71.6553: real time   71.6546
  RMM-DIIS:  cpu time  198.6656: real time  198.6657
    ORTHCH:  cpu time   13.9132: real time   13.9130
       DOS:  cpu time    0.0015: real time    0.0015
    CHARGE:  cpu time   27.0938: real time   27.0934
    MIXING:  cpu time    0.5103: real time    0.5103
    --------------------------------------------
      LOOP:  cpu time  326.0484: real time  326.0477

 eigenvalue-minimisations  :   734
 total energy-change (2. order) : 0.4724188E+00  (-0.6884847E+01)
 number of electron     559.9999933 magnetization 
 augmentation part      240.4603311 magnetization 

 Broyden mixing:
  rms(total) = 0.26234E+01    rms(broyden)= 0.26232E+01
  rms(prec ) = 0.30015E+01
  weight for this iteration     100.00

 eigenvalues of (default mixing * dielectric matrix)
  average eigenvalue GAMMA=   0.3707
  0.3707

 Free energy of the ion-electron system (eV)
  ---------------------------------------------------
  alpha Z        PSCENC =        75.25431677
  Ewald energy   TEWEN  =    138790.99659228
  -Hartree energ DENC   =   -182537.41573104
  -exchange      EXHF   =         0.00000000
  -V(xc)+E(xc)   XCENC  =     -1695.41687556
  PAW double counting   =     45708.16689198   -42208.44052427
  entropy T*S    EENTRO =        -0.22228988
  eigenvalues    EBANDS =     -3399.32169668
  atomic energy  EATOM  =     45086.50549395
  Solvation  Ediel_sol  =         0.00000000
  ---------------------------------------------------
  free energy    TOTEN  =      -179.89382243 eV

  energy without entropy =     -179.67153256  energy(sigma->0) =     -179.83824996


--------------------------------------------------------------------------------------------------------




--------------------------------------- Iteration      1(   7)  ---------------------------------------


    POTLOK:  cpu time   13.9810: real time   13.9844
    SETDIJ:  cpu time    0.1244: real time    0.1244
    EDDIAG:  cpu time   70.8269: real time   70.8263
  RMM-DIIS:  cpu time  230.5459: real time  230.5527
    ORTHCH:  cpu time   14.2285: real time   14.2283
       DOS:  cpu time    0.0014: real time    0.0014
    CHARGE:  cpu time   26.3310: real time   26.3307
    MIXING:  cpu time    0.4953: real time    0.4953
    --------------------------------------------
      LOOP:  cpu time  356.5346: real time  356.5435

 eigenvalue-minimisations  :   856
 total energy-change (2. order) :-0.3487036E+01  (-0.2567953E+01)
 number of electron     559.9999877 magnetization 
 augmentation part      240.3083190 magnetization 

 Broyden mixing:
  rms(total) = 0.23205E+01    rms(broyden)= 0.23202E+01
  rms(prec ) = 0.27785E+01
  weight for this iteration     100.00

 eigenvalues of (default mixing * dielectric matrix)
  average eigenvalue GAMMA=   0.3992
  0.6151  0.1834

 Free energy of the ion-electron system (eV)
  ---------------------------------------------------
  alpha Z        PSCENC =        75.25431677
  Ewald energy   TEWEN  =    138790.99659228
  -Hartree energ DENC   =   -182629.97929641
  -exchange      EXHF   =         0.00000000
  -V(xc)+E(xc)   XCENC  =     -1695.70402145
  PAW double counting   =     45801.28198101   -42299.03887098
  entropy T*S    EENTRO =        -0.09558151
  eigenvalues    EBANDS =     -3312.60147184
  atomic energy  EATOM  =     45086.50549395
  Solvation  Ediel_sol  =         0.00000000
  ---------------------------------------------------
  free energy    TOTEN  =      -183.38085818 eV

  energy without entropy =     -183.28527666  energy(sigma->0) =     -183.35696280


--------------------------------------------------------------------------------------------------------




--------------------------------------- Iteration      1(   8)  ---------------------------------------


    POTLOK:  cpu time   13.8466: real time   13.8498
    SETDIJ:  cpu time    0.1285: real time    0.1285
    EDDIAG:  cpu time   69.8701: real time   69.8719
  RMM-DIIS:  cpu time  205.8571: real time  205.8732
    ORTHCH:  cpu time   13.9509: real time   13.9512
       DOS:  cpu time    0.0014: real time    0.0014
    CHARGE:  cpu time   26.0898: real time   26.0927
    MIXING:  cpu time    0.5314: real time    0.5314
    --------------------------------------------
      LOOP:  cpu time  330.2759: real time  330.3000

 eigenvalue-minimisations  :   759
 total energy-change (2. order) :-0.5941416E+01  (-0.1122071E+01)
 number of electron     559.9999869 magnetization 
 augmentation part      239.2840895 magnetization 

 Broyden mixing:
  rms(total) = 0.31834E+01    rms(broyden)= 0.31831E+01
  rms(prec ) = 0.37867E+01
  weight for this iteration     100.00

 eigenvalues of (default mixing * dielectric matrix)
  average eigenvalue GAMMA=   0.3710
  0.7940  0.1595  0.1595

 Free energy of the ion-electron system (eV)
  ---------------------------------------------------
  alpha Z        PSCENC =        75.25431677
  Ewald energy   TEWEN  =    138790.99659228
  -Hartree energ DENC   =   -182677.60845905
  -exchange      EXHF   =         0.00000000
  -V(xc)+E(xc)   XCENC  =     -1695.77118100
  PAW double counting   =     45905.87167552   -42400.68448605
  entropy T*S    EENTRO =        -0.16226541
  eigenvalues    EBANDS =     -3273.72396108
  atomic energy  EATOM  =     45086.50549395
  Solvation  Ediel_sol  =         0.00000000
  ---------------------------------------------------
  free energy    TOTEN  =      -189.32227407 eV

  energy without entropy =     -189.16000866  energy(sigma->0) =     -189.28170772


--------------------------------------------------------------------------------------------------------




--------------------------------------- Iteration      1(   9)  ---------------------------------------


    POTLOK:  cpu time   13.6512: real time   13.6531
    SETDIJ:  cpu time    0.1264: real time    0.1264
    EDDIAG:  cpu time   69.0925: real time   69.0997
  RMM-DIIS:  cpu time  203.2861: real time  203.2938
    ORTHCH:  cpu time   13.5390: real time   13.5420
       DOS:  cpu time    0.0013: real time    0.0013
    CHARGE:  cpu time   26.1396: real time   26.1396
    MIXING:  cpu time    0.5757: real time    0.5757
    --------------------------------------------
      LOOP:  cpu time  326.4119: real time  326.4316

 eigenvalue-minimisations  :   748
 total energy-change (2. order) : 0.2205756E+01  (-0.8659432E+00)
 number of electron     559.9999891 magnetization 
 augmentation part      240.3554040 magnetization 

 Broyden mixing:
  rms(total) = 0.34501E+01    rms(broyden)= 0.34498E+01
  rms(prec ) = 0.40442E+01
  weight for this iteration     100.00

 eigenvalues of (default mixing * dielectric matrix)
  average eigenvalue GAMMA=   0.3330
  0.8909  0.1646  0.1646  0.1118

 Free energy of the ion-electron system (eV)
  ---------------------------------------------------
  alpha Z        PSCENC =        75.25431677
  Ewald energy   TEWEN  =    138790.99659228
  -Hartree energ DENC   =   -182686.48174850
  -exchange      EXHF   =         0.00000000
  -V(xc)+E(xc)   XCENC  =     -1695.92301401
  PAW double counting   =     45981.16803419   -42474.30553449
  entropy T*S    EENTRO =        -0.03715552
  eigenvalues    EBANDS =     -3264.29350280
  atomic energy  EATOM  =     45086.50549395
  Solvation  Ediel_sol  =         0.00000000
  ---------------------------------------------------
  free energy    TOTEN  =      -187.11651812 eV

  energy without entropy =     -187.07936260  energy(sigma->0) =     -187.10722924


--------------------------------------------------------------------------------------------------------




--------------------------------------- Iteration      1(  10)  ---------------------------------------


    POTLOK:  cpu time   13.5397: real time   13.5422
    SETDIJ:  cpu time    0.1229: real time    0.1229
    EDDIAG:  cpu time   69.6548: real time   69.6571
  RMM-DIIS:  cpu time  199.1669: real time  199.1782
    ORTHCH:  cpu time   13.9082: real time   13.9084
       DOS:  cpu time    0.0014: real time    0.0014
    CHARGE:  cpu time   26.5648: real time   26.5647
    MIXING:  cpu time    0.6169: real time    0.6169
    --------------------------------------------
      LOOP:  cpu time  323.5757: real time  323.5919

 eigenvalue-minimisations  :   737
 total energy-change (2. order) : 0.3757714E+01  (-0.4964652E+00)
 number of electron     559.9999913 magnetization 
 augmentation part      241.1161796 magnetization 

 Broyden mixing:
  rms(total) = 0.24863E+01    rms(broyden)= 0.24860E+01
  rms(prec ) = 0.29004E+01
  weight for this iteration     100.00

 eigenvalues of (default mixing * dielectric matrix)
  average eigenvalue GAMMA=   0.3204
  1.0035  0.1847  0.1847  0.1304  0.0986

 Free energy of the ion-electron system (eV)
  ---------------------------------------------------
  alpha Z        PSCENC =        75.25431677
  Ewald energy   TEWEN  =    138790.99659228
  -Hartree energ DENC   =   -182706.98200910
  -exchange      EXHF   =         0.00000000
  -V(xc)+E(xc)   XCENC  =     -1695.90419155
  PAW double counting   =     46028.43964502   -42520.47459782
  entropy T*S    EENTRO =        -0.04265921
  eigenvalues    EBANDS =     -3241.15139410
  atomic energy  EATOM  =     45086.50549395
  Solvation  Ediel_sol  =         0.00000000
  ---------------------------------------------------
  free energy    TOTEN  =      -183.35880375 eV

  energy without entropy =     -183.31614454  energy(sigma->0) =     -183.34813895


--------------------------------------------------------------------------------------------------------




--------------------------------------- Iteration      1(  11)  ---------------------------------------


    POTLOK:  cpu time   13.6603: real time   13.6613
    SETDIJ:  cpu time    0.1231: real time    0.1231
    EDDIAG:  cpu time   69.1373: real time   69.1414
  RMM-DIIS:  cpu time  197.9509: real time  197.9518
    ORTHCH:  cpu time   13.7385: real time   13.7382
       DOS:  cpu time    0.0015: real time    0.0015
    CHARGE:  cpu time   25.9983: real time   25.9977
    MIXING:  cpu time    0.6160: real time    0.6160
    --------------------------------------------
      LOOP:  cpu time  321.2260: real time  321.2311

 eigenvalue-minimisations  :   730
 total energy-change (2. order) : 0.2565674E+01  (-0.3853123E+00)
 number of electron     559.9999892 magnetization 
 augmentation part      241.5769810 magnetization 

 Broyden mixing:
  rms(total) = 0.22675E+01    rms(broyden)= 0.22671E+01
  rms(prec ) = 0.26234E+01
  weight for this iteration     100.00

 eigenvalues of (default mixing * dielectric matrix)
  average eigenvalue GAMMA=   0.3079
  1.0882  0.2126  0.2126  0.1268  0.1268  0.0806

 Free energy of the ion-electron system (eV)
  ---------------------------------------------------
  alpha Z        PSCENC =        75.25431677
  Ewald energy   TEWEN  =    138790.99659228
  -Hartree energ DENC   =   -182734.39527863
  -exchange      EXHF   =         0.00000000
  -V(xc)+E(xc)   XCENC  =     -1695.73986164
  PAW double counting   =     46082.20450676   -42572.67668788
  entropy T*S    EENTRO =        -0.13305542
  eigenvalues    EBANDS =     -3212.80915597
  atomic energy  EATOM  =     45086.50549395
  Solvation  Ediel_sol  =         0.00000000
  ---------------------------------------------------
  free energy    TOTEN  =      -180.79312977 eV

  energy without entropy =     -180.66007435  energy(sigma->0) =     -180.75986592


--------------------------------------------------------------------------------------------------------




--------------------------------------- Iteration      1(  12)  ---------------------------------------


    POTLOK:  cpu time   13.4276: real time   13.4311
    SETDIJ:  cpu time    0.1221: real time    0.1221
    EDDIAG:  cpu time   68.4002: real time   68.3993
  RMM-DIIS:  cpu time  194.0589: real time  194.0576
    ORTHCH:  cpu time   13.5908: real time   13.5904
       DOS:  cpu time    0.0014: real time    0.0014
    CHARGE:  cpu time   25.4689: real time   25.4683
    MIXING:  cpu time    0.6405: real time    0.6405
    --------------------------------------------
      LOOP:  cpu time  315.7104: real time  315.7108

 eigenvalue-minimisations  :   712
 total energy-change (2. order) : 0.2396547E+01  (-0.2982054E+00)
 number of electron     559.9999903 magnetization 
 augmentation part      241.8080610 magnetization 

 Broyden mixing:
  rms(total) = 0.17091E+01    rms(broyden)= 0.17087E+01
  rms(prec ) = 0.20202E+01
  weight for this iteration     100.00

 eigenvalues of (default mixing * dielectric matrix)
  average eigenvalue GAMMA=   0.3106
  1.1944  0.2563  0.2563  0.1453  0.1453  0.1028  0.0739

 Free energy of the ion-electron system (eV)
  ---------------------------------------------------
  alpha Z        PSCENC =        75.25431677
  Ewald energy   TEWEN  =    138790.99659228
  -Hartree energ DENC   =   -182755.57636234
  -exchange      EXHF   =         0.00000000
  -V(xc)+E(xc)   XCENC  =     -1695.49981136
  PAW double counting   =     46128.17068454   -42617.13883665
  entropy T*S    EENTRO =        -0.03104482
  eigenvalues    EBANDS =     -3191.07761489
  atomic energy  EATOM  =     45086.50549395
  Solvation  Ediel_sol  =         0.00000000
  ---------------------------------------------------
  free energy    TOTEN  =      -178.39658251 eV

  energy without entropy =     -178.36553769  energy(sigma->0) =     -178.38882130


--------------------------------------------------------------------------------------------------------




--------------------------------------- Iteration      1(  13)  ---------------------------------------


    POTLOK:  cpu time   13.3111: real time   13.3142
    SETDIJ:  cpu time    0.1192: real time    0.1192
    EDDIAG:  cpu time   69.2025: real time   69.2014
  RMM-DIIS:  cpu time  195.6231: real time  195.6244
    ORTHCH:  cpu time   13.7419: real time   13.7415
       DOS:  cpu time    0.0014: real time    0.0014
    CHARGE:  cpu time   26.5324: real time   26.5318
    MIXING:  cpu time    0.7208: real time    0.7208
    --------------------------------------------
      LOOP:  cpu time  319.2525: real time  319.2547

 eigenvalue-minimisations  :   723
 total energy-change (2. order) : 0.2532164E+00  (-0.2364812E+00)
 number of electron     559.9999905 magnetization 
 augmentation part      241.7592823 magnetization 

 Broyden mixing:
  rms(total) = 0.17669E+01    rms(broyden)= 0.17666E+01
  rms(prec ) = 0.21249E+01
  weight for this iteration     100.00

 eigenvalues of (default mixing * dielectric matrix)
  average eigenvalue GAMMA=   0.3123
  1.2931  0.3132  0.3132  0.1542  0.1542  0.0989  0.0989  0.0726

 Free energy of the ion-electron system (eV)
  ---------------------------------------------------
  alpha Z        PSCENC =        75.25431677
  Ewald energy   TEWEN  =    138790.99659228
  -Hartree energ DENC   =   -182775.27948166
  -exchange      EXHF   =         0.00000000
  -V(xc)+E(xc)   XCENC  =     -1695.11655050
  PAW double counting   =     46179.28873712   -42666.38141424
  entropy T*S    EENTRO =        -0.03369588
  eigenvalues    EBANDS =     -3173.37736394
  atomic energy  EATOM  =     45086.50549395
  Solvation  Ediel_sol  =         0.00000000
  ---------------------------------------------------
  free energy    TOTEN  =      -178.14336609 eV

  energy without entropy =     -178.10967021  energy(sigma->0) =     -178.13494212


--------------------------------------------------------------------------------------------------------




--------------------------------------- Iteration      1(  14)  ---------------------------------------


    POTLOK:  cpu time   13.8196: real time   13.8204
    SETDIJ:  cpu time    0.1251: real time    0.1251
    EDDIAG:  cpu time   71.1787: real time   71.1821
  RMM-DIIS:  cpu time  195.7233: real time  195.7248
    ORTHCH:  cpu time   13.8719: real time   13.8716
       DOS:  cpu time    0.0014: real time    0.0014
    CHARGE:  cpu time   26.6820: real time   26.6815
    MIXING:  cpu time    0.7440: real time    0.7440
    --------------------------------------------
      LOOP:  cpu time  322.1460: real time  322.1508

 eigenvalue-minimisations  :   721
 total energy-change (2. order) :-0.5357002E+00  (-0.1844844E+00)
 number of electron     559.9999888 magnetization 
 augmentation part      241.4452863 magnetization 

 Broyden mixing:
  rms(total) = 0.20459E+01    rms(broyden)= 0.20456E+01
  rms(prec ) = 0.24096E+01
  weight for this iteration     100.00

 eigenvalues of (default mixing * dielectric matrix)
  average eigenvalue GAMMA=   0.3156
  1.4233  0.3641  0.3641  0.1649  0.1649  0.1017  0.1017  0.0870  0.0689

 Free energy of the ion-electron system (eV)
  ---------------------------------------------------
  alpha Z        PSCENC =        75.25431677
  Ewald energy   TEWEN  =    138790.99659228
  -Hartree energ DENC   =   -182809.00127354
  -exchange      EXHF   =         0.00000000
  -V(xc)+E(xc)   XCENC  =     -1694.68156845
  PAW double counting   =     46232.54066757   -42717.57651657
  entropy T*S    EENTRO =        -0.09580588
  eigenvalues    EBANDS =     -3142.62097244
  atomic energy  EATOM  =     45086.50549395
  Solvation  Ediel_sol  =         0.00000000
  ---------------------------------------------------
  free energy    TOTEN  =      -178.67906630 eV

  energy without entropy =     -178.58326042  energy(sigma->0) =     -178.65511483


--------------------------------------------------------------------------------------------------------




--------------------------------------- Iteration      1(  15)  ---------------------------------------


    POTLOK:  cpu time   13.5988: real time   13.5995
    SETDIJ:  cpu time    0.1263: real time    0.1263
    EDDIAG:  cpu time   70.3563: real time   70.3575
  RMM-DIIS:  cpu time  196.8897: real time  196.8984
    ORTHCH:  cpu time   13.7502: real time   13.7499
       DOS:  cpu time    0.0014: real time    0.0014
    CHARGE:  cpu time   25.6752: real time   25.6748
    MIXING:  cpu time    0.8069: real time    0.8069
    --------------------------------------------
      LOOP:  cpu time  321.2049: real time  321.2148

 eigenvalue-minimisations  :   720
 total energy-change (2. order) : 0.5374395E+00  (-0.1816116E+00)
 number of electron     559.9999879 magnetization 
 augmentation part      241.1882645 magnetization 

 Broyden mixing:
  rms(total) = 0.25157E+01    rms(broyden)= 0.25154E+01
  rms(prec ) = 0.29257E+01
  weight for this iteration     100.00

 eigenvalues of (default mixing * dielectric matrix)
  average eigenvalue GAMMA=   0.3121
  1.5303  0.4999  0.3005  0.1729  0.1729  0.1090  0.1090  0.0933  0.0685  0.0643

 Free energy of the ion-electron system (eV)
  ---------------------------------------------------
  alpha Z        PSCENC =        75.25431677
  Ewald energy   TEWEN  =    138790.99659228
  -Hartree energ DENC   =   -182850.63241737
  -exchange      EXHF   =         0.00000000
  -V(xc)+E(xc)   XCENC  =     -1694.16421366
  PAW double counting   =     46297.24825154   -42779.85649929
  entropy T*S    EENTRO =        -0.00244354
  eigenvalues    EBANDS =     -3103.49070754
  atomic energy  EATOM  =     45086.50549395
  Solvation  Ediel_sol  =         0.00000000
  ---------------------------------------------------
  free energy    TOTEN  =      -178.14162685 eV

  energy without entropy =     -178.13918331  energy(sigma->0) =     -178.14101596


--------------------------------------------------------------------------------------------------------




--------------------------------------- Iteration      1(  16)  ---------------------------------------


    POTLOK:  cpu time   13.4549: real time   13.4558
    SETDIJ:  cpu time    0.1230: real time    0.1230
    EDDIAG:  cpu time   69.9438: real time   69.9437
  RMM-DIIS:  cpu time  193.6782: real time  193.6779
    ORTHCH:  cpu time   13.4312: real time   13.4309
       DOS:  cpu time    0.0015: real time    0.0015
    CHARGE:  cpu time   25.3254: real time   25.3248
    MIXING:  cpu time    0.8552: real time    0.8551
    --------------------------------------------
      LOOP:  cpu time  316.8133: real time  316.8128

 eigenvalue-minimisations  :   707
 total energy-change (2. order) : 0.1976047E+01  (-0.1449041E+00)
 number of electron     559.9999884 magnetization 
 augmentation part      241.2812844 magnetization 

 Broyden mixing:
  rms(total) = 0.11363E+01    rms(broyden)= 0.11358E+01
  rms(prec ) = 0.12965E+01
  weight for this iteration     100.00

 eigenvalues of (default mixing * dielectric matrix)
  average eigenvalue GAMMA=   0.3086
  1.6189  0.4890  0.3368  0.1856  0.1856  0.1147  0.1147  0.1103  0.1103  0.0644
  0.0644

 Free energy of the ion-electron system (eV)
  ---------------------------------------------------
  alpha Z        PSCENC =        75.25431677
  Ewald energy   TEWEN  =    138790.99659228
  -Hartree energ DENC   =   -182871.73232550
  -exchange      EXHF   =         0.00000000
  -V(xc)+E(xc)   XCENC  =     -1693.81204548
  PAW double counting   =     46340.86805124   -42821.85883518
  entropy T*S    EENTRO =        -0.11112866
  eigenvalues    EBANDS =     -3082.27569882
  atomic energy  EATOM  =     45086.50549395
  Solvation  Ediel_sol  =         0.00000000
  ---------------------------------------------------
  free energy    TOTEN  =      -176.16557939 eV

  energy without entropy =     -176.05445073  energy(sigma->0) =     -176.13779723


--------------------------------------------------------------------------------------------------------




--------------------------------------- Iteration      1(  17)  ---------------------------------------


    POTLOK:  cpu time   13.9081: real time   13.9128
    SETDIJ:  cpu time    0.1219: real time    0.1219
    EDDIAG:  cpu time   72.5060: real time   72.5065
  RMM-DIIS:  cpu time  192.2874: real time  192.2907
    ORTHCH:  cpu time   13.7335: real time   13.7332
       DOS:  cpu time    0.0016: real time    0.0016
    CHARGE:  cpu time   25.9308: real time   25.9321
    MIXING:  cpu time    0.8677: real time    0.8677
    --------------------------------------------
      LOOP:  cpu time  319.3570: real time  319.3664

 eigenvalue-minimisations  :   700
 total energy-change (2. order) : 0.7297154E+00  (-0.8563226E-01)
 number of electron     559.9999908 magnetization 
 augmentation part      241.3981231 magnetization 

 Broyden mixing:
  rms(total) = 0.73643E+00    rms(broyden)= 0.73609E+00
  rms(prec ) = 0.82352E+00
  weight for this iteration     100.00

 eigenvalues of (default mixing * dielectric matrix)
  average eigenvalue GAMMA=   0.3056
  1.6492  0.5196  0.3303  0.2422  0.1815  0.1815  0.1105  0.1105  0.1055  0.1055
  0.0655  0.0655

 Free energy of the ion-electron system (eV)
  ---------------------------------------------------
  alpha Z        PSCENC =        75.25431677
  Ewald energy   TEWEN  =    138790.99659228
  -Hartree energ DENC   =   -182884.67407282
  -exchange      EXHF   =         0.00000000
  -V(xc)+E(xc)   XCENC  =     -1693.54331766
  PAW double counting   =     46369.06382268   -42848.79980859
  entropy T*S    EENTRO =        -0.05185657
  eigenvalues    EBANDS =     -3070.18703400
  atomic energy  EATOM  =     45086.50549395
  Solvation  Ediel_sol  =         0.00000000
  ---------------------------------------------------
  free energy    TOTEN  =      -175.43586396 eV

  energy without entropy =     -175.38400739  energy(sigma->0) =     -175.42289982


--------------------------------------------------------------------------------------------------------




--------------------------------------- Iteration      1(  18)  ---------------------------------------


    POTLOK:  cpu time   13.4650: real time   13.4674
    SETDIJ:  cpu time    0.1265: real time    0.1265
    EDDIAG:  cpu time   71.9766: real time   71.9756
  RMM-DIIS:  cpu time  195.7576: real time  195.7572
    ORTHCH:  cpu time   13.6948: real time   13.6947
       DOS:  cpu time    0.0015: real time    0.0015
    CHARGE:  cpu time   25.4428: real time   25.4528
    MIXING:  cpu time    0.9363: real time    0.9363
    --------------------------------------------
      LOOP:  cpu time  321.4011: real time  321.4121

 eigenvalue-minimisations  :   701
 total energy-change (2. order) : 0.2512074E+00  (-0.4009502E-01)
 number of electron     559.9999911 magnetization 
 augmentation part      241.2815444 magnetization 

 Broyden mixing:
  rms(total) = 0.62807E+00    rms(broyden)= 0.62784E+00
  rms(prec ) = 0.71833E+00
  weight for this iteration     100.00

 eigenvalues of (default mixing * dielectric matrix)
  average eigenvalue GAMMA=   0.3120
  1.6911  0.4743  0.4259  0.4259  0.1785  0.1785  0.1167  0.1167  0.1127  0.1127
  0.0930  0.0651  0.0651

 Free energy of the ion-electron system (eV)
  ---------------------------------------------------
  alpha Z        PSCENC =        75.25431677
  Ewald energy   TEWEN  =    138790.99659228
  -Hartree energ DENC   =   -182903.97430569
  -exchange      EXHF   =         0.00000000
  -V(xc)+E(xc)   XCENC  =     -1693.28569989
  PAW double counting   =     46387.46553426   -42866.05456727
  entropy T*S    EENTRO =        -0.06826731
  eigenvalues    EBANDS =     -3052.02375370
  atomic energy  EATOM  =     45086.50549395
  Solvation  Ediel_sol  =         0.00000000
  ---------------------------------------------------
  free energy    TOTEN  =      -175.18465660 eV

  energy without entropy =     -175.11638929  energy(sigma->0) =     -175.16758977


--------------------------------------------------------------------------------------------------------




--------------------------------------- Iteration      1(  19)  ---------------------------------------


    POTLOK:  cpu time   13.3204: real time   13.3224
    SETDIJ:  cpu time    0.1264: real time    0.1264
    EDDIAG:  cpu time   69.8310: real time   69.8330
  RMM-DIIS:  cpu time  195.9481: real time  195.9515
    ORTHCH:  cpu time   13.5869: real time   13.5867
       DOS:  cpu time    0.0015: real time    0.0015
    CHARGE:  cpu time   25.5778: real time   25.5778
    MIXING:  cpu time    0.9901: real time    0.9901
    --------------------------------------------
      LOOP:  cpu time  319.3821: real time  319.3893

 eigenvalue-minimisations  :   701
 total energy-change (2. order) :-0.5720118E-01  (-0.2985530E-01)
 number of electron     559.9999904 magnetization 
 augmentation part      241.2181322 magnetization 

 Broyden mixing:
  rms(total) = 0.80802E+00    rms(broyden)= 0.80782E+00
  rms(prec ) = 0.93387E+00
  weight for this iteration     100.00

 eigenvalues of (default mixing * dielectric matrix)
  average eigenvalue GAMMA=   0.3207
  1.7323  0.6445  0.4692  0.4692  0.1833  0.1833  0.1599  0.1177  0.1177  0.1034
  0.1034  0.0753  0.0651  0.0651

 Free energy of the ion-electron system (eV)
  ---------------------------------------------------
  alpha Z        PSCENC =        75.25431677
  Ewald energy   TEWEN  =    138790.99659228
  -Hartree energ DENC   =   -182920.01971435
  -exchange      EXHF   =         0.00000000
  -V(xc)+E(xc)   XCENC  =     -1693.02323096
  PAW double counting   =     46401.72017721   -42879.14293901
  entropy T*S    EENTRO =        -0.00385751
  eigenvalues    EBANDS =     -3037.52869617
  atomic energy  EATOM  =     45086.50549395
  Solvation  Ediel_sol  =         0.00000000
  ---------------------------------------------------
  free energy    TOTEN  =      -175.24185778 eV

  energy without entropy =     -175.23800027  energy(sigma->0) =     -175.24089341


--------------------------------------------------------------------------------------------------------




--------------------------------------- Iteration      1(  20)  ---------------------------------------


    POTLOK:  cpu time   13.3983: real time   13.3991
    SETDIJ:  cpu time    0.1213: real time    0.1213
    EDDIAG:  cpu time   70.4108: real time   70.4109
  RMM-DIIS:  cpu time  195.2738: real time  195.2759
    ORTHCH:  cpu time   13.4520: real time   13.4519
       DOS:  cpu time    0.0015: real time    0.0015
    CHARGE:  cpu time   25.7283: real time   25.7281
    MIXING:  cpu time    1.0638: real time    1.0638
    --------------------------------------------
      LOOP:  cpu time  319.4500: real time  319.4525

 eigenvalue-minimisations  :   706
 total energy-change (2. order) : 0.7049707E-01  (-0.2361829E-01)
 number of electron     559.9999903 magnetization 
 augmentation part      241.1451423 magnetization 

 Broyden mixing:
  rms(total) = 0.74376E+00    rms(broyden)= 0.74358E+00
  rms(prec ) = 0.87475E+00
  weight for this iteration     100.00

 eigenvalues of (default mixing * dielectric matrix)
  average eigenvalue GAMMA=   0.3269
  1.7727  0.6440  0.5783  0.5783  0.1866  0.1866  0.1653  0.1653  0.1133  0.1133
  0.0985  0.0985  0.0649  0.0649  0.0735

 Free energy of the ion-electron system (eV)
  ---------------------------------------------------
  alpha Z        PSCENC =        75.25431677
  Ewald energy   TEWEN  =    138790.99659228
  -Hartree energ DENC   =   -182941.68577700
  -exchange      EXHF   =         0.00000000
  -V(xc)+E(xc)   XCENC  =     -1692.69846949
  PAW double counting   =     46416.63874137   -42892.67097020
  entropy T*S    EENTRO =        -0.01809657
  eigenvalues    EBANDS =     -3017.49319182
  atomic energy  EATOM  =     45086.50549395
  Solvation  Ediel_sol  =         0.00000000
  ---------------------------------------------------
  free energy    TOTEN  =      -175.17136072 eV

  energy without entropy =     -175.15326415  energy(sigma->0) =     -175.16683657


--------------------------------------------------------------------------------------------------------




--------------------------------------- Iteration      1(  21)  ---------------------------------------


    POTLOK:  cpu time   13.3279: real time   13.3313
    SETDIJ:  cpu time    0.1219: real time    0.1219
    EDDIAG:  cpu time   69.9494: real time   69.9485
  RMM-DIIS:  cpu time  193.4124: real time  193.4118
    ORTHCH:  cpu time   13.3685: real time   13.3682
       DOS:  cpu time    0.0015: real time    0.0015
    CHARGE:  cpu time   25.1519: real time   25.1522
    MIXING:  cpu time    1.1630: real time    1.1630
    --------------------------------------------
      LOOP:  cpu time  316.4965: real time  316.4985

 eigenvalue-minimisations  :   703
 total energy-change (2. order) : 0.4049309E-01  (-0.2150109E-01)
 number of electron     559.9999912 magnetization 
 augmentation part      241.1721416 magnetization 

 Broyden mixing:
  rms(total) = 0.70236E+00    rms(broyden)= 0.70212E+00
  rms(prec ) = 0.82861E+00
  weight for this iteration     100.00

 eigenvalues of (default mixing * dielectric matrix)
  average eigenvalue GAMMA=   0.3455
  1.7364  0.8007  0.7516  0.7516  0.1847  0.1847  0.1975  0.1975  0.1138  0.1138
  0.1060  0.1060  0.0841  0.0647  0.0647  0.0705

 Free energy of the ion-electron system (eV)
  ---------------------------------------------------
  alpha Z        PSCENC =        75.25431677
  Ewald energy   TEWEN  =    138790.99659228
  -Hartree energ DENC   =   -182950.09251848
  -exchange      EXHF   =         0.00000000
  -V(xc)+E(xc)   XCENC  =     -1692.57488242
  PAW double counting   =     46420.40560580   -42895.82255457
  entropy T*S    EENTRO =         0.00818438
  eigenvalues    EBANDS =     -3009.81110533
  atomic energy  EATOM  =     45086.50549395
  Solvation  Ediel_sol  =         0.00000000
  ---------------------------------------------------
  free energy    TOTEN  =      -175.13086762 eV

  energy without entropy =     -175.13905200  energy(sigma->0) =     -175.13291372


--------------------------------------------------------------------------------------------------------




--------------------------------------- Iteration      1(  22)  ---------------------------------------


    POTLOK:  cpu time   13.3975: real time   13.3981
    SETDIJ:  cpu time    0.1196: real time    0.1196
    EDDIAG:  cpu time   68.7962: real time   68.7965
  RMM-DIIS:  cpu time  190.8269: real time  190.8310
    ORTHCH:  cpu time   13.5805: real time   13.5802
       DOS:  cpu time    0.0015: real time    0.0015
    CHARGE:  cpu time   25.8395: real time   25.8389
    MIXING:  cpu time    1.2122: real time    1.2122
    --------------------------------------------
      LOOP:  cpu time  313.7739: real time  313.7779

 eigenvalue-minimisations  :   692
 total energy-change (2. order) : 0.1342158E-01  (-0.2587007E-01)
 number of electron     559.9999911 magnetization 
 augmentation part      241.1151744 magnetization 

 Broyden mixing:
  rms(total) = 0.71153E+00    rms(broyden)= 0.71132E+00
  rms(prec ) = 0.83502E+00
  weight for this iteration     100.00

 eigenvalues of (default mixing * dielectric matrix)
  average eigenvalue GAMMA=   0.3593
  1.7488  1.2086  0.7381  0.7381  0.2945  0.1844  0.1844  0.1547  0.1547  0.1135
  0.1135  0.1016  0.1016  0.0651  0.0651  0.0717  0.0698

 Free energy of the ion-electron system (eV)
  ---------------------------------------------------
  alpha Z        PSCENC =        75.25431677
  Ewald energy   TEWEN  =    138790.99659228
  -Hartree energ DENC   =   -182970.93998930
  -exchange      EXHF   =         0.00000000
  -V(xc)+E(xc)   XCENC  =     -1692.39455294
  PAW double counting   =     46420.07553283   -42894.66203295
  entropy T*S    EENTRO =        -0.04633426
  eigenvalues    EBANDS =     -2989.90647244
  atomic energy  EATOM  =     45086.50549395
  Solvation  Ediel_sol  =         0.00000000
  ---------------------------------------------------
  free energy    TOTEN  =      -175.11744604 eV

  energy without entropy =     -175.07111178  energy(sigma->0) =     -175.10586247


--------------------------------------------------------------------------------------------------------




--------------------------------------- Iteration      1(  23)  ---------------------------------------


    POTLOK:  cpu time   13.5121: real time   13.5133
    SETDIJ:  cpu time    0.1275: real time    0.1275
    EDDIAG:  cpu time   69.8772: real time   69.8790
  RMM-DIIS:  cpu time  189.5523: real time  189.5502
    ORTHCH:  cpu time   13.9402: real time   13.9399
       DOS:  cpu time    0.0015: real time    0.0015
    CHARGE:  cpu time   26.1090: real time   26.1084
    MIXING:  cpu time    1.2645: real time    1.2645
    --------------------------------------------
      LOOP:  cpu time  314.3845: real time  314.3845

 eigenvalue-minimisations  :   694
 total energy-change (2. order) : 0.2105948E-01  (-0.2497194E-01)
 number of electron     559.9999907 magnetization 
 augmentation part      241.1476919 magnetization 

 Broyden mixing:
  rms(total) = 0.63432E+00    rms(broyden)= 0.63414E+00
  rms(prec ) = 0.72862E+00
  weight for this iteration     100.00

 eigenvalues of (default mixing * dielectric matrix)
  average eigenvalue GAMMA=   0.3756
[...]
 -0.006  -0.012   0.004   0.004   0.006  -0.006  -0.012   0.003
 -0.010  -0.020   0.006   0.007   0.010  -0.010  -0.020   0.006
 -0.015  -0.005   0.012   0.000   0.022  -0.014  -0.005   0.012
  0.000  -0.023  -0.006  -0.015  -0.000   0.000  -0.022  -0.006
 -0.022   0.000   0.009  -0.005  -0.016  -0.021   0.000   0.008
 -0.018  -0.006   0.015   0.000   0.027  -0.017  -0.006   0.015
  0.000  -0.027  -0.007  -0.018   0.000   0.000  -0.027  -0.007
 -0.027   0.000   0.010  -0.006  -0.019  -0.026   0.000   0.010
 total augmentation occupancy for first ion, spin component:           1
  1.531  -0.031   0.007   0.016   0.020   0.077  -0.008  -0.002   0.036  -0.009   0.088  -0.029   0.011   0.002   0.004  -0.019
 -0.031   1.401   0.028   0.071  -0.001  -0.007   0.071   0.011  -0.014  -0.007   0.216  -0.065   0.019   0.001   0.003  -0.006
  0.007   0.028   1.540   0.002   0.004  -0.002   0.013   0.075  -0.012   0.017  -0.051   0.017  -0.003  -0.006  -0.006   0.016
  0.016   0.071   0.002   1.338   0.046   0.033  -0.013  -0.012   0.092  -0.023  -0.080   0.021  -0.001  -0.009  -0.004   0.001
  0.020  -0.001   0.004   0.046   1.439  -0.009  -0.008   0.016  -0.022   0.068  -0.099   0.033  -0.003  -0.010  -0.009   0.026
  0.077  -0.007  -0.002   0.033  -0.009   0.217   0.018  -0.001  -0.045   0.003  -0.048   0.002   0.017  -0.010   0.034  -0.004
 -0.008   0.071   0.013  -0.013  -0.008   0.018   0.263  -0.023  -0.003   0.006  -0.109   0.007  -0.001   0.052  -0.010  -0.000
 -0.002   0.011   0.075  -0.012   0.016  -0.001  -0.023   0.215   0.014  -0.019   0.028  -0.001  -0.012   0.009  -0.018   0.003
  0.036  -0.014  -0.012   0.092  -0.022  -0.045  -0.003   0.014   0.261   0.007   0.043  -0.004  -0.009   0.036   0.004   0.000
 -0.009  -0.007   0.017  -0.023   0.068   0.003   0.006  -0.019   0.007   0.259   0.047  -0.002  -0.038   0.002   0.049   0.007
  0.088   0.216  -0.051  -0.080  -0.099  -0.048  -0.109   0.028   0.043   0.047   0.948  -0.141   0.084   0.014   0.064  -0.013
 -0.029  -0.065   0.017   0.021   0.033   0.002   0.007  -0.001  -0.004  -0.002  -0.141   0.023  -0.014  -0.003  -0.010   0.003
  0.011   0.019  -0.003  -0.001  -0.003   0.017  -0.001  -0.012  -0.009  -0.038   0.084  -0.014   0.029  -0.008  -0.004  -0.003
  0.002   0.001  -0.006  -0.009  -0.010  -0.010   0.052   0.009   0.036   0.002   0.014  -0.003  -0.008   0.036   0.004   0.000
  0.004   0.003  -0.006  -0.004  -0.009   0.034  -0.010  -0.018   0.004   0.049   0.064  -0.010  -0.004   0.004   0.034  -0.000
 -0.019  -0.006   0.016   0.001   0.026  -0.004  -0.000   0.003   0.000   0.007  -0.013   0.003  -0.003   0.000  -0.000   0.001
  0.001  -0.028  -0.007  -0.018   0.001   0.001  -0.008  -0.002  -0.006  -0.000  -0.003   0.001   0.000  -0.003  -0.000   0.000
 -0.028   0.001   0.012  -0.005  -0.020  -0.006   0.001   0.003  -0.001  -0.007  -0.008   0.001  -0.000  -0.000  -0.003   0.000


------------------------ aborting loop because EDIFF is reached ----------------------------------------


    CHARGE:  cpu time   27.3469: real time   27.3470
    FORLOC:  cpu time    7.0455: real time    7.0455
    FORNL :  cpu time   69.3800: real time   69.3854
    STRESS:  cpu time  209.6659: real time  209.6847
    FORCOR:  cpu time   23.3710: real time   23.3712
    FORHAR:  cpu time   10.1868: real time   10.1868
    MIXING:  cpu time    4.2137: real time    4.2137
    OFIELD:  cpu time    0.0000: real time    0.0000

  FORCE on cell =-STRESS in cart. coord.  units (eV):
  Direction    XX          YY          ZZ          XY          YZ          ZX
  --------------------------------------------------------------------------------------
  Alpha Z    75.25432    75.25432    75.25432
  Ewald   45415.57912 47670.67576 45704.63594 -1296.26430  1448.48863 -1187.24992
  Hartree 60218.81156 62399.87685 60516.15860 -1187.80551  1357.83868 -1001.26762
  E(xc)   -2906.45648 -2905.90878 -2906.39359    -0.52159     0.12678    -0.80600
  Local  ************************************  2471.08367 -2794.99768  2167.38466
  n-local  -873.16703  -885.27230  -877.11622     0.26748    -1.68325    -4.31838
  augment  4100.84307  4106.05838  4102.37576     1.44877     0.51811     4.72301
  Kinetic  7809.87898  7810.67670  7810.18218     7.55638    -5.13271    14.30041
  Fock        0.00000     0.00000     0.00000     0.00000     0.00000     0.00000
  -------------------------------------------------------------------------------------
  Total    -104.81361  -108.75554  -107.18693    -4.23510     5.15856    -7.23384
  in kB      -6.21963    -6.45354    -6.36046    -0.25131     0.30611    -0.42926
  external pressure =       -6.34 kB  Pullay stress =        0.00 kB


 VOLUME and BASIS-vectors are now :
 -----------------------------------------------------------------------------
  energy-cutoff  :      400.00
  volume of cell :    27000.00
      direct lattice vectors                 reciprocal lattice vectors
    30.000000000  0.000000000  0.000000000     0.033333333  0.000000000  0.000000000
     0.000000000 30.000000000  0.000000000     0.000000000  0.033333333  0.000000000
     0.000000000  0.000000000 30.000000000     0.000000000  0.000000000  0.033333333

  length of vectors
    30.000000000 30.000000000 30.000000000     0.033333333  0.033333333  0.033333333


 FORCES acting on ions
    electron-ion (+dipol)            ewald-force                    non-local-force                 convergence-correction
 -----------------------------------------------------------------------------------------------
   0.393E+03 0.975E+03 0.419E+03   -.390E+03 -.972E+03 -.419E+03   -.151E+01 -.183E+01 -.228E+00   -.335E-02 -.526E-03 0.840E-06
   -.977E+03 -.390E+03 0.421E+03   0.974E+03 0.388E+03 -.420E+03   0.182E+01 0.153E+01 -.212E+00   -.894E-03 0.502E-02 0.112E-02
   -.396E+03 0.974E+03 0.419E+03   0.394E+03 -.971E+03 -.418E+03   0.153E+01 -.182E+01 -.225E+00   0.206E-02 -.123E-02 0.187E-02
   0.976E+03 -.382E+03 0.433E+03   -.973E+03 0.380E+03 -.433E+03   -.185E+01 0.149E+01 -.253E+00   0.211E-02 0.362E-02 -.654E-03
   -.180E+01 0.590E+03 0.967E+03   0.178E+01 -.589E+03 -.964E+03   0.104E-01 -.321E+00 -.236E+01   -.204E-02 0.292E-02 -.396E-02
   -.436E+01 0.597E+03 -.965E+03   0.437E+01 -.596E+03 0.961E+03   -.870E-02 -.299E+00 0.235E+01   0.395E-02 0.383E-02 0.108E-02
   -.181E+01 0.114E+04 0.217E+01   0.181E+01 -.113E+04 -.216E+01   0.254E-02 -.311E+01 -.502E-02   0.163E-02 -.293E-02 0.364E-02
   0.114E+04 0.162E+02 0.110E+02   -.114E+04 -.162E+02 -.110E+02   -.311E+01 0.845E-02 -.233E-01   0.147E-02 0.160E-02 0.268E-02
   -.114E+04 0.394E+01 0.273E+01   0.113E+04 -.394E+01 -.274E+01   0.312E+01 0.376E-02 0.401E-02   -.879E-03 0.207E-02 0.314E-02
   -.334E+02 -.114E+04 0.405E+02   0.335E+02 0.114E+04 -.404E+02   -.144E-01 0.335E+01 -.114E+00   0.193E-02 -.295E-02 -.601E-03
   -.580E+03 0.581E+03 0.815E+03   0.578E+03 -.578E+03 -.811E+03   0.156E+01 -.157E+01 -.220E+01   0.239E-02 0.246E-02 -.189E-02
   -.583E+03 0.584E+03 -.812E+03   0.581E+03 -.582E+03 0.809E+03   0.156E+01 -.155E+01 0.220E+01   0.211E-02 0.265E-02 -.759E-03
   0.578E+03 -.573E+03 0.826E+03   -.575E+03 0.571E+03 -.823E+03   -.156E+01 0.157E+01 -.220E+01   0.793E-04 0.150E-02 0.286E-02
   0.596E+03 -.382E+03 -.893E+03   -.594E+03 0.382E+03 0.889E+03   -.155E+01 -.178E+00 0.291E+01   0.318E-02 -.602E-03 -.116E-02
   0.578E+03 0.582E+03 0.816E+03   -.575E+03 -.580E+03 -.813E+03   -.156E+01 -.156E+01 -.220E+01   -.318E-02 0.232E-02 -.307E-02
   0.578E+03 0.592E+03 -.813E+03   -.575E+03 -.589E+03 0.810E+03   -.153E+01 -.155E+01 0.216E+01   -.278E-02 0.466E-02 0.108E-02
   -.583E+03 -.575E+03 0.819E+03   0.581E+03 0.573E+03 -.815E+03   0.156E+01 0.156E+01 -.220E+01   0.271E-03 0.349E-02 0.317E-02
   -.603E+03 -.568E+03 -.815E+03   0.600E+03 0.566E+03 0.812E+03   0.163E+01 0.158E+01 0.218E+01   -.180E-02 0.226E-02 -.672E-03
   0.392E+03 0.978E+03 -.414E+03   -.390E+03 -.975E+03 0.414E+03   -.152E+01 -.181E+01 0.219E+00   -.139E-03 0.217E-02 0.294E-02
   -.982E+03 -.387E+03 -.413E+03   0.979E+03 0.385E+03 0.413E+03   0.181E+01 0.150E+01 0.225E+00   -.233E-02 0.163E-02 0.253E-02
   -.325E+03 0.327E+03 0.458E+03   0.325E+03 -.328E+03 -.459E+03   -.351E+00 0.349E+00 0.515E+00   -.170E-03 0.778E-02 0.346E-02
   0.973E+03 0.403E+03 0.424E+03   -.970E+03 -.401E+03 -.423E+03   -.181E+01 -.150E+01 -.205E+00   -.986E-03 0.363E-02 0.249E-03
   -.406E+03 -.969E+03 0.432E+03   0.404E+03 0.966E+03 -.431E+03   0.150E+01 0.184E+01 -.233E+00   -.100E-02 0.215E-02 0.402E-02
   -.397E+03 0.976E+03 -.415E+03   0.395E+03 -.973E+03 0.414E+03   0.151E+01 -.182E+01 0.216E+00   0.546E-02 0.267E-02 0.459E-02
   0.996E+03 -.341E+03 -.398E+03   -.993E+03 0.338E+03 0.398E+03   -.176E+01 0.164E+01 0.277E+00   0.337E-02 0.843E-04 0.242E-02
   -.974E+03 0.397E+03 0.419E+03   0.971E+03 -.395E+03 -.419E+03   0.183E+01 -.152E+01 -.236E+00   0.293E-02 0.484E-02 0.292E-02
   0.386E+03 -.967E+03 0.446E+03   -.384E+03 0.964E+03 -.446E+03   -.150E+01 0.184E+01 -.248E+00   0.324E-02 0.184E-02 0.345E-02
   0.318E+03 0.330E+03 0.461E+03   -.319E+03 -.330E+03 -.461E+03   0.361E+00 0.381E+00 0.531E+00   -.111E-02 0.760E-02 0.159E-02
   -.358E+01 0.647E+03 0.428E+01   0.357E+01 -.648E+03 -.429E+01   0.637E-02 0.745E+00 0.915E-02   0.152E-02 0.602E-02 0.572E-02
   -.590E+03 0.362E+01 0.968E+03   0.589E+03 -.360E+01 -.965E+03   0.326E+00 -.110E-01 -.236E+01   0.900E-03 0.741E-02 0.550E-04
   -.598E+03 0.106E+02 -.965E+03   0.597E+03 -.106E+02 0.962E+03   0.326E+00 -.958E-02 0.233E+01   0.374E-03 0.154E-02 -.123E-02
   0.586E+03 0.641E+01 0.972E+03   -.585E+03 -.641E+01 -.969E+03   -.305E+00 -.897E-04 -.235E+01   -.626E-03 0.519E-02 -.226E-03
   0.588E+03 0.397E+02 -.970E+03   -.587E+03 -.398E+02 0.967E+03   -.348E+00 -.223E-01 0.238E+01   0.445E-03 0.261E-02 -.175E-02
   0.760E+03 0.770E+03 0.494E+01   -.758E+03 -.768E+03 -.496E+01   -.116E+01 -.114E+01 0.158E-01   -.383E-02 0.398E-02 0.405E-02
   -.776E+03 -.754E+03 0.994E+01   0.774E+03 0.752E+03 -.991E+01   0.120E+01 0.112E+01 -.171E-01   -.250E-02 0.404E-02 0.908E-03
   -.764E+03 0.765E+03 0.275E+01   0.762E+03 -.763E+03 -.274E+01   0.114E+01 -.116E+01 -.125E-01   0.285E-02 0.314E-02 0.745E-02
   0.765E+03 -.724E+03 0.613E+02   -.763E+03 0.722E+03 -.615E+02   -.112E+01 0.123E+01 0.194E+00   0.373E-02 0.147E-02 0.344E-03
   -.305E+01 0.532E+01 0.108E+04   0.306E+01 -.533E+01 -.107E+04   -.911E-02 0.624E-02 -.161E+01   -.109E-02 0.502E-02 0.136E-03
   -.148E+02 0.264E+02 -.107E+04   0.148E+02 -.264E+02 0.107E+04   0.200E-01 -.331E-02 0.165E+01   0.447E-03 0.434E-02 -.113E-02
   0.976E+03 0.414E+03 -.412E+03   -.973E+03 -.412E+03 0.411E+03   -.182E+01 -.157E+01 0.224E+00   0.510E-03 0.243E-02 0.272E-02
   -.446E+03 -.964E+03 -.401E+03   0.444E+03 0.961E+03 0.400E+03   0.161E+01 0.190E+01 0.353E+00   -.410E-03 -.457E-03 0.149E-03
   -.329E+03 0.333E+03 -.450E+03   0.329E+03 -.333E+03 0.451E+03   -.374E+00 0.380E+00 -.516E+00   0.316E-02 0.293E-02 0.372E-02
   0.316E+03 -.308E+03 0.472E+03   -.316E+03 0.309E+03 -.472E+03   0.384E+00 -.374E+00 0.492E+00   -.191E-03 0.516E-02 0.211E-02
   0.316E+03 0.342E+03 -.448E+03   -.317E+03 -.342E+03 0.449E+03   0.377E+00 0.272E+00 -.521E+00   -.107E-02 0.720E-02 0.220E-02
   -.977E+03 0.400E+03 -.414E+03   0.974E+03 -.397E+03 0.414E+03   0.182E+01 -.149E+01 0.231E+00   -.116E-02 0.122E-02 0.367E-02
   0.141E+03 -.905E+03 -.204E+03   -.144E+03 0.903E+03 0.207E+03   0.839E+01 0.234E+00 -.687E+01   0.455E-02 -.119E-02 -.255E-03
   -.329E+03 -.313E+03 0.464E+03   0.330E+03 0.314E+03 -.464E+03   -.376E+00 -.352E+00 0.546E+00   0.207E-03 0.686E-02 0.251E-02
   0.639E+03 0.236E+02 0.159E+02   -.640E+03 -.235E+02 -.159E+02   0.706E+00 -.231E-01 -.144E-01   0.151E-02 0.425E-02 0.400E-02
   -.647E+03 0.820E+01 0.560E+01   0.648E+03 -.824E+01 -.563E+01   -.743E+00 0.232E-01 0.190E-01   0.387E-03 0.399E-02 0.444E-02
   -.493E+01 -.582E+03 0.976E+03   0.491E+01 0.581E+03 -.972E+03   0.107E-01 0.307E+00 -.236E+01   0.662E-03 0.369E-02 0.527E-02
   -.698E+02 -.538E+03 -.985E+03   0.703E+02 0.537E+03 0.982E+03   -.316E+00 0.493E+00 0.217E+01   0.226E-02 0.136E-02 -.210E-02
   -.984E+01 0.175E+02 0.119E+02   0.982E+01 -.175E+02 -.118E+02   0.142E-01 -.191E-01 -.172E-01   -.452E-03 0.607E-02 0.379E-02
   0.298E+03 -.256E+03 -.431E+03   -.298E+03 0.256E+03 0.431E+03   0.232E+00 0.699E-01 -.389E+00   0.111E-02 0.287E-02 0.192E-02
   -.345E+03 -.300E+03 -.445E+03   0.346E+03 0.301E+03 0.446E+03   -.343E+00 -.406E+00 -.536E+00   -.275E-03 0.492E-02 0.289E-02
   -.272E+02 -.618E+03 0.329E+02   0.273E+02 0.619E+03 -.329E+02   -.443E-01 -.895E+00 -.803E-01   0.104E-02 0.554E-02 0.616E-03
   0.209E+03 -.210E+03 -.136E+03   -.205E+03 0.195E+03 0.130E+03   -.552E+01 0.990E+01 0.767E+01   0.107E-02 -.806E-03 0.157E-03
   0.394E+03 -.665E+03 -.404E+03   -.422E+03 0.716E+03 0.438E+03   0.240E+02 -.447E+02 -.298E+02   0.142E-02 -.139E-02 -.407E-03
 -----------------------------------------------------------------------------------------------
   -.283E+02 0.372E+02 0.284E+02   0.284E-12 0.114E-12 -.512E-12   0.282E+02 -.373E+02 -.285E+02   0.321E-01 0.164E+00 0.878E-01
 
 
 POSITION                                       TOTAL-FORCE (eV/Angst)
 -----------------------------------------------------------------------------------
     13.37281      9.84801     12.50759         0.701953      1.101505      0.289741
     20.15199     16.62719     12.50759        -1.104125     -0.710572      0.283796
     16.62719      9.84801     12.50759        -0.712465      1.099930      0.296197
      9.84801     16.62719     12.50759         1.107212     -0.704507      0.286447
     15.00000     11.47521     10.20639        -0.008571      0.417035      1.278753
     15.00000     11.47521     19.79360         0.003051      0.412396     -1.286109
     15.00000      8.28283     15.00000        -0.002163      1.515538      0.004983
      8.28283     15.00000     15.00000         1.517440     -0.001658      0.004505
     21.71717     15.00000     15.00000        -1.515747     -0.000840     -0.001162
     15.00000     21.71717     15.00000         0.027012     -1.507404     -0.003822
     18.35858     11.64142     10.25025        -0.751718      0.761245      1.064206
     18.35858     11.64142     19.74975        -0.759646      0.753973     -1.073749
     11.64142     18.35858     10.25025         0.755874     -0.757191      1.072760
     11.64142     18.35858     19.74975         0.864548     -0.037587     -1.550126
     11.64142     11.64142     10.25025         0.752964      0.755087      1.068978
     11.64142     11.64142     19.74975         0.758795      0.743074     -1.058889
     18.35858     18.35858     10.25025        -0.754440     -0.759209      1.070686
     18.35858     18.35858     19.74975        -0.794585     -0.760746     -1.052392
     13.37281      9.84801     17.49241         0.715546      1.095930     -0.293565
     20.15199     16.62719     17.49241        -1.107477     -0.704595     -0.294719
     16.73751     13.26249     12.54279         0.108999     -0.109734     -0.157022
      9.84801     13.37281     12.50759         1.107454      0.704076      0.285576
     16.62719     20.15199     12.50759        -0.700209     -1.104373      0.296046
     16.62719      9.84801     17.49241        -0.702509      1.106944     -0.286535
      9.84801     16.62719     17.49241         1.059660     -0.797231     -0.320061
     20.15199     13.37281     12.50759        -1.099566      0.710739      0.302982
     13.37281     20.15199     12.50759         0.708936     -1.115693      0.280468
     13.26249     13.26249     12.54279        -0.101279     -0.100509     -0.155132
     15.00000     11.52498     15.00000        -0.000279     -0.223165      0.004652
     18.52479     15.00000     10.20639        -0.417553      0.012818      1.279782
     18.52479     15.00000     19.79360        -0.415542     -0.001016     -1.281256
     11.47521     15.00000     10.20640         0.415673      0.002302      1.279591
     11.47521     15.00000     19.79360         0.377796     -0.129778     -1.303057
     11.49535     11.49535     15.00000         0.832454      0.831033     -0.005181
     18.50465     18.50465     15.00000        -0.840687     -0.819417      0.011154
     18.50465     11.49535     15.00000        -0.825303      0.831472      0.007183
     11.49535     18.50465     15.00000         0.802065     -0.832424     -0.060514
     15.00000     15.00000     10.04368        -0.000464     -0.002480      1.174844
     15.00000     15.00000     19.95633         0.009799     -0.019742     -1.179270
      9.84801     13.37281     17.49241         1.100207      0.734857     -0.280812
     16.62719     20.15199     17.49241        -0.617037     -1.108514     -0.346196
     16.73751     13.26249     17.45721         0.109046     -0.112411      0.160602
     13.26249     16.73751     12.54279        -0.111512      0.113688     -0.156361
     13.26249     13.26249     17.45721        -0.107085     -0.099909      0.153880
     20.15199     13.37281     17.49241        -1.109286      0.700215     -0.293805
     13.37281     20.15199     17.49241         5.477493     -2.053711     -4.444009
     16.73751     16.73751     12.54279         0.128250      0.095072     -0.176129
     11.52498     15.00000     15.00000        -0.230363     -0.013236      0.003684
     18.47502     15.00000     15.00000         0.228530     -0.010172     -0.006359
     15.00000     18.52480     10.20639        -0.005827     -0.413251      1.281764
     15.00000     18.52480     19.79360         0.167276     -0.401887     -1.238538
     15.00000     15.00000     15.00000        -0.004875      0.012532      0.020333
     13.26249     16.73751     17.45721        -0.069032     -0.026815      0.100949
     16.73751     16.73751     17.45721         0.110613      0.118619      0.146979
     15.00000     18.47502     15.00000         0.050995      0.202850     -0.046185
     12.07138     20.28018     18.53843        -1.283347     -5.001801      1.008585
     11.59935     21.13124     19.10876        -3.846950      5.608647      3.830850
 -----------------------------------------------------------------------------------
    total drift:                               -0.003932     -0.005843     -0.014365


--------------------------------------------------------------------------------------------------------



  FREE ENERGIE OF THE ION-ELECTRON SYSTEM (eV)
  ---------------------------------------------------
  free  energy   TOTEN  =      -174.77598320 eV

  energy  without entropy=     -174.71570648  energy(sigma->0) =     -174.76091402
 


--------------------------------------------------------------------------------------------------------


    POTLOK:  cpu time   14.9488: real time   14.9491


--------------------------------------------------------------------------------------------------------


     LOOP+:  cpu time18823.8335: real time18824.2978
    4ORBIT:  cpu time    0.0000: real time    0.0000

 total amount of memory used by VASP MPI-rank0  5486940. kBytes
=======================================================================

   base      :      30000. kBytes
   nonlr-proj:      17125. kBytes
   fftplans  :     924480. kBytes
   grid      :    1872000. kBytes
   one-center:        886. kBytes
   wavefun   :    2642449. kBytes
 
  
  
 General timing and accounting informations for this job:
 ========================================================
  
                  Total CPU time used (sec):    18898.074
                            User time (sec):    17860.970
                          System time (sec):     1037.105
                         Elapsed time (sec):    18898.590
  
                   Maximum memory used (kb):     7178844.
                   Average memory used (kb):           0.
  
                          Minor page faults:    815375468
                          Major page faults:            0
                 Voluntary context switches:          535
