       N       E                     dE             d eps       ncg     rms          rms(c)
DAV:   1     0.438162892435E+04    0.43816E+04   -0.10048E+05   688   0.815E+02
DAV:   2     0.201153382160E+04   -0.23701E+04   -0.21319E+04  1232   0.105E+02
DAV:   3     0.227864155848E+03   -0.17837E+04   -0.16775E+04  1008   0.916E+01
DAV:   4    -0.134468268453E+03   -0.36233E+03   -0.30584E+03   824   0.433E+01
DAV:   5    -0.178527311959E+03   -0.44059E+02   -0.36033E+02  1032   0.143E+01    0.139E+01
RMM:   6    -0.177831250820E+03    0.69606E+00   -0.50801E+01   721   0.851E+00    0.211E+01
RMM:   7    -0.179615375221E+03   -0.17841E+01   -0.18204E+01   844   0.431E+00    0.181E+01
RMM:   8    -0.185023177271E+03   -0.54078E+01   -0.58623E+00   763   0.329E+00    0.333E+01
RMM:   9    -0.182273380192E+03    0.27498E+01   -0.42763E+00   755   0.276E+00    0.268E+01
RMM:  10    -0.179224077602E+03    0.30493E+01   -0.27275E+00   734   0.247E+00    0.236E+01
RMM:  11    -0.176888494055E+03    0.23356E+01   -0.15288E+00   729   0.184E+00    0.169E+01
RMM:  12    -0.175926292131E+03    0.96220E+00   -0.96559E-01   729   0.149E+00    0.147E+01
RMM:  13    -0.175875386451E+03    0.50906E-01   -0.92950E-01   724   0.143E+00    0.150E+01
RMM:  14    -0.176493316367E+03   -0.61793E+00   -0.10671E+00   718   0.152E+00    0.209E+01
RMM:  15    -0.175761387641E+03    0.73193E+00   -0.10190E+00   717   0.151E+00    0.178E+01
RMM:  16    -0.174913584734E+03    0.84780E+00   -0.84208E-01   709   0.137E+00    0.114E+01
RMM:  17    -0.174595826164E+03    0.31776E+00   -0.61633E-01   716   0.118E+00    0.117E+01
RMM:  18    -0.174280361544E+03    0.31546E+00   -0.30332E-01   716   0.830E-01    0.841E+00
RMM:  19    -0.174242579764E+03    0.37782E-01   -0.34649E-01   705   0.894E-01    0.801E+00
RMM:  20    -0.174087989474E+03    0.15459E+00   -0.23145E-01   710   0.756E-01    0.606E+00
RMM:  21    -0.174213290859E+03   -0.12530E+00   -0.24869E-01   716   0.776E-01    0.869E+00
RMM:  22    -0.174063448366E+03    0.14984E+00   -0.21963E-01   714   0.746E-01    0.708E+00
RMM:  23    -0.173999074716E+03    0.64374E-01   -0.14802E-01   710   0.617E-01    0.624E+00
RMM:  24    -0.173915599685E+03    0.83475E-01   -0.11284E-01   713   0.539E-01    0.461E+00
RMM:  25    -0.173875007544E+03    0.40592E-01   -0.75806E-02   705   0.450E-01    0.417E+00
RMM:  26    -0.173822915205E+03    0.52092E-01   -0.47517E-02   713   0.350E-01    0.306E+00
RMM:  27    -0.173788552395E+03    0.34363E-01   -0.26279E-02   712   0.265E-01    0.221E+00
RMM:  28    -0.173779906051E+03    0.86463E-02   -0.17399E-02   710   0.206E-01    0.195E+00
RMM:  29    -0.173766087367E+03    0.13819E-01   -0.11704E-02   714   0.169E-01    0.131E+00
RMM:  30    -0.173764872097E+03    0.12153E-02   -0.90850E-03   711   0.150E-01    0.151E+00
RMM:  31    -0.173755951490E+03    0.89206E-02   -0.72450E-03   705   0.135E-01    0.875E-01
RMM:  32    -0.173753544074E+03    0.24074E-02   -0.47218E-03   702   0.116E-01    0.711E-01
RMM:  33    -0.173753852064E+03   -0.30799E-03   -0.32712E-03   705   0.909E-02    0.794E-01
RMM:  34    -0.173751352982E+03    0.24991E-02   -0.29605E-03   701   0.887E-02    0.443E-01
RMM:  35    -0.173751815384E+03   -0.46240E-03   -0.14303E-03   702   0.615E-02    0.395E-01
RMM:  36    -0.173754115407E+03   -0.23000E-02   -0.14714E-03   701   0.564E-02    0.403E-01
RMM:  37    -0.173755694684E+03   -0.15793E-02   -0.89966E-04   696   0.474E-02    0.335E-01
RMM:  38    -0.173759755434E+03   -0.40608E-02   -0.11918E-03   699   0.498E-02    0.352E-01
RMM:  39    -0.173761749373E+03   -0.19939E-02   -0.72043E-04   630   0.403E-02    0.173E-01
RMM:  40    -0.173763665869E+03   -0.19165E-02   -0.43113E-04   513   0.310E-02    0.201E-01
RMM:  41    -0.173766824192E+03   -0.31583E-02   -0.50134E-04   532   0.305E-02    0.148E-01
RMM:  42    -0.173767778913E+03   -0.95472E-03   -0.17913E-04   433   0.194E-02    0.134E-01
RMM:  43    -0.173770531631E+03   -0.27527E-02   -0.34370E-04   462   0.236E-02    0.135E-01
RMM:  44    -0.173772230340E+03   -0.16987E-02   -0.25997E-04   441   0.208E-02    0.711E-02
RMM:  45    -0.173773361382E+03   -0.11310E-02   -0.14019E-04   419   0.156E-02    0.862E-02
RMM:  46    -0.173775167743E+03   -0.18064E-02   -0.14834E-04   424   0.143E-02    0.548E-02
RMM:  47    -0.173775602485E+03   -0.43474E-03   -0.60146E-05   415   0.938E-03    0.393E-02
RMM:  48    -0.173776875546E+03   -0.12731E-02   -0.62726E-05   414   0.921E-03    0.423E-02
RMM:  49    -0.173777401574E+03   -0.52603E-03   -0.36363E-05   411   0.707E-03    0.261E-02
RMM:  50    -0.173777870654E+03   -0.46908E-03   -0.18706E-05   319   0.541E-03    0.288E-02
RMM:  51    -0.173778554294E+03   -0.68364E-03   -0.20536E-05   341   0.547E-03    0.223E-02
RMM:  52    -0.173778771055E+03   -0.21676E-03   -0.51891E-06   173   0.396E-03    0.157E-02
RMM:  53    -0.173779280163E+03   -0.50911E-03   -0.18604E-05   299   0.495E-03    0.158E-02
RMM:  54    -0.173779539985E+03   -0.25982E-03   -0.68153E-06   180   0.404E-03    0.128E-02
RMM:  55    -0.173779782941E+03   -0.24296E-03   -0.14619E-05   244   0.438E-03    0.756E-03
RMM:  56    -0.173779863949E+03   -0.81008E-04   -0.30611E-06   127   0.347E-03
   1 F= -.17377986E+03 E0= -.17375777E+03  d E =-.883776E-01
