       N       E                     dE             d eps       ncg     rms          rms(c)
DAV:   1     0.438861350007E+04    0.43886E+04   -0.10048E+05   688   0.815E+02
DAV:   2     0.201139792195E+04   -0.23772E+04   -0.21384E+04  1224   0.105E+02
DAV:   3     0.236370972005E+03   -0.17750E+04   -0.16694E+04  1000   0.920E+01
DAV:   4    -0.133504468865E+03   -0.36988E+03   -0.31225E+03   824   0.436E+01
DAV:   5    -0.179326280620E+03   -0.45822E+02   -0.37871E+02  1048   0.145E+01    0.142E+01
RMM:   6    -0.179507222416E+03   -0.18094E+00   -0.54495E+01   720   0.883E+00    0.222E+01
RMM:   7    -0.181741256301E+03   -0.22340E+01   -0.19377E+01   850   0.474E+00    0.245E+01
RMM:   8    -0.183119054960E+03   -0.13778E+01   -0.64678E+00   803   0.316E+00    0.255E+01
RMM:   9    -0.181584050474E+03    0.15350E+01   -0.52205E+00   735   0.310E+00    0.228E+01
RMM:  10    -0.179748997363E+03    0.18351E+01   -0.29706E+00   737   0.254E+00    0.205E+01
RMM:  11    -0.177816157941E+03    0.19328E+01   -0.20050E+00   723   0.211E+00    0.168E+01
RMM:  12    -0.176542044078E+03    0.12741E+01   -0.16662E+00   712   0.192E+00    0.132E+01
RMM:  13    -0.176335014728E+03    0.20703E+00   -0.98661E-01   724   0.145E+00    0.125E+01
RMM:  14    -0.176608998492E+03   -0.27398E+00   -0.85652E-01   721   0.136E+00    0.169E+01
RMM:  15    -0.176320644539E+03    0.28835E+00   -0.80301E-01   717   0.133E+00    0.181E+01
RMM:  16    -0.175948434488E+03    0.37221E+00   -0.94444E-01   705   0.144E+00    0.177E+01
RMM:  17    -0.175611557256E+03    0.33688E+00   -0.45779E-01   717   0.998E-01    0.109E+01
RMM:  18    -0.175680103897E+03   -0.68547E-01   -0.45469E-01   713   0.100E+00    0.143E+01
RMM:  19    -0.175393226678E+03    0.28688E+00   -0.39909E-01   704   0.948E-01    0.101E+01
RMM:  20    -0.175275599134E+03    0.11763E+00   -0.36605E-01   697   0.921E-01    0.101E+01
RMM:  21    -0.175164744399E+03    0.11085E+00   -0.27511E-01   700   0.808E-01    0.874E+00
RMM:  22    -0.175080409572E+03    0.84335E-01   -0.23627E-01   695   0.746E-01    0.692E+00
RMM:  23    -0.174905208091E+03    0.17520E+00   -0.20489E-01   695   0.695E-01    0.662E+00
RMM:  24    -0.174802589433E+03    0.10262E+00   -0.10628E-01   695   0.514E-01    0.464E+00
RMM:  25    -0.174794751648E+03    0.78378E-02   -0.85449E-02   696   0.459E-01    0.487E+00
RMM:  26    -0.174732377209E+03    0.62374E-01   -0.59329E-02   696   0.384E-01    0.380E+00
RMM:  27    -0.174685999153E+03    0.46378E-01   -0.44279E-02   693   0.335E-01    0.263E+00
RMM:  28    -0.174674624765E+03    0.11374E-01   -0.37776E-02   693   0.302E-01    0.239E+00
RMM:  29    -0.174655079255E+03    0.19546E-01   -0.26097E-02   693   0.256E-01    0.176E+00
RMM:  30    -0.174648147851E+03    0.69314E-02   -0.14965E-02   694   0.203E-01    0.178E+00
RMM:  31    -0.174638412259E+03    0.97356E-02   -0.80724E-03   693   0.152E-01    0.129E+00
RMM:  32    -0.174630029935E+03    0.83823E-02   -0.50755E-03   693   0.121E-01    0.749E-01
RMM:  33    -0.174628286126E+03    0.17438E-02   -0.37956E-03   692   0.959E-02    0.635E-01
RMM:  34    -0.174628020793E+03    0.26533E-03   -0.34388E-03   693   0.920E-02    0.637E-01
RMM:  35    -0.174628580280E+03   -0.55949E-03   -0.29691E-03   693   0.856E-02    0.623E-01
RMM:  36    -0.174628669422E+03   -0.89142E-04   -0.17852E-03   692   0.675E-02    0.434E-01
RMM:  37    -0.174630384203E+03   -0.17148E-02   -0.13323E-03   689   0.565E-02    0.418E-01
RMM:  38    -0.174632381864E+03   -0.19977E-02   -0.11212E-03   690   0.512E-02    0.345E-01
RMM:  39    -0.174633501883E+03   -0.11200E-02   -0.56826E-04   628   0.375E-02    0.259E-01
RMM:  40    -0.174636512221E+03   -0.30103E-02   -0.58444E-04   619   0.371E-02    0.266E-01
RMM:  41    -0.174637850734E+03   -0.13385E-02   -0.31799E-04   440   0.301E-02    0.171E-01
RMM:  42    -0.174639885010E+03   -0.20343E-02   -0.29453E-04   431   0.269E-02    0.204E-01
RMM:  43    -0.174642075665E+03   -0.21907E-02   -0.30051E-04   434   0.270E-02    0.122E-01
RMM:  44    -0.174643919741E+03   -0.18441E-02   -0.26965E-04   424   0.235E-02    0.169E-01
RMM:  45    -0.174646864329E+03   -0.29446E-02   -0.46473E-04   519   0.261E-02    0.111E-01
RMM:  46    -0.174647745608E+03   -0.88128E-03   -0.14748E-04   422   0.164E-02    0.809E-02
RMM:  47    -0.174649653496E+03   -0.19079E-02   -0.18087E-04   424   0.166E-02    0.107E-01
RMM:  48    -0.174651402044E+03   -0.17485E-02   -0.19283E-04   427   0.166E-02    0.646E-02
RMM:  49    -0.174651908949E+03   -0.50690E-03   -0.83885E-05   414   0.113E-02    0.535E-02
RMM:  50    -0.174652909625E+03   -0.10007E-02   -0.87057E-05   411   0.102E-02    0.424E-02
RMM:  51    -0.174653176032E+03   -0.26641E-03   -0.41275E-05   400   0.766E-03    0.254E-02
RMM:  52    -0.174653668894E+03   -0.49286E-03   -0.26215E-05   368   0.600E-03    0.279E-02
RMM:  53    -0.174653998297E+03   -0.32940E-03   -0.14643E-05   280   0.500E-03    0.190E-02
RMM:  54    -0.174654410057E+03   -0.41176E-03   -0.10438E-05   258   0.464E-03    0.238E-02
RMM:  55    -0.174654760604E+03   -0.35055E-03   -0.75646E-06   211   0.428E-03    0.145E-02
RMM:  56    -0.174654959333E+03   -0.19873E-03   -0.64209E-06   199   0.405E-03    0.200E-02
RMM:  57    -0.174655313755E+03   -0.35442E-03   -0.65154E-06   167   0.405E-03    0.908E-03
RMM:  58    -0.174655464692E+03   -0.15094E-03   -0.80310E-06   193   0.403E-03    0.757E-03
RMM:  59    -0.174655667003E+03   -0.20231E-03   -0.11063E-05   207   0.405E-03    0.802E-03
RMM:  60    -0.174655789780E+03   -0.12278E-03   -0.33630E-06   135   0.357E-03    0.503E-03
RMM:  61    -0.174655876903E+03   -0.87122E-04   -0.72104E-06   160   0.363E-03
   1 F= -.17465588E+03 E0= -.17464573E+03  d E =-.406060E-01
