  57  57   0   0
  0.4736842E+03  0.3000000E-08  0.3000000E-08  0.3000000E-08  0.5000000E-15
  1.000000000000000E-004
  CAR 
 6_Pd100_top_free_z(O)                   
      1.34961402    -30.26143100  301     -4.13642793      1.00000000
    -30.261  0.0000E+00  0.0000E+00
    -30.156  0.0000E+00  0.0000E+00
    -30.051  0.0000E+00  0.0000E+00
    -29.945  0.2487E-27  0.2620E-28
    -29.840  0.1098E-23  0.1157E-24
    -29.735  0.2741E-20  0.2889E-21
    -29.629  0.3858E-17  0.4068E-18
    -29.524  0.3052E-14  0.3220E-15
    -29.418  0.1354E-11  0.1430E-12
    -29.313  0.3332E-09  0.3525E-10
    -29.208  0.4519E-07  0.4797E-08
    -29.102  0.3331E-05  0.3558E-06
    -28.997  0.1303E-03  0.1409E-04
    -28.892  0.2590E-02  0.2870E-03
    -28.786  0.2355E-01  0.2768E-02
    -28.681  0.6439E-01  0.9554E-02
    -28.576 -0.2096E+00 -0.1253E-01
    -28.470 -0.8194E+00 -0.9887E-01
    -28.365  0.1927E+01  0.1041E+00
    -28.259  0.8706E+01  0.1022E+01
    -28.154  0.8499E+01  0.1917E+01
    -28.049  0.1705E+01  0.2097E+01
    -27.943 -0.8214E+00  0.2010E+01
    -27.838 -0.1856E+00  0.1991E+01
    -27.733  0.6458E-01  0.1997E+01
    -27.627  0.2200E-01  0.2000E+01
    -27.522  0.2339E-02  0.2000E+01
    -27.416  0.1145E-03  0.2000E+01
    -27.311  0.2855E-05  0.2000E+01
    -27.206  0.3782E-07  0.2000E+01
    -27.100  0.2724E-09  0.2000E+01
    -26.995  0.1081E-11  0.2000E+01
    -26.890  0.2107E-14  0.2000E+01
    -26.784  0.0000E+00  0.2000E+01
    -26.679  0.0000E+00  0.2000E+01
    -26.573  0.0000E+00  0.2000E+01
    -26.468  0.0000E+00  0.2000E+01
    -26.363  0.0000E+00  0.2000E+01
    -26.257  0.0000E+00  0.2000E+01
    -26.152  0.0000E+00  0.2000E+01
    -26.047  0.0000E+00  0.2000E+01
    -25.941  0.0000E+00  0.2000E+01
    -25.836  0.0000E+00  0.2000E+01
    -25.731  0.0000E+00  0.2000E+01
    -25.625  0.0000E+00  0.2000E+01
    -25.520  0.0000E+00  0.2000E+01
    -25.414  0.0000E+00  0.2000E+01
    -25.309  0.0000E+00  0.2000E+01
    -25.204  0.0000E+00  0.2000E+01
    -25.098  0.0000E+00  0.2000E+01
    -24.993  0.0000E+00  0.2000E+01
    -24.888  0.0000E+00  0.2000E+01
    -24.782  0.0000E+00  0.2000E+01
    -24.677  0.0000E+00  0.2000E+01
    -24.571  0.0000E+00  0.2000E+01
    -24.466  0.0000E+00  0.2000E+01
    -24.361  0.0000E+00  0.2000E+01
    -24.255  0.0000E+00  0.2000E+01
    -24.150  0.0000E+00  0.2000E+01
    -24.045  0.0000E+00  0.2000E+01
    -23.939  0.0000E+00  0.2000E+01
    -23.834  0.0000E+00  0.2000E+01
    -23.728  0.0000E+00  0.2000E+01
    -23.623  0.0000E+00  0.2000E+01
    -23.518  0.0000E+00  0.2000E+01
    -23.412  0.0000E+00  0.2000E+01
    -23.307  0.0000E+00  0.2000E+01
    -23.202  0.0000E+00  0.2000E+01
    -23.096  0.0000E+00  0.2000E+01
    -22.991  0.0000E+00  0.2000E+01
    -22.886  0.0000E+00  0.2000E+01
    -22.780  0.0000E+00  0.2000E+01
    -22.675  0.0000E+00  0.2000E+01
    -22.569  0.0000E+00  0.2000E+01
    -22.464  0.0000E+00  0.2000E+01
    -22.359  0.0000E+00  0.2000E+01
    -22.253  0.0000E+00  0.2000E+01
    -22.148  0.0000E+00  0.2000E+01
    -22.043  0.0000E+00  0.2000E+01
    -21.937  0.0000E+00  0.2000E+01
    -21.832  0.0000E+00  0.2000E+01
    -21.726  0.0000E+00  0.2000E+01
    -21.621  0.0000E+00  0.2000E+01
    -21.516  0.0000E+00  0.2000E+01
    -21.410  0.0000E+00  0.2000E+01
    -21.305  0.0000E+00  0.2000E+01
    -21.200  0.0000E+00  0.2000E+01
    -21.094  0.0000E+00  0.2000E+01
    -20.989  0.0000E+00  0.2000E+01
    -20.883  0.0000E+00  0.2000E+01
    -20.778  0.0000E+00  0.2000E+01
    -20.673  0.0000E+00  0.2000E+01
    -20.567  0.0000E+00  0.2000E+01
    -20.462  0.0000E+00  0.2000E+01
    -20.357  0.0000E+00  0.2000E+01
    -20.251  0.0000E+00  0.2000E+01
    -20.146  0.0000E+00  0.2000E+01
    -20.041  0.0000E+00  0.2000E+01
    -19.935  0.0000E+00  0.2000E+01
    -19.830  0.0000E+00  0.2000E+01
    -19.724  0.0000E+00  0.2000E+01
    -19.619  0.0000E+00  0.2000E+01
    -19.514  0.0000E+00  0.2000E+01
    -19.408  0.0000E+00  0.2000E+01
    -19.303  0.0000E+00  0.2000E+01
    -19.198  0.0000E+00  0.2000E+01
    -19.092  0.0000E+00  0.2000E+01
    -18.987  0.0000E+00  0.2000E+01
    -18.881  0.0000E+00  0.2000E+01
    -18.776  0.0000E+00  0.2000E+01
    -18.671  0.0000E+00  0.2000E+01
    -18.565  0.0000E+00  0.2000E+01
    -18.460  0.0000E+00  0.2000E+01
    -18.355  0.0000E+00  0.2000E+01
    -18.249  0.0000E+00  0.2000E+01
    -18.144  0.0000E+00  0.2000E+01
    -18.038  0.0000E+00  0.2000E+01
    -17.933  0.0000E+00  0.2000E+01
    -17.828  0.0000E+00  0.2000E+01
    -17.722  0.0000E+00  0.2000E+01
    -17.617  0.0000E+00  0.2000E+01
    -17.512  0.0000E+00  0.2000E+01
    -17.406  0.0000E+00  0.2000E+01
    -17.301  0.0000E+00  0.2000E+01
    -17.196  0.0000E+00  0.2000E+01
    -17.090  0.0000E+00  0.2000E+01
    -16.985  0.0000E+00  0.2000E+01
    -16.879  0.0000E+00  0.2000E+01
    -16.774  0.0000E+00  0.2000E+01
    -16.669  0.0000E+00  0.2000E+01
    -16.563  0.0000E+00  0.2000E+01
    -16.458  0.0000E+00  0.2000E+01
    -16.353  0.0000E+00  0.2000E+01
    -16.247  0.0000E+00  0.2000E+01
    -16.142  0.0000E+00  0.2000E+01
    -16.036  0.0000E+00  0.2000E+01
    -15.931  0.0000E+00  0.2000E+01
    -15.826  0.0000E+00  0.2000E+01
    -15.720  0.0000E+00  0.2000E+01
    -15.615  0.0000E+00  0.2000E+01
    -15.510  0.0000E+00  0.2000E+01
    -15.404  0.1122E-26  0.2000E+01
    -15.299  0.4483E-23  0.2000E+01
    -15.193  0.1013E-19  0.2000E+01
    -15.088  0.1290E-16  0.2000E+01
    -14.983  0.9221E-14  0.2000E+01
    -14.877  0.3692E-11  0.2000E+01
    -14.772  0.8198E-09  0.2000E+01
    -14.667  0.1001E-06  0.2000E+01
    -14.561  0.6620E-05  0.2000E+01
    -14.456  0.2311E-03  0.2000E+01
    -14.351  0.4048E-02  0.2000E+01
    -14.245  0.3138E-01  0.2004E+01
    -14.140  0.5787E-01  0.2010E+01
    -14.034 -0.3314E+00  0.1975E+01
    -13.929 -0.7417E+00  0.1897E+01
    -13.824  0.3030E+01  0.2216E+01
    -13.718  0.9475E+01  0.3214E+01
    -13.613  0.7429E+01  0.3997E+01
    -13.508  0.8185E+00  0.4083E+01
    -13.402 -0.7782E+00  0.4001E+01
    -13.297 -0.9189E-01  0.3992E+01
    -13.191  0.6148E-01  0.3998E+01
    -13.086  0.1587E-01  0.4000E+01
    -12.981  0.1455E-02  0.4000E+01
    -12.875  0.6355E-04  0.4000E+01
    -12.770  0.2915E-04  0.4000E+01
    -12.665  0.7506E-03  0.4000E+01
    -12.559  0.9856E-02  0.4001E+01
    -12.454  0.5135E-01  0.4007E+01
    -12.349 -0.5809E-02  0.4006E+01
    -12.243 -0.6332E+00  0.3939E+01
    -12.138 -0.3770E-01  0.3935E+01
    -12.032  0.5832E+01  0.4550E+01
    -11.927  0.1003E+02  0.5607E+01
    -11.822  0.4202E+01  0.6050E+01
    -11.716 -0.9446E+00  0.5950E+01
    -11.611  0.3749E+01  0.6345E+01
    -11.506  0.9955E+01  0.7394E+01
    -11.400  0.6243E+01  0.8052E+01
    -11.295  0.1388E+00  0.8066E+01
    -11.189 -0.6695E+00  0.7996E+01
    -11.084  0.9855E-02  0.7997E+01
    -10.979  0.1101E+00  0.8009E+01
    -10.873 -0.3399E+00  0.7973E+01
    -10.768 -0.7184E+00  0.7897E+01
    -10.663  0.3205E+01  0.8235E+01
    -10.557  0.9562E+01  0.9242E+01
    -10.452  0.7255E+01  0.1001E+02
    -10.346  0.7043E+00  0.1008E+02
    -10.241 -0.7659E+00  0.1000E+02
    -10.136 -0.8016E-01  0.9992E+01
    -10.030  0.6060E-01  0.9998E+01
     -9.925  0.1508E-01  0.1000E+02
     -9.820  0.1354E-02  0.1000E+02
     -9.714  0.5759E-04  0.1000E+02
     -9.609  0.1261E-05  0.1000E+02
     -9.504  0.1477E-07  0.1000E+02
     -9.398  0.9431E-10  0.1000E+02
     -9.293  0.3330E-12  0.1000E+02
     -9.187  0.0000E+00  0.1000E+02
     -9.082  0.0000E+00  0.1000E+02
     -8.977  0.0000E+00  0.1000E+02
     -8.871  0.0000E+00  0.1000E+02
     -8.766  0.0000E+00  0.1000E+02
     -8.661  0.0000E+00  0.1000E+02
     -8.555  0.0000E+00  0.1000E+02
     -8.450  0.2911E-25  0.1000E+02
     -8.344  0.9346E-22  0.1000E+02
     -8.239  0.1694E-18  0.1000E+02
     -8.134  0.1729E-15  0.1000E+02
     -8.028  0.9890E-13  0.1000E+02
     -7.923  0.3162E-10  0.1000E+02
     -7.818  0.5588E-08  0.1000E+02
     -7.712  0.5403E-06  0.1000E+02
     -7.607  0.2808E-04  0.1000E+02
     -7.501  0.7602E-03  0.1000E+02
     -7.396  0.1004E-01  0.1000E+02
     -7.291  0.5401E-01  0.1001E+02
     -7.185  0.1694E-01  0.1001E+02
     -7.080 -0.5627E+00  0.9949E+01
     -6.975 -0.1872E+00  0.9930E+01
     -6.869  0.5012E+01  0.1046E+02
     -6.764  0.1131E+02  0.1165E+02
     -6.659  0.1313E+02  0.1303E+02
     -6.553  0.1308E+02  0.1441E+02
     -6.448  0.1067E+02  0.1554E+02
     -6.342  0.7421E+01  0.1632E+02
     -6.237  0.1337E+02  0.1773E+02
     -6.132  0.2859E+02  0.2074E+02
     -6.026  0.3281E+02  0.2420E+02
     -5.921  0.2423E+02  0.2675E+02
     -5.816  0.3109E+02  0.3003E+02
     -5.710  0.6714E+02  0.3710E+02
     -5.605  0.1403E+03  0.5188E+02
     -5.499  0.2424E+03  0.7742E+02
     -5.394  0.2916E+03  0.1081E+03
     -5.289  0.2475E+03  0.1342E+03
     -5.183  0.2149E+03  0.1569E+03
     -5.078  0.2686E+03  0.1852E+03
     -4.973  0.3441E+03  0.2214E+03
     -4.867  0.3348E+03  0.2567E+03
     -4.762  0.2884E+03  0.2871E+03
     -4.656  0.3360E+03  0.3225E+03
     -4.551  0.4130E+03  0.3660E+03
     -4.446  0.4190E+03  0.4102E+03
     -4.340  0.4655E+03  0.4592E+03
     -4.235  0.5459E+03  0.5167E+03
     -4.130  0.4302E+03  0.5621E+03
     -4.024  0.1621E+03  0.5792E+03
     -3.919  0.1673E+02  0.5809E+03
     -3.814  0.1734E+02  0.5827E+03
     -3.708  0.2507E+02  0.5854E+03
     -3.603  0.1837E+02  0.5873E+03
     -3.497  0.2478E+02  0.5899E+03
     -3.392  0.1829E+02  0.5919E+03
     -3.287  0.3078E+01  0.5922E+03
     -3.181  0.7545E+01  0.5930E+03
     -3.076  0.3703E+02  0.5969E+03
     -2.971  0.6169E+02  0.6034E+03
     -2.865  0.4047E+02  0.6076E+03
     -2.760  0.3694E+01  0.6080E+03
     -2.654  0.2529E+01  0.6083E+03
     -2.549  0.3115E+02  0.6116E+03
     -2.444  0.3500E+02  0.6153E+03
     -2.338  0.8207E+01  0.6161E+03
     -2.233  0.4544E+01  0.6166E+03
     -2.128  0.2815E+02  0.6196E+03
     -2.022  0.4332E+02  0.6241E+03
     -1.917  0.4396E+02  0.6288E+03
     -1.811  0.3468E+02  0.6324E+03
     -1.706  0.2885E+02  0.6355E+03
     -1.601  0.4570E+02  0.6403E+03
     -1.495  0.4330E+02  0.6449E+03
     -1.390  0.1557E+02  0.6465E+03
     -1.285  0.1040E+02  0.6476E+03
     -1.179  0.1344E+02  0.6490E+03
     -1.074  0.2060E+02  0.6512E+03
     -0.969  0.5725E+02  0.6572E+03
     -0.863  0.7340E+02  0.6649E+03
     -0.758  0.4290E+02  0.6695E+03
     -0.652  0.1651E+02  0.6712E+03
     -0.547  0.7165E+01  0.6720E+03
     -0.442  0.1052E+01  0.6721E+03
     -0.336 -0.7091E+00  0.6720E+03
     -0.231 -0.7611E-01  0.6720E+03
     -0.126  0.9347E-01  0.6720E+03
     -0.020  0.2630E-01  0.6720E+03
      0.085  0.2720E-02  0.6720E+03
      0.191  0.1335E-03  0.6720E+03
      0.296  0.3374E-05  0.6720E+03
      0.401  0.4550E-07  0.6720E+03
      0.507  0.3344E-09  0.6720E+03
      0.612  0.1357E-11  0.6720E+03
      0.717  0.2107E-14  0.6720E+03
      0.823  0.0000E+00  0.6720E+03
      0.928  0.0000E+00  0.6720E+03
      1.034  0.0000E+00  0.6720E+03
      1.139  0.0000E+00  0.6720E+03
      1.244  0.0000E+00  0.6720E+03
      1.350  0.0000E+00  0.6720E+03
