<?xml version="1.0" encoding="ISO-8859-1"?>
<modeling>
 <generator>
  <i name="program" type="string">vasp </i>
  <i name="version" type="string">5.4.4.18Apr17-6-g9f103f2a35  </i>
  <i name="subversion" type="string">(build Sep 03 2018 23:53:05) complex            parallel </i>
  <i name="platform" type="string">LinuxIFC </i>
  <i name="date" type="string">2021 11 25 </i>
  <i name="time" type="string">21:32:01 </i>
 </generator>
 <incar>
  <i type="string" name="SYSTEM"> 6_Pd100_top_free_z(O)</i>
  <i type="int" name="ISTART">     0</i>
  <i type="string" name="PREC">normal   			! encut=max(enmax), ngx,y,z</i>
  <i type="string" name="ALGO"> Fast     			! Mix RMM-DIIS and Dav</i>
  <i type="logical" name="ADDGRID"> F  </i>
  <i type="int" name="ISPIN">     1</i>
  <i type="int" name="ICHARG">     2</i>
  <i type="int" name="NELM">   100</i>
  <i type="int" name="NELMIN">     6</i>
  <i type="int" name="IBRION">     2</i>
  <i name="EDIFF">      0.00010000</i>
  <i name="EDIFFG">     -0.05000000</i>
  <i type="int" name="NSW">     0</i>
  <i type="int" name="ISIF">     2</i>
  <i type="int" name="ISYM">     2</i>
  <i name="ENCUT">    400.00000000</i>
  <i type="string" name="LREAL"> Auto     			! Auto or A projection done</i>
  <i type="int" name="ISMEAR">     2</i>
  <i name="SIGMA">      0.20000000</i>
  <i type="logical" name="LWAVE"> F  </i>
  <i type="logical" name="LCHARG"> F  </i>
  <v type="int" name="KPOINT_BSE">    -1     0     0     0</v>
  <i type="int" name="MAXMEM"> 10000</i>
  <i type="int" name="NELM">   100</i>
  <i type="string" name="GGA"> RP         			! Revised PBE</i>
 </incar>
 <structure name="primitive_cell" >
  <crystal>
   <varray name="basis" >
    <v>      30.00000000       0.00000000       0.00000000 </v>
    <v>       0.00000000      30.00000000       0.00000000 </v>
    <v>       0.00000000       0.00000000      30.00000000 </v>
   </varray>
   <i name="volume">  27000.00000000 </i>
   <varray name="rec_basis" >
    <v>       0.03333333       0.00000000       0.00000000 </v>
    <v>       0.00000000       0.03333333       0.00000000 </v>
    <v>       0.00000000       0.00000000       0.03333333 </v>
   </varray>
  </crystal>
  <varray name="positions" >
   <v>       0.44576020       0.32826710       0.41691983 </v>
   <v>      -0.44576020       0.32826710       0.41691983 </v>
   <v>      -0.50000000       0.38250690       0.34021317 </v>
   <v>      -0.50000000       0.27609440      -0.50000000 </v>
   <v>       0.38804720       0.38804720       0.34167483 </v>
   <v>      -0.50000000       0.38416601      -0.50000000 </v>
   <v>       0.44208300       0.44208300       0.41809300 </v>
   <v>       0.38317830       0.38317830      -0.50000000 </v>
   <v>      -0.44208300       0.44208300       0.41809300 </v>
   <v>       0.44576020       0.32826710      -0.41691977 </v>
   <v>       0.32826705       0.44576024       0.41691983 </v>
   <v>      -0.38804720       0.38804720       0.34167483 </v>
   <v>      -0.38317830       0.38317830      -0.50000000 </v>
   <v>      -0.50000000      -0.50000000       0.33478917 </v>
   <v>      -0.50000000      -0.50000000      -0.50000000 </v>
   <v>      -0.44576020       0.32826710      -0.41691977 </v>
   <v>       0.38250685      -0.49999995       0.34021317 </v>
   <v>       0.44208300       0.44208300      -0.41809297 </v>
   <v>       0.38416599      -0.49999998      -0.50000000 </v>
   <v>      -0.44208300       0.44208300      -0.41809297 </v>
   <v>       0.44208298      -0.44208298       0.41809300 </v>
   <v>       0.32826705       0.44576024      -0.41691977 </v>
   <v>      -0.50000000       0.38250690      -0.34021320 </v>
   <v>       0.32826712      -0.44576022       0.41691983 </v>
   <v>      -0.38250685      -0.49999995       0.34021317 </v>
   <v>      -0.32826705       0.44576024       0.41691983 </v>
   <v>       0.27609443       0.49999998      -0.50000000 </v>
   <v>       0.38804720       0.38804720      -0.34167487 </v>
   <v>      -0.38416599      -0.49999998      -0.50000000 </v>
   <v>      -0.44208298      -0.44208298       0.41809300 </v>
   <v>       0.44208298      -0.44208298      -0.41809297 </v>
   <v>      -0.38804720       0.38804720      -0.34167487 </v>
   <v>       0.38804722      -0.38804722       0.34167483 </v>
   <v>       0.38250685      -0.49999995      -0.34021320 </v>
   <v>       0.32826712      -0.44576022      -0.41691977 </v>
   <v>      -0.32826705       0.44576024      -0.41691977 </v>
   <v>       0.50000000      -0.38250681       0.34021317 </v>
   <v>      -0.50000000      -0.38416596      -0.50000000 </v>
   <v>      -0.44208298      -0.44208298      -0.41809297 </v>
   <v>      -0.50000000      -0.50000000      -0.33478913 </v>
   <v>       0.38317828      -0.38317828      -0.50000000 </v>
   <v>      -0.32826712      -0.44576022       0.41691983 </v>
   <v>      -0.27609443       0.49999998      -0.50000000 </v>
   <v>      -0.38804722      -0.38804722       0.34167483 </v>
   <v>      -0.38250685      -0.49999995      -0.34021320 </v>
   <v>       0.44576027      -0.32826707       0.41691983 </v>
   <v>      -0.38317828      -0.38317828      -0.50000000 </v>
   <v>      -0.32826712      -0.44576022      -0.41691977 </v>
   <v>      -0.44576027      -0.32826707       0.41691983 </v>
   <v>       0.38804722      -0.38804722      -0.34167487 </v>
   <v>      -0.35719887      -0.44062587      -0.35356363 </v>
   <v>      -0.50000000      -0.38250681      -0.34021320 </v>
   <v>       0.44576027      -0.32826707      -0.41691977 </v>
   <v>      -0.44576027      -0.32826707      -0.41691977 </v>
   <v>      -0.50000000      -0.27609445       0.50000000 </v>
   <v>      -0.38804722      -0.38804722      -0.34167487 </v>
   <v>      -0.33198860      -0.43014387      -0.32771157 </v>
  </varray>
 </structure>
 <varray name="primitive_index" >
  <v type="int" >        1 </v>
  <v type="int" >        3 </v>
  <v type="int" >        5 </v>
  <v type="int" >        7 </v>
  <v type="int" >       15 </v>
  <v type="int" >       29 </v>
  <v type="int" >       28 </v>
  <v type="int" >       34 </v>
  <v type="int" >       21 </v>
  <v type="int" >       19 </v>
  <v type="int" >       22 </v>
  <v type="int" >       11 </v>
  <v type="int" >       36 </v>
  <v type="int" >       38 </v>
  <v type="int" >       52 </v>
  <v type="int" >       24 </v>
  <v type="int" >       32 </v>
  <v type="int" >       44 </v>
  <v type="int" >       48 </v>
  <v type="int" >       42 </v>
  <v type="int" >       43 </v>
  <v type="int" >       40 </v>
  <v type="int" >        6 </v>
  <v type="int" >        4 </v>
  <v type="int" >       30 </v>
  <v type="int" >       26 </v>
  <v type="int" >        8 </v>
  <v type="int" >       16 </v>
  <v type="int" >       49 </v>
  <v type="int" >       47 </v>
  <v type="int" >       53 </v>
  <v type="int" >       12 </v>
  <v type="int" >       13 </v>
  <v type="int" >       33 </v>
  <v type="int" >       25 </v>
  <v type="int" >       45 </v>
  <v type="int" >       50 </v>
  <v type="int" >       55 </v>
  <v type="int" >       54 </v>
  <v type="int" >       39 </v>
  <v type="int" >       37 </v>
  <v type="int" >        2 </v>
  <v type="int" >        9 </v>
  <v type="int" >       17 </v>
  <v type="int" >       31 </v>
  <v type="int" >       27 </v>
  <v type="int" >       35 </v>
  <v type="int" >       20 </v>
  <v type="int" >       23 </v>
  <v type="int" >       14 </v>
  <v type="int" >       56 </v>
  <v type="int" >       51 </v>
  <v type="int" >       46 </v>
  <v type="int" >       41 </v>
  <v type="int" >       10 </v>
  <v type="int" >       18 </v>
  <v type="int" >       57 </v>
 </varray>
 <kpoints>
  <generation param="Monkhorst-Pack">
   <v type="int" name="divisions">       1        1        1 </v>
   <v name="usershift">      0.00000000       0.00000000       0.00000000 </v>
   <v name="genvec1">      1.00000000       0.00000000       0.00000000 </v>
   <v name="genvec2">      0.00000000       1.00000000       0.00000000 </v>
   <v name="genvec3">      0.00000000       0.00000000       1.00000000 </v>
   <v name="shift">      0.00000000       0.00000000       0.00000000 </v>
  </generation>
  <varray name="kpointlist" >
   <v>       0.00000000       0.00000000       0.00000000 </v>
  </varray>
  <varray name="weights" >
   <v>       1.00000000 </v>
  </varray>
 </kpoints>
 <parameters>
  <separator name="general" >
   <i type="string" name="SYSTEM">6_Pd100_top_free_z(O)</i>
   <i type="logical" name="LCOMPAT"> F  </i>
  </separator>
  <separator name="electronic" >
   <i type="string" name="PREC">normal</i>
   <i name="ENMAX">    400.00000000</i>
   <i name="ENAUG">    644.87300000</i>
   <i name="EDIFF">      0.00010000</i>
   <i type="int" name="IALGO">    68</i>
   <i type="int" name="IWAVPR">    10</i>
   <i type="int" name="NBANDS">   336</i>
   <i name="NELECT">    560.00000000</i>
   <i type="int" name="TURBO">     0</i>
   <i type="int" name="IRESTART">     0</i>
   <i type="int" name="NREBOOT">     0</i>
   <i type="int" name="NMIN">     0</i>
   <i name="EREF">      0.00000000</i>
   <separator name="electronic smearing" >
    <i type="int" name="ISMEAR">     2</i>
    <i name="SIGMA">      0.20000000</i>
    <i name="KSPACING">      0.50000000</i>
    <i type="logical" name="KGAMMA"> T  </i>
   </separator>
   <separator name="electronic projectors" >
    <i type="logical" name="LREAL"> T  </i>
    <v name="ROPT">     -0.00050000     -0.00050000     -0.00050000</v>
    <i type="int" name="LMAXPAW">  -100</i>
    <i type="int" name="LMAXMIX">     2</i>
    <i type="logical" name="NLSPLINE"> F  </i>
   </separator>
   <separator name="electronic startup" >
    <i type="int" name="ISTART">     0</i>
    <i type="int" name="ICHARG">     2</i>
    <i type="int" name="INIWAV">     1</i>
   </separator>
   <separator name="electronic spin" >
    <i type="int" name="ISPIN">     1</i>
    <i type="logical" name="LNONCOLLINEAR"> F  </i>
    <v name="MAGMOM">      1.00000000      1.00000000      1.00000000      1.00000000      1.00000000      1.00000000      1.00000000      1.00000000      1.00000000      1.00000000      1.00000000      1.00000000      1.00000000      1.00000000      1.00000000      1.00000000      1.00000000      1.00000000      1.00000000      1.00000000
      1.00000000      1.00000000      1.00000000      1.00000000      1.00000000      1.00000000      1.00000000      1.00000000      1.00000000      1.00000000      1.00000000      1.00000000      1.00000000      1.00000000      1.00000000      1.00000000      1.00000000      1.00000000      1.00000000      1.00000000
      1.00000000      1.00000000      1.00000000      1.00000000      1.00000000      1.00000000      1.00000000      1.00000000      1.00000000      1.00000000      1.00000000      1.00000000      1.00000000      1.00000000      1.00000000      1.00000000      1.00000000</v>
    <i name="NUPDOWN">     -1.00000000</i>
    <i type="logical" name="LSORBIT"> F  </i>
    <v name="SAXIS">      0.00000000      0.00000000      1.00000000</v>
    <i type="logical" name="LSPIRAL"> F  </i>
    <v name="QSPIRAL">      0.00000000      0.00000000      0.00000000</v>
    <i type="logical" name="LZEROZ"> F  </i>
   </separator>
   <separator name="electronic exchange-correlation" >
    <i type="logical" name="LASPH"> F  </i>
    <i type="logical" name="LMETAGGA"> F  </i>
   </separator>
   <separator name="electronic convergence" >
    <i type="int" name="NELM">   100</i>
    <i type="int" name="NELMDL">    -5</i>
    <i type="int" name="NELMIN">     6</i>
    <i name="ENINI">    400.00000000</i>
    <separator name="electronic convergence detail" >
     <i type="logical" name="LDIAG"> T  </i>
     <i type="logical" name="LSUBROT"> F  </i>
     <i name="WEIMIN">      0.00000000</i>
     <i name="EBREAK">      0.00000007</i>
     <i name="DEPER">      0.30000000</i>
     <i type="int" name="NRMM">     4</i>
     <i name="TIME">      0.40000000</i>
    </separator>
   </separator>
   <separator name="electronic mixer" >
    <i name="AMIX">      0.40000000</i>
    <i name="BMIX">      1.00000000</i>
    <i name="AMIN">      0.10000000</i>
    <i name="AMIX_MAG">      1.60000000</i>
    <i name="BMIX_MAG">      1.00000000</i>
    <separator name="electronic mixer details" >
     <i type="int" name="IMIX">     4</i>
     <i type="logical" name="MIXFIRST"> F  </i>
     <i type="int" name="MAXMIX">   -45</i>
     <i name="WC">    100.00000000</i>
     <i type="int" name="INIMIX">     1</i>
     <i type="int" name="MIXPRE">     1</i>
     <i type="int" name="MREMOVE">     5</i>
    </separator>
   </separator>
   <separator name="electronic dipolcorrection" >
    <i type="logical" name="LDIPOL"> F  </i>
    <i type="logical" name="LMONO"> F  </i>
    <i type="int" name="IDIPOL">     0</i>
    <i name="EPSILON">      1.00000000</i>
    <v name="DIPOL">   -100.00000000   -100.00000000   -100.00000000</v>
    <i name="EFIELD">      0.00000000</i>
   </separator>
  </separator>
  <separator name="grids" >
   <i type="int" name="NGX">   150</i>
   <i type="int" name="NGY">   150</i>
   <i type="int" name="NGZ">   150</i>
   <i type="int" name="NGXF">   300</i>
   <i type="int" name="NGYF">   300</i>
   <i type="int" name="NGZF">   300</i>
   <i type="logical" name="ADDGRID"> F  </i>
  </separator>
  <separator name="ionic" >
   <i type="int" name="NSW">     0</i>
   <i type="int" name="IBRION">    -1</i>
   <i type="int" name="MDALGO">     0</i>
   <i type="int" name="ISIF">     2</i>
   <i name="PSTRESS">      0.00000000</i>
   <i name="EDIFFG">     -0.05000000</i>
   <i type="int" name="NFREE">     1</i>
   <i name="POTIM">      0.50000000</i>
   <i name="SMASS">     -3.00000000</i>
   <i name="SCALEE">      1.00000000</i>
  </separator>
  <separator name="ionic md" >
   <i name="TEBEG">      0.00010000</i>
   <i name="TEEND">      0.00010000</i>
   <i type="int" name="NBLOCK">     1</i>
   <i type="int" name="KBLOCK">     1</i>
   <i type="int" name="NPACO">   256</i>
   <i name="APACO">     16.00000000</i>
  </separator>
  <separator name="symmetry" >
   <i type="int" name="ISYM">     2</i>
   <i name="SYMPREC">      0.00001000</i>
  </separator>
  <separator name="dos" >
   <i type="int" name="LORBIT">     0</i>
   <v name="RWIGS">     -1.00000000     -1.00000000     -1.00000000</v>
   <i type="int" name="NEDOS">   301</i>
   <i name="EMIN">     10.00000000</i>
   <i name="EMAX">    -10.00000000</i>
   <i name="EFERMI">      0.00000000</i>
  </separator>
  <separator name="writing" >
   <i type="int" name="NWRITE">     2</i>
   <i type="logical" name="LWAVE"> F  </i>
   <i type="logical" name="LDOWNSAMPLE"> F  </i>
   <i type="logical" name="LCHARG"> F  </i>
   <i type="logical" name="LPARD"> F  </i>
   <i type="logical" name="LVTOT"> F  </i>
   <i type="logical" name="LVHAR"> F  </i>
   <i type="logical" name="LELF"> F  </i>
   <i type="logical" name="LOPTICS"> F  </i>
   <v name="STM">      0.00000000      0.00000000      0.00000000      0.00000000      0.00000000      0.00000000      0.00000000</v>
  </separator>
  <separator name="performance" >
   <i type="int" name="NPAR">     1</i>
   <i type="int" name="NSIM">     4</i>
   <i type="int" name="NBLK">    -1</i>
   <i type="logical" name="LPLANE"> T  </i>
   <i type="logical" name="LSCALAPACK"> T  </i>
   <i type="logical" name="LSCAAWARE"> F  </i>
   <i type="logical" name="LSCALU"> F  </i>
   <i type="logical" name="LASYNC"> F  </i>
   <i type="logical" name="LORBITALREAL"> F  </i>
  </separator>
  <separator name="miscellaneous" >
   <i type="int" name="IDIOT">     3</i>
   <i type="int" name="ISPECIAL">     0</i>
   <i type="logical" name="LMUSIC"> F  </i>
   <v name="POMASS">    106.42000000     12.01100000     16.00000000</v>
   <v name="DARWINR">      0.00000000      0.00000000      0.00000000</v>
   <v name="DARWINV">      1.00000000      1.00000000      1.00000000</v>
   <i type="logical" name="LCORR"> T  </i>
  </separator>
  <i type="logical" name="GGA_COMPAT"> T  </i>
  <i type="logical" name="LBERRY"> F  </i>
  <i type="int" name="ICORELEVEL">     0</i>
  <i type="logical" name="LDAU"> F  </i>
  <i type="int" name="I_CONSTRAINED_M">     0</i>
  <separator name="electronic exchange-correlation" >
   <i type="string" name="GGA">RP</i>
   <i type="int" name="VOSKOWN">     0</i>
   <i type="logical" name="LHFCALC"> F  </i>
   <i type="string" name="PRECFOCK"></i>
   <i type="logical" name="LSYMGRAD"> F  </i>
   <i type="logical" name="LHFONE"> F  </i>
   <i type="logical" name="LRHFCALC"> F  </i>
   <i type="logical" name="LTHOMAS"> F  </i>
   <i type="logical" name="LMODELHF"> F  </i>
   <i name="ENCUT4O">     -1.00000000</i>
   <i type="int" name="EXXOEP">     0</i>
   <i type="int" name="FOURORBIT">     0</i>
   <i name="AEXX">      0.00000000</i>
   <i name="HFALPHA">      0.00000000</i>
   <i name="MCALPHA">      0.00000000</i>
   <i name="ALDAX">      1.00000000</i>
   <i name="AGGAX">      1.00000000</i>
   <i name="ALDAC">      1.00000000</i>
   <i name="AGGAC">      1.00000000</i>
   <i type="int" name="NKREDX">     1</i>
   <i type="int" name="NKREDY">     1</i>
   <i type="int" name="NKREDZ">     1</i>
   <i type="logical" name="SHIFTRED"> F  </i>
   <i type="logical" name="ODDONLY"> F  </i>
   <i type="logical" name="EVENONLY"> F  </i>
   <i type="int" name="LMAXFOCK">     0</i>
   <i type="int" name="NMAXFOCKAE">     0</i>
   <i type="logical" name="LFOCKAEDFT"> F  </i>
   <i name="HFSCREEN">      0.00000000</i>
   <i name="HFSCREENC">      0.00000000</i>
   <i type="int" name="NBANDSGWLOW">     0</i>
  </separator>
  <separator name="vdW DFT" >
   <i type="logical" name="LUSE_VDW"> F  </i>
   <i name="Zab_VDW">     -0.84910000</i>
   <i name="PARAM1">      0.12340000</i>
   <i name="PARAM2">      1.00000000</i>
   <i name="PARAM3">      0.00000000</i>
  </separator>
  <separator name="model GW" >
   <i type="int" name="MODEL_GW">     0</i>
   <i name="MODEL_EPS0">    284.21052632</i>
   <i name="MODEL_ALPHA">      1.00000000</i>
  </separator>
  <separator name="linear response parameters" >
   <i type="logical" name="LEPSILON"> F  </i>
   <i type="logical" name="LRPA"> F  </i>
   <i type="logical" name="LNABLA"> F  </i>
   <i type="logical" name="LVEL"> F  </i>
   <i type="int" name="KINTER">     0</i>
   <i name="CSHIFT">      0.10000000</i>
   <i name="OMEGAMAX">     -1.00000000</i>
   <i name="DEG_THRESHOLD">      0.00200000</i>
   <i name="RTIME">     -0.10000000</i>
   <i name="WPLASMAI">      0.00000000</i>
   <v name="DFIELD">      0.00000000      0.00000000      0.00000000</v>
   <v name="WPLASMA">      0.00000000      0.00000000      0.00000000      0.00000000      0.00000000      0.00000000      0.00000000      0.00000000      0.00000000</v>
  </separator>
  <separator name="orbital magnetization" >
   <i type="logical" name="NUCIND"> F  </i>
   <v name="MAGPOS">      0.00000000      0.00000000      0.00000000</v>
   <i type="logical" name="LNICSALL"> T  </i>
   <i type="logical" name="ORBITALMAG"> F  </i>
   <i type="logical" name="LMAGBLOCH"> F  </i>
   <i type="logical" name="LCHIMAG"> F  </i>
   <i type="logical" name="LGAUGE"> T  </i>
   <i type="int" name="MAGATOM">     0</i>
   <v name="MAGDIPOL">      0.00000000      0.00000000      0.00000000</v>
   <v name="AVECCONST">      0.00000000      0.00000000      0.00000000</v>
  </separator>
  <separator name="response functions" >
   <i type="logical" name="LADDER"> F  </i>
   <i type="logical" name="LRPAFORCE"> F  </i>
   <i type="logical" name="LFXC"> F  </i>
   <i type="logical" name="LHARTREE"> T  </i>
   <i type="int" name="IBSE">     0</i>
   <v type="int" name="KPOINT">    -1     0     0     0</v>
   <i type="logical" name="LTCTE"> F  </i>
   <i type="logical" name="LTETE"> F  </i>
   <i type="logical" name="LTRIPLET"> F  </i>
   <i type="logical" name="LFXCEPS"> F  </i>
   <i type="logical" name="LFXHEG"> F  </i>
   <i type="int" name="NATURALO">     2</i>
   <i type="logical" name="L2ORDER"> F  </i>
   <i type="logical" name="LMP2LT"> F  </i>
   <i type="logical" name="LUSEW"> F  </i>
   <i name="ENCUTGW">     -2.00000000</i>
   <i name="ENCUTGWSOFT">     -2.00000000</i>
   <i name="ENCUTLF">     -1.00000000</i>
   <i type="int" name="LMAXMP2">    -1</i>
   <i name="SCISSOR">      0.00000000</i>
   <i type="int" name="NOMEGA">     0</i>
   <i type="int" name="NOMEGAR">     0</i>
   <i type="int" name="NBANDSGW">    -1</i>
   <i type="int" name="NBANDSO">    -1</i>
   <i type="int" name="NBANDSV">    -1</i>
   <i type="int" name="NELM">   100</i>
   <i type="int" name="NELMHF">     1</i>
   <i type="int" name="DIM">     3</i>
   <i type="int" name="ANTIRES">     0</i>
   <i name="OMEGAMAX">    -30.00000000</i>
   <i name="OMEGAMIN">    -30.00000000</i>
   <i name="OMEGATL">   -200.00000000</i>
   <i type="int" name="OMEGAGRID">   140</i>
   <i name="CSHIFT">     -0.10000000</i>
   <i type="logical" name="SELFENERGY"> F  </i>
   <i type="logical" name="LSPECTRAL"> F  </i>
   <i type="logical" name="LSPECTRALGW"> F  </i>
   <i type="logical" name="LSINGLES"> F  </i>
   <i type="logical" name="LFERMIGW"> F  </i>
   <i type="logical" name="ODDONLYGW"> F  </i>
   <i type="logical" name="EVENONLYGW"> F  </i>
   <i type="int" name="NKREDLFX">     1</i>
   <i type="int" name="NKREDLFY">     1</i>
   <i type="int" name="NKREDLFZ">     1</i>
   <i type="int" name="MAXMEM"> 10000</i>
   <i type="int" name="TELESCOPE">     0</i>
   <i type="int" name="TAUPAR">     1</i>
   <i type="int" name="OMEGAPAR">    -1</i>
   <i name="LAMBDA">      1.00000000</i>
  </separator>
  <separator name="External order field" >
   <i name="OFIELD_KAPPA">      0.00000000</i>
   <v name="OFIELD_K">      0.00000000      0.00000000      0.00000000</v>
   <i name="OFIELD_Q6_NEAR">      0.00000000</i>
   <i name="OFIELD_Q6_FAR">      0.00000000</i>
   <i name="OFIELD_A">      0.00000000</i>
  </separator>
 </parameters>
 <atominfo>
  <atoms>      57 </atoms>
  <types>       3 </types>
  <array name="atoms" >
   <dimension dim="1">ion</dimension>
   <field type="string">element</field>
   <field type="int">atomtype</field>
   <set>
    <rc><c>Pd</c><c>   1</c></rc>
    <rc><c>Pd</c><c>   1</c></rc>
    <rc><c>Pd</c><c>   1</c></rc>
    <rc><c>Pd</c><c>   1</c></rc>
    <rc><c>Pd</c><c>   1</c></rc>
    <rc><c>Pd</c><c>   1</c></rc>
    <rc><c>Pd</c><c>   1</c></rc>
    <rc><c>Pd</c><c>   1</c></rc>
    <rc><c>Pd</c><c>   1</c></rc>
    <rc><c>Pd</c><c>   1</c></rc>
    <rc><c>Pd</c><c>   1</c></rc>
    <rc><c>Pd</c><c>   1</c></rc>
    <rc><c>Pd</c><c>   1</c></rc>
    <rc><c>Pd</c><c>   1</c></rc>
    <rc><c>Pd</c><c>   1</c></rc>
    <rc><c>Pd</c><c>   1</c></rc>
    <rc><c>Pd</c><c>   1</c></rc>
    <rc><c>Pd</c><c>   1</c></rc>
    <rc><c>Pd</c><c>   1</c></rc>
    <rc><c>Pd</c><c>   1</c></rc>
    <rc><c>Pd</c><c>   1</c></rc>
    <rc><c>Pd</c><c>   1</c></rc>
    <rc><c>Pd</c><c>   1</c></rc>
    <rc><c>Pd</c><c>   1</c></rc>
    <rc><c>Pd</c><c>   1</c></rc>
    <rc><c>Pd</c><c>   1</c></rc>
    <rc><c>Pd</c><c>   1</c></rc>
    <rc><c>Pd</c><c>   1</c></rc>
    <rc><c>Pd</c><c>   1</c></rc>
    <rc><c>Pd</c><c>   1</c></rc>
    <rc><c>Pd</c><c>   1</c></rc>
    <rc><c>Pd</c><c>   1</c></rc>
    <rc><c>Pd</c><c>   1</c></rc>
    <rc><c>Pd</c><c>   1</c></rc>
    <rc><c>Pd</c><c>   1</c></rc>
    <rc><c>Pd</c><c>   1</c></rc>
    <rc><c>Pd</c><c>   1</c></rc>
    <rc><c>Pd</c><c>   1</c></rc>
    <rc><c>Pd</c><c>   1</c></rc>
    <rc><c>Pd</c><c>   1</c></rc>
    <rc><c>Pd</c><c>   1</c></rc>
    <rc><c>Pd</c><c>   1</c></rc>
    <rc><c>Pd</c><c>   1</c></rc>
    <rc><c>Pd</c><c>   1</c></rc>
    <rc><c>Pd</c><c>   1</c></rc>
    <rc><c>Pd</c><c>   1</c></rc>
    <rc><c>Pd</c><c>   1</c></rc>
    <rc><c>Pd</c><c>   1</c></rc>
    <rc><c>Pd</c><c>   1</c></rc>
    <rc><c>Pd</c><c>   1</c></rc>
    <rc><c>Pd</c><c>   1</c></rc>
    <rc><c>Pd</c><c>   1</c></rc>
    <rc><c>Pd</c><c>   1</c></rc>
    <rc><c>Pd</c><c>   1</c></rc>
    <rc><c>Pd</c><c>   1</c></rc>
    <rc><c>C </c><c>   2</c></rc>
    <rc><c>O </c><c>   3</c></rc>
   </set>
  </array>
  <array name="atomtypes" >
   <dimension dim="1">type</dimension>
   <field type="int">atomspertype</field>
   <field type="string">element</field>
   <field>mass</field>
   <field>valence</field>
   <field type="string">pseudopotential</field>
   <set>
    <rc><c>  55</c><c>Pd</c><c>    106.42000000</c><c>     10.00000000</c><c>  PAW_PBE Pd 04Jan2005                  </c></rc>
    <rc><c>   1</c><c>C </c><c>     12.01100000</c><c>      4.00000000</c><c>  PAW_PBE C 08Apr2002                   </c></rc>
    <rc><c>   1</c><c>O </c><c>     16.00000000</c><c>      6.00000000</c><c>  PAW_PBE O 08Apr2002                   </c></rc>
   </set>
  </array>
 </atominfo>
 <structure name="initialpos" >
  <crystal>
   <varray name="basis" >
    <v>      30.00000000       0.00000000       0.00000000 </v>
    <v>       0.00000000      30.00000000       0.00000000 </v>
    <v>       0.00000000       0.00000000      30.00000000 </v>
   </varray>
   <i name="volume">  27000.00000000 </i>
   <varray name="rec_basis" >
    <v>       0.03333333       0.00000000       0.00000000 </v>
    <v>       0.00000000       0.03333333       0.00000000 </v>
    <v>       0.00000000       0.00000000       0.03333333 </v>
   </varray>
  </crystal>
  <varray name="positions" >
   <v>       0.44576020       0.32826710       0.41691983 </v>
   <v>       0.67173288       0.55423978       0.41691983 </v>
   <v>       0.55423980       0.32826710       0.41691983 </v>
   <v>       0.32826712       0.55423978       0.41691983 </v>
   <v>       0.50000000       0.38250690       0.34021317 </v>
   <v>       0.50000000       0.38250690       0.65978680 </v>
   <v>       0.50000000       0.27609440       0.50000000 </v>
   <v>       0.27609443       0.49999998       0.50000000 </v>
   <v>       0.72390557       0.49999998       0.50000000 </v>
   <v>       0.50000000       0.72390555       0.50000000 </v>
   <v>       0.61195280       0.38804720       0.34167483 </v>
   <v>       0.61195280       0.38804720       0.65832513 </v>
   <v>       0.38804722       0.61195278       0.34167483 </v>
   <v>       0.38804722       0.61195278       0.65832513 </v>
   <v>       0.38804720       0.38804720       0.34167483 </v>
   <v>       0.38804720       0.38804720       0.65832513 </v>
   <v>       0.61195278       0.61195278       0.34167483 </v>
   <v>       0.61195278       0.61195278       0.65832513 </v>
   <v>       0.44576020       0.32826710       0.58308023 </v>
   <v>       0.67173288       0.55423978       0.58308023 </v>
   <v>       0.55791699       0.44208301       0.41809300 </v>
   <v>       0.32826705       0.44576024       0.41691983 </v>
   <v>       0.55423973       0.67173293       0.41691983 </v>
   <v>       0.55423980       0.32826710       0.58308023 </v>
   <v>       0.32826712       0.55423978       0.58308023 </v>
   <v>       0.67173295       0.44576024       0.41691983 </v>
   <v>       0.44576027       0.67173293       0.41691983 </v>
   <v>       0.44208301       0.44208301       0.41809300 </v>
   <v>       0.50000000       0.38416601       0.50000000 </v>
   <v>       0.61749315       0.50000005       0.34021317 </v>
   <v>       0.61749315       0.50000005       0.65978680 </v>
   <v>       0.38250685       0.50000005       0.34021317 </v>
   <v>       0.38250685       0.50000005       0.65978680 </v>
   <v>       0.38317830       0.38317830       0.50000000 </v>
   <v>       0.61682172       0.61682172       0.50000000 </v>
   <v>       0.61682170       0.38317830       0.50000000 </v>
   <v>       0.38317828       0.61682172       0.50000000 </v>
   <v>       0.50000000       0.50000000       0.33478917 </v>
   <v>       0.50000000       0.50000000       0.66521087 </v>
   <v>       0.32826705       0.44576024       0.58308023 </v>
   <v>       0.55423973       0.67173293       0.58308023 </v>
   <v>       0.55791699       0.44208301       0.58190703 </v>
   <v>       0.44208298       0.55791702       0.41809300 </v>
   <v>       0.44208301       0.44208301       0.58190703 </v>
   <v>       0.67173295       0.44576024       0.58308023 </v>
   <v>       0.44576027       0.67173293       0.58308023 </v>
   <v>       0.55791702       0.55791702       0.41809300 </v>
   <v>       0.38416599       0.50000002       0.50000000 </v>
   <v>       0.61583401       0.50000002       0.50000000 </v>
   <v>       0.50000000       0.61749319       0.34021317 </v>
   <v>       0.50000000       0.61749319       0.65978680 </v>
   <v>       0.50000000       0.50000000       0.50000000 </v>
   <v>       0.44208298       0.55791702       0.58190703 </v>
   <v>       0.55791702       0.55791702       0.58190703 </v>
   <v>       0.50000000       0.61583404       0.50000000 </v>
   <v>       0.64280113       0.55937413       0.64643637 </v>
   <v>       0.66801140       0.56985613       0.67228843 </v>
  </varray>
  <varray name="selective"  type="logical" >
   <v type="logical" >  F  F  F </v>
   <v type="logical" >  F  F  F </v>
   <v type="logical" >  F  F  F </v>
   <v type="logical" >  F  F  F </v>
   <v type="logical" >  F  F  F </v>
   <v type="logical" >  F  F  F </v>
   <v type="logical" >  F  F  F </v>
   <v type="logical" >  F  F  F </v>
   <v type="logical" >  F  F  F </v>
   <v type="logical" >  F  F  F </v>
   <v type="logical" >  F  F  F </v>
   <v type="logical" >  F  F  F </v>
   <v type="logical" >  F  F  F </v>
   <v type="logical" >  F  F  F </v>
   <v type="logical" >  F  F  F </v>
   <v type="logical" >  F  F  F </v>
   <v type="logical" >  F  F  F </v>
   <v type="logical" >  F  F  F </v>
   <v type="logical" >  F  F  F </v>
   <v type="logical" >  F  F  F </v>
   <v type="logical" >  F  F  F </v>
   <v type="logical" >  F  F  F </v>
   <v type="logical" >  F  F  F </v>
   <v type="logical" >  F  F  F </v>
   <v type="logical" >  F  F  F </v>
   <v type="logical" >  F  F  F </v>
   <v type="logical" >  F  F  F </v>
   <v type="logical" >  F  F  F </v>
   <v type="logical" >  F  F  F </v>
   <v type="logical" >  F  F  F </v>
   <v type="logical" >  F  F  F </v>
   <v type="logical" >  F  F  F </v>
   <v type="logical" >  F  F  F </v>
   <v type="logical" >  F  F  F </v>
   <v type="logical" >  F  F  F </v>
   <v type="logical" >  F  F  F </v>
   <v type="logical" >  F  F  F </v>
   <v type="logical" >  F  F  F </v>
   <v type="logical" >  F  F  F </v>
   <v type="logical" >  F  F  F </v>
   <v type="logical" >  F  F  F </v>
   <v type="logical" >  F  F  F </v>
   <v type="logical" >  F  F  F </v>
   <v type="logical" >  F  F  F </v>
   <v type="logical" >  F  F  F </v>
   <v type="logical" >  F  F  F </v>
   <v type="logical" >  F  F  F </v>
   <v type="logical" >  F  F  F </v>
   <v type="logical" >  F  F  F </v>
   <v type="logical" >  F  F  F </v>
   <v type="logical" >  F  F  F </v>
   <v type="logical" >  F  F  F </v>
   <v type="logical" >  F  F  F </v>
   <v type="logical" >  F  F  F </v>
   <v type="logical" >  F  F  F </v>
   <v type="logical" >  F  F  F </v>
   <v type="logical" >  F  F  F </v>
  </varray>
  <nose>
   <v>      -3.00000000       0.00000000       0.00010000       0.00010000 </v>
  </nose>
 </structure>
 <calculation>
  <scstep>
   <time name="dav">  359.35  359.43</time>
   <time name="total">  373.56  373.64</time>
   <energy>
    <i name="alphaZ">     75.25431677 </i>
    <i name="ewald"> 139614.39207048 </i>
    <i name="hartreedc">-182955.59709061 </i>
    <i name="XCdc">  -1700.73272279 </i>
    <i name="pawpsdc">  44873.02882129 </i>
    <i name="pawaedc"> -41398.84523641 </i>
    <i name="eentropy">      0.02670448 </i>
    <i name="bandstr">    810.46049394 </i>
    <i name="atom">  45086.50549395 </i>
    <i name="e_fr_energy">   4404.49285111 </i>
    <i name="e_wo_entrp">   4404.46614663 </i>
    <i name="e_0_energy">   4404.48617499 </i>
   </energy>
  </scstep>
  <scstep>
   <time name="dav">  570.69  570.71</time>
   <time name="total">  570.69  570.71</time>
   <energy>
    <i name="e_fr_energy">   2011.08475647 </i>
    <i name="e_wo_entrp">   2011.09978993 </i>
    <i name="e_0_energy">   2011.08851483 </i>
   </energy>
  </scstep>
  <scstep>
   <time name="dav">  480.08  480.12</time>
   <time name="total">  480.08  480.12</time>
   <energy>
    <i name="e_fr_energy">    231.77834188 </i>
    <i name="e_wo_entrp">    231.76059132 </i>
    <i name="e_0_energy">    231.77390424 </i>
   </energy>
  </scstep>
  <scstep>
   <time name="dav">  422.72  422.73</time>
   <time name="total">  422.72  422.73</time>
   <energy>
    <i name="e_fr_energy">   -135.44294954 </i>
    <i name="e_wo_entrp">   -135.42701519 </i>
    <i name="e_0_energy">   -135.43896595 </i>
   </energy>
  </scstep>
  <scstep>
   <time name="dav">  504.13  504.15</time>
   <time name="total">  529.65  529.66</time>
   <energy>
    <i name="e_fr_energy">   -181.47898038 </i>
    <i name="e_wo_entrp">   -181.99695937 </i>
    <i name="e_0_energy">   -181.60847513 </i>
   </energy>
  </scstep>
  <scstep>
   <time name="diag">   67.11   67.11</time>
   <time name="diis">  186.92  186.92</time>
   <time name="orth">   13.29   13.29</time>
   <time name="total">  305.91  305.91</time>
   <energy>
    <i name="e_fr_energy">   -180.45078473 </i>
    <i name="e_wo_entrp">   -180.31268496 </i>
    <i name="e_0_energy">   -180.41625979 </i>
   </energy>
  </scstep>
  <scstep>
   <time name="diag">   67.20   67.20</time>
   <time name="diis">  214.06  214.07</time>
   <time name="orth">   13.31   13.31</time>
   <time name="total">  333.15  333.16</time>
   <energy>
    <i name="e_fr_energy">   -186.38320104 </i>
    <i name="e_wo_entrp">   -186.16137474 </i>
    <i name="e_0_energy">   -186.32774446 </i>
   </energy>
  </scstep>
  <scstep>
   <time name="diag">   67.72   67.72</time>
   <time name="diis">  203.77  203.78</time>
   <time name="orth">   13.38   13.38</time>
   <time name="total">  324.00  324.00</time>
   <energy>
    <i name="e_fr_energy">   -186.34933893 </i>
    <i name="e_wo_entrp">   -186.14242137 </i>
    <i name="e_0_energy">   -186.29760954 </i>
   </energy>
  </scstep>
  <scstep>
   <time name="diag">   67.71   67.71</time>
   <time name="diis">  187.44  187.45</time>
   <time name="orth">   13.78   13.78</time>
   <time name="total">  309.29  309.30</time>
   <energy>
    <i name="e_fr_energy">   -183.13566974 </i>
    <i name="e_wo_entrp">   -183.03426472 </i>
    <i name="e_0_energy">   -183.11031848 </i>
   </energy>
  </scstep>
  <scstep>
   <time name="diag">   71.28   71.28</time>
   <time name="diis">  192.96  192.97</time>
   <time name="orth">   13.66   13.66</time>
   <time name="total">  318.33  318.34</time>
   <energy>
    <i name="e_fr_energy">   -181.18727714 </i>
    <i name="e_wo_entrp">   -181.16685242 </i>
    <i name="e_0_energy">   -181.18217096 </i>
   </energy>
  </scstep>
  <scstep>
   <time name="diag">   71.33   71.34</time>
   <time name="diis">  193.89  193.89</time>
   <time name="orth">   13.50   13.50</time>
   <time name="total">  319.30  319.30</time>
   <energy>
    <i name="e_fr_energy">   -179.34453330 </i>
    <i name="e_wo_entrp">   -179.27832429 </i>
    <i name="e_0_energy">   -179.32798105 </i>
   </energy>
  </scstep>
  <scstep>
   <time name="diag">   70.32   70.32</time>
   <time name="diis">  189.13  189.13</time>
   <time name="orth">   13.22   13.22</time>
   <time name="total">  313.39  313.40</time>
   <energy>
    <i name="e_fr_energy">   -178.06520615 </i>
    <i name="e_wo_entrp">   -178.00720995 </i>
    <i name="e_0_energy">   -178.05070710 </i>
   </energy>
  </scstep>
  <scstep>
   <time name="diag">   70.47   70.47</time>
   <time name="diis">  189.66  189.66</time>
   <time name="orth">   13.25   13.25</time>
   <time name="total">  313.91  313.91</time>
   <energy>
    <i name="e_fr_energy">   -177.22050871 </i>
    <i name="e_wo_entrp">   -177.11743927 </i>
    <i name="e_0_energy">   -177.19474135 </i>
   </energy>
  </scstep>
  <scstep>
   <time name="diag">   71.06   71.06</time>
   <time name="diis">  187.47  187.47</time>
   <time name="orth">   13.26   13.26</time>
   <time name="total">  312.13  312.13</time>
   <energy>
    <i name="e_fr_energy">   -177.42737754 </i>
    <i name="e_wo_entrp">   -177.36811693 </i>
    <i name="e_0_energy">   -177.41256239 </i>
   </energy>
  </scstep>
  <scstep>
   <time name="diag">   70.21   70.21</time>
   <time name="diis">  191.14  191.14</time>
   <time name="orth">   13.22   13.22</time>
   <time name="total">  314.84  314.84</time>
   <energy>
    <i name="e_fr_energy">   -177.36265387 </i>
    <i name="e_wo_entrp">   -177.43028686 </i>
    <i name="e_0_energy">   -177.37956212 </i>
   </energy>
  </scstep>
  <scstep>
   <time name="diag">   69.98   69.98</time>
   <time name="diis">  192.46  192.46</time>
   <time name="orth">   13.19   13.19</time>
   <time name="total">  316.01  316.02</time>
   <energy>
    <i name="e_fr_energy">   -176.39015934 </i>
    <i name="e_wo_entrp">   -176.34963088 </i>
    <i name="e_0_energy">   -176.38002722 </i>
   </energy>
  </scstep>
  <scstep>
   <time name="diag">   70.41   70.41</time>
   <time name="diis">  190.57  190.57</time>
   <time name="orth">   13.18   13.18</time>
   <time name="total">  314.35  314.35</time>
   <energy>
    <i name="e_fr_energy">   -176.07316929 </i>
    <i name="e_wo_entrp">   -176.14421034 </i>
    <i name="e_0_energy">   -176.09092955 </i>
   </energy>
  </scstep>
  <scstep>
   <time name="diag">   69.95   69.95</time>
   <time name="diis">  188.97  188.98</time>
   <time name="orth">   13.24   13.24</time>
   <time name="total">  312.23  312.24</time>
   <energy>
    <i name="e_fr_energy">   -175.88075530 </i>
    <i name="e_wo_entrp">   -175.95894040 </i>
    <i name="e_0_energy">   -175.90030157 </i>
   </energy>
  </scstep>
  <scstep>
   <time name="diag">   69.92   69.92</time>
   <time name="diis">  188.82  188.82</time>
   <time name="orth">   13.28   13.28</time>
   <time name="total">  312.13  312.13</time>
   <energy>
    <i name="e_fr_energy">   -175.78952685 </i>
    <i name="e_wo_entrp">   -175.85008396 </i>
    <i name="e_0_energy">   -175.80466613 </i>
   </energy>
  </scstep>
  <scstep>
   <time name="diag">   69.98   69.98</time>
   <time name="diis">  189.14  189.14</time>
   <time name="orth">   13.48   13.48</time>
   <time name="total">  312.40  312.40</time>
   <energy>
    <i name="e_fr_energy">   -175.47927069 </i>
    <i name="e_wo_entrp">   -175.44565730 </i>
    <i name="e_0_energy">   -175.47086734 </i>
   </energy>
  </scstep>
  <scstep>
   <time name="diag">   70.01   70.01</time>
   <time name="diis">  186.16  186.16</time>
   <time name="orth">   13.44   13.44</time>
   <time name="total">  309.40  309.40</time>
   <energy>
    <i name="e_fr_energy">   -175.28035574 </i>
    <i name="e_wo_entrp">   -175.22814063 </i>
    <i name="e_0_energy">   -175.26730196 </i>
   </energy>
  </scstep>
  <scstep>
   <time name="diag">   70.04   70.04</time>
   <time name="diis">  185.62  185.62</time>
   <time name="orth">   13.56   13.56</time>
   <time name="total">  309.02  309.03</time>
   <energy>
    <i name="e_fr_energy">   -175.18552116 </i>
    <i name="e_wo_entrp">   -175.11408282 </i>
    <i name="e_0_energy">   -175.16766157 </i>
   </energy>
  </scstep>
  <scstep>
   <time name="diag">   69.84   69.84</time>
   <time name="diis">  186.77  186.78</time>
   <time name="orth">   13.49   13.49</time>
   <time name="total">  309.83  309.84</time>
   <energy>
    <i name="e_fr_energy">   -175.11189609 </i>
    <i name="e_wo_entrp">   -175.09878679 </i>
    <i name="e_0_energy">   -175.10861877 </i>
   </energy>
  </scstep>
  <scstep>
   <time name="diag">   70.06   70.05</time>
   <time name="diis">  187.48  187.49</time>
   <time name="orth">   13.52   13.52</time>
   <time name="total">  310.58  310.58</time>
   <energy>
    <i name="e_fr_energy">   -175.04949887 </i>
    <i name="e_wo_entrp">   -175.00547992 </i>
    <i name="e_0_energy">   -175.03849413 </i>
   </energy>
  </scstep>
  <scstep>
   <time name="diag">   70.11   70.11</time>
   <time name="diis">  185.80  185.80</time>
   <time name="orth">   13.59   13.59</time>
   <time name="total">  309.06  309.07</time>
   <energy>
    <i name="e_fr_energy">   -175.05552066 </i>
    <i name="e_wo_entrp">   -175.00451186 </i>
    <i name="e_0_energy">   -175.04276846 </i>
   </energy>
  </scstep>
  <scstep>
   <time name="diag">   70.09   70.09</time>
   <time name="diis">  185.52  185.52</time>
   <time name="orth">   13.55   13.55</time>
   <time name="total">  308.86  308.87</time>
   <energy>
    <i name="e_fr_energy">   -175.00649560 </i>
    <i name="e_wo_entrp">   -174.97374539 </i>
    <i name="e_0_energy">   -174.99830805 </i>
   </energy>
  </scstep>
  <scstep>
   <time name="diag">   69.91   69.91</time>
   <time name="diis">  185.39  185.39</time>
   <time name="orth">   13.58   13.58</time>
   <time name="total">  308.66  308.67</time>
   <energy>
    <i name="e_fr_energy">   -175.00574938 </i>
    <i name="e_wo_entrp">   -174.97960214 </i>
    <i name="e_0_energy">   -174.99921257 </i>
   </energy>
  </scstep>
  <scstep>
   <time name="diag">   69.78   69.78</time>
   <time name="diis">  185.26  185.26</time>
   <time name="orth">   13.56   13.56</time>
   <time name="total">  308.81  308.81</time>
   <energy>
    <i name="e_fr_energy">   -174.97575111 </i>
    <i name="e_wo_entrp">   -174.93554179 </i>
    <i name="e_0_energy">   -174.96569878 </i>
   </energy>
  </scstep>
  <scstep>
   <time name="diag">   69.31   69.31</time>
   <time name="diis">  184.06  184.06</time>
   <time name="orth">   13.73   13.73</time>
   <time name="total">  307.52  307.52</time>
   <energy>
    <i name="e_fr_energy">   -174.96489344 </i>
    <i name="e_wo_entrp">   -174.93007069 </i>
    <i name="e_0_energy">   -174.95618775 </i>
   </energy>
  </scstep>
  <scstep>
   <time name="diag">   69.43   69.43</time>
   <time name="diis">  184.35  184.36</time>
   <time name="orth">   13.74   13.74</time>
   <time name="total">  308.33  308.33</time>
   <energy>
    <i name="e_fr_energy">   -174.96288712 </i>
    <i name="e_wo_entrp">   -174.91820049 </i>
    <i name="e_0_energy">   -174.95171546 </i>
   </energy>
  </scstep>
  <scstep>
   <time name="diag">   68.96   68.97</time>
   <time name="diis">  184.12  184.12</time>
   <time name="orth">   13.51   13.51</time>
   <time name="total">  307.22  307.23</time>
   <energy>
    <i name="e_fr_energy">   -174.95674354 </i>
    <i name="e_wo_entrp">   -174.90622217 </i>
    <i name="e_0_energy">   -174.94411319 </i>
   </energy>
  </scstep>
  <scstep>
   <time name="diag">   68.59   68.59</time>
   <time name="diis">  184.69  184.69</time>
   <time name="orth">   13.53   13.53</time>
   <time name="total">  307.13  307.14</time>
   <energy>
    <i name="e_fr_energy">   -174.95323798 </i>
    <i name="e_wo_entrp">   -174.90674128 </i>
    <i name="e_0_energy">   -174.94161381 </i>
   </energy>
  </scstep>
  <scstep>
   <time name="diag">   69.02   69.02</time>
   <time name="diis">  184.46  184.46</time>
   <time name="orth">   13.70   13.70</time>
   <time name="total">  307.99  307.99</time>
   <energy>
    <i name="e_fr_energy">   -174.95196265 </i>
    <i name="e_wo_entrp">   -174.90920224 </i>
    <i name="e_0_energy">   -174.94127255 </i>
   </energy>
  </scstep>
  <scstep>
   <time name="diag">   68.95   68.95</time>
   <time name="diis">  183.22  183.22</time>
   <time name="orth">   13.62   13.62</time>
   <time name="total">  306.60  306.60</time>
   <energy>
    <i name="e_fr_energy">   -174.95247264 </i>
    <i name="e_wo_entrp">   -174.90827221 </i>
    <i name="e_0_energy">   -174.94142254 </i>
   </energy>
  </scstep>
  <scstep>
   <time name="diag">   68.90   68.90</time>
   <time name="diis">  181.92  181.92</time>
   <time name="orth">   13.37   13.37</time>
   <time name="total">  304.78  304.79</time>
   <energy>
    <i name="e_fr_energy">   -174.95357747 </i>
    <i name="e_wo_entrp">   -174.91035591 </i>
    <i name="e_0_energy">   -174.94277208 </i>
   </energy>
  </scstep>
  <scstep>
   <time name="diag">   68.06   68.06</time>
   <time name="diis">  182.65  182.66</time>
   <time name="orth">   13.48   13.48</time>
   <time name="total">  304.94  304.95</time>
   <energy>
    <i name="e_fr_energy">   -174.95410239 </i>
    <i name="e_wo_entrp">   -174.90802957 </i>
    <i name="e_0_energy">   -174.94258419 </i>
   </energy>
  </scstep>
  <scstep>
   <time name="diag">   68.32   68.32</time>
   <time name="diis">  177.00  177.00</time>
   <time name="orth">   13.49   13.49</time>
   <time name="total">  299.95  299.95</time>
   <energy>
    <i name="e_fr_energy">   -174.95549824 </i>
    <i name="e_wo_entrp">   -174.90853037 </i>
    <i name="e_0_energy">   -174.94375627 </i>
   </energy>
  </scstep>
  <scstep>
   <time name="diag">   68.11   68.11</time>
   <time name="diis">  174.67  174.67</time>
   <time name="orth">   13.45   13.45</time>
   <time name="total">  297.88  297.88</time>
   <energy>
    <i name="e_fr_energy">   -174.95814599 </i>
    <i name="e_wo_entrp">   -174.91313607 </i>
    <i name="e_0_energy">   -174.94689351 </i>
   </energy>
  </scstep>
  <scstep>
   <time name="diag">   68.15   68.15</time>
   <time name="diis">  150.26  150.26</time>
   <time name="orth">   13.40   13.40</time>
   <time name="total">  272.93  272.94</time>
   <energy>
    <i name="e_fr_energy">   -174.96028505 </i>
    <i name="e_wo_entrp">   -174.91552814 </i>
    <i name="e_0_energy">   -174.94909582 </i>
   </energy>
  </scstep>
  <scstep>
   <time name="diag">   67.79   67.79</time>
   <time name="diis">  167.90  167.91</time>
   <time name="orth">   13.73   13.73</time>
   <time name="total">  290.82  290.83</time>
   <energy>
    <i name="e_fr_energy">   -174.96382666 </i>
    <i name="e_wo_entrp">   -174.91925250 </i>
    <i name="e_0_energy">   -174.95268312 </i>
   </energy>
  </scstep>
  <scstep>
   <time name="diag">   67.60   67.60</time>
   <time name="diis">  149.09  149.09</time>
   <time name="orth">   13.74   13.74</time>
   <time name="total">  273.19  273.19</time>
   <energy>
    <i name="e_fr_energy">   -174.96626253 </i>
    <i name="e_wo_entrp">   -174.91983933 </i>
    <i name="e_0_energy">   -174.95465673 </i>
   </energy>
  </scstep>
  <scstep>
   <time name="diag">   68.00   68.00</time>
   <time name="diis">  148.84  148.84</time>
   <time name="orth">   13.67   13.67</time>
   <time name="total">  273.17  273.18</time>
   <energy>
    <i name="e_fr_energy">   -174.96919777 </i>
    <i name="e_wo_entrp">   -174.92423595 </i>
    <i name="e_0_energy">   -174.95795731 </i>
   </energy>
  </scstep>
  <scstep>
   <time name="diag">   68.97   68.98</time>
   <time name="diis">  117.78  117.78</time>
   <time name="orth">   13.55   13.55</time>
   <time name="total">  243.21  243.22</time>
   <energy>
    <i name="e_fr_energy">   -174.97036947 </i>
    <i name="e_wo_entrp">   -174.92518367 </i>
    <i name="e_0_energy">   -174.95907302 </i>
   </energy>
  </scstep>
  <scstep>
   <time name="diag">   70.17   70.18</time>
   <time name="diis">  117.97  117.97</time>
   <time name="orth">   13.29   13.29</time>
   <time name="total">  244.00  244.01</time>
   <energy>
    <i name="e_fr_energy">   -174.97199598 </i>
    <i name="e_wo_entrp">   -174.92710834 </i>
    <i name="e_0_energy">   -174.96077407 </i>
   </energy>
  </scstep>
  <scstep>
   <time name="diag">   68.87   68.88</time>
   <time name="diis">  122.74  122.74</time>
   <time name="orth">   13.42   13.42</time>
   <time name="total">  247.19  247.19</time>
   <energy>
    <i name="e_fr_energy">   -174.97380854 </i>
    <i name="e_wo_entrp">   -174.92883247 </i>
    <i name="e_0_energy">   -174.96256452 </i>
   </energy>
  </scstep>
  <scstep>
   <time name="diag">   68.22   68.22</time>
   <time name="diis">  118.85  118.85</time>
   <time name="orth">   13.84   13.84</time>
   <time name="total">  243.80  243.81</time>
   <energy>
    <i name="e_fr_energy">   -174.97441876 </i>
    <i name="e_wo_entrp">   -174.92895007 </i>
    <i name="e_0_energy">   -174.96305159 </i>
   </energy>
  </scstep>
  <scstep>
   <time name="diag">   68.18   68.19</time>
   <time name="diis">  117.92  117.92</time>
   <time name="orth">   13.45   13.45</time>
   <time name="total">  242.77  242.77</time>
   <energy>
    <i name="e_fr_energy">   -174.97589759 </i>
    <i name="e_wo_entrp">   -174.93075001 </i>
    <i name="e_0_energy">   -174.96461070 </i>
   </energy>
  </scstep>
  <scstep>
   <time name="diag">   68.06   68.06</time>
   <time name="diis">  117.14  117.15</time>
   <time name="orth">   13.77   13.77</time>
   <time name="total">  243.01  243.02</time>
   <energy>
    <i name="e_fr_energy">   -174.97654665 </i>
    <i name="e_wo_entrp">   -174.93150986 </i>
    <i name="e_0_energy">   -174.96528745 </i>
   </energy>
  </scstep>
  <scstep>
   <time name="diag">   67.84   67.84</time>
   <time name="diis">  115.44  115.44</time>
   <time name="orth">   13.51   13.51</time>
   <time name="total">  240.93  240.94</time>
   <energy>
    <i name="e_fr_energy">   -174.97730201 </i>
    <i name="e_wo_entrp">   -174.93224662 </i>
    <i name="e_0_energy">   -174.96603817 </i>
   </energy>
  </scstep>
  <scstep>
   <time name="diag">   68.29   68.29</time>
   <time name="diis">  111.30  111.31</time>
   <time name="orth">   13.76   13.76</time>
   <time name="total">  237.24  237.25</time>
   <energy>
    <i name="e_fr_energy">   -174.97789511 </i>
    <i name="e_wo_entrp">   -174.93283191 </i>
    <i name="e_0_energy">   -174.96662931 </i>
   </energy>
  </scstep>
  <scstep>
   <time name="diag">   68.46   68.47</time>
   <time name="diis">   98.50   98.51</time>
   <time name="orth">   13.43   13.43</time>
   <time name="total">  223.69  223.70</time>
   <energy>
    <i name="e_fr_energy">   -174.97821928 </i>
    <i name="e_wo_entrp">   -174.93303504 </i>
    <i name="e_0_energy">   -174.96692322 </i>
   </energy>
  </scstep>
  <scstep>
   <time name="diag">   68.21   68.21</time>
   <time name="diis">   98.17   98.18</time>
   <time name="orth">   13.63   13.63</time>
   <time name="total">  223.90  223.91</time>
   <energy>
    <i name="e_fr_energy">   -174.97865150 </i>
    <i name="e_wo_entrp">   -174.93346424 </i>
    <i name="e_0_energy">   -174.96735468 </i>
   </energy>
  </scstep>
  <scstep>
   <time name="diag">   67.99   68.00</time>
   <time name="diis">   87.11   87.11</time>
   <time name="orth">   13.66   13.66</time>
   <time name="total">  212.15  212.16</time>
   <energy>
    <i name="e_fr_energy">   -174.97890973 </i>
    <i name="e_wo_entrp">   -174.93377842 </i>
    <i name="e_0_energy">   -174.96762690 </i>
   </energy>
  </scstep>
  <scstep>
   <time name="diag">   69.00   69.01</time>
   <time name="diis">   92.25   92.26</time>
   <time name="orth">   13.54   13.54</time>
   <time name="total">  218.77  218.78</time>
   <energy>
    <i name="e_fr_energy">   -174.97928074 </i>
    <i name="e_wo_entrp">   -174.93423290 </i>
    <i name="e_0_energy">   -174.96801878 </i>
   </energy>
  </scstep>
  <scstep>
   <time name="diag">   68.29   68.29</time>
   <time name="diis">   85.20   85.20</time>
   <time name="orth">   13.73   13.73</time>
   <time name="total">  210.60  210.61</time>
   <energy>
    <i name="e_fr_energy">   -174.97955605 </i>
    <i name="e_wo_entrp">   -174.93442124 </i>
    <i name="e_0_energy">   -174.96827234 </i>
   </energy>
  </scstep>
  <scstep>
   <time name="diag">   67.35   67.36</time>
   <time name="diis">   74.71   74.71</time>
   <time name="orth">   13.64   13.64</time>
   <time name="total">  199.18  199.19</time>
   <energy>
    <i name="e_fr_energy">   -174.97966369 </i>
    <i name="e_wo_entrp">   -174.93451653 </i>
    <i name="e_0_energy">   -174.96837690 </i>
   </energy>
  </scstep>
  <scstep>
   <time name="diag">   68.94   68.94</time>
   <time name="diis">   93.21   93.22</time>
   <time name="orth">   13.47   13.47</time>
   <time name="total">  219.31  219.33</time>
   <energy>
    <i name="e_fr_energy">   -174.97995524 </i>
    <i name="e_wo_entrp">   -174.93481994 </i>
    <i name="e_0_energy">   -174.96867141 </i>
   </energy>
  </scstep>
  <scstep>
   <time name="diag">   69.16   69.16</time>
   <time name="diis">   83.46   83.46</time>
   <time name="orth">   13.56   13.56</time>
   <time name="total">  209.81  209.82</time>
   <energy>
    <i name="e_fr_energy">   -174.98012711 </i>
    <i name="e_wo_entrp">   -174.93501093 </i>
    <i name="e_0_energy">   -174.96884807 </i>
   </energy>
  </scstep>
  <scstep>
   <time name="diag">   68.38   68.38</time>
   <time name="diis">   84.42   84.43</time>
   <time name="orth">   13.41   13.41</time>
   <time name="total">  209.76  209.77</time>
   <energy>
    <i name="e_fr_energy">   -174.98025663 </i>
    <i name="e_wo_entrp">   -174.93513289 </i>
    <i name="e_0_energy">   -174.96897570 </i>
   </energy>
  </scstep>
  <scstep>
   <time name="diag">   68.62   68.62</time>
   <time name="diis">   83.94   83.95</time>
   <time name="orth">   13.30   13.30</time>
   <time name="total">  209.01  209.01</time>
   <energy>
    <i name="e_fr_energy">   -174.98037925 </i>
    <i name="e_wo_entrp">   -174.93521440 </i>
    <i name="e_0_energy">   -174.96908804 </i>
   </energy>
  </scstep>
  <scstep>
   <time name="diag">   69.00   69.00</time>
   <time name="diis">   77.50   77.50</time>
   <time name="orth">   13.33   13.33</time>
   <time name="total">  173.82  173.83</time>
   <energy>
    <i name="alphaZ">     75.25431677 </i>
    <i name="ewald"> 139614.39207048 </i>
    <i name="hartreedc">-183964.32794595 </i>
    <i name="XCdc">  -1689.99334101 </i>
    <i name="pawpsdc">  46432.66784614 </i>
    <i name="pawaedc"> -42904.64616090 </i>
    <i name="eentropy">     -0.04512899 </i>
    <i name="bandstr">  -2824.78760616 </i>
    <i name="atom">  45086.50549395 </i>
    <i name="e_fr_energy">   -174.98045567 </i>
    <i name="e_wo_entrp">   -174.93532668 </i>
    <i name="e_0_energy">   -174.96917342 </i>
   </energy>
  </scstep>
  <structure>
   <crystal>
    <varray name="basis" >
     <v>      30.00000000       0.00000000       0.00000000 </v>
     <v>       0.00000000      30.00000000       0.00000000 </v>
     <v>       0.00000000       0.00000000      30.00000000 </v>
    </varray>
    <i name="volume">  27000.00000000 </i>
    <varray name="rec_basis" >
     <v>       0.03333333       0.00000000       0.00000000 </v>
     <v>       0.00000000       0.03333333       0.00000000 </v>
     <v>       0.00000000       0.00000000       0.03333333 </v>
    </varray>
   </crystal>
   <varray name="positions" >
    <v>       0.44576020       0.32826710       0.41691983 </v>
    <v>       0.67173288       0.55423978       0.41691983 </v>
    <v>       0.55423980       0.32826710       0.41691983 </v>
    <v>       0.32826712       0.55423978       0.41691983 </v>
    <v>       0.50000000       0.38250690       0.34021317 </v>
    <v>       0.50000000       0.38250690       0.65978680 </v>
    <v>       0.50000000       0.27609440       0.50000000 </v>
    <v>       0.27609443       0.49999998       0.50000000 </v>
    <v>       0.72390557       0.49999998       0.50000000 </v>
    <v>       0.50000000       0.72390555       0.50000000 </v>
    <v>       0.61195280       0.38804720       0.34167483 </v>
    <v>       0.61195280       0.38804720       0.65832513 </v>
    <v>       0.38804722       0.61195278       0.34167483 </v>
    <v>       0.38804722       0.61195278       0.65832513 </v>
    <v>       0.38804720       0.38804720       0.34167483 </v>
    <v>       0.38804720       0.38804720       0.65832513 </v>
    <v>       0.61195278       0.61195278       0.34167483 </v>
    <v>       0.61195278       0.61195278       0.65832513 </v>
    <v>       0.44576020       0.32826710       0.58308023 </v>
    <v>       0.67173288       0.55423978       0.58308023 </v>
    <v>       0.55791699       0.44208301       0.41809300 </v>
    <v>       0.32826705       0.44576024       0.41691983 </v>
    <v>       0.55423973       0.67173293       0.41691983 </v>
    <v>       0.55423980       0.32826710       0.58308023 </v>
    <v>       0.32826712       0.55423978       0.58308023 </v>
    <v>       0.67173295       0.44576024       0.41691983 </v>
    <v>       0.44576027       0.67173293       0.41691983 </v>
    <v>       0.44208301       0.44208301       0.41809300 </v>
    <v>       0.50000000       0.38416601       0.50000000 </v>
    <v>       0.61749315       0.50000005       0.34021317 </v>
    <v>       0.61749315       0.50000005       0.65978680 </v>
    <v>       0.38250685       0.50000005       0.34021317 </v>
    <v>       0.38250685       0.50000005       0.65978680 </v>
    <v>       0.38317830       0.38317830       0.50000000 </v>
    <v>       0.61682172       0.61682172       0.50000000 </v>
    <v>       0.61682170       0.38317830       0.50000000 </v>
    <v>       0.38317828       0.61682172       0.50000000 </v>
    <v>       0.50000000       0.50000000       0.33478917 </v>
    <v>       0.50000000       0.50000000       0.66521087 </v>
    <v>       0.32826705       0.44576024       0.58308023 </v>
    <v>       0.55423973       0.67173293       0.58308023 </v>
    <v>       0.55791699       0.44208301       0.58190703 </v>
    <v>       0.44208298       0.55791702       0.41809300 </v>
    <v>       0.44208301       0.44208301       0.58190703 </v>
    <v>       0.67173295       0.44576024       0.58308023 </v>
    <v>       0.44576027       0.67173293       0.58308023 </v>
    <v>       0.55791702       0.55791702       0.41809300 </v>
    <v>       0.38416599       0.50000002       0.50000000 </v>
    <v>       0.61583401       0.50000002       0.50000000 </v>
    <v>       0.50000000       0.61749319       0.34021317 </v>
    <v>       0.50000000       0.61749319       0.65978680 </v>
    <v>       0.50000000       0.50000000       0.50000000 </v>
    <v>       0.44208298       0.55791702       0.58190703 </v>
    <v>       0.55791702       0.55791702       0.58190703 </v>
    <v>       0.50000000       0.61583404       0.50000000 </v>
    <v>       0.64280113       0.55937413       0.64643637 </v>
    <v>       0.66801140       0.56985613       0.67228843 </v>
   </varray>
  </structure>
  <varray name="forces" >
   <v>       0.70396195       1.10422184       0.29865049 </v>
   <v>      -1.10780950      -0.70394360       0.29338321 </v>
   <v>      -0.70995270       1.10916485       0.28785803 </v>
   <v>       1.10525411      -0.70019089       0.29238294 </v>
   <v>       0.00745781       0.41654578       1.27850562 </v>
   <v>       0.00109613       0.41434501      -1.28072487 </v>
   <v>      -0.00073421       1.51760024       0.00188395 </v>
   <v>       1.51365495       0.00014300      -0.00014495 </v>
   <v>      -1.49529274      -0.02860813      -0.04418619 </v>
   <v>      -0.00831754      -1.50908281      -0.00875373 </v>
   <v>      -0.75607405       0.75844873       1.07252570 </v>
   <v>      -0.76188387       0.68952007      -1.07539405 </v>
   <v>       0.75495350      -0.75455578       1.07036996 </v>
   <v>       0.74283844      -0.75342937      -1.07319925 </v>
   <v>       0.76274515       0.74843466       1.07139663 </v>
   <v>       0.75222110       0.75921535      -1.07672625 </v>
   <v>      -0.76279180      -0.75572569       1.07124294 </v>
   <v>      -3.25663178       2.26244083      -0.95142286 </v>
   <v>       0.70150620       1.11088933      -0.28911351 </v>
   <v>      -1.32501376      -0.79811376      -0.23879477 </v>
   <v>       0.10188442      -0.11350959      -0.16528097 </v>
   <v>       1.10227649       0.70589004       0.29909754 </v>
   <v>      -0.70800859      -1.10816287       0.28479228 </v>
   <v>      -0.69584447       1.10937929      -0.29412786 </v>
   <v>       1.10106079      -0.70718156      -0.29302482 </v>
   <v>      -1.10513473       0.69985773       0.29927031 </v>
   <v>       0.70080531      -1.10666409       0.28371942 </v>
   <v>      -0.11115431      -0.11477458      -0.15850732 </v>
   <v>      -0.01021027      -0.23106256      -0.00916707 </v>
   <v>      -0.41448137       0.00426037       1.28069772 </v>
   <v>      -0.81262368      -0.63234217      -1.42357507 </v>
   <v>       0.41470953       0.00926420       1.27844842 </v>
   <v>       0.40527425      -0.00293110      -1.28444239 </v>
   <v>       0.82889798       0.82917171       0.00038297 </v>
   <v>      -0.84918013      -0.80587886      -0.05603361 </v>
   <v>      -0.82936912       0.83057030      -0.00077973 </v>
   <v>       0.83061871      -0.83713646      -0.00467329 </v>
   <v>       0.00034210       0.00065020       1.17808704 </v>
   <v>      -0.06583423      -0.01851789      -1.17590378 </v>
   <v>       1.10912734       0.70058901      -0.28991553 </v>
   <v>      -0.77552991      -1.06730343      -0.31270310 </v>
   <v>       0.09389171      -0.14363402       0.14358270 </v>
   <v>      -0.10516625       0.11031828      -0.15356907 </v>
   <v>      -0.11121979      -0.11476072       0.15988877 </v>
   <v>      -1.08997939       0.60988226      -0.35167743 </v>
   <v>       0.73945860      -1.10943752      -0.26526229 </v>
   <v>       0.11509947       0.11208918      -0.15853064 </v>
   <v>      -0.22186101      -0.00175673       0.00334377 </v>
   <v>       0.22652658      -0.01705932      -0.03480458 </v>
   <v>       0.00366220      -0.41400527       1.27953140 </v>
   <v>      -0.08024234      -0.37016055      -1.30554150 </v>
   <v>       0.00470688       0.00100943       0.00346940 </v>
   <v>      -0.10597828       0.11536543       0.15288845 </v>
   <v>      -0.09639214       0.07845325      -0.01782263 </v>
   <v>      -0.00070810       0.22468762       0.00611801 </v>
   <v>      -5.53180325      -4.64675295      -7.94425416 </v>
   <v>       9.08119165       2.53427426       8.34653962 </v>
  </varray>
  <varray name="stress" >
   <v>      -6.11878981      -0.03338711       0.40914502 </v>
   <v>      -0.03338711      -6.29320201       0.19488176 </v>
   <v>       0.40914501       0.19488176      -6.31590444 </v>
  </varray>
  <energy>
   <i name="e_fr_energy">   -174.98045567 </i>
   <i name="e_wo_entrp">   -174.96917342 </i>
   <i name="e_0_energy">     -0.04512899 </i>
  </energy>
  <time name="totalsc">18345.2218345.75</time>
  <eigenvalues>
   <array>
    <dimension dim="1">band</dimension>
    <dimension dim="2">kpoint</dimension>
    <dimension dim="3">spin</dimension>
    <field>eigene</field>
    <field>occ</field>
    <set>
     <set comment="spin 1">
      <set comment="kpoint 1">
       <r>  -28.5730    1.0000 </r>
       <r>  -13.7042    1.0000 </r>
       <r>  -12.1041    1.0000 </r>
       <r>  -11.6969    1.0000 </r>
       <r>  -10.5162    1.0000 </r>
       <r>   -6.8784    1.0000 </r>
       <r>   -6.6381    1.0000 </r>
       <r>   -6.2467    1.0000 </r>
       <r>   -6.1414    1.0000 </r>
       <r>   -6.1259    1.0000 </r>
       <r>   -6.1201    1.0000 </r>
       <r>   -5.9275    1.0000 </r>
       <r>   -5.9107    1.0000 </r>
       <r>   -5.8197    1.0000 </r>
       <r>   -5.8072    1.0000 </r>
       <r>   -5.7770    1.0000 </r>
       <r>   -5.7406    1.0000 </r>
       <r>   -5.7258    1.0000 </r>
       <r>   -5.6859    1.0000 </r>
       <r>   -5.6814    1.0000 </r>
       <r>   -5.6767    1.0000 </r>
       <r>   -5.6635    1.0000 </r>
       <r>   -5.6228    1.0000 </r>
       <r>   -5.6166    1.0000 </r>
       <r>   -5.6055    1.0000 </r>
       <r>   -5.6015    1.0000 </r>
       <r>   -5.5827    1.0000 </r>
       <r>   -5.5709    1.0000 </r>
       <r>   -5.5685    1.0000 </r>
       <r>   -5.5573    1.0000 </r>
       <r>   -5.5436    1.0000 </r>
       <r>   -5.5374    1.0000 </r>
       <r>   -5.5346    1.0000 </r>
       <r>   -5.5270    1.0000 </r>
       <r>   -5.5210    1.0000 </r>
       <r>   -5.5112    1.0000 </r>
       <r>   -5.5099    1.0000 </r>
       <r>   -5.5063    1.0000 </r>
       <r>   -5.5002    1.0000 </r>
       <r>   -5.4970    1.0000 </r>
       <r>   -5.4847    1.0000 </r>
       <r>   -5.4727    1.0000 </r>
       <r>   -5.4683    1.0000 </r>
       <r>   -5.4636    1.0000 </r>
       <r>   -5.4623    1.0000 </r>
       <r>   -5.4589    1.0000 </r>
       <r>   -5.4538    1.0000 </r>
       <r>   -5.4431    1.0000 </r>
       <r>   -5.4381    1.0000 </r>
       <r>   -5.4243    1.0000 </r>
       <r>   -5.4233    1.0000 </r>
       <r>   -5.4201    1.0000 </r>
       <r>   -5.4143    1.0000 </r>
       <r>   -5.4034    1.0000 </r>
       <r>   -5.4030    1.0000 </r>
       <r>   -5.3969    1.0000 </r>
       <r>   -5.3932    1.0000 </r>
       <r>   -5.3904    1.0000 </r>
       <r>   -5.3625    1.0000 </r>
       <r>   -5.3430    1.0000 </r>
       <r>   -5.3318    1.0000 </r>
       <r>   -5.3233    1.0000 </r>
       <r>   -5.3210    1.0000 </r>
       <r>   -5.3155    1.0000 </r>
       <r>   -5.3115    1.0000 </r>
       <r>   -5.3087    1.0000 </r>
       <r>   -5.2942    1.0000 </r>
       <r>   -5.2906    1.0000 </r>
       <r>   -5.2849    1.0000 </r>
       <r>   -5.2786    1.0000 </r>
       <r>   -5.2651    1.0000 </r>
       <r>   -5.2399    1.0000 </r>
       <r>   -5.2365    1.0000 </r>
       <r>   -5.2171    1.0000 </r>
       <r>   -5.2035    1.0000 </r>
       <r>   -5.1955    1.0000 </r>
       <r>   -5.1865    1.0000 </r>
       <r>   -5.1850    1.0000 </r>
       <r>   -5.1835    1.0000 </r>
       <r>   -5.1736    1.0000 </r>
       <r>   -5.1633    1.0000 </r>
       <r>   -5.1571    1.0000 </r>
       <r>   -5.1532    1.0000 </r>
       <r>   -5.1522    1.0000 </r>
       <r>   -5.1499    1.0000 </r>
       <r>   -5.1243    1.0000 </r>
       <r>   -5.1215    1.0000 </r>
       <r>   -5.1201    1.0000 </r>
       <r>   -5.1190    1.0000 </r>
       <r>   -5.1055    1.0000 </r>
       <r>   -5.0942    1.0000 </r>
       <r>   -5.0763    1.0000 </r>
       <r>   -5.0594    1.0000 </r>
       <r>   -5.0534    1.0000 </r>
       <r>   -5.0491    1.0000 </r>
       <r>   -5.0445    1.0000 </r>
       <r>   -5.0404    1.0000 </r>
       <r>   -5.0399    1.0000 </r>
       <r>   -5.0290    1.0000 </r>
       <r>   -5.0274    1.0000 </r>
       <r>   -5.0265    1.0000 </r>
       <r>   -5.0241    1.0000 </r>
       <r>   -5.0199    1.0000 </r>
       <r>   -5.0111    1.0000 </r>
       <r>   -5.0027    1.0000 </r>
       <r>   -4.9970    1.0000 </r>
       <r>   -4.9946    1.0000 </r>
       <r>   -4.9934    1.0000 </r>
       <r>   -4.9874    1.0000 </r>
       <r>   -4.9857    1.0000 </r>
       <r>   -4.9781    1.0000 </r>
       <r>   -4.9746    1.0000 </r>
       <r>   -4.9715    1.0000 </r>
       <r>   -4.9635    1.0000 </r>
       <r>   -4.9580    1.0000 </r>
       <r>   -4.9554    1.0000 </r>
       <r>   -4.9473    1.0000 </r>
       <r>   -4.9420    1.0000 </r>
       <r>   -4.9371    1.0000 </r>
       <r>   -4.9296    1.0000 </r>
       <r>   -4.9221    1.0000 </r>
       <r>   -4.9197    1.0000 </r>
       <r>   -4.9099    1.0000 </r>
       <r>   -4.9015    1.0000 </r>
       <r>   -4.8980    1.0000 </r>
       <r>   -4.8939    1.0000 </r>
       <r>   -4.8887    1.0000 </r>
       <r>   -4.8733    1.0000 </r>
       <r>   -4.8709    1.0000 </r>
       <r>   -4.8644    1.0000 </r>
       <r>   -4.8486    1.0000 </r>
       <r>   -4.8461    1.0000 </r>
       <r>   -4.8410    1.0000 </r>
       <r>   -4.8366    1.0000 </r>
       <r>   -4.8323    1.0000 </r>
       <r>   -4.8284    1.0000 </r>
       <r>   -4.8222    1.0000 </r>
       <r>   -4.8167    1.0000 </r>
       <r>   -4.8137    1.0000 </r>
       <r>   -4.8026    0.9999 </r>
       <r>   -4.7955    0.9999 </r>
       <r>   -4.7910    0.9999 </r>
       <r>   -4.7765    0.9999 </r>
       <r>   -4.7751    0.9999 </r>
       <r>   -4.7638    0.9998 </r>
       <r>   -4.7620    0.9998 </r>
       <r>   -4.7587    0.9998 </r>
       <r>   -4.7447    0.9997 </r>
       <r>   -4.7267    0.9996 </r>
       <r>   -4.7214    0.9995 </r>
       <r>   -4.7175    0.9995 </r>
       <r>   -4.7032    0.9993 </r>
       <r>   -4.6942    0.9992 </r>
       <r>   -4.6916    0.9992 </r>
       <r>   -4.6889    0.9991 </r>
       <r>   -4.6767    0.9989 </r>
       <r>   -4.6722    0.9988 </r>
       <r>   -4.6697    0.9987 </r>
       <r>   -4.6682    0.9987 </r>
       <r>   -4.6581    0.9984 </r>
       <r>   -4.6548    0.9984 </r>
       <r>   -4.6498    0.9982 </r>
       <r>   -4.6464    0.9981 </r>
       <r>   -4.6447    0.9981 </r>
       <r>   -4.6402    0.9979 </r>
       <r>   -4.6389    0.9979 </r>
       <r>   -4.6361    0.9978 </r>
       <r>   -4.6331    0.9977 </r>
       <r>   -4.6309    0.9976 </r>
       <r>   -4.6280    0.9975 </r>
       <r>   -4.6216    0.9973 </r>
       <r>   -4.6176    0.9971 </r>
       <r>   -4.6030    0.9966 </r>
       <r>   -4.6020    0.9966 </r>
       <r>   -4.5965    0.9964 </r>
       <r>   -4.5937    0.9963 </r>
       <r>   -4.5873    0.9960 </r>
       <r>   -4.5863    0.9960 </r>
       <r>   -4.5827    0.9959 </r>
       <r>   -4.5818    0.9958 </r>
       <r>   -4.5758    0.9956 </r>
       <r>   -4.5677    0.9954 </r>
       <r>   -4.5637    0.9953 </r>
       <r>   -4.5611    0.9952 </r>
       <r>   -4.5607    0.9952 </r>
       <r>   -4.5556    0.9952 </r>
       <r>   -4.5521    0.9951 </r>
       <r>   -4.5478    0.9951 </r>
       <r>   -4.5420    0.9951 </r>
       <r>   -4.5396    0.9951 </r>
       <r>   -4.5373    0.9951 </r>
       <r>   -4.5259    0.9954 </r>
       <r>   -4.5136    0.9960 </r>
       <r>   -4.5086    0.9963 </r>
       <r>   -4.5029    0.9969 </r>
       <r>   -4.4977    0.9974 </r>
       <r>   -4.4939    0.9979 </r>
       <r>   -4.4882    0.9987 </r>
       <r>   -4.4850    0.9992 </r>
       <r>   -4.4827    0.9996 </r>
       <r>   -4.4797    1.0001 </r>
       <r>   -4.4680    1.0026 </r>
       <r>   -4.4652    1.0033 </r>
       <r>   -4.4577    1.0053 </r>
       <r>   -4.4538    1.0064 </r>
       <r>   -4.4515    1.0072 </r>
       <r>   -4.4422    1.0103 </r>
       <r>   -4.4385    1.0116 </r>
       <r>   -4.4373    1.0120 </r>
       <r>   -4.4357    1.0126 </r>
       <r>   -4.4272    1.0160 </r>
       <r>   -4.4197    1.0192 </r>
       <r>   -4.4173    1.0203 </r>
       <r>   -4.4129    1.0223 </r>
       <r>   -4.4072    1.0249 </r>
       <r>   -4.4026    1.0271 </r>
       <r>   -4.3999    1.0284 </r>
       <r>   -4.3961    1.0302 </r>
       <r>   -4.3926    1.0320 </r>
       <r>   -4.3900    1.0332 </r>
       <r>   -4.3804    1.0377 </r>
       <r>   -4.3718    1.0415 </r>
       <r>   -4.3636    1.0448 </r>
       <r>   -4.3603    1.0461 </r>
       <r>   -4.3533    1.0483 </r>
       <r>   -4.3420    1.0508 </r>
       <r>   -4.3388    1.0512 </r>
       <r>   -4.3285    1.0515 </r>
       <r>   -4.3272    1.0514 </r>
       <r>   -4.3255    1.0513 </r>
       <r>   -4.3239    1.0510 </r>
       <r>   -4.3231    1.0509 </r>
       <r>   -4.3181    1.0498 </r>
       <r>   -4.3167    1.0494 </r>
       <r>   -4.3153    1.0490 </r>
       <r>   -4.3147    1.0488 </r>
       <r>   -4.3135    1.0484 </r>
       <r>   -4.3124    1.0479 </r>
       <r>   -4.3076    1.0457 </r>
       <r>   -4.3013    1.0419 </r>
       <r>   -4.2991    1.0404 </r>
       <r>   -4.2980    1.0395 </r>
       <r>   -4.2882    1.0304 </r>
       <r>   -4.2806    1.0213 </r>
       <r>   -4.2781    1.0179 </r>
       <r>   -4.2760    1.0150 </r>
       <r>   -4.2734    1.0110 </r>
       <r>   -4.2701    1.0056 </r>
       <r>   -4.2696    1.0048 </r>
       <r>   -4.2665    0.9994 </r>
       <r>   -4.2579    0.9822 </r>
       <r>   -4.2565    0.9793 </r>
       <r>   -4.2527    0.9707 </r>
       <r>   -4.2500    0.9644 </r>
       <r>   -4.2496    0.9633 </r>
       <r>   -4.2449    0.9514 </r>
       <r>   -4.2432    0.9469 </r>
       <r>   -4.2419    0.9433 </r>
       <r>   -4.2371    0.9295 </r>
       <r>   -4.2366    0.9281 </r>
       <r>   -4.2345    0.9220 </r>
       <r>   -4.2323    0.9149 </r>
       <r>   -4.2300    0.9076 </r>
       <r>   -4.2293    0.9056 </r>
       <r>   -4.2275    0.8996 </r>
       <r>   -4.2241    0.8883 </r>
       <r>   -4.2214    0.8788 </r>
       <r>   -4.2147    0.8543 </r>
       <r>   -4.2140    0.8515 </r>
       <r>   -4.2119    0.8435 </r>
       <r>   -4.2090    0.8321 </r>
       <r>   -4.2013    0.8005 </r>
       <r>   -4.1990    0.7909 </r>
       <r>   -4.1873    0.7382 </r>
       <r>   -4.1791    0.6995 </r>
       <r>   -4.1710    0.6593 </r>
       <r>   -4.1696    0.6524 </r>
       <r>   -4.1655    0.6316 </r>
       <r>   -4.1635    0.6217 </r>
       <r>   -4.1624    0.6158 </r>
       <r>   -4.1483    0.5422 </r>
       <r>   -4.1370    0.4827 </r>
       <r>   -4.1311    0.4515 </r>
       <r>   -4.1231    0.4095 </r>
       <r>   -4.1182    0.3844 </r>
       <r>   -4.1157    0.3717 </r>
       <r>   -4.1074    0.3299 </r>
       <r>   -4.1065    0.3250 </r>
       <r>   -4.0049   -0.0145 </r>
       <r>   -3.9561   -0.0511 </r>
       <r>   -3.8546   -0.0165 </r>
       <r>   -3.8209   -0.0047 </r>
       <r>   -3.8055   -0.0010 </r>
       <r>   -3.5528    0.0004 </r>
       <r>   -3.5090    0.0001 </r>
       <r>   -3.4912    0.0001 </r>
       <r>   -3.2977    0.0000 </r>
       <r>   -3.0571    0.0000 </r>
       <r>   -3.0539    0.0000 </r>
       <r>   -3.0380    0.0000 </r>
       <r>   -3.0131    0.0000 </r>
       <r>   -3.0108    0.0000 </r>
       <r>   -2.9487    0.0000 </r>
       <r>   -2.9447    0.0000 </r>
       <r>   -2.6060    0.0000 </r>
       <r>   -2.5806    0.0000 </r>
       <r>   -2.5171    0.0000 </r>
       <r>   -2.3776    0.0000 </r>
       <r>   -2.2534    0.0000 </r>
       <r>   -2.1139    0.0000 </r>
       <r>   -2.1093    0.0000 </r>
       <r>   -2.1043    0.0000 </r>
       <r>   -1.9619    0.0000 </r>
       <r>   -1.9520    0.0000 </r>
       <r>   -1.9065    0.0000 </r>
       <r>   -1.8796    0.0000 </r>
       <r>   -1.7350    0.0000 </r>
       <r>   -1.7318    0.0000 </r>
       <r>   -1.6402    0.0000 </r>
       <r>   -1.6336    0.0000 </r>
       <r>   -1.5523    0.0000 </r>
       <r>   -1.5481    0.0000 </r>
       <r>   -1.3303    0.0000 </r>
       <r>   -1.2994    0.0000 </r>
       <r>   -1.2386    0.0000 </r>
       <r>   -1.2347    0.0000 </r>
       <r>   -1.0410    0.0000 </r>
       <r>   -0.9787    0.0000 </r>
       <r>   -0.9712    0.0000 </r>
       <r>   -0.9577    0.0000 </r>
       <r>   -0.9435    0.0000 </r>
       <r>   -0.9332    0.0000 </r>
       <r>   -0.9082    0.0000 </r>
       <r>   -0.8765    0.0000 </r>
       <r>   -0.7882    0.0000 </r>
       <r>   -0.6973    0.0000 </r>
      </set>
     </set>
    </set>
   </array>
  </eigenvalues>
  <separator name="orbital magnetization" >
   <v name="MAGDIPOLOUT">      0.00000000      0.00000000      0.00000000</v>
  </separator>
  <dos>
   <i name="efermi">     -4.14028536 </i>
   <total>
    <array>
     <dimension dim="1">gridpoints</dimension>
     <dimension dim="2">spin</dimension>
     <field>energy</field>
     <field>total</field>
     <field>integrated</field>
     <set>
      <set comment="spin 1">
       <r>   -30.5730     0.0000     0.0000 </r>
       <r>   -30.4667     0.0000     0.0000 </r>
       <r>   -30.3605     0.0000     0.0000 </r>
       <r>   -30.2542     0.0000     0.0000 </r>
       <r>   -30.1480     0.0000     0.0000 </r>
       <r>   -30.0417     0.0000     0.0000 </r>
       <r>   -29.9355     0.0000     0.0000 </r>
       <r>   -29.8292     0.0000     0.0000 </r>
       <r>   -29.7230     0.0000     0.0000 </r>
       <r>   -29.6167     0.0000     0.0000 </r>
       <r>   -29.5105     0.0000     0.0000 </r>
       <r>   -29.4042     0.0000     0.0000 </r>
       <r>   -29.2979     0.0002     0.0000 </r>
       <r>   -29.1917     0.0034     0.0004 </r>
       <r>   -29.0854     0.0285     0.0034 </r>
       <r>   -28.9792     0.0607     0.0099 </r>
       <r>   -28.8729    -0.2987    -0.0219 </r>
       <r>   -28.7667    -0.7652    -0.1032 </r>
       <r>   -28.6604     2.8455     0.1992 </r>
       <r>   -28.5542     9.3953     1.1974 </r>
       <r>   -28.4479     7.5002     1.9943 </r>
       <r>   -28.3417     0.8369     2.0833 </r>
       <r>   -28.2354    -0.7745     2.0010 </r>
       <r>   -28.1292    -0.0862     1.9918 </r>
       <r>   -28.0229     0.0607     1.9983 </r>
       <r>   -27.9167     0.0150     1.9999 </r>
       <r>   -27.8104     0.0013     2.0000 </r>
       <r>   -27.7042     0.0001     2.0000 </r>
       <r>   -27.5979     0.0000     2.0000 </r>
       <r>   -27.4917     0.0000     2.0000 </r>
       <r>   -27.3854     0.0000     2.0000 </r>
       <r>   -27.2792     0.0000     2.0000 </r>
       <r>   -27.1729     0.0000     2.0000 </r>
       <r>   -27.0667     0.0000     2.0000 </r>
       <r>   -26.9604     0.0000     2.0000 </r>
       <r>   -26.8541     0.0000     2.0000 </r>
       <r>   -26.7479     0.0000     2.0000 </r>
       <r>   -26.6416     0.0000     2.0000 </r>
       <r>   -26.5354     0.0000     2.0000 </r>
       <r>   -26.4291     0.0000     2.0000 </r>
       <r>   -26.3229     0.0000     2.0000 </r>
       <r>   -26.2166     0.0000     2.0000 </r>
       <r>   -26.1104     0.0000     2.0000 </r>
       <r>   -26.0041     0.0000     2.0000 </r>
       <r>   -25.8979     0.0000     2.0000 </r>
       <r>   -25.7916     0.0000     2.0000 </r>
       <r>   -25.6854     0.0000     2.0000 </r>
       <r>   -25.5791     0.0000     2.0000 </r>
       <r>   -25.4729     0.0000     2.0000 </r>
       <r>   -25.3666     0.0000     2.0000 </r>
       <r>   -25.2604     0.0000     2.0000 </r>
       <r>   -25.1541     0.0000     2.0000 </r>
       <r>   -25.0479     0.0000     2.0000 </r>
       <r>   -24.9416     0.0000     2.0000 </r>
       <r>   -24.8354     0.0000     2.0000 </r>
       <r>   -24.7291     0.0000     2.0000 </r>
       <r>   -24.6229     0.0000     2.0000 </r>
       <r>   -24.5166     0.0000     2.0000 </r>
       <r>   -24.4103     0.0000     2.0000 </r>
       <r>   -24.3041     0.0000     2.0000 </r>
       <r>   -24.1978     0.0000     2.0000 </r>
       <r>   -24.0916     0.0000     2.0000 </r>
       <r>   -23.9853     0.0000     2.0000 </r>
       <r>   -23.8791     0.0000     2.0000 </r>
       <r>   -23.7728     0.0000     2.0000 </r>
       <r>   -23.6666     0.0000     2.0000 </r>
       <r>   -23.5603     0.0000     2.0000 </r>
       <r>   -23.4541     0.0000     2.0000 </r>
       <r>   -23.3478     0.0000     2.0000 </r>
       <r>   -23.2416     0.0000     2.0000 </r>
       <r>   -23.1353     0.0000     2.0000 </r>
       <r>   -23.0291     0.0000     2.0000 </r>
       <r>   -22.9228     0.0000     2.0000 </r>
       <r>   -22.8166     0.0000     2.0000 </r>
       <r>   -22.7103     0.0000     2.0000 </r>
       <r>   -22.6041     0.0000     2.0000 </r>
       <r>   -22.4978     0.0000     2.0000 </r>
       <r>   -22.3916     0.0000     2.0000 </r>
       <r>   -22.2853     0.0000     2.0000 </r>
       <r>   -22.1791     0.0000     2.0000 </r>
       <r>   -22.0728     0.0000     2.0000 </r>
       <r>   -21.9665     0.0000     2.0000 </r>
       <r>   -21.8603     0.0000     2.0000 </r>
       <r>   -21.7540     0.0000     2.0000 </r>
       <r>   -21.6478     0.0000     2.0000 </r>
       <r>   -21.5415     0.0000     2.0000 </r>
       <r>   -21.4353     0.0000     2.0000 </r>
       <r>   -21.3290     0.0000     2.0000 </r>
       <r>   -21.2228     0.0000     2.0000 </r>
       <r>   -21.1165     0.0000     2.0000 </r>
       <r>   -21.0103     0.0000     2.0000 </r>
       <r>   -20.9040     0.0000     2.0000 </r>
       <r>   -20.7978     0.0000     2.0000 </r>
       <r>   -20.6915     0.0000     2.0000 </r>
       <r>   -20.5853     0.0000     2.0000 </r>
       <r>   -20.4790     0.0000     2.0000 </r>
       <r>   -20.3728     0.0000     2.0000 </r>
       <r>   -20.2665     0.0000     2.0000 </r>
       <r>   -20.1603     0.0000     2.0000 </r>
       <r>   -20.0540     0.0000     2.0000 </r>
       <r>   -19.9478     0.0000     2.0000 </r>
       <r>   -19.8415     0.0000     2.0000 </r>
       <r>   -19.7353     0.0000     2.0000 </r>
       <r>   -19.6290     0.0000     2.0000 </r>
       <r>   -19.5227     0.0000     2.0000 </r>
       <r>   -19.4165     0.0000     2.0000 </r>
       <r>   -19.3102     0.0000     2.0000 </r>
       <r>   -19.2040     0.0000     2.0000 </r>
       <r>   -19.0977     0.0000     2.0000 </r>
       <r>   -18.9915     0.0000     2.0000 </r>
       <r>   -18.8852     0.0000     2.0000 </r>
       <r>   -18.7790     0.0000     2.0000 </r>
       <r>   -18.6727     0.0000     2.0000 </r>
       <r>   -18.5665     0.0000     2.0000 </r>
       <r>   -18.4602     0.0000     2.0000 </r>
       <r>   -18.3540     0.0000     2.0000 </r>
       <r>   -18.2477     0.0000     2.0000 </r>
       <r>   -18.1415     0.0000     2.0000 </r>
       <r>   -18.0352     0.0000     2.0000 </r>
       <r>   -17.9290     0.0000     2.0000 </r>
       <r>   -17.8227     0.0000     2.0000 </r>
       <r>   -17.7165     0.0000     2.0000 </r>
       <r>   -17.6102     0.0000     2.0000 </r>
       <r>   -17.5040     0.0000     2.0000 </r>
       <r>   -17.3977     0.0000     2.0000 </r>
       <r>   -17.2915     0.0000     2.0000 </r>
       <r>   -17.1852     0.0000     2.0000 </r>
       <r>   -17.0789     0.0000     2.0000 </r>
       <r>   -16.9727     0.0000     2.0000 </r>
       <r>   -16.8664     0.0000     2.0000 </r>
       <r>   -16.7602     0.0000     2.0000 </r>
       <r>   -16.6539     0.0000     2.0000 </r>
       <r>   -16.5477     0.0000     2.0000 </r>
       <r>   -16.4414     0.0000     2.0000 </r>
       <r>   -16.3352     0.0000     2.0000 </r>
       <r>   -16.2289     0.0000     2.0000 </r>
       <r>   -16.1227     0.0000     2.0000 </r>
       <r>   -16.0164     0.0000     2.0000 </r>
       <r>   -15.9102     0.0000     2.0000 </r>
       <r>   -15.8039     0.0000     2.0000 </r>
       <r>   -15.6977     0.0000     2.0000 </r>
       <r>   -15.5914     0.0000     2.0000 </r>
       <r>   -15.4852     0.0000     2.0000 </r>
       <r>   -15.3789     0.0000     2.0000 </r>
       <r>   -15.2727     0.0000     2.0000 </r>
       <r>   -15.1664     0.0000     2.0000 </r>
       <r>   -15.0602     0.0000     2.0000 </r>
       <r>   -14.9539     0.0000     2.0000 </r>
       <r>   -14.8476     0.0000     2.0000 </r>
       <r>   -14.7414     0.0000     2.0000 </r>
       <r>   -14.6351     0.0000     2.0000 </r>
       <r>   -14.5289     0.0000     2.0000 </r>
       <r>   -14.4226     0.0002     2.0000 </r>
       <r>   -14.3164     0.0040     2.0004 </r>
       <r>   -14.2101     0.0315     2.0038 </r>
       <r>   -14.1039     0.0569     2.0098 </r>
       <r>   -13.9976    -0.3451     1.9732 </r>
       <r>   -13.8914    -0.7157     1.8971 </r>
       <r>   -13.7851     3.2664     2.2442 </r>
       <r>   -13.6789     9.6081     3.2651 </r>
       <r>   -13.5726     7.0791     4.0172 </r>
       <r>   -13.4664     0.5670     4.0775 </r>
       <r>   -13.3601    -0.7423     3.9986 </r>
       <r>   -13.2539    -0.0594     3.9923 </r>
       <r>   -13.1476     0.0582     3.9985 </r>
       <r>   -13.0414     0.0132     3.9999 </r>
       <r>   -12.9351     0.0011     4.0000 </r>
       <r>   -12.8289     0.0002     4.0000 </r>
       <r>   -12.7226     0.0034     4.0004 </r>
       <r>   -12.6164     0.0286     4.0034 </r>
       <r>   -12.5101     0.0606     4.0099 </r>
       <r>   -12.4038    -0.3000     3.9780 </r>
       <r>   -12.2976    -0.7586     3.8974 </r>
       <r>   -12.1913     2.8967     4.2052 </r>
       <r>   -12.0851     9.4497     5.2092 </r>
       <r>   -11.9788     7.0558     5.9589 </r>
       <r>   -11.8726     0.2425     5.9847 </r>
       <r>   -11.7663     3.2593     6.3310 </r>
       <r>   -11.6601     9.7909     7.3713 </r>
       <r>   -11.5538     6.3696     8.0481 </r>
       <r>   -11.4476     0.1745     8.0666 </r>
       <r>   -11.3413    -0.6713     7.9953 </r>
       <r>   -11.2351    -0.0199     7.9932 </r>
       <r>   -11.1288     0.0572     7.9992 </r>
       <r>   -11.0226     0.0417     8.0037 </r>
       <r>   -10.9163     0.0581     8.0098 </r>
       <r>   -10.8101    -0.3415     7.9736 </r>
       <r>   -10.7038    -0.7202     7.8970 </r>
       <r>   -10.5976     3.2334     8.2406 </r>
       <r>   -10.4913     9.5932     9.2599 </r>
       <r>   -10.3851     7.1122    10.0156 </r>
       <r>   -10.2788     0.5869    10.0779 </r>
       <r>   -10.1726    -0.7450     9.9988 </r>
       <r>   -10.0663    -0.0614     9.9923 </r>
       <r>    -9.9600     0.0584     9.9985 </r>
       <r>    -9.8538     0.0133     9.9999 </r>
       <r>    -9.7475     0.0011    10.0000 </r>
       <r>    -9.6413     0.0000    10.0000 </r>
       <r>    -9.5350     0.0000    10.0000 </r>
       <r>    -9.4288     0.0000    10.0000 </r>
       <r>    -9.3225     0.0000    10.0000 </r>
       <r>    -9.2163     0.0000    10.0000 </r>
       <r>    -9.1100     0.0000    10.0000 </r>
       <r>    -9.0038     0.0000    10.0000 </r>
       <r>    -8.8975     0.0000    10.0000 </r>
       <r>    -8.7913     0.0000    10.0000 </r>
       <r>    -8.6850     0.0000    10.0000 </r>
       <r>    -8.5788     0.0000    10.0000 </r>
       <r>    -8.4725     0.0000    10.0000 </r>
       <r>    -8.3663     0.0000    10.0000 </r>
       <r>    -8.2600     0.0000    10.0000 </r>
       <r>    -8.1538     0.0000    10.0000 </r>
       <r>    -8.0475     0.0000    10.0000 </r>
       <r>    -7.9413     0.0000    10.0000 </r>
       <r>    -7.8350     0.0000    10.0000 </r>
       <r>    -7.7288     0.0000    10.0000 </r>
       <r>    -7.6225     0.0001    10.0000 </r>
       <r>    -7.5162     0.0021    10.0002 </r>
       <r>    -7.4100     0.0209    10.0025 </r>
       <r>    -7.3037     0.0654    10.0094 </r>
       <r>    -7.1975    -0.1659     9.9918 </r>
       <r>    -7.0912    -0.7621     9.9108 </r>
       <r>    -6.9850     1.6825    10.0896 </r>
       <r>    -6.8787     7.8361    10.9222 </r>
       <r>    -6.7725     9.0799    11.8869 </r>
       <r>    -6.6662     8.7804    12.8199 </r>
       <r>    -6.5600     8.8478    13.7600 </r>
       <r>    -6.4537     2.0452    13.9773 </r>
       <r>    -6.3475    -0.7963    13.8927 </r>
       <r>    -6.2412    12.8702    15.2602 </r>
       <r>    -6.1350    31.6128    18.6191 </r>
       <r>    -6.0287    28.9860    21.6989 </r>
       <r>    -5.9225    21.6040    23.9944 </r>
       <r>    -5.8162    36.9480    27.9202 </r>
       <r>    -5.7100    71.2493    35.4906 </r>
       <r>    -5.6037   144.0425    50.7954 </r>
       <r>    -5.4975   250.9958    77.4643 </r>
       <r>    -5.3912   292.6062   108.5543 </r>
       <r>    -5.2850   244.7809   134.5628 </r>
       <r>    -5.1787   220.6200   158.0042 </r>
       <r>    -5.0724   274.4412   187.1642 </r>
       <r>    -4.9662   344.6367   223.7826 </r>
       <r>    -4.8599   337.9738   259.6930 </r>
       <r>    -4.7537   300.1079   291.5802 </r>
       <r>    -4.6474   348.2053   328.5777 </r>
       <r>    -4.5412   413.7253   372.5370 </r>
       <r>    -4.4349   415.2151   416.6545 </r>
       <r>    -4.3287   475.6592   467.1943 </r>
       <r>    -4.2224   546.9141   525.3052 </r>
       <r>    -4.1162   389.7913   566.7213 </r>
       <r>    -4.0099   122.1478   579.6998 </r>
       <r>    -3.9037    14.1220   581.2003 </r>
       <r>    -3.7974    23.0956   583.6543 </r>
       <r>    -3.6912    19.3418   585.7094 </r>
       <r>    -3.5849    14.5581   587.2562 </r>
       <r>    -3.4787    26.6068   590.0832 </r>
       <r>    -3.3724    21.5692   592.3750 </r>
       <r>    -3.2662     6.7464   593.0918 </r>
       <r>    -3.1599     7.8818   593.9293 </r>
       <r>    -3.0537    40.7562   598.2597 </r>
       <r>    -2.9474    62.6702   604.9186 </r>
       <r>    -2.8412    30.4659   608.1557 </r>
       <r>    -2.7349    -0.0736   608.1478 </r>
       <r>    -2.6286    10.5192   609.2655 </r>
       <r>    -2.5224    27.5219   612.1898 </r>
       <r>    -2.4161    22.2454   614.5534 </r>
       <r>    -2.3099    13.5020   615.9880 </r>
       <r>    -2.2036    18.0559   617.9065 </r>
       <r>    -2.0974    31.1740   621.2188 </r>
       <r>    -1.9911    39.5654   625.4227 </r>
       <r>    -1.8849    38.6618   629.5306 </r>
       <r>    -1.7786    31.9521   632.9256 </r>
       <r>    -1.6724    36.0123   636.7520 </r>
       <r>    -1.5661    40.5795   641.0637 </r>
       <r>    -1.4599    24.4080   643.6571 </r>
       <r>    -1.3536    18.2029   645.5912 </r>
       <r>    -1.2474    30.5961   648.8421 </r>
       <r>    -1.1411    23.8173   651.3727 </r>
       <r>    -1.0349    30.0208   654.5625 </r>
       <r>    -0.9286    65.6597   661.5390 </r>
       <r>    -0.8224    62.0228   668.1290 </r>
       <r>    -0.7161    27.4765   671.0485 </r>
       <r>    -0.6099     8.5624   671.9582 </r>
       <r>    -0.5036     1.1446   672.0799 </r>
       <r>    -0.3974    -0.7940   671.9955 </r>
       <r>    -0.2911    -0.1087   671.9839 </r>
       <r>    -0.1848     0.1129   671.9959 </r>
       <r>    -0.0786     0.0343   671.9996 </r>
       <r>     0.0277     0.0037   672.0000 </r>
       <r>     0.1339     0.0002   672.0000 </r>
       <r>     0.2402     0.0000   672.0000 </r>
       <r>     0.3464     0.0000   672.0000 </r>
       <r>     0.4527     0.0000   672.0000 </r>
       <r>     0.5589     0.0000   672.0000 </r>
       <r>     0.6652     0.0000   672.0000 </r>
       <r>     0.7714     0.0000   672.0000 </r>
       <r>     0.8777     0.0000   672.0000 </r>
       <r>     0.9839     0.0000   672.0000 </r>
       <r>     1.0902     0.0000   672.0000 </r>
       <r>     1.1964     0.0000   672.0000 </r>
       <r>     1.3027     0.0000   672.0000 </r>
      </set>
     </set>
    </array>
   </total>
  </dos>
 </calculation>
 <structure name="finalpos" >
  <crystal>
   <varray name="basis" >
    <v>      30.00000000       0.00000000       0.00000000 </v>
    <v>       0.00000000      30.00000000       0.00000000 </v>
    <v>       0.00000000       0.00000000      30.00000000 </v>
   </varray>
   <i name="volume">  27000.00000000 </i>
   <varray name="rec_basis" >
    <v>       0.03333333       0.00000000       0.00000000 </v>
    <v>       0.00000000       0.03333333       0.00000000 </v>
    <v>       0.00000000       0.00000000       0.03333333 </v>
   </varray>
  </crystal>
  <varray name="positions" >
   <v>       0.44576020       0.32826710       0.41691983 </v>
   <v>       0.67173288       0.55423978       0.41691983 </v>
   <v>       0.55423980       0.32826710       0.41691983 </v>
   <v>       0.32826712       0.55423978       0.41691983 </v>
   <v>       0.50000000       0.38250690       0.34021317 </v>
   <v>       0.50000000       0.38250690       0.65978680 </v>
   <v>       0.50000000       0.27609440       0.50000000 </v>
   <v>       0.27609443       0.49999998       0.50000000 </v>
   <v>       0.72390557       0.49999998       0.50000000 </v>
   <v>       0.50000000       0.72390555       0.50000000 </v>
   <v>       0.61195280       0.38804720       0.34167483 </v>
   <v>       0.61195280       0.38804720       0.65832513 </v>
   <v>       0.38804722       0.61195278       0.34167483 </v>
   <v>       0.38804722       0.61195278       0.65832513 </v>
   <v>       0.38804720       0.38804720       0.34167483 </v>
   <v>       0.38804720       0.38804720       0.65832513 </v>
   <v>       0.61195278       0.61195278       0.34167483 </v>
   <v>       0.61195278       0.61195278       0.65832513 </v>
   <v>       0.44576020       0.32826710       0.58308023 </v>
   <v>       0.67173288       0.55423978       0.58308023 </v>
   <v>       0.55791699       0.44208301       0.41809300 </v>
   <v>       0.32826705       0.44576024       0.41691983 </v>
   <v>       0.55423973       0.67173293       0.41691983 </v>
   <v>       0.55423980       0.32826710       0.58308023 </v>
   <v>       0.32826712       0.55423978       0.58308023 </v>
   <v>       0.67173295       0.44576024       0.41691983 </v>
   <v>       0.44576027       0.67173293       0.41691983 </v>
   <v>       0.44208301       0.44208301       0.41809300 </v>
   <v>       0.50000000       0.38416601       0.50000000 </v>
   <v>       0.61749315       0.50000005       0.34021317 </v>
   <v>       0.61749315       0.50000005       0.65978680 </v>
   <v>       0.38250685       0.50000005       0.34021317 </v>
   <v>       0.38250685       0.50000005       0.65978680 </v>
   <v>       0.38317830       0.38317830       0.50000000 </v>
   <v>       0.61682172       0.61682172       0.50000000 </v>
   <v>       0.61682170       0.38317830       0.50000000 </v>
   <v>       0.38317828       0.61682172       0.50000000 </v>
   <v>       0.50000000       0.50000000       0.33478917 </v>
   <v>       0.50000000       0.50000000       0.66521087 </v>
   <v>       0.32826705       0.44576024       0.58308023 </v>
   <v>       0.55423973       0.67173293       0.58308023 </v>
   <v>       0.55791699       0.44208301       0.58190703 </v>
   <v>       0.44208298       0.55791702       0.41809300 </v>
   <v>       0.44208301       0.44208301       0.58190703 </v>
   <v>       0.67173295       0.44576024       0.58308023 </v>
   <v>       0.44576027       0.67173293       0.58308023 </v>
   <v>       0.55791702       0.55791702       0.41809300 </v>
   <v>       0.38416599       0.50000002       0.50000000 </v>
   <v>       0.61583401       0.50000002       0.50000000 </v>
   <v>       0.50000000       0.61749319       0.34021317 </v>
   <v>       0.50000000       0.61749319       0.65978680 </v>
   <v>       0.50000000       0.50000000       0.50000000 </v>
   <v>       0.44208298       0.55791702       0.58190703 </v>
   <v>       0.55791702       0.55791702       0.58190703 </v>
   <v>       0.50000000       0.61583404       0.50000000 </v>
   <v>       0.64280113       0.55937413       0.64643637 </v>
   <v>       0.66801140       0.56985613       0.67228843 </v>
  </varray>
  <varray name="selective"  type="logical" >
   <v type="logical" >  F  F  F </v>
   <v type="logical" >  F  F  F </v>
   <v type="logical" >  F  F  F </v>
   <v type="logical" >  F  F  F </v>
   <v type="logical" >  F  F  F </v>
   <v type="logical" >  F  F  F </v>
   <v type="logical" >  F  F  F </v>
   <v type="logical" >  F  F  F </v>
   <v type="logical" >  F  F  F </v>
   <v type="logical" >  F  F  F </v>
   <v type="logical" >  F  F  F </v>
   <v type="logical" >  F  F  F </v>
   <v type="logical" >  F  F  F </v>
   <v type="logical" >  F  F  F </v>
   <v type="logical" >  F  F  F </v>
   <v type="logical" >  F  F  F </v>
   <v type="logical" >  F  F  F </v>
   <v type="logical" >  F  F  F </v>
   <v type="logical" >  F  F  F </v>
   <v type="logical" >  F  F  F </v>
   <v type="logical" >  F  F  F </v>
   <v type="logical" >  F  F  F </v>
   <v type="logical" >  F  F  F </v>
   <v type="logical" >  F  F  F </v>
   <v type="logical" >  F  F  F </v>
   <v type="logical" >  F  F  F </v>
   <v type="logical" >  F  F  F </v>
   <v type="logical" >  F  F  F </v>
   <v type="logical" >  F  F  F </v>
   <v type="logical" >  F  F  F </v>
   <v type="logical" >  F  F  F </v>
   <v type="logical" >  F  F  F </v>
   <v type="logical" >  F  F  F </v>
   <v type="logical" >  F  F  F </v>
   <v type="logical" >  F  F  F </v>
   <v type="logical" >  F  F  F </v>
   <v type="logical" >  F  F  F </v>
   <v type="logical" >  F  F  F </v>
   <v type="logical" >  F  F  F </v>
   <v type="logical" >  F  F  F </v>
   <v type="logical" >  F  F  F </v>
   <v type="logical" >  F  F  F </v>
   <v type="logical" >  F  F  F </v>
   <v type="logical" >  F  F  F </v>
   <v type="logical" >  F  F  F </v>
   <v type="logical" >  F  F  F </v>
   <v type="logical" >  F  F  F </v>
   <v type="logical" >  F  F  F </v>
   <v type="logical" >  F  F  F </v>
   <v type="logical" >  F  F  F </v>
   <v type="logical" >  F  F  F </v>
   <v type="logical" >  F  F  F </v>
   <v type="logical" >  F  F  F </v>
   <v type="logical" >  F  F  F </v>
   <v type="logical" >  F  F  F </v>
   <v type="logical" >  F  F  F </v>
   <v type="logical" >  F  F  F </v>
  </varray>
  <nose>
   <v>      -3.00000000       0.00000000       0.00010000       0.00010000 </v>
  </nose>
 </structure>
</modeling>
