       N       E                     dE             d eps       ncg     rms          rms(c)
DAV:   1     0.439858725331E+04    0.43986E+04   -0.10052E+05   688   0.815E+02
DAV:   2     0.202666813467E+04   -0.23719E+04   -0.21304E+04  1208   0.106E+02
DAV:   3     0.242424313688E+03   -0.17842E+04   -0.16763E+04   984   0.923E+01
DAV:   4    -0.132633130381E+03   -0.37506E+03   -0.31629E+03   824   0.441E+01
DAV:   5    -0.179703202573E+03   -0.47070E+02   -0.38903E+02  1048   0.149E+01    0.189E+01
RMM:   6    -0.179854399523E+03   -0.15120E+00   -0.69697E+01   730   0.945E+00    0.249E+01
RMM:   7    -0.182654045584E+03   -0.27996E+01   -0.24657E+01   846   0.505E+00    0.237E+01
RMM:   8    -0.189026532282E+03   -0.63725E+01   -0.10985E+01   759   0.431E+00    0.345E+01
RMM:   9    -0.186564472866E+03    0.24621E+01   -0.75364E+00   760   0.364E+00    0.290E+01
RMM:  10    -0.181952956050E+03    0.46115E+01   -0.57692E+00   730   0.352E+00    0.245E+01
RMM:  11    -0.178963526627E+03    0.29894E+01   -0.37839E+00   718   0.287E+00    0.202E+01
RMM:  12    -0.177868267368E+03    0.10953E+01   -0.22359E+00   723   0.219E+00    0.183E+01
RMM:  13    -0.178461751394E+03   -0.59348E+00   -0.19673E+00   725   0.204E+00    0.284E+01
RMM:  14    -0.180250101950E+03   -0.17884E+01   -0.15697E+00   717   0.181E+00    0.393E+01
RMM:  15    -0.178478500417E+03    0.17716E+01   -0.20866E+00   711   0.205E+00    0.295E+01
RMM:  16    -0.176743023301E+03    0.17355E+01   -0.95341E-01   726   0.139E+00    0.171E+01
RMM:  17    -0.176157631871E+03    0.58539E+00   -0.11100E+00   699   0.153E+00    0.163E+01
RMM:  18    -0.175868188405E+03    0.28944E+00   -0.63921E-01   706   0.115E+00    0.138E+01
RMM:  19    -0.175553068893E+03    0.31512E+00   -0.64226E-01   696   0.117E+00    0.110E+01
RMM:  20    -0.175498396827E+03    0.54672E-01   -0.43402E-01   710   0.980E-01    0.112E+01
RMM:  21    -0.175300741359E+03    0.19766E+00   -0.28166E-01   707   0.809E-01    0.100E+01
RMM:  22    -0.175051175204E+03    0.24957E+00   -0.22767E-01   701   0.728E-01    0.734E+00
RMM:  23    -0.174927426209E+03    0.12375E+00   -0.21645E-01   699   0.702E-01    0.760E+00
RMM:  24    -0.174760445833E+03    0.16698E+00   -0.17693E-01   695   0.647E-01    0.486E+00
RMM:  25    -0.174739702884E+03    0.20743E-01   -0.17570E-01   695   0.624E-01    0.458E+00
RMM:  26    -0.174685871561E+03    0.53831E-01   -0.89255E-02   697   0.471E-01    0.432E+00
RMM:  27    -0.174648270585E+03    0.37601E-01   -0.85549E-02   698   0.458E-01    0.378E+00
RMM:  28    -0.174654175556E+03   -0.59050E-02   -0.79446E-02   696   0.441E-01    0.390E+00
RMM:  29    -0.174614403818E+03    0.39772E-01   -0.67012E-02   691   0.411E-01    0.312E+00
RMM:  30    -0.174578172675E+03    0.36231E-01   -0.44807E-02   692   0.339E-01    0.235E+00
RMM:  31    -0.174567720620E+03    0.10452E-01   -0.19064E-02   693   0.231E-01    0.188E+00
RMM:  32    -0.174552050259E+03    0.15670E-01   -0.10729E-02   688   0.175E-01    0.113E+00
RMM:  33    -0.174550719482E+03    0.13308E-02   -0.67350E-03   691   0.137E-01    0.113E+00
RMM:  34    -0.174548209564E+03    0.25099E-02   -0.62824E-03   691   0.130E-01    0.106E+00
RMM:  35    -0.174543913974E+03    0.42956E-02   -0.42723E-03   688   0.114E-01    0.687E-01
RMM:  36    -0.174542606600E+03    0.13074E-02   -0.27944E-03   692   0.872E-02    0.511E-01
RMM:  37    -0.174543703718E+03   -0.10971E-02   -0.21836E-03   689   0.722E-02    0.615E-01
RMM:  38    -0.174543776779E+03   -0.73061E-04   -0.13351E-03   687   0.596E-02    0.359E-01
RMM:  39    -0.174545677021E+03   -0.19002E-02   -0.10986E-03   686   0.528E-02    0.360E-01
RMM:  40    -0.174547667375E+03   -0.19904E-02   -0.82686E-04   681   0.475E-02    0.325E-01
RMM:  41    -0.174550423862E+03   -0.27565E-02   -0.75901E-04   675   0.416E-02    0.270E-01
RMM:  42    -0.174552988938E+03   -0.25651E-02   -0.61760E-04   610   0.370E-02    0.274E-01
RMM:  43    -0.174555246736E+03   -0.22578E-02   -0.43763E-04   519   0.310E-02    0.254E-01
RMM:  44    -0.174558523075E+03   -0.32763E-02   -0.63420E-04   591   0.339E-02    0.158E-01
RMM:  45    -0.174559972127E+03   -0.14491E-02   -0.28280E-04   435   0.239E-02    0.125E-01
RMM:  46    -0.174561828417E+03   -0.18563E-02   -0.23875E-04   420   0.209E-02    0.143E-01
RMM:  47    -0.174562953656E+03   -0.11252E-02   -0.17363E-04   408   0.180E-02    0.707E-02
RMM:  48    -0.174564415893E+03   -0.14622E-02   -0.17220E-04   415   0.163E-02    0.104E-01
RMM:  49    -0.174565752066E+03   -0.13362E-02   -0.13690E-04   406   0.147E-02    0.814E-02
RMM:  50    -0.174566426204E+03   -0.67414E-03   -0.82917E-05   409   0.113E-02    0.561E-02
RMM:  51    -0.174567599975E+03   -0.11738E-02   -0.76926E-05   408   0.105E-02    0.505E-02
RMM:  52    -0.174568237232E+03   -0.63726E-03   -0.52205E-05   404   0.859E-03    0.353E-02
RMM:  53    -0.174568848615E+03   -0.61138E-03   -0.35103E-05   398   0.675E-03    0.351E-02
RMM:  54    -0.174569274297E+03   -0.42568E-03   -0.22035E-05   364   0.570E-03    0.172E-02
RMM:  55    -0.174569565704E+03   -0.29141E-03   -0.96410E-06   230   0.444E-03    0.227E-02
RMM:  56    -0.174570040942E+03   -0.47524E-03   -0.11370E-05   248   0.451E-03    0.139E-02
RMM:  57    -0.174570163807E+03   -0.12287E-03   -0.20992E-06   127   0.372E-03    0.963E-03
RMM:  58    -0.174570590476E+03   -0.42667E-03   -0.15025E-05   294   0.476E-03    0.128E-02
RMM:  59    -0.174570803982E+03   -0.21351E-03   -0.70386E-06   173   0.371E-03    0.744E-03
RMM:  60    -0.174571085804E+03   -0.28182E-03   -0.14774E-05   214   0.431E-03    0.878E-03
RMM:  61    -0.174571162857E+03   -0.77053E-04   -0.11724E-06   105   0.368E-03
   1 F= -.17457116E+03 E0= -.17455477E+03  d E =-.655680E-01
