<?xml version="1.0" encoding="ISO-8859-1"?>
<modeling>
 <generator>
  <i name="program" type="string">vasp </i>
  <i name="version" type="string">5.4.4.18Apr17-6-g9f103f2a35  </i>
  <i name="subversion" type="string">(build Sep 03 2018 23:53:05) complex            parallel </i>
  <i name="platform" type="string">LinuxIFC </i>
  <i name="date" type="string">2021 11 27 </i>
  <i name="time" type="string">04:32:16 </i>
 </generator>
 <incar>
  <i type="string" name="SYSTEM"> 6_Pd100_top_free_z(O)</i>
  <i type="int" name="ISTART">     0</i>
  <i type="string" name="PREC">normal   			! encut=max(enmax), ngx,y,z</i>
  <i type="string" name="ALGO"> Fast     			! Mix RMM-DIIS and Dav</i>
  <i type="logical" name="ADDGRID"> F  </i>
  <i type="int" name="ISPIN">     1</i>
  <i type="int" name="ICHARG">     2</i>
  <i type="int" name="NELM">   100</i>
  <i type="int" name="NELMIN">     6</i>
  <i type="int" name="IBRION">     2</i>
  <i name="EDIFF">      0.00010000</i>
  <i name="EDIFFG">     -0.05000000</i>
  <i type="int" name="NSW">     0</i>
  <i type="int" name="ISIF">     2</i>
  <i type="int" name="ISYM">     2</i>
  <i name="ENCUT">    400.00000000</i>
  <i type="string" name="LREAL"> Auto     			! Auto or A projection done</i>
  <i type="int" name="ISMEAR">     2</i>
  <i name="SIGMA">      0.20000000</i>
  <i type="logical" name="LWAVE"> F  </i>
  <i type="logical" name="LCHARG"> F  </i>
  <v type="int" name="KPOINT_BSE">    -1     0     0     0</v>
  <i type="int" name="MAXMEM"> 10000</i>
  <i type="int" name="NELM">   100</i>
  <i type="string" name="GGA"> RP         			! Revised PBE</i>
 </incar>
 <structure name="primitive_cell" >
  <crystal>
   <varray name="basis" >
    <v>      30.00000000       0.00000000       0.00000000 </v>
    <v>       0.00000000      30.00000000       0.00000000 </v>
    <v>       0.00000000       0.00000000      30.00000000 </v>
   </varray>
   <i name="volume">  27000.00000000 </i>
   <varray name="rec_basis" >
    <v>       0.03333333       0.00000000       0.00000000 </v>
    <v>       0.00000000       0.03333333       0.00000000 </v>
    <v>       0.00000000       0.00000000       0.03333333 </v>
   </varray>
  </crystal>
  <varray name="positions" >
   <v>       0.44576020       0.32826710       0.41691983 </v>
   <v>      -0.44576020       0.32826710       0.41691983 </v>
   <v>      -0.50000000       0.38250690       0.34021317 </v>
   <v>      -0.50000000       0.27609440      -0.50000000 </v>
   <v>       0.38804720       0.38804720       0.34167483 </v>
   <v>      -0.50000000       0.38416601      -0.50000000 </v>
   <v>       0.44208300       0.44208300       0.41809300 </v>
   <v>       0.38317830       0.38317830      -0.50000000 </v>
   <v>      -0.44208300       0.44208300       0.41809300 </v>
   <v>       0.44576020       0.32826710      -0.41691977 </v>
   <v>       0.32826705       0.44576024       0.41691983 </v>
   <v>      -0.38804720       0.38804720       0.34167483 </v>
   <v>      -0.38317830       0.38317830      -0.50000000 </v>
   <v>      -0.50000000      -0.50000000       0.33478917 </v>
   <v>      -0.50000000      -0.50000000      -0.50000000 </v>
   <v>      -0.44576020       0.32826710      -0.41691977 </v>
   <v>       0.38250685      -0.49999995       0.34021317 </v>
   <v>       0.44208300       0.44208300      -0.41809297 </v>
   <v>       0.38416599      -0.49999998      -0.50000000 </v>
   <v>      -0.44208300       0.44208300      -0.41809297 </v>
   <v>       0.44208298      -0.44208298       0.41809300 </v>
   <v>       0.32826705       0.44576024      -0.41691977 </v>
   <v>      -0.50000000       0.38250690      -0.34021320 </v>
   <v>       0.32826712      -0.44576022       0.41691983 </v>
   <v>      -0.38250685      -0.49999995       0.34021317 </v>
   <v>      -0.32826705       0.44576024       0.41691983 </v>
   <v>       0.27609443       0.49999998      -0.50000000 </v>
   <v>       0.38804720       0.38804720      -0.34167487 </v>
   <v>      -0.38416599      -0.49999998      -0.50000000 </v>
   <v>      -0.44208298      -0.44208298       0.41809300 </v>
   <v>       0.44208298      -0.44208298      -0.41809297 </v>
   <v>      -0.38804720       0.38804720      -0.34167487 </v>
   <v>       0.38804722      -0.38804722       0.34167483 </v>
   <v>       0.38250685      -0.49999995      -0.34021320 </v>
   <v>       0.32826712      -0.44576022      -0.41691977 </v>
   <v>      -0.32826705       0.44576024      -0.41691977 </v>
   <v>       0.50000000      -0.38250681       0.34021317 </v>
   <v>      -0.50000000      -0.38416596      -0.50000000 </v>
   <v>      -0.44208298      -0.44208298      -0.41809297 </v>
   <v>      -0.50000000      -0.50000000      -0.33478913 </v>
   <v>       0.38317828      -0.38317828      -0.50000000 </v>
   <v>      -0.32826712      -0.44576022       0.41691983 </v>
   <v>      -0.27609443       0.49999998      -0.50000000 </v>
   <v>      -0.38804722      -0.38804722       0.34167483 </v>
   <v>      -0.38250685      -0.49999995      -0.34021320 </v>
   <v>       0.44576027      -0.32826707       0.41691983 </v>
   <v>       0.44859533      -0.33888237      -0.49270177 </v>
   <v>      -0.38317828      -0.38317828      -0.50000000 </v>
   <v>      -0.32826712      -0.44576022      -0.41691977 </v>
   <v>      -0.44576027      -0.32826707       0.41691983 </v>
   <v>       0.38804722      -0.38804722      -0.34167487 </v>
   <v>       0.43717723      -0.30309467      -0.49108070 </v>
   <v>      -0.50000000      -0.38250681      -0.34021320 </v>
   <v>       0.44576027      -0.32826707      -0.41691977 </v>
   <v>      -0.44576027      -0.32826707      -0.41691977 </v>
   <v>      -0.50000000      -0.27609445       0.50000000 </v>
   <v>      -0.38804722      -0.38804722      -0.34167487 </v>
  </varray>
 </structure>
 <varray name="primitive_index" >
  <v type="int" >        1 </v>
  <v type="int" >        3 </v>
  <v type="int" >        5 </v>
  <v type="int" >        7 </v>
  <v type="int" >       15 </v>
  <v type="int" >       29 </v>
  <v type="int" >       28 </v>
  <v type="int" >       34 </v>
  <v type="int" >       21 </v>
  <v type="int" >       19 </v>
  <v type="int" >       22 </v>
  <v type="int" >       11 </v>
  <v type="int" >       36 </v>
  <v type="int" >       38 </v>
  <v type="int" >       52 </v>
  <v type="int" >       24 </v>
  <v type="int" >       32 </v>
  <v type="int" >       44 </v>
  <v type="int" >       48 </v>
  <v type="int" >       42 </v>
  <v type="int" >       43 </v>
  <v type="int" >       40 </v>
  <v type="int" >        6 </v>
  <v type="int" >        4 </v>
  <v type="int" >       30 </v>
  <v type="int" >       26 </v>
  <v type="int" >        8 </v>
  <v type="int" >       16 </v>
  <v type="int" >       49 </v>
  <v type="int" >       47 </v>
  <v type="int" >       53 </v>
  <v type="int" >       12 </v>
  <v type="int" >       13 </v>
  <v type="int" >       33 </v>
  <v type="int" >       25 </v>
  <v type="int" >       45 </v>
  <v type="int" >       50 </v>
  <v type="int" >       55 </v>
  <v type="int" >       54 </v>
  <v type="int" >       39 </v>
  <v type="int" >       37 </v>
  <v type="int" >        2 </v>
  <v type="int" >        9 </v>
  <v type="int" >       17 </v>
  <v type="int" >       31 </v>
  <v type="int" >       27 </v>
  <v type="int" >       56 </v>
  <v type="int" >       35 </v>
  <v type="int" >       20 </v>
  <v type="int" >       23 </v>
  <v type="int" >       14 </v>
  <v type="int" >       57 </v>
  <v type="int" >       51 </v>
  <v type="int" >       46 </v>
  <v type="int" >       41 </v>
  <v type="int" >       10 </v>
  <v type="int" >       18 </v>
 </varray>
 <kpoints>
  <generation param="Monkhorst-Pack">
   <v type="int" name="divisions">       1        1        1 </v>
   <v name="usershift">      0.00000000       0.00000000       0.00000000 </v>
   <v name="genvec1">      1.00000000       0.00000000       0.00000000 </v>
   <v name="genvec2">      0.00000000       1.00000000       0.00000000 </v>
   <v name="genvec3">      0.00000000       0.00000000       1.00000000 </v>
   <v name="shift">      0.00000000       0.00000000       0.00000000 </v>
  </generation>
  <varray name="kpointlist" >
   <v>       0.00000000       0.00000000       0.00000000 </v>
  </varray>
  <varray name="weights" >
   <v>       1.00000000 </v>
  </varray>
 </kpoints>
 <parameters>
  <separator name="general" >
   <i type="string" name="SYSTEM">6_Pd100_top_free_z(O)</i>
   <i type="logical" name="LCOMPAT"> F  </i>
  </separator>
  <separator name="electronic" >
   <i type="string" name="PREC">normal</i>
   <i name="ENMAX">    400.00000000</i>
   <i name="ENAUG">    644.87300000</i>
   <i name="EDIFF">      0.00010000</i>
   <i type="int" name="IALGO">    68</i>
   <i type="int" name="IWAVPR">    10</i>
   <i type="int" name="NBANDS">   336</i>
   <i name="NELECT">    560.00000000</i>
   <i type="int" name="TURBO">     0</i>
   <i type="int" name="IRESTART">     0</i>
   <i type="int" name="NREBOOT">     0</i>
   <i type="int" name="NMIN">     0</i>
   <i name="EREF">      0.00000000</i>
   <separator name="electronic smearing" >
    <i type="int" name="ISMEAR">     2</i>
    <i name="SIGMA">      0.20000000</i>
    <i name="KSPACING">      0.50000000</i>
    <i type="logical" name="KGAMMA"> T  </i>
   </separator>
   <separator name="electronic projectors" >
    <i type="logical" name="LREAL"> T  </i>
    <v name="ROPT">     -0.00050000     -0.00050000     -0.00050000</v>
    <i type="int" name="LMAXPAW">  -100</i>
    <i type="int" name="LMAXMIX">     2</i>
    <i type="logical" name="NLSPLINE"> F  </i>
   </separator>
   <separator name="electronic startup" >
    <i type="int" name="ISTART">     0</i>
    <i type="int" name="ICHARG">     2</i>
    <i type="int" name="INIWAV">     1</i>
   </separator>
   <separator name="electronic spin" >
    <i type="int" name="ISPIN">     1</i>
    <i type="logical" name="LNONCOLLINEAR"> F  </i>
    <v name="MAGMOM">      1.00000000      1.00000000      1.00000000      1.00000000      1.00000000      1.00000000      1.00000000      1.00000000      1.00000000      1.00000000      1.00000000      1.00000000      1.00000000      1.00000000      1.00000000      1.00000000      1.00000000      1.00000000      1.00000000      1.00000000
      1.00000000      1.00000000      1.00000000      1.00000000      1.00000000      1.00000000      1.00000000      1.00000000      1.00000000      1.00000000      1.00000000      1.00000000      1.00000000      1.00000000      1.00000000      1.00000000      1.00000000      1.00000000      1.00000000      1.00000000
      1.00000000      1.00000000      1.00000000      1.00000000      1.00000000      1.00000000      1.00000000      1.00000000      1.00000000      1.00000000      1.00000000      1.00000000      1.00000000      1.00000000      1.00000000      1.00000000      1.00000000</v>
    <i name="NUPDOWN">     -1.00000000</i>
    <i type="logical" name="LSORBIT"> F  </i>
    <v name="SAXIS">      0.00000000      0.00000000      1.00000000</v>
    <i type="logical" name="LSPIRAL"> F  </i>
    <v name="QSPIRAL">      0.00000000      0.00000000      0.00000000</v>
    <i type="logical" name="LZEROZ"> F  </i>
   </separator>
   <separator name="electronic exchange-correlation" >
    <i type="logical" name="LASPH"> F  </i>
    <i type="logical" name="LMETAGGA"> F  </i>
   </separator>
   <separator name="electronic convergence" >
    <i type="int" name="NELM">   100</i>
    <i type="int" name="NELMDL">    -5</i>
    <i type="int" name="NELMIN">     6</i>
    <i name="ENINI">    400.00000000</i>
    <separator name="electronic convergence detail" >
     <i type="logical" name="LDIAG"> T  </i>
     <i type="logical" name="LSUBROT"> F  </i>
     <i name="WEIMIN">      0.00000000</i>
     <i name="EBREAK">      0.00000007</i>
     <i name="DEPER">      0.30000000</i>
     <i type="int" name="NRMM">     4</i>
     <i name="TIME">      0.40000000</i>
    </separator>
   </separator>
   <separator name="electronic mixer" >
    <i name="AMIX">      0.40000000</i>
    <i name="BMIX">      1.00000000</i>
    <i name="AMIN">      0.10000000</i>
    <i name="AMIX_MAG">      1.60000000</i>
    <i name="BMIX_MAG">      1.00000000</i>
    <separator name="electronic mixer details" >
     <i type="int" name="IMIX">     4</i>
     <i type="logical" name="MIXFIRST"> F  </i>
     <i type="int" name="MAXMIX">   -45</i>
     <i name="WC">    100.00000000</i>
     <i type="int" name="INIMIX">     1</i>
     <i type="int" name="MIXPRE">     1</i>
     <i type="int" name="MREMOVE">     5</i>
    </separator>
   </separator>
   <separator name="electronic dipolcorrection" >
    <i type="logical" name="LDIPOL"> F  </i>
    <i type="logical" name="LMONO"> F  </i>
    <i type="int" name="IDIPOL">     0</i>
    <i name="EPSILON">      1.00000000</i>
    <v name="DIPOL">   -100.00000000   -100.00000000   -100.00000000</v>
    <i name="EFIELD">      0.00000000</i>
   </separator>
  </separator>
  <separator name="grids" >
   <i type="int" name="NGX">   150</i>
   <i type="int" name="NGY">   150</i>
   <i type="int" name="NGZ">   150</i>
   <i type="int" name="NGXF">   300</i>
   <i type="int" name="NGYF">   300</i>
   <i type="int" name="NGZF">   300</i>
   <i type="logical" name="ADDGRID"> F  </i>
  </separator>
  <separator name="ionic" >
   <i type="int" name="NSW">     0</i>
   <i type="int" name="IBRION">    -1</i>
   <i type="int" name="MDALGO">     0</i>
   <i type="int" name="ISIF">     2</i>
   <i name="PSTRESS">      0.00000000</i>
   <i name="EDIFFG">     -0.05000000</i>
   <i type="int" name="NFREE">     1</i>
   <i name="POTIM">      0.50000000</i>
   <i name="SMASS">     -3.00000000</i>
   <i name="SCALEE">      1.00000000</i>
  </separator>
  <separator name="ionic md" >
   <i name="TEBEG">      0.00010000</i>
   <i name="TEEND">      0.00010000</i>
   <i type="int" name="NBLOCK">     1</i>
   <i type="int" name="KBLOCK">     1</i>
   <i type="int" name="NPACO">   256</i>
   <i name="APACO">     16.00000000</i>
  </separator>
  <separator name="symmetry" >
   <i type="int" name="ISYM">     2</i>
   <i name="SYMPREC">      0.00001000</i>
  </separator>
  <separator name="dos" >
   <i type="int" name="LORBIT">     0</i>
   <v name="RWIGS">     -1.00000000     -1.00000000     -1.00000000</v>
   <i type="int" name="NEDOS">   301</i>
   <i name="EMIN">     10.00000000</i>
   <i name="EMAX">    -10.00000000</i>
   <i name="EFERMI">      0.00000000</i>
  </separator>
  <separator name="writing" >
   <i type="int" name="NWRITE">     2</i>
   <i type="logical" name="LWAVE"> F  </i>
   <i type="logical" name="LDOWNSAMPLE"> F  </i>
   <i type="logical" name="LCHARG"> F  </i>
   <i type="logical" name="LPARD"> F  </i>
   <i type="logical" name="LVTOT"> F  </i>
   <i type="logical" name="LVHAR"> F  </i>
   <i type="logical" name="LELF"> F  </i>
   <i type="logical" name="LOPTICS"> F  </i>
   <v name="STM">      0.00000000      0.00000000      0.00000000      0.00000000      0.00000000      0.00000000      0.00000000</v>
  </separator>
  <separator name="performance" >
   <i type="int" name="NPAR">     1</i>
   <i type="int" name="NSIM">     4</i>
   <i type="int" name="NBLK">    -1</i>
   <i type="logical" name="LPLANE"> T  </i>
   <i type="logical" name="LSCALAPACK"> T  </i>
   <i type="logical" name="LSCAAWARE"> F  </i>
   <i type="logical" name="LSCALU"> F  </i>
   <i type="logical" name="LASYNC"> F  </i>
   <i type="logical" name="LORBITALREAL"> F  </i>
  </separator>
  <separator name="miscellaneous" >
   <i type="int" name="IDIOT">     3</i>
   <i type="int" name="ISPECIAL">     0</i>
   <i type="logical" name="LMUSIC"> F  </i>
   <v name="POMASS">    106.42000000     12.01100000     16.00000000</v>
   <v name="DARWINR">      0.00000000      0.00000000      0.00000000</v>
   <v name="DARWINV">      1.00000000      1.00000000      1.00000000</v>
   <i type="logical" name="LCORR"> T  </i>
  </separator>
  <i type="logical" name="GGA_COMPAT"> T  </i>
  <i type="logical" name="LBERRY"> F  </i>
  <i type="int" name="ICORELEVEL">     0</i>
  <i type="logical" name="LDAU"> F  </i>
  <i type="int" name="I_CONSTRAINED_M">     0</i>
  <separator name="electronic exchange-correlation" >
   <i type="string" name="GGA">RP</i>
   <i type="int" name="VOSKOWN">     0</i>
   <i type="logical" name="LHFCALC"> F  </i>
   <i type="string" name="PRECFOCK"></i>
   <i type="logical" name="LSYMGRAD"> F  </i>
   <i type="logical" name="LHFONE"> F  </i>
   <i type="logical" name="LRHFCALC"> F  </i>
   <i type="logical" name="LTHOMAS"> F  </i>
   <i type="logical" name="LMODELHF"> F  </i>
   <i name="ENCUT4O">     -1.00000000</i>
   <i type="int" name="EXXOEP">     0</i>
   <i type="int" name="FOURORBIT">     0</i>
   <i name="AEXX">      0.00000000</i>
   <i name="HFALPHA">      0.00000000</i>
   <i name="MCALPHA">      0.00000000</i>
   <i name="ALDAX">      1.00000000</i>
   <i name="AGGAX">      1.00000000</i>
   <i name="ALDAC">      1.00000000</i>
   <i name="AGGAC">      1.00000000</i>
   <i type="int" name="NKREDX">     1</i>
   <i type="int" name="NKREDY">     1</i>
   <i type="int" name="NKREDZ">     1</i>
   <i type="logical" name="SHIFTRED"> F  </i>
   <i type="logical" name="ODDONLY"> F  </i>
   <i type="logical" name="EVENONLY"> F  </i>
   <i type="int" name="LMAXFOCK">     0</i>
   <i type="int" name="NMAXFOCKAE">     0</i>
   <i type="logical" name="LFOCKAEDFT"> F  </i>
   <i name="HFSCREEN">      0.00000000</i>
   <i name="HFSCREENC">      0.00000000</i>
   <i type="int" name="NBANDSGWLOW">     0</i>
  </separator>
  <separator name="vdW DFT" >
   <i type="logical" name="LUSE_VDW"> F  </i>
   <i name="Zab_VDW">     -0.84910000</i>
   <i name="PARAM1">      0.12340000</i>
   <i name="PARAM2">      1.00000000</i>
   <i name="PARAM3">      0.00000000</i>
  </separator>
  <separator name="model GW" >
   <i type="int" name="MODEL_GW">     0</i>
   <i name="MODEL_EPS0">    284.21052632</i>
   <i name="MODEL_ALPHA">      1.00000000</i>
  </separator>
  <separator name="linear response parameters" >
   <i type="logical" name="LEPSILON"> F  </i>
   <i type="logical" name="LRPA"> F  </i>
   <i type="logical" name="LNABLA"> F  </i>
   <i type="logical" name="LVEL"> F  </i>
   <i type="int" name="KINTER">     0</i>
   <i name="CSHIFT">      0.10000000</i>
   <i name="OMEGAMAX">     -1.00000000</i>
   <i name="DEG_THRESHOLD">      0.00200000</i>
   <i name="RTIME">     -0.10000000</i>
   <i name="WPLASMAI">      0.00000000</i>
   <v name="DFIELD">      0.00000000      0.00000000      0.00000000</v>
   <v name="WPLASMA">      0.00000000      0.00000000      0.00000000      0.00000000      0.00000000      0.00000000      0.00000000      0.00000000      0.00000000</v>
  </separator>
  <separator name="orbital magnetization" >
   <i type="logical" name="NUCIND"> F  </i>
   <v name="MAGPOS">      0.00000000      0.00000000      0.00000000</v>
   <i type="logical" name="LNICSALL"> T  </i>
   <i type="logical" name="ORBITALMAG"> F  </i>
   <i type="logical" name="LMAGBLOCH"> F  </i>
   <i type="logical" name="LCHIMAG"> F  </i>
   <i type="logical" name="LGAUGE"> T  </i>
   <i type="int" name="MAGATOM">     0</i>
   <v name="MAGDIPOL">      0.00000000      0.00000000      0.00000000</v>
   <v name="AVECCONST">      0.00000000      0.00000000      0.00000000</v>
  </separator>
  <separator name="response functions" >
   <i type="logical" name="LADDER"> F  </i>
   <i type="logical" name="LRPAFORCE"> F  </i>
   <i type="logical" name="LFXC"> F  </i>
   <i type="logical" name="LHARTREE"> T  </i>
   <i type="int" name="IBSE">     0</i>
   <v type="int" name="KPOINT">    -1     0     0     0</v>
   <i type="logical" name="LTCTE"> F  </i>
   <i type="logical" name="LTETE"> F  </i>
   <i type="logical" name="LTRIPLET"> F  </i>
   <i type="logical" name="LFXCEPS"> F  </i>
   <i type="logical" name="LFXHEG"> F  </i>
   <i type="int" name="NATURALO">     2</i>
   <i type="logical" name="L2ORDER"> F  </i>
   <i type="logical" name="LMP2LT"> F  </i>
   <i type="logical" name="LUSEW"> F  </i>
   <i name="ENCUTGW">     -2.00000000</i>
   <i name="ENCUTGWSOFT">     -2.00000000</i>
   <i name="ENCUTLF">     -1.00000000</i>
   <i type="int" name="LMAXMP2">    -1</i>
   <i name="SCISSOR">      0.00000000</i>
   <i type="int" name="NOMEGA">     0</i>
   <i type="int" name="NOMEGAR">     0</i>
   <i type="int" name="NBANDSGW">    -1</i>
   <i type="int" name="NBANDSO">    -1</i>
   <i type="int" name="NBANDSV">    -1</i>
   <i type="int" name="NELM">   100</i>
   <i type="int" name="NELMHF">     1</i>
   <i type="int" name="DIM">     3</i>
   <i type="int" name="ANTIRES">     0</i>
   <i name="OMEGAMAX">    -30.00000000</i>
   <i name="OMEGAMIN">    -30.00000000</i>
   <i name="OMEGATL">   -200.00000000</i>
   <i type="int" name="OMEGAGRID">   140</i>
   <i name="CSHIFT">     -0.10000000</i>
   <i type="logical" name="SELFENERGY"> F  </i>
   <i type="logical" name="LSPECTRAL"> F  </i>
   <i type="logical" name="LSPECTRALGW"> F  </i>
   <i type="logical" name="LSINGLES"> F  </i>
   <i type="logical" name="LFERMIGW"> F  </i>
   <i type="logical" name="ODDONLYGW"> F  </i>
   <i type="logical" name="EVENONLYGW"> F  </i>
   <i type="int" name="NKREDLFX">     1</i>
   <i type="int" name="NKREDLFY">     1</i>
   <i type="int" name="NKREDLFZ">     1</i>
   <i type="int" name="MAXMEM"> 10000</i>
   <i type="int" name="TELESCOPE">     0</i>
   <i type="int" name="TAUPAR">     1</i>
   <i type="int" name="OMEGAPAR">    -1</i>
   <i name="LAMBDA">      1.00000000</i>
  </separator>
  <separator name="External order field" >
   <i name="OFIELD_KAPPA">      0.00000000</i>
   <v name="OFIELD_K">      0.00000000      0.00000000      0.00000000</v>
   <i name="OFIELD_Q6_NEAR">      0.00000000</i>
   <i name="OFIELD_Q6_FAR">      0.00000000</i>
   <i name="OFIELD_A">      0.00000000</i>
  </separator>
 </parameters>
 <atominfo>
  <atoms>      57 </atoms>
  <types>       3 </types>
  <array name="atoms" >
   <dimension dim="1">ion</dimension>
   <field type="string">element</field>
   <field type="int">atomtype</field>
   <set>
    <rc><c>Pd</c><c>   1</c></rc>
    <rc><c>Pd</c><c>   1</c></rc>
    <rc><c>Pd</c><c>   1</c></rc>
    <rc><c>Pd</c><c>   1</c></rc>
    <rc><c>Pd</c><c>   1</c></rc>
    <rc><c>Pd</c><c>   1</c></rc>
    <rc><c>Pd</c><c>   1</c></rc>
    <rc><c>Pd</c><c>   1</c></rc>
    <rc><c>Pd</c><c>   1</c></rc>
    <rc><c>Pd</c><c>   1</c></rc>
    <rc><c>Pd</c><c>   1</c></rc>
    <rc><c>Pd</c><c>   1</c></rc>
    <rc><c>Pd</c><c>   1</c></rc>
    <rc><c>Pd</c><c>   1</c></rc>
    <rc><c>Pd</c><c>   1</c></rc>
    <rc><c>Pd</c><c>   1</c></rc>
    <rc><c>Pd</c><c>   1</c></rc>
    <rc><c>Pd</c><c>   1</c></rc>
    <rc><c>Pd</c><c>   1</c></rc>
    <rc><c>Pd</c><c>   1</c></rc>
    <rc><c>Pd</c><c>   1</c></rc>
    <rc><c>Pd</c><c>   1</c></rc>
    <rc><c>Pd</c><c>   1</c></rc>
    <rc><c>Pd</c><c>   1</c></rc>
    <rc><c>Pd</c><c>   1</c></rc>
    <rc><c>Pd</c><c>   1</c></rc>
    <rc><c>Pd</c><c>   1</c></rc>
    <rc><c>Pd</c><c>   1</c></rc>
    <rc><c>Pd</c><c>   1</c></rc>
    <rc><c>Pd</c><c>   1</c></rc>
    <rc><c>Pd</c><c>   1</c></rc>
    <rc><c>Pd</c><c>   1</c></rc>
    <rc><c>Pd</c><c>   1</c></rc>
    <rc><c>Pd</c><c>   1</c></rc>
    <rc><c>Pd</c><c>   1</c></rc>
    <rc><c>Pd</c><c>   1</c></rc>
    <rc><c>Pd</c><c>   1</c></rc>
    <rc><c>Pd</c><c>   1</c></rc>
    <rc><c>Pd</c><c>   1</c></rc>
    <rc><c>Pd</c><c>   1</c></rc>
    <rc><c>Pd</c><c>   1</c></rc>
    <rc><c>Pd</c><c>   1</c></rc>
    <rc><c>Pd</c><c>   1</c></rc>
    <rc><c>Pd</c><c>   1</c></rc>
    <rc><c>Pd</c><c>   1</c></rc>
    <rc><c>Pd</c><c>   1</c></rc>
    <rc><c>Pd</c><c>   1</c></rc>
    <rc><c>Pd</c><c>   1</c></rc>
    <rc><c>Pd</c><c>   1</c></rc>
    <rc><c>Pd</c><c>   1</c></rc>
    <rc><c>Pd</c><c>   1</c></rc>
    <rc><c>Pd</c><c>   1</c></rc>
    <rc><c>Pd</c><c>   1</c></rc>
    <rc><c>Pd</c><c>   1</c></rc>
    <rc><c>Pd</c><c>   1</c></rc>
    <rc><c>C </c><c>   2</c></rc>
    <rc><c>O </c><c>   3</c></rc>
   </set>
  </array>
  <array name="atomtypes" >
   <dimension dim="1">type</dimension>
   <field type="int">atomspertype</field>
   <field type="string">element</field>
   <field>mass</field>
   <field>valence</field>
   <field type="string">pseudopotential</field>
   <set>
    <rc><c>  55</c><c>Pd</c><c>    106.42000000</c><c>     10.00000000</c><c>  PAW_PBE Pd 04Jan2005                  </c></rc>
    <rc><c>   1</c><c>C </c><c>     12.01100000</c><c>      4.00000000</c><c>  PAW_PBE C 08Apr2002                   </c></rc>
    <rc><c>   1</c><c>O </c><c>     16.00000000</c><c>      6.00000000</c><c>  PAW_PBE O 08Apr2002                   </c></rc>
   </set>
  </array>
 </atominfo>
 <structure name="initialpos" >
  <crystal>
   <varray name="basis" >
    <v>      30.00000000       0.00000000       0.00000000 </v>
    <v>       0.00000000      30.00000000       0.00000000 </v>
    <v>       0.00000000       0.00000000      30.00000000 </v>
   </varray>
   <i name="volume">  27000.00000000 </i>
   <varray name="rec_basis" >
    <v>       0.03333333       0.00000000       0.00000000 </v>
    <v>       0.00000000       0.03333333       0.00000000 </v>
    <v>       0.00000000       0.00000000       0.03333333 </v>
   </varray>
  </crystal>
  <varray name="positions" >
   <v>       0.44576020       0.32826710       0.41691983 </v>
   <v>       0.67173288       0.55423978       0.41691983 </v>
   <v>       0.55423980       0.32826710       0.41691983 </v>
   <v>       0.32826712       0.55423978       0.41691983 </v>
   <v>       0.50000000       0.38250690       0.34021317 </v>
   <v>       0.50000000       0.38250690       0.65978680 </v>
   <v>       0.50000000       0.27609440       0.50000000 </v>
   <v>       0.27609443       0.49999998       0.50000000 </v>
   <v>       0.72390557       0.49999998       0.50000000 </v>
   <v>       0.50000000       0.72390555       0.50000000 </v>
   <v>       0.61195280       0.38804720       0.34167483 </v>
   <v>       0.61195280       0.38804720       0.65832513 </v>
   <v>       0.38804722       0.61195278       0.34167483 </v>
   <v>       0.38804722       0.61195278       0.65832513 </v>
   <v>       0.38804720       0.38804720       0.34167483 </v>
   <v>       0.38804720       0.38804720       0.65832513 </v>
   <v>       0.61195278       0.61195278       0.34167483 </v>
   <v>       0.61195278       0.61195278       0.65832513 </v>
   <v>       0.44576020       0.32826710       0.58308023 </v>
   <v>       0.67173288       0.55423978       0.58308023 </v>
   <v>       0.55791699       0.44208301       0.41809300 </v>
   <v>       0.32826705       0.44576024       0.41691983 </v>
   <v>       0.55423973       0.67173293       0.41691983 </v>
   <v>       0.55423980       0.32826710       0.58308023 </v>
   <v>       0.32826712       0.55423978       0.58308023 </v>
   <v>       0.67173295       0.44576024       0.41691983 </v>
   <v>       0.44576027       0.67173293       0.41691983 </v>
   <v>       0.44208301       0.44208301       0.41809300 </v>
   <v>       0.50000000       0.38416601       0.50000000 </v>
   <v>       0.61749315       0.50000005       0.34021317 </v>
   <v>       0.61749315       0.50000005       0.65978680 </v>
   <v>       0.38250685       0.50000005       0.34021317 </v>
   <v>       0.38250685       0.50000005       0.65978680 </v>
   <v>       0.38317830       0.38317830       0.50000000 </v>
   <v>       0.61682172       0.61682172       0.50000000 </v>
   <v>       0.61682170       0.38317830       0.50000000 </v>
   <v>       0.38317828       0.61682172       0.50000000 </v>
   <v>       0.50000000       0.50000000       0.33478917 </v>
   <v>       0.50000000       0.50000000       0.66521087 </v>
   <v>       0.32826705       0.44576024       0.58308023 </v>
   <v>       0.55423973       0.67173293       0.58308023 </v>
   <v>       0.55791699       0.44208301       0.58190703 </v>
   <v>       0.44208298       0.55791702       0.41809300 </v>
   <v>       0.44208301       0.44208301       0.58190703 </v>
   <v>       0.67173295       0.44576024       0.58308023 </v>
   <v>       0.44576027       0.67173293       0.58308023 </v>
   <v>       0.55791702       0.55791702       0.41809300 </v>
   <v>       0.38416599       0.50000002       0.50000000 </v>
   <v>       0.61583401       0.50000002       0.50000000 </v>
   <v>       0.50000000       0.61749319       0.34021317 </v>
   <v>       0.50000000       0.61749319       0.65978680 </v>
   <v>       0.50000000       0.50000000       0.50000000 </v>
   <v>       0.44208298       0.55791702       0.58190703 </v>
   <v>       0.55791702       0.55791702       0.58190703 </v>
   <v>       0.50000000       0.61583404       0.50000000 </v>
   <v>       0.44859533       0.66111763       0.50729823 </v>
   <v>       0.43717723       0.69690533       0.50891930 </v>
  </varray>
  <varray name="selective"  type="logical" >
   <v type="logical" >  F  F  F </v>
   <v type="logical" >  F  F  F </v>
   <v type="logical" >  F  F  F </v>
   <v type="logical" >  F  F  F </v>
   <v type="logical" >  F  F  F </v>
   <v type="logical" >  F  F  F </v>
   <v type="logical" >  F  F  F </v>
   <v type="logical" >  F  F  F </v>
   <v type="logical" >  F  F  F </v>
   <v type="logical" >  F  F  F </v>
   <v type="logical" >  F  F  F </v>
   <v type="logical" >  F  F  F </v>
   <v type="logical" >  F  F  F </v>
   <v type="logical" >  F  F  F </v>
   <v type="logical" >  F  F  F </v>
   <v type="logical" >  F  F  F </v>
   <v type="logical" >  F  F  F </v>
   <v type="logical" >  F  F  F </v>
   <v type="logical" >  F  F  F </v>
   <v type="logical" >  F  F  F </v>
   <v type="logical" >  F  F  F </v>
   <v type="logical" >  F  F  F </v>
   <v type="logical" >  F  F  F </v>
   <v type="logical" >  F  F  F </v>
   <v type="logical" >  F  F  F </v>
   <v type="logical" >  F  F  F </v>
   <v type="logical" >  F  F  F </v>
   <v type="logical" >  F  F  F </v>
   <v type="logical" >  F  F  F </v>
   <v type="logical" >  F  F  F </v>
   <v type="logical" >  F  F  F </v>
   <v type="logical" >  F  F  F </v>
   <v type="logical" >  F  F  F </v>
   <v type="logical" >  F  F  F </v>
   <v type="logical" >  F  F  F </v>
   <v type="logical" >  F  F  F </v>
   <v type="logical" >  F  F  F </v>
   <v type="logical" >  F  F  F </v>
   <v type="logical" >  F  F  F </v>
   <v type="logical" >  F  F  F </v>
   <v type="logical" >  F  F  F </v>
   <v type="logical" >  F  F  F </v>
   <v type="logical" >  F  F  F </v>
   <v type="logical" >  F  F  F </v>
   <v type="logical" >  F  F  F </v>
   <v type="logical" >  F  F  F </v>
   <v type="logical" >  F  F  F </v>
   <v type="logical" >  F  F  F </v>
   <v type="logical" >  F  F  F </v>
   <v type="logical" >  F  F  F </v>
   <v type="logical" >  F  F  F </v>
   <v type="logical" >  F  F  F </v>
   <v type="logical" >  F  F  F </v>
   <v type="logical" >  F  F  F </v>
   <v type="logical" >  F  F  F </v>
   <v type="logical" >  F  F  F </v>
   <v type="logical" >  F  F  F </v>
  </varray>
  <nose>
   <v>      -3.00000000       0.00000000       0.00010000       0.00010000 </v>
  </nose>
 </structure>
 <calculation>
  <scstep>
   <time name="dav">  361.33  361.40</time>
   <time name="total">  375.47  375.55</time>
   <energy>
    <i name="alphaZ">     75.25431677 </i>
    <i name="ewald"> 140919.34361380 </i>
    <i name="hartreedc">-184266.23816262 </i>
    <i name="XCdc">  -1700.83074058 </i>
    <i name="pawpsdc">  44873.02882129 </i>
    <i name="pawaedc"> -41398.84523641 </i>
    <i name="eentropy">     -0.04842185 </i>
    <i name="bandstr">    811.46595168 </i>
    <i name="atom">  45086.50549395 </i>
    <i name="e_fr_energy">   4399.63563604 </i>
    <i name="e_wo_entrp">   4399.68405788 </i>
    <i name="e_0_energy">   4399.64774150 </i>
   </energy>
  </scstep>
  <scstep>
   <time name="dav">  581.70  581.73</time>
   <time name="total">  581.70  581.73</time>
   <energy>
    <i name="e_fr_energy">   2010.53310414 </i>
    <i name="e_wo_entrp">   2010.54316620 </i>
    <i name="e_0_energy">   2010.53561966 </i>
   </energy>
  </scstep>
  <scstep>
   <time name="dav">  494.85  494.86</time>
   <time name="total">  494.85  494.86</time>
   <energy>
    <i name="e_fr_energy">    234.69055650 </i>
    <i name="e_wo_entrp">    234.71344708 </i>
    <i name="e_0_energy">    234.69627914 </i>
   </energy>
  </scstep>
  <scstep>
   <time name="dav">  425.06  425.06</time>
   <time name="total">  425.06  425.06</time>
   <energy>
    <i name="e_fr_energy">   -134.64224691 </i>
    <i name="e_wo_entrp">   -134.63582541 </i>
    <i name="e_0_energy">   -134.64064153 </i>
   </energy>
  </scstep>
  <scstep>
   <time name="dav">  513.95  513.96</time>
   <time name="total">  540.04  540.05</time>
   <energy>
    <i name="e_fr_energy">   -179.84189375 </i>
    <i name="e_wo_entrp">   -180.34652207 </i>
    <i name="e_0_energy">   -179.96805083 </i>
   </energy>
  </scstep>
  <scstep>
   <time name="diag">   68.29   68.29</time>
   <time name="diis">  191.61  191.61</time>
   <time name="orth">   13.46   13.46</time>
   <time name="total">  312.55  312.55</time>
   <energy>
    <i name="e_fr_energy">   -182.82420793 </i>
    <i name="e_wo_entrp">   -182.86508700 </i>
    <i name="e_0_energy">   -182.83442770 </i>
   </energy>
  </scstep>
  <scstep>
   <time name="diag">   67.60   67.60</time>
   <time name="diis">  223.56  223.56</time>
   <time name="orth">   13.45   13.45</time>
   <time name="total">  343.58  343.59</time>
   <energy>
    <i name="e_fr_energy">   -183.07555805 </i>
    <i name="e_wo_entrp">   -183.05071167 </i>
    <i name="e_0_energy">   -183.06934646 </i>
   </energy>
  </scstep>
  <scstep>
   <time name="diag">   68.38   68.38</time>
   <time name="diis">  203.77  203.77</time>
   <time name="orth">   13.52   13.52</time>
   <time name="total">  325.16  325.16</time>
   <energy>
    <i name="e_fr_energy">   -183.10977396 </i>
    <i name="e_wo_entrp">   -182.94986694 </i>
    <i name="e_0_energy">   -183.06979721 </i>
   </energy>
  </scstep>
  <scstep>
   <time name="diag">   69.83   69.83</time>
   <time name="diis">  193.77  193.78</time>
   <time name="orth">   13.49   13.49</time>
   <time name="total">  316.66  316.67</time>
   <energy>
    <i name="e_fr_energy">   -181.45692786 </i>
    <i name="e_wo_entrp">   -181.31764033 </i>
    <i name="e_0_energy">   -181.42210597 </i>
   </energy>
  </scstep>
  <scstep>
   <time name="diag">   69.61   69.61</time>
   <time name="diis">  194.87  194.88</time>
   <time name="orth">   13.71   13.71</time>
   <time name="total">  317.63  317.64</time>
   <energy>
    <i name="e_fr_energy">   -179.57886351 </i>
    <i name="e_wo_entrp">   -179.44705883 </i>
    <i name="e_0_energy">   -179.54591234 </i>
   </energy>
  </scstep>
  <scstep>
   <time name="diag">   69.71   69.71</time>
   <time name="diis">  192.21  192.22</time>
   <time name="orth">   13.49   13.49</time>
   <time name="total">  314.92  314.94</time>
   <energy>
    <i name="e_fr_energy">   -178.45439054 </i>
    <i name="e_wo_entrp">   -178.54868988 </i>
    <i name="e_0_energy">   -178.47796537 </i>
   </energy>
  </scstep>
  <scstep>
   <time name="diag">   69.00   69.00</time>
   <time name="diis">  191.10  191.10</time>
   <time name="orth">   13.53   13.53</time>
   <time name="total">  313.38  313.39</time>
   <energy>
    <i name="e_fr_energy">   -177.57733779 </i>
    <i name="e_wo_entrp">   -177.62444968 </i>
    <i name="e_0_energy">   -177.58911577 </i>
   </energy>
  </scstep>
  <scstep>
   <time name="diag">   69.19   69.19</time>
   <time name="diis">  189.35  189.35</time>
   <time name="orth">   13.52   13.52</time>
   <time name="total">  311.99  312.00</time>
   <energy>
    <i name="e_fr_energy">   -176.94822700 </i>
    <i name="e_wo_entrp">   -176.94271175 </i>
    <i name="e_0_energy">   -176.94684819 </i>
   </energy>
  </scstep>
  <scstep>
   <time name="diag">   69.23   69.23</time>
   <time name="diis">  190.92  190.93</time>
   <time name="orth">   13.49   13.49</time>
   <time name="total">  313.64  313.64</time>
   <energy>
    <i name="e_fr_energy">   -176.65681222 </i>
    <i name="e_wo_entrp">   -176.78316836 </i>
    <i name="e_0_energy">   -176.68840125 </i>
   </energy>
  </scstep>
  <scstep>
   <time name="diag">   69.21   69.21</time>
   <time name="diis">  189.33  189.34</time>
   <time name="orth">   13.49   13.49</time>
   <time name="total">  312.29  312.30</time>
   <energy>
    <i name="e_fr_energy">   -176.45322544 </i>
    <i name="e_wo_entrp">   -176.45267257 </i>
    <i name="e_0_energy">   -176.45308722 </i>
   </energy>
  </scstep>
  <scstep>
   <time name="diag">   68.83   68.83</time>
   <time name="diis">  190.01  190.02</time>
   <time name="orth">   13.61   13.61</time>
   <time name="total">  313.25  313.26</time>
   <energy>
    <i name="e_fr_energy">   -175.47636706 </i>
    <i name="e_wo_entrp">   -175.45948132 </i>
    <i name="e_0_energy">   -175.47214562 </i>
   </energy>
  </scstep>
  <scstep>
   <time name="diag">   69.81   69.81</time>
   <time name="diis">  187.11  187.11</time>
   <time name="orth">   13.61   13.61</time>
   <time name="total">  311.45  311.45</time>
   <energy>
    <i name="e_fr_energy">   -175.31764550 </i>
    <i name="e_wo_entrp">   -175.35025187 </i>
    <i name="e_0_energy">   -175.32579709 </i>
   </energy>
  </scstep>
  <scstep>
   <time name="diag">   70.00   70.00</time>
   <time name="diis">  191.07  191.08</time>
   <time name="orth">   13.41   13.41</time>
   <time name="total">  315.58  315.60</time>
   <energy>
    <i name="e_fr_energy">   -175.57167024 </i>
    <i name="e_wo_entrp">   -175.68339433 </i>
    <i name="e_0_energy">   -175.59960126 </i>
   </energy>
  </scstep>
  <scstep>
   <time name="diag">   69.89   69.90</time>
   <time name="diis">  184.88  184.88</time>
   <time name="orth">   13.44   13.44</time>
   <time name="total">  309.13  309.15</time>
   <energy>
    <i name="e_fr_energy">   -174.93428680 </i>
    <i name="e_wo_entrp">   -174.97876029 </i>
    <i name="e_0_energy">   -174.94540517 </i>
   </energy>
  </scstep>
  <scstep>
   <time name="diag">   69.68   69.68</time>
   <time name="diis">  186.09  186.10</time>
   <time name="orth">   13.41   13.41</time>
   <time name="total">  310.06  310.08</time>
   <energy>
    <i name="e_fr_energy">   -174.85561603 </i>
    <i name="e_wo_entrp">   -174.87392864 </i>
    <i name="e_0_energy">   -174.86019418 </i>
   </energy>
  </scstep>
  <scstep>
   <time name="diag">   70.00   70.00</time>
   <time name="diis">  186.60  186.60</time>
   <time name="orth">   13.48   13.48</time>
   <time name="total">  310.98  310.99</time>
   <energy>
    <i name="e_fr_energy">   -174.74084978 </i>
    <i name="e_wo_entrp">   -174.74711304 </i>
    <i name="e_0_energy">   -174.74241560 </i>
   </energy>
  </scstep>
  <scstep>
   <time name="diag">   69.68   69.68</time>
   <time name="diis">  185.67  185.67</time>
   <time name="orth">   13.53   13.53</time>
   <time name="total">  309.74  309.75</time>
   <energy>
    <i name="e_fr_energy">   -174.69770487 </i>
    <i name="e_wo_entrp">   -174.70085395 </i>
    <i name="e_0_energy">   -174.69849214 </i>
   </energy>
  </scstep>
  <scstep>
   <time name="diag">   69.85   69.86</time>
   <time name="diis">  184.85  184.86</time>
   <time name="orth">   13.40   13.40</time>
   <time name="total">  308.93  308.95</time>
   <energy>
    <i name="e_fr_energy">   -174.58200312 </i>
    <i name="e_wo_entrp">   -174.54926329 </i>
    <i name="e_0_energy">   -174.57381816 </i>
   </energy>
  </scstep>
  <scstep>
   <time name="diag">   69.54   69.55</time>
   <time name="diis">  185.78  185.79</time>
   <time name="orth">   13.46   13.46</time>
   <time name="total">  309.75  309.77</time>
   <energy>
    <i name="e_fr_energy">   -174.55270118 </i>
    <i name="e_wo_entrp">   -174.54710536 </i>
    <i name="e_0_energy">   -174.55130223 </i>
   </energy>
  </scstep>
  <scstep>
   <time name="diag">   69.45   69.46</time>
   <time name="diis">  184.94  184.96</time>
   <time name="orth">   13.47   13.47</time>
   <time name="total">  308.71  308.72</time>
   <energy>
    <i name="e_fr_energy">   -174.45242040 </i>
    <i name="e_wo_entrp">   -174.45404086 </i>
    <i name="e_0_energy">   -174.45282551 </i>
   </energy>
  </scstep>
  <scstep>
   <time name="diag">   69.25   69.26</time>
   <time name="diis">  185.68  185.69</time>
   <time name="orth">   13.66   13.66</time>
   <time name="total">  309.70  309.71</time>
   <energy>
    <i name="e_fr_energy">   -174.44434643 </i>
    <i name="e_wo_entrp">   -174.47092800 </i>
    <i name="e_0_energy">   -174.45099182 </i>
   </energy>
  </scstep>
  <scstep>
   <time name="diag">   69.24   69.24</time>
   <time name="diis">  184.54  184.55</time>
   <time name="orth">   13.78   13.78</time>
   <time name="total">  308.61  308.62</time>
   <energy>
    <i name="e_fr_energy">   -174.39992836 </i>
    <i name="e_wo_entrp">   -174.41619551 </i>
    <i name="e_0_energy">   -174.40399515 </i>
   </energy>
  </scstep>
  <scstep>
   <time name="diag">   68.97   68.98</time>
   <time name="diis">  185.07  185.10</time>
   <time name="orth">   13.77   13.78</time>
   <time name="total">  309.10  309.12</time>
   <energy>
    <i name="e_fr_energy">   -174.37736038 </i>
    <i name="e_wo_entrp">   -174.37145447 </i>
    <i name="e_0_energy">   -174.37588390 </i>
   </energy>
  </scstep>
  <scstep>
   <time name="diag">   68.42   68.43</time>
   <time name="diis">  185.79  185.80</time>
   <time name="orth">   13.83   13.83</time>
   <time name="total">  308.90  308.91</time>
   <energy>
    <i name="e_fr_energy">   -174.37791225 </i>
    <i name="e_wo_entrp">   -174.36804756 </i>
    <i name="e_0_energy">   -174.37544608 </i>
   </energy>
  </scstep>
  <scstep>
   <time name="diag">   68.36   68.36</time>
   <time name="diis">  185.67  185.69</time>
   <time name="orth">   13.60   13.60</time>
   <time name="total">  308.48  308.49</time>
   <energy>
    <i name="e_fr_energy">   -174.36621958 </i>
    <i name="e_wo_entrp">   -174.35976051 </i>
    <i name="e_0_energy">   -174.36460482 </i>
   </energy>
  </scstep>
  <scstep>
   <time name="diag">   68.97   68.97</time>
   <time name="diis">  184.10  184.10</time>
   <time name="orth">   13.76   13.76</time>
   <time name="total">  308.21  308.21</time>
   <energy>
    <i name="e_fr_energy">   -174.35202308 </i>
    <i name="e_wo_entrp">   -174.33870476 </i>
    <i name="e_0_energy">   -174.34869350 </i>
   </energy>
  </scstep>
  <scstep>
   <time name="diag">   68.83   68.83</time>
   <time name="diis">  185.38  185.38</time>
   <time name="orth">   13.72   13.72</time>
   <time name="total">  309.58  309.58</time>
   <energy>
    <i name="e_fr_energy">   -174.34783485 </i>
    <i name="e_wo_entrp">   -174.33101449 </i>
    <i name="e_0_energy">   -174.34362976 </i>
   </energy>
  </scstep>
  <scstep>
   <time name="diag">   68.22   68.22</time>
   <time name="diis">  184.93  184.93</time>
   <time name="orth">   13.66   13.67</time>
   <time name="total">  308.22  308.23</time>
   <energy>
    <i name="e_fr_energy">   -174.34470675 </i>
    <i name="e_wo_entrp">   -174.33291251 </i>
    <i name="e_0_energy">   -174.34175819 </i>
   </energy>
  </scstep>
  <scstep>
   <time name="diag">   67.77   67.78</time>
   <time name="diis">  185.26  185.26</time>
   <time name="orth">   13.42   13.42</time>
   <time name="total">  307.32  307.32</time>
   <energy>
    <i name="e_fr_energy">   -174.34239260 </i>
    <i name="e_wo_entrp">   -174.32854810 </i>
    <i name="e_0_energy">   -174.33893147 </i>
   </energy>
  </scstep>
  <scstep>
   <time name="diag">   68.21   68.21</time>
   <time name="diis">  184.88  184.88</time>
   <time name="orth">   13.53   13.53</time>
   <time name="total">  307.78  307.78</time>
   <energy>
    <i name="e_fr_energy">   -174.34149298 </i>
    <i name="e_wo_entrp">   -174.32625492 </i>
    <i name="e_0_energy">   -174.33768346 </i>
   </energy>
  </scstep>
  <scstep>
   <time name="diag">   67.92   67.92</time>
   <time name="diis">  184.69  184.69</time>
   <time name="orth">   13.68   13.68</time>
   <time name="total">  307.43  307.43</time>
   <energy>
    <i name="e_fr_energy">   -174.34137885 </i>
    <i name="e_wo_entrp">   -174.32820988 </i>
    <i name="e_0_energy">   -174.33808661 </i>
   </energy>
  </scstep>
  <scstep>
   <time name="diag">   67.89   67.89</time>
   <time name="diis">  184.19  184.19</time>
   <time name="orth">   13.46   13.46</time>
   <time name="total">  306.41  306.41</time>
   <energy>
    <i name="e_fr_energy">   -174.34133132 </i>
    <i name="e_wo_entrp">   -174.32861882 </i>
    <i name="e_0_energy">   -174.33815320 </i>
   </energy>
  </scstep>
  <scstep>
   <time name="diag">   68.10   68.10</time>
   <time name="diis">  182.74  182.74</time>
   <time name="orth">   13.67   13.67</time>
   <time name="total">  305.82  305.82</time>
   <energy>
    <i name="e_fr_energy">   -174.34237806 </i>
    <i name="e_wo_entrp">   -174.32938902 </i>
    <i name="e_0_energy">   -174.33913080 </i>
   </energy>
  </scstep>
  <scstep>
   <time name="diag">   69.08   69.08</time>
   <time name="diis">  180.93  180.93</time>
   <time name="orth">   13.57   13.57</time>
   <time name="total">  305.43  305.43</time>
   <energy>
    <i name="e_fr_energy">   -174.34400050 </i>
    <i name="e_wo_entrp">   -174.33166841 </i>
    <i name="e_0_energy">   -174.34091747 </i>
   </energy>
  </scstep>
  <scstep>
   <time name="diag">   68.64   68.64</time>
   <time name="diis">  182.08  182.08</time>
   <time name="orth">   13.83   13.83</time>
   <time name="total">  305.94  305.95</time>
   <energy>
    <i name="e_fr_energy">   -174.34630235 </i>
    <i name="e_wo_entrp">   -174.33319389 </i>
    <i name="e_0_energy">   -174.34302524 </i>
   </energy>
  </scstep>
  <scstep>
   <time name="diag">   68.08   68.08</time>
   <time name="diis">  181.29  181.29</time>
   <time name="orth">   13.60   13.60</time>
   <time name="total">  304.53  304.53</time>
   <energy>
    <i name="e_fr_energy">   -174.34927545 </i>
    <i name="e_wo_entrp">   -174.33717880 </i>
    <i name="e_0_energy">   -174.34625129 </i>
   </energy>
  </scstep>
  <scstep>
   <time name="diag">   67.67   67.67</time>
   <time name="diis">  161.69  161.69</time>
   <time name="orth">   13.74   13.74</time>
   <time name="total">  285.31  285.31</time>
   <energy>
    <i name="e_fr_energy">   -174.35152960 </i>
    <i name="e_wo_entrp">   -174.34001551 </i>
    <i name="e_0_energy">   -174.34865108 </i>
   </energy>
  </scstep>
  <scstep>
   <time name="diag">   68.48   68.48</time>
   <time name="diis">  151.82  151.82</time>
   <time name="orth">   13.41   13.41</time>
   <time name="total">  276.70  276.71</time>
   <energy>
    <i name="e_fr_energy">   -174.35417505 </i>
    <i name="e_wo_entrp">   -174.34308551 </i>
    <i name="e_0_energy">   -174.35140267 </i>
   </energy>
  </scstep>
  <scstep>
   <time name="diag">   67.68   67.68</time>
   <time name="diis">  123.74  123.74</time>
   <time name="orth">   13.86   13.86</time>
   <time name="total">  248.52  248.53</time>
   <energy>
    <i name="e_fr_energy">   -174.35590919 </i>
    <i name="e_wo_entrp">   -174.34436436 </i>
    <i name="e_0_energy">   -174.35302298 </i>
   </energy>
  </scstep>
  <scstep>
   <time name="diag">   68.99   68.99</time>
   <time name="diis">  118.05  118.05</time>
   <time name="orth">   13.49   13.49</time>
   <time name="total">  244.36  244.37</time>
   <energy>
    <i name="e_fr_energy">   -174.35799067 </i>
    <i name="e_wo_entrp">   -174.34665738 </i>
    <i name="e_0_energy">   -174.35515735 </i>
   </energy>
  </scstep>
  <scstep>
   <time name="diag">   69.62   69.62</time>
   <time name="diis">  115.90  115.91</time>
   <time name="orth">   13.60   13.60</time>
   <time name="total">  242.62  242.62</time>
   <energy>
    <i name="e_fr_energy">   -174.35925989 </i>
    <i name="e_wo_entrp">   -174.34677621 </i>
    <i name="e_0_energy">   -174.35613897 </i>
   </energy>
  </scstep>
  <scstep>
   <time name="diag">   69.14   69.14</time>
   <time name="diis">  125.18  125.19</time>
   <time name="orth">   13.48   13.48</time>
   <time name="total">  250.90  250.91</time>
   <energy>
    <i name="e_fr_energy">   -174.36141093 </i>
    <i name="e_wo_entrp">   -174.34986317 </i>
    <i name="e_0_energy">   -174.35852399 </i>
   </energy>
  </scstep>
  <scstep>
   <time name="diag">   68.17   68.18</time>
   <time name="diis">  118.80  118.80</time>
   <time name="orth">   13.43   13.43</time>
   <time name="total">  244.51  244.52</time>
   <energy>
    <i name="e_fr_energy">   -174.36240732 </i>
    <i name="e_wo_entrp">   -174.35071224 </i>
    <i name="e_0_energy">   -174.35948355 </i>
   </energy>
  </scstep>
  <scstep>
   <time name="diag">   67.59   67.59</time>
   <time name="diis">  114.34  114.35</time>
   <time name="orth">   13.63   13.63</time>
   <time name="total">  239.30  239.31</time>
   <energy>
    <i name="e_fr_energy">   -174.36384596 </i>
    <i name="e_wo_entrp">   -174.35194341 </i>
    <i name="e_0_energy">   -174.36087032 </i>
   </energy>
  </scstep>
  <scstep>
   <time name="diag">   67.98   67.98</time>
   <time name="diis">  114.17  114.18</time>
   <time name="orth">   13.31   13.31</time>
   <time name="total">  238.92  238.93</time>
   <energy>
    <i name="e_fr_energy">   -174.36499463 </i>
    <i name="e_wo_entrp">   -174.35320234 </i>
    <i name="e_0_energy">   -174.36204656 </i>
   </energy>
  </scstep>
  <scstep>
   <time name="diag">   67.83   67.83</time>
   <time name="diis">  117.38  117.39</time>
   <time name="orth">   13.24   13.24</time>
   <time name="total">  241.15  241.16</time>
   <energy>
    <i name="e_fr_energy">   -174.36555770 </i>
    <i name="e_wo_entrp">   -174.35377239 </i>
    <i name="e_0_energy">   -174.36261137 </i>
   </energy>
  </scstep>
  <scstep>
   <time name="diag">   67.79   67.79</time>
   <time name="diis">  115.19  115.19</time>
   <time name="orth">   13.27   13.27</time>
   <time name="total">  239.92  239.94</time>
   <energy>
    <i name="e_fr_energy">   -174.36619302 </i>
    <i name="e_wo_entrp">   -174.35451380 </i>
    <i name="e_0_energy">   -174.36327321 </i>
   </energy>
  </scstep>
  <scstep>
   <time name="diag">   67.86   67.86</time>
   <time name="diis">  108.37  108.38</time>
   <time name="orth">   13.47   13.47</time>
   <time name="total">  232.75  232.77</time>
   <energy>
    <i name="e_fr_energy">   -174.36667432 </i>
    <i name="e_wo_entrp">   -174.35488339 </i>
    <i name="e_0_energy">   -174.36372659 </i>
   </energy>
  </scstep>
  <scstep>
   <time name="diag">   67.52   67.52</time>
   <time name="diis">   89.18   89.18</time>
   <time name="orth">   13.95   13.95</time>
   <time name="total">  215.08  215.08</time>
   <energy>
    <i name="e_fr_energy">   -174.36694083 </i>
    <i name="e_wo_entrp">   -174.35518903 </i>
    <i name="e_0_energy">   -174.36400288 </i>
   </energy>
  </scstep>
  <scstep>
   <time name="diag">   69.09   69.09</time>
   <time name="diis">   98.99   99.00</time>
   <time name="orth">   13.67   13.67</time>
   <time name="total">  226.14  226.16</time>
   <energy>
    <i name="e_fr_energy">   -174.36754016 </i>
    <i name="e_wo_entrp">   -174.35582869 </i>
    <i name="e_0_energy">   -174.36461229 </i>
   </energy>
  </scstep>
  <scstep>
   <time name="diag">   69.59   69.59</time>
   <time name="diis">   79.80   79.80</time>
   <time name="orth">   13.37   13.37</time>
   <time name="total">  205.75  205.75</time>
   <energy>
    <i name="e_fr_energy">   -174.36774806 </i>
    <i name="e_wo_entrp">   -174.35599773 </i>
    <i name="e_0_energy">   -174.36481048 </i>
   </energy>
  </scstep>
  <scstep>
   <time name="diag">   68.46   68.46</time>
   <time name="diis">   93.94   93.95</time>
   <time name="orth">   13.53   13.53</time>
   <time name="total">  219.48  219.49</time>
   <energy>
    <i name="e_fr_energy">   -174.36806423 </i>
    <i name="e_wo_entrp">   -174.35631724 </i>
    <i name="e_0_energy">   -174.36512748 </i>
   </energy>
  </scstep>
  <scstep>
   <time name="diag">   68.71   68.71</time>
   <time name="diis">   84.72   84.73</time>
   <time name="orth">   13.26   13.26</time>
   <time name="total">  210.62  210.63</time>
   <energy>
    <i name="e_fr_energy">   -174.36834882 </i>
    <i name="e_wo_entrp">   -174.35659875 </i>
    <i name="e_0_energy">   -174.36541130 </i>
   </energy>
  </scstep>
  <scstep>
   <time name="diag">   68.75   68.75</time>
   <time name="diis">   92.41   92.42</time>
   <time name="orth">   13.35   13.35</time>
   <time name="total">  217.63  217.63</time>
   <energy>
    <i name="e_fr_energy">   -174.36855495 </i>
    <i name="e_wo_entrp">   -174.35678875 </i>
    <i name="e_0_energy">   -174.36561340 </i>
   </energy>
  </scstep>
  <scstep>
   <time name="diag">   68.23   68.23</time>
   <time name="diis">   80.39   80.39</time>
   <time name="orth">   13.50   13.50</time>
   <time name="total">  205.90  205.91</time>
   <energy>
    <i name="e_fr_energy">   -174.36868547 </i>
    <i name="e_wo_entrp">   -174.35696731 </i>
    <i name="e_0_energy">   -174.36575593 </i>
   </energy>
  </scstep>
  <scstep>
   <time name="diag">   68.00   68.00</time>
   <time name="diis">   71.00   71.01</time>
   <time name="orth">   13.55   13.55</time>
   <time name="total">  166.88  166.89</time>
   <energy>
    <i name="alphaZ">     75.25431677 </i>
    <i name="ewald"> 140919.34361380 </i>
    <i name="hartreedc">-185283.11945704 </i>
    <i name="XCdc">  -1690.19971888 </i>
    <i name="pawpsdc">  46282.97509593 </i>
    <i name="pawaedc"> -42753.32220574 </i>
    <i name="eentropy">     -0.01173483 </i>
    <i name="bandstr">  -2811.79413094 </i>
    <i name="atom">  45086.50549395 </i>
    <i name="e_fr_energy">   -174.36872698 </i>
    <i name="e_wo_entrp">   -174.35699215 </i>
    <i name="e_0_energy">   -174.36579328 </i>
   </energy>
  </scstep>
  <structure>
   <crystal>
    <varray name="basis" >
     <v>      30.00000000       0.00000000       0.00000000 </v>
     <v>       0.00000000      30.00000000       0.00000000 </v>
     <v>       0.00000000       0.00000000      30.00000000 </v>
    </varray>
    <i name="volume">  27000.00000000 </i>
    <varray name="rec_basis" >
     <v>       0.03333333       0.00000000       0.00000000 </v>
     <v>       0.00000000       0.03333333       0.00000000 </v>
     <v>       0.00000000       0.00000000       0.03333333 </v>
    </varray>
   </crystal>
   <varray name="positions" >
    <v>       0.44576020       0.32826710       0.41691983 </v>
    <v>       0.67173288       0.55423978       0.41691983 </v>
    <v>       0.55423980       0.32826710       0.41691983 </v>
    <v>       0.32826712       0.55423978       0.41691983 </v>
    <v>       0.50000000       0.38250690       0.34021317 </v>
    <v>       0.50000000       0.38250690       0.65978680 </v>
    <v>       0.50000000       0.27609440       0.50000000 </v>
    <v>       0.27609443       0.49999998       0.50000000 </v>
    <v>       0.72390557       0.49999998       0.50000000 </v>
    <v>       0.50000000       0.72390555       0.50000000 </v>
    <v>       0.61195280       0.38804720       0.34167483 </v>
    <v>       0.61195280       0.38804720       0.65832513 </v>
    <v>       0.38804722       0.61195278       0.34167483 </v>
    <v>       0.38804722       0.61195278       0.65832513 </v>
    <v>       0.38804720       0.38804720       0.34167483 </v>
    <v>       0.38804720       0.38804720       0.65832513 </v>
    <v>       0.61195278       0.61195278       0.34167483 </v>
    <v>       0.61195278       0.61195278       0.65832513 </v>
    <v>       0.44576020       0.32826710       0.58308023 </v>
    <v>       0.67173288       0.55423978       0.58308023 </v>
    <v>       0.55791699       0.44208301       0.41809300 </v>
    <v>       0.32826705       0.44576024       0.41691983 </v>
    <v>       0.55423973       0.67173293       0.41691983 </v>
    <v>       0.55423980       0.32826710       0.58308023 </v>
    <v>       0.32826712       0.55423978       0.58308023 </v>
    <v>       0.67173295       0.44576024       0.41691983 </v>
    <v>       0.44576027       0.67173293       0.41691983 </v>
    <v>       0.44208301       0.44208301       0.41809300 </v>
    <v>       0.50000000       0.38416601       0.50000000 </v>
    <v>       0.61749315       0.50000005       0.34021317 </v>
    <v>       0.61749315       0.50000005       0.65978680 </v>
    <v>       0.38250685       0.50000005       0.34021317 </v>
    <v>       0.38250685       0.50000005       0.65978680 </v>
    <v>       0.38317830       0.38317830       0.50000000 </v>
    <v>       0.61682172       0.61682172       0.50000000 </v>
    <v>       0.61682170       0.38317830       0.50000000 </v>
    <v>       0.38317828       0.61682172       0.50000000 </v>
    <v>       0.50000000       0.50000000       0.33478917 </v>
    <v>       0.50000000       0.50000000       0.66521087 </v>
    <v>       0.32826705       0.44576024       0.58308023 </v>
    <v>       0.55423973       0.67173293       0.58308023 </v>
    <v>       0.55791699       0.44208301       0.58190703 </v>
    <v>       0.44208298       0.55791702       0.41809300 </v>
    <v>       0.44208301       0.44208301       0.58190703 </v>
    <v>       0.67173295       0.44576024       0.58308023 </v>
    <v>       0.44576027       0.67173293       0.58308023 </v>
    <v>       0.55791702       0.55791702       0.41809300 </v>
    <v>       0.38416599       0.50000002       0.50000000 </v>
    <v>       0.61583401       0.50000002       0.50000000 </v>
    <v>       0.50000000       0.61749319       0.34021317 </v>
    <v>       0.50000000       0.61749319       0.65978680 </v>
    <v>       0.50000000       0.50000000       0.50000000 </v>
    <v>       0.44208298       0.55791702       0.58190703 </v>
    <v>       0.55791702       0.55791702       0.58190703 </v>
    <v>       0.50000000       0.61583404       0.50000000 </v>
    <v>       0.44859533       0.66111763       0.50729823 </v>
    <v>       0.43717723       0.69690533       0.50891930 </v>
   </varray>
  </structure>
  <varray name="forces" >
   <v>       0.69794265       1.10448340       0.29443802 </v>
   <v>      -1.11310572      -0.70274184       0.29741400 </v>
   <v>      -0.69782179       1.11210520       0.28318257 </v>
   <v>       1.08365248      -0.74772024       0.25908664 </v>
   <v>       0.00180579       0.41480526       1.27681727 </v>
   <v>       0.00240723       0.41373686      -1.27707853 </v>
   <v>      -0.00766572       1.51663516       0.00083065 </v>
   <v>       1.51741053       0.00629448       0.00043186 </v>
   <v>      -1.51521218      -0.00149140      -0.00015472 </v>
   <v>       1.52509032      -0.22104690      -0.27235774 </v>
   <v>      -0.75264853       0.75929188       1.07089440 </v>
   <v>      -0.75394977       0.75752568      -1.07069383 </v>
   <v>       0.75019438      -0.76068131       1.05255402 </v>
   <v>       0.73841985      -0.77601277      -1.02650846 </v>
   <v>       0.75543099       0.75849436       1.06739299 </v>
   <v>       0.75462122       0.75921586      -1.06785979 </v>
   <v>      -0.75592942      -0.73390995       1.07459294 </v>
   <v>      -0.75899262      -0.73177260      -1.08527122 </v>
   <v>       0.69839683       1.10645429      -0.29359789 </v>
   <v>      -1.11064942      -0.70248166      -0.29564557 </v>
   <v>       0.11110062      -0.10990598      -0.14891640 </v>
   <v>       1.10619185       0.71071439       0.30209432 </v>
   <v>      -0.61044711      -1.17286073       0.13840167 </v>
   <v>      -0.69708936       1.11271391      -0.28356176 </v>
   <v>       1.08375908      -0.75307905      -0.26044463 </v>
   <v>      -1.10859873       0.69550783       0.29539888 </v>
   <v>       0.69557245      -1.24245140       0.03840739 </v>
   <v>      -0.11103802      -0.11053428      -0.15323810 </v>
   <v>      -0.00462863      -0.23537866       0.00033411 </v>
   <v>      -0.40502779      -0.02069568       1.26511845 </v>
   <v>      -0.40914678      -0.01450687      -1.26771449 </v>
   <v>       0.42161499       0.00392947       1.27460888 </v>
   <v>       0.42343381       0.00708256      -1.27525835 </v>
   <v>       0.83101689       0.82397861      -0.00134382 </v>
   <v>      -0.82802859      -0.86873043      -0.00723914 </v>
   <v>      -0.81883395       0.83498783       0.00003433 </v>
   <v>       1.52624406      -0.50418292       0.03219184 </v>
   <v>      -0.00492350       0.00503109       1.18031252 </v>
   <v>      -0.00674524       0.00827938      -1.18163408 </v>
   <v>       1.10448879       0.71154510      -0.29917033 </v>
   <v>      -0.55710549      -1.17428419      -0.12276748 </v>
   <v>       0.11143237      -0.11435933       0.14895296 </v>
   <v>      -0.11535870       0.02557917      -0.21666679 </v>
   <v>      -0.10995175      -0.11410169       0.15429638 </v>
   <v>      -1.10880751       0.69660372      -0.29664440 </v>
   <v>       0.72580569      -1.51437557       0.23773852 </v>
   <v>       0.12148394       0.11196725      -0.15993534 </v>
   <v>      -0.23361299      -0.03059871      -0.00133931 </v>
   <v>       0.22098048       0.00478410      -0.00015114 </v>
   <v>       0.00727331      -0.43302811       1.25561984 </v>
   <v>      -0.01067163      -0.42596188      -1.25157730 </v>
   <v>       0.02064726      -0.05494937      -0.00244991 </v>
   <v>      -0.11532886      -0.02037504       0.23611222 </v>
   <v>       0.12863227       0.10159989       0.17119751 </v>
   <v>      -0.81110395       0.96331283       0.04631286 </v>
   <v>       2.49267318     -11.54255054      -0.16272111 </v>
   <v>      -4.12529955      10.30810957       0.02717360 </v>
  </varray>
  <varray name="stress" >
   <v>      -6.62706937      -0.07960112      -0.03087634 </v>
   <v>      -0.07960114      -5.97017502      -0.03504934 </v>
   <v>      -0.03087637      -0.03504932      -6.53220178 </v>
  </varray>
  <energy>
   <i name="e_fr_energy">   -174.36872698 </i>
   <i name="e_wo_entrp">   -174.36579328 </i>
   <i name="e_0_energy">     -0.01173483 </i>
  </energy>
  <time name="totalsc">18629.1818629.85</time>
  <eigenvalues>
   <array>
    <dimension dim="1">band</dimension>
    <dimension dim="2">kpoint</dimension>
    <dimension dim="3">spin</dimension>
    <field>eigene</field>
    <field>occ</field>
    <set>
     <set comment="spin 1">
      <set comment="kpoint 1">
       <r>  -29.5051    1.0000 </r>
       <r>  -14.3581    1.0000 </r>
       <r>  -12.6325    1.0000 </r>
       <r>  -12.4102    1.0000 </r>
       <r>  -10.8765    1.0000 </r>
       <r>   -6.6119    1.0000 </r>
       <r>   -6.5453    1.0000 </r>
       <r>   -6.3847    1.0000 </r>
       <r>   -6.1409    1.0000 </r>
       <r>   -6.0952    1.0000 </r>
       <r>   -6.0890    1.0000 </r>
       <r>   -5.8502    1.0000 </r>
       <r>   -5.8243    1.0000 </r>
       <r>   -5.7777    1.0000 </r>
       <r>   -5.7669    1.0000 </r>
       <r>   -5.7206    1.0000 </r>
       <r>   -5.6708    1.0000 </r>
       <r>   -5.6587    1.0000 </r>
       <r>   -5.6530    1.0000 </r>
       <r>   -5.6421    1.0000 </r>
       <r>   -5.6235    1.0000 </r>
       <r>   -5.5973    1.0000 </r>
       <r>   -5.5889    1.0000 </r>
       <r>   -5.5713    1.0000 </r>
       <r>   -5.5648    1.0000 </r>
       <r>   -5.5536    1.0000 </r>
       <r>   -5.5473    1.0000 </r>
       <r>   -5.5384    1.0000 </r>
       <r>   -5.5259    1.0000 </r>
       <r>   -5.5114    1.0000 </r>
       <r>   -5.5083    1.0000 </r>
       <r>   -5.5039    1.0000 </r>
       <r>   -5.4961    1.0000 </r>
       <r>   -5.4810    1.0000 </r>
       <r>   -5.4804    1.0000 </r>
       <r>   -5.4773    1.0000 </r>
       <r>   -5.4759    1.0000 </r>
       <r>   -5.4740    1.0000 </r>
       <r>   -5.4569    1.0000 </r>
       <r>   -5.4440    1.0000 </r>
       <r>   -5.4351    1.0000 </r>
       <r>   -5.4342    1.0000 </r>
       <r>   -5.4307    1.0000 </r>
       <r>   -5.4285    1.0000 </r>
       <r>   -5.4265    1.0000 </r>
       <r>   -5.4249    1.0000 </r>
       <r>   -5.4153    1.0000 </r>
       <r>   -5.4033    1.0000 </r>
       <r>   -5.3989    1.0000 </r>
       <r>   -5.3924    1.0000 </r>
       <r>   -5.3852    1.0000 </r>
       <r>   -5.3802    1.0000 </r>
       <r>   -5.3755    1.0000 </r>
       <r>   -5.3674    1.0000 </r>
       <r>   -5.3589    1.0000 </r>
       <r>   -5.3560    1.0000 </r>
       <r>   -5.3514    1.0000 </r>
       <r>   -5.3231    1.0000 </r>
       <r>   -5.3061    1.0000 </r>
       <r>   -5.3025    1.0000 </r>
       <r>   -5.2944    1.0000 </r>
       <r>   -5.2923    1.0000 </r>
       <r>   -5.2861    1.0000 </r>
       <r>   -5.2790    1.0000 </r>
       <r>   -5.2757    1.0000 </r>
       <r>   -5.2653    1.0000 </r>
       <r>   -5.2551    1.0000 </r>
       <r>   -5.2443    1.0000 </r>
       <r>   -5.2265    1.0000 </r>
       <r>   -5.2194    1.0000 </r>
       <r>   -5.2155    1.0000 </r>
       <r>   -5.2086    1.0000 </r>
       <r>   -5.1893    1.0000 </r>
       <r>   -5.1757    1.0000 </r>
       <r>   -5.1719    1.0000 </r>
       <r>   -5.1613    1.0000 </r>
       <r>   -5.1557    1.0000 </r>
       <r>   -5.1464    1.0000 </r>
       <r>   -5.1417    1.0000 </r>
       <r>   -5.1395    1.0000 </r>
       <r>   -5.1347    1.0000 </r>
       <r>   -5.1227    1.0000 </r>
       <r>   -5.1126    1.0000 </r>
       <r>   -5.1078    1.0000 </r>
       <r>   -5.0952    1.0000 </r>
       <r>   -5.0844    1.0000 </r>
       <r>   -5.0809    1.0000 </r>
       <r>   -5.0755    1.0000 </r>
       <r>   -5.0691    1.0000 </r>
       <r>   -5.0574    1.0000 </r>
       <r>   -5.0549    1.0000 </r>
       <r>   -5.0466    1.0000 </r>
       <r>   -5.0381    1.0000 </r>
       <r>   -5.0332    1.0000 </r>
       <r>   -5.0242    1.0000 </r>
       <r>   -5.0191    1.0000 </r>
       <r>   -5.0134    1.0000 </r>
       <r>   -5.0111    1.0000 </r>
       <r>   -4.9995    1.0000 </r>
       <r>   -4.9964    1.0000 </r>
       <r>   -4.9877    1.0000 </r>
       <r>   -4.9870    1.0000 </r>
       <r>   -4.9765    1.0000 </r>
       <r>   -4.9746    1.0000 </r>
       <r>   -4.9687    1.0000 </r>
       <r>   -4.9636    1.0000 </r>
       <r>   -4.9629    1.0000 </r>
       <r>   -4.9575    1.0000 </r>
       <r>   -4.9514    1.0000 </r>
       <r>   -4.9454    1.0000 </r>
       <r>   -4.9452    1.0000 </r>
       <r>   -4.9407    1.0000 </r>
       <r>   -4.9315    1.0000 </r>
       <r>   -4.9263    1.0000 </r>
       <r>   -4.9245    1.0000 </r>
       <r>   -4.9131    1.0000 </r>
       <r>   -4.9090    1.0000 </r>
       <r>   -4.9021    1.0000 </r>
       <r>   -4.8970    1.0000 </r>
       <r>   -4.8950    1.0000 </r>
       <r>   -4.8865    1.0000 </r>
       <r>   -4.8802    1.0000 </r>
       <r>   -4.8760    1.0000 </r>
       <r>   -4.8699    1.0000 </r>
       <r>   -4.8658    1.0000 </r>
       <r>   -4.8610    1.0000 </r>
       <r>   -4.8571    1.0000 </r>
       <r>   -4.8448    1.0000 </r>
       <r>   -4.8414    1.0000 </r>
       <r>   -4.8365    1.0000 </r>
       <r>   -4.8276    1.0000 </r>
       <r>   -4.8219    1.0000 </r>
       <r>   -4.8163    1.0000 </r>
       <r>   -4.8095    1.0000 </r>
       <r>   -4.8069    1.0000 </r>
       <r>   -4.7958    1.0000 </r>
       <r>   -4.7927    1.0000 </r>
       <r>   -4.7883    1.0000 </r>
       <r>   -4.7787    1.0000 </r>
       <r>   -4.7774    0.9999 </r>
       <r>   -4.7718    0.9999 </r>
       <r>   -4.7595    0.9999 </r>
       <r>   -4.7512    0.9999 </r>
       <r>   -4.7359    0.9998 </r>
       <r>   -4.7246    0.9998 </r>
       <r>   -4.7200    0.9998 </r>
       <r>   -4.7124    0.9997 </r>
       <r>   -4.7114    0.9997 </r>
       <r>   -4.6928    0.9996 </r>
       <r>   -4.6861    0.9995 </r>
       <r>   -4.6834    0.9995 </r>
       <r>   -4.6778    0.9994 </r>
       <r>   -4.6720    0.9993 </r>
       <r>   -4.6648    0.9992 </r>
       <r>   -4.6561    0.9991 </r>
       <r>   -4.6533    0.9990 </r>
       <r>   -4.6512    0.9990 </r>
       <r>   -4.6388    0.9987 </r>
       <r>   -4.6356    0.9987 </r>
       <r>   -4.6337    0.9986 </r>
       <r>   -4.6315    0.9986 </r>
       <r>   -4.6252    0.9984 </r>
       <r>   -4.6192    0.9982 </r>
       <r>   -4.6166    0.9982 </r>
       <r>   -4.6150    0.9981 </r>
       <r>   -4.6095    0.9980 </r>
       <r>   -4.6090    0.9979 </r>
       <r>   -4.6078    0.9979 </r>
       <r>   -4.6022    0.9977 </r>
       <r>   -4.6000    0.9976 </r>
       <r>   -4.5909    0.9973 </r>
       <r>   -4.5850    0.9971 </r>
       <r>   -4.5801    0.9969 </r>
       <r>   -4.5762    0.9968 </r>
       <r>   -4.5678    0.9965 </r>
       <r>   -4.5655    0.9964 </r>
       <r>   -4.5583    0.9961 </r>
       <r>   -4.5551    0.9960 </r>
       <r>   -4.5499    0.9958 </r>
       <r>   -4.5477    0.9958 </r>
       <r>   -4.5468    0.9957 </r>
       <r>   -4.5403    0.9955 </r>
       <r>   -4.5354    0.9954 </r>
       <r>   -4.5256    0.9952 </r>
       <r>   -4.5226    0.9951 </r>
       <r>   -4.5194    0.9951 </r>
       <r>   -4.5160    0.9951 </r>
       <r>   -4.5123    0.9951 </r>
       <r>   -4.5097    0.9951 </r>
       <r>   -4.5062    0.9951 </r>
       <r>   -4.4863    0.9957 </r>
       <r>   -4.4819    0.9960 </r>
       <r>   -4.4779    0.9963 </r>
       <r>   -4.4758    0.9964 </r>
       <r>   -4.4708    0.9969 </r>
       <r>   -4.4647    0.9975 </r>
       <r>   -4.4573    0.9985 </r>
       <r>   -4.4531    0.9992 </r>
       <r>   -4.4459    1.0005 </r>
       <r>   -4.4434    1.0010 </r>
       <r>   -4.4381    1.0021 </r>
       <r>   -4.4342    1.0031 </r>
       <r>   -4.4324    1.0035 </r>
       <r>   -4.4229    1.0061 </r>
       <r>   -4.4215    1.0066 </r>
       <r>   -4.4196    1.0071 </r>
       <r>   -4.4171    1.0079 </r>
       <r>   -4.4127    1.0094 </r>
       <r>   -4.4066    1.0116 </r>
       <r>   -4.4027    1.0131 </r>
       <r>   -4.4006    1.0139 </r>
       <r>   -4.3965    1.0155 </r>
       <r>   -4.3877    1.0193 </r>
       <r>   -4.3803    1.0226 </r>
       <r>   -4.3739    1.0256 </r>
       <r>   -4.3702    1.0274 </r>
       <r>   -4.3635    1.0306 </r>
       <r>   -4.3613    1.0317 </r>
       <r>   -4.3602    1.0322 </r>
       <r>   -4.3527    1.0358 </r>
       <r>   -4.3421    1.0406 </r>
       <r>   -4.3370    1.0428 </r>
       <r>   -4.3309    1.0451 </r>
       <r>   -4.3267    1.0467 </r>
       <r>   -4.3163    1.0496 </r>
       <r>   -4.3072    1.0512 </r>
       <r>   -4.3066    1.0513 </r>
       <r>   -4.3033    1.0515 </r>
       <r>   -4.2997    1.0516 </r>
       <r>   -4.2971    1.0515 </r>
       <r>   -4.2928    1.0511 </r>
       <r>   -4.2921    1.0510 </r>
       <r>   -4.2892    1.0505 </r>
       <r>   -4.2871    1.0501 </r>
       <r>   -4.2858    1.0497 </r>
       <r>   -4.2844    1.0493 </r>
       <r>   -4.2800    1.0477 </r>
       <r>   -4.2779    1.0468 </r>
       <r>   -4.2764    1.0460 </r>
       <r>   -4.2719    1.0435 </r>
       <r>   -4.2697    1.0421 </r>
       <r>   -4.2630    1.0369 </r>
       <r>   -4.2604    1.0345 </r>
       <r>   -4.2578    1.0320 </r>
       <r>   -4.2535    1.0273 </r>
       <r>   -4.2521    1.0256 </r>
       <r>   -4.2470    1.0190 </r>
       <r>   -4.2429    1.0132 </r>
       <r>   -4.2393    1.0074 </r>
       <r>   -4.2372    1.0039 </r>
       <r>   -4.2325    0.9954 </r>
       <r>   -4.2309    0.9923 </r>
       <r>   -4.2248    0.9797 </r>
       <r>   -4.2204    0.9698 </r>
       <r>   -4.2175    0.9627 </r>
       <r>   -4.2115    0.9473 </r>
       <r>   -4.2107    0.9451 </r>
       <r>   -4.2074    0.9359 </r>
       <r>   -4.2070    0.9347 </r>
       <r>   -4.2030    0.9230 </r>
       <r>   -4.2018    0.9192 </r>
       <r>   -4.2005    0.9152 </r>
       <r>   -4.1983    0.9083 </r>
       <r>   -4.1956    0.8996 </r>
       <r>   -4.1940    0.8943 </r>
       <r>   -4.1892    0.8776 </r>
       <r>   -4.1870    0.8696 </r>
       <r>   -4.1813    0.8486 </r>
       <r>   -4.1773    0.8327 </r>
       <r>   -4.1766    0.8299 </r>
       <r>   -4.1749    0.8233 </r>
       <r>   -4.1685    0.7967 </r>
       <r>   -4.1604    0.7612 </r>
       <r>   -4.1550    0.7365 </r>
       <r>   -4.1440    0.6837 </r>
       <r>   -4.1421    0.6743 </r>
       <r>   -4.1363    0.6452 </r>
       <r>   -4.1355    0.6412 </r>
       <r>   -4.1292    0.6090 </r>
       <r>   -4.1279    0.6023 </r>
       <r>   -4.1176    0.5485 </r>
       <r>   -4.1170    0.5451 </r>
       <r>   -4.1048    0.4809 </r>
       <r>   -4.0941    0.4245 </r>
       <r>   -4.0863    0.3841 </r>
       <r>   -4.0779    0.3417 </r>
       <r>   -4.0776    0.3399 </r>
       <r>   -4.0721    0.3126 </r>
       <r>   -3.9438   -0.0442 </r>
       <r>   -3.8884   -0.0461 </r>
       <r>   -3.8663   -0.0368 </r>
       <r>   -3.7848   -0.0036 </r>
       <r>   -3.7757   -0.0015 </r>
       <r>   -3.5915    0.0016 </r>
       <r>   -3.4507    0.0001 </r>
       <r>   -3.4417    0.0001 </r>
       <r>   -3.1825    0.0000 </r>
       <r>   -3.0334    0.0000 </r>
       <r>   -3.0270    0.0000 </r>
       <r>   -3.0234    0.0000 </r>
       <r>   -2.9814    0.0000 </r>
       <r>   -2.9735    0.0000 </r>
       <r>   -2.9496    0.0000 </r>
       <r>   -2.8654    0.0000 </r>
       <r>   -2.7390    0.0000 </r>
       <r>   -2.4919    0.0000 </r>
       <r>   -2.4708    0.0000 </r>
       <r>   -2.4153    0.0000 </r>
       <r>   -2.3301    0.0000 </r>
       <r>   -2.1699    0.0000 </r>
       <r>   -2.0820    0.0000 </r>
       <r>   -2.0141    0.0000 </r>
       <r>   -1.9387    0.0000 </r>
       <r>   -1.9103    0.0000 </r>
       <r>   -1.8613    0.0000 </r>
       <r>   -1.8255    0.0000 </r>
       <r>   -1.7906    0.0000 </r>
       <r>   -1.7574    0.0000 </r>
       <r>   -1.6637    0.0000 </r>
       <r>   -1.6280    0.0000 </r>
       <r>   -1.5675    0.0000 </r>
       <r>   -1.4978    0.0000 </r>
       <r>   -1.4078    0.0000 </r>
       <r>   -1.3828    0.0000 </r>
       <r>   -1.3032    0.0000 </r>
       <r>   -1.1942    0.0000 </r>
       <r>   -1.1796    0.0000 </r>
       <r>   -1.0562    0.0000 </r>
       <r>   -0.9549    0.0000 </r>
       <r>   -0.9496    0.0000 </r>
       <r>   -0.9008    0.0000 </r>
       <r>   -0.8899    0.0000 </r>
       <r>   -0.8490    0.0000 </r>
       <r>   -0.7693    0.0000 </r>
       <r>   -0.7130    0.0000 </r>
       <r>   -0.6731    0.0000 </r>
      </set>
     </set>
    </set>
   </array>
  </eigenvalues>
  <separator name="orbital magnetization" >
   <v name="MAGDIPOLOUT">      0.00000000      0.00000000      0.00000000</v>
  </separator>
  <dos>
   <i name="efermi">     -4.10840927 </i>
   <total>
    <array>
     <dimension dim="1">gridpoints</dimension>
     <dimension dim="2">spin</dimension>
     <field>energy</field>
     <field>total</field>
     <field>integrated</field>
     <set>
      <set comment="spin 1">
       <r>   -31.5051     0.0000     0.0000 </r>
       <r>   -31.3957     0.0000     0.0000 </r>
       <r>   -31.2862     0.0000     0.0000 </r>
       <r>   -31.1768     0.0000     0.0000 </r>
       <r>   -31.0674     0.0000     0.0000 </r>
       <r>   -30.9579     0.0000     0.0000 </r>
       <r>   -30.8485     0.0000     0.0000 </r>
       <r>   -30.7390     0.0000     0.0000 </r>
       <r>   -30.6296     0.0000     0.0000 </r>
       <r>   -30.5202     0.0000     0.0000 </r>
       <r>   -30.4107     0.0000     0.0000 </r>
       <r>   -30.3013     0.0000     0.0000 </r>
       <r>   -30.1918     0.0006     0.0001 </r>
       <r>   -30.0824     0.0085     0.0010 </r>
       <r>   -29.9730     0.0495     0.0064 </r>
       <r>   -29.8635    -0.0094     0.0054 </r>
       <r>   -29.7541    -0.6624    -0.0671 </r>
       <r>   -29.6446     0.2419    -0.0406 </r>
       <r>   -29.5352     6.6521     0.6874 </r>
       <r>   -29.4258     9.6639     1.7450 </r>
       <r>   -29.3163     3.2723     2.1031 </r>
       <r>   -29.2069    -0.7307     2.0231 </r>
       <r>   -29.0974    -0.3014     1.9901 </r>
       <r>   -28.9880     0.0612     1.9968 </r>
       <r>   -28.8786     0.0260     1.9997 </r>
       <r>   -28.7691     0.0027     2.0000 </r>
       <r>   -28.6597     0.0001     2.0000 </r>
       <r>   -28.5502     0.0000     2.0000 </r>
       <r>   -28.4408     0.0000     2.0000 </r>
       <r>   -28.3314     0.0000     2.0000 </r>
       <r>   -28.2219     0.0000     2.0000 </r>
       <r>   -28.1125     0.0000     2.0000 </r>
       <r>   -28.0030     0.0000     2.0000 </r>
       <r>   -27.8936     0.0000     2.0000 </r>
       <r>   -27.7842     0.0000     2.0000 </r>
       <r>   -27.6747     0.0000     2.0000 </r>
       <r>   -27.5653     0.0000     2.0000 </r>
       <r>   -27.4558     0.0000     2.0000 </r>
       <r>   -27.3464     0.0000     2.0000 </r>
       <r>   -27.2370     0.0000     2.0000 </r>
       <r>   -27.1275     0.0000     2.0000 </r>
       <r>   -27.0181     0.0000     2.0000 </r>
       <r>   -26.9086     0.0000     2.0000 </r>
       <r>   -26.7992     0.0000     2.0000 </r>
       <r>   -26.6898     0.0000     2.0000 </r>
       <r>   -26.5803     0.0000     2.0000 </r>
       <r>   -26.4709     0.0000     2.0000 </r>
       <r>   -26.3614     0.0000     2.0000 </r>
       <r>   -26.2520     0.0000     2.0000 </r>
       <r>   -26.1426     0.0000     2.0000 </r>
       <r>   -26.0331     0.0000     2.0000 </r>
       <r>   -25.9237     0.0000     2.0000 </r>
       <r>   -25.8142     0.0000     2.0000 </r>
       <r>   -25.7048     0.0000     2.0000 </r>
       <r>   -25.5954     0.0000     2.0000 </r>
       <r>   -25.4859     0.0000     2.0000 </r>
       <r>   -25.3765     0.0000     2.0000 </r>
       <r>   -25.2670     0.0000     2.0000 </r>
       <r>   -25.1576     0.0000     2.0000 </r>
       <r>   -25.0482     0.0000     2.0000 </r>
       <r>   -24.9387     0.0000     2.0000 </r>
       <r>   -24.8293     0.0000     2.0000 </r>
       <r>   -24.7198     0.0000     2.0000 </r>
       <r>   -24.6104     0.0000     2.0000 </r>
       <r>   -24.5010     0.0000     2.0000 </r>
       <r>   -24.3915     0.0000     2.0000 </r>
       <r>   -24.2821     0.0000     2.0000 </r>
       <r>   -24.1726     0.0000     2.0000 </r>
       <r>   -24.0632     0.0000     2.0000 </r>
       <r>   -23.9538     0.0000     2.0000 </r>
       <r>   -23.8443     0.0000     2.0000 </r>
       <r>   -23.7349     0.0000     2.0000 </r>
       <r>   -23.6254     0.0000     2.0000 </r>
       <r>   -23.5160     0.0000     2.0000 </r>
       <r>   -23.4066     0.0000     2.0000 </r>
       <r>   -23.2971     0.0000     2.0000 </r>
       <r>   -23.1877     0.0000     2.0000 </r>
       <r>   -23.0782     0.0000     2.0000 </r>
       <r>   -22.9688     0.0000     2.0000 </r>
       <r>   -22.8593     0.0000     2.0000 </r>
       <r>   -22.7499     0.0000     2.0000 </r>
       <r>   -22.6405     0.0000     2.0000 </r>
       <r>   -22.5310     0.0000     2.0000 </r>
       <r>   -22.4216     0.0000     2.0000 </r>
       <r>   -22.3121     0.0000     2.0000 </r>
       <r>   -22.2027     0.0000     2.0000 </r>
       <r>   -22.0933     0.0000     2.0000 </r>
       <r>   -21.9838     0.0000     2.0000 </r>
       <r>   -21.8744     0.0000     2.0000 </r>
       <r>   -21.7649     0.0000     2.0000 </r>
       <r>   -21.6555     0.0000     2.0000 </r>
       <r>   -21.5461     0.0000     2.0000 </r>
       <r>   -21.4366     0.0000     2.0000 </r>
       <r>   -21.3272     0.0000     2.0000 </r>
       <r>   -21.2177     0.0000     2.0000 </r>
       <r>   -21.1083     0.0000     2.0000 </r>
       <r>   -20.9989     0.0000     2.0000 </r>
       <r>   -20.8894     0.0000     2.0000 </r>
       <r>   -20.7800     0.0000     2.0000 </r>
       <r>   -20.6705     0.0000     2.0000 </r>
       <r>   -20.5611     0.0000     2.0000 </r>
       <r>   -20.4517     0.0000     2.0000 </r>
       <r>   -20.3422     0.0000     2.0000 </r>
       <r>   -20.2328     0.0000     2.0000 </r>
       <r>   -20.1233     0.0000     2.0000 </r>
       <r>   -20.0139     0.0000     2.0000 </r>
       <r>   -19.9045     0.0000     2.0000 </r>
       <r>   -19.7950     0.0000     2.0000 </r>
       <r>   -19.6856     0.0000     2.0000 </r>
       <r>   -19.5761     0.0000     2.0000 </r>
       <r>   -19.4667     0.0000     2.0000 </r>
       <r>   -19.3573     0.0000     2.0000 </r>
       <r>   -19.2478     0.0000     2.0000 </r>
       <r>   -19.1384     0.0000     2.0000 </r>
       <r>   -19.0289     0.0000     2.0000 </r>
       <r>   -18.9195     0.0000     2.0000 </r>
       <r>   -18.8101     0.0000     2.0000 </r>
       <r>   -18.7006     0.0000     2.0000 </r>
       <r>   -18.5912     0.0000     2.0000 </r>
       <r>   -18.4817     0.0000     2.0000 </r>
       <r>   -18.3723     0.0000     2.0000 </r>
       <r>   -18.2629     0.0000     2.0000 </r>
       <r>   -18.1534     0.0000     2.0000 </r>
       <r>   -18.0440     0.0000     2.0000 </r>
       <r>   -17.9345     0.0000     2.0000 </r>
       <r>   -17.8251     0.0000     2.0000 </r>
       <r>   -17.7157     0.0000     2.0000 </r>
       <r>   -17.6062     0.0000     2.0000 </r>
       <r>   -17.4968     0.0000     2.0000 </r>
       <r>   -17.3873     0.0000     2.0000 </r>
       <r>   -17.2779     0.0000     2.0000 </r>
       <r>   -17.1685     0.0000     2.0000 </r>
       <r>   -17.0590     0.0000     2.0000 </r>
       <r>   -16.9496     0.0000     2.0000 </r>
       <r>   -16.8401     0.0000     2.0000 </r>
       <r>   -16.7307     0.0000     2.0000 </r>
       <r>   -16.6213     0.0000     2.0000 </r>
       <r>   -16.5118     0.0000     2.0000 </r>
       <r>   -16.4024     0.0000     2.0000 </r>
       <r>   -16.2929     0.0000     2.0000 </r>
       <r>   -16.1835     0.0000     2.0000 </r>
       <r>   -16.0741     0.0000     2.0000 </r>
       <r>   -15.9646     0.0000     2.0000 </r>
       <r>   -15.8552     0.0000     2.0000 </r>
       <r>   -15.7457     0.0000     2.0000 </r>
       <r>   -15.6363     0.0000     2.0000 </r>
       <r>   -15.5269     0.0000     2.0000 </r>
       <r>   -15.4174     0.0000     2.0000 </r>
       <r>   -15.3080     0.0000     2.0000 </r>
       <r>   -15.1985     0.0000     2.0000 </r>
       <r>   -15.0891     0.0001     2.0000 </r>
       <r>   -14.9797     0.0031     2.0004 </r>
       <r>   -14.8702     0.0281     2.0034 </r>
       <r>   -14.7608     0.0588     2.0099 </r>
       <r>   -14.6513    -0.3366     1.9730 </r>
       <r>   -14.5419    -0.6866     1.8979 </r>
       <r>   -14.4325     3.6034     2.2922 </r>
       <r>   -14.3230     9.7816     3.3627 </r>
       <r>   -14.2136     6.3106     4.0534 </r>
       <r>   -14.1041     0.0812     4.0623 </r>
       <r>   -13.9947    -0.6278     3.9936 </r>
       <r>   -13.8852     0.0037     3.9940 </r>
       <r>   -13.7758     0.0470     3.9991 </r>
       <r>   -13.6664     0.0076     3.9999 </r>
       <r>   -13.5569     0.0005     4.0000 </r>
       <r>   -13.4475     0.0000     4.0000 </r>
       <r>   -13.3380     0.0003     4.0000 </r>
       <r>   -13.2286     0.0056     4.0007 </r>
       <r>   -13.1192     0.0403     4.0051 </r>
       <r>   -13.0097     0.0370     4.0091 </r>
       <r>   -12.9003    -0.4878     3.9557 </r>
       <r>   -12.7908    -0.2458     3.9288 </r>
       <r>   -12.6814     4.8521     4.4599 </r>
       <r>   -12.5720     9.6136     5.5120 </r>
       <r>   -12.4625     9.6611     6.5693 </r>
       <r>   -12.3531     9.4764     7.6064 </r>
       <r>   -12.2436     4.3386     8.0812 </r>
       <r>   -12.1342    -0.4019     8.0372 </r>
       <r>   -12.0248    -0.4292     7.9902 </r>
       <r>   -11.9153     0.0480     7.9955 </r>
       <r>   -11.8059     0.0362     7.9995 </r>
       <r>   -11.6964     0.0047     8.0000 </r>
       <r>   -11.5870     0.0005     8.0000 </r>
       <r>   -11.4776     0.0050     8.0006 </r>
       <r>   -11.3681     0.0376     8.0047 </r>
       <r>   -11.2587     0.0393     8.0090 </r>
       <r>   -11.1492    -0.4890     7.9555 </r>
       <r>   -11.0398    -0.3863     7.9132 </r>
       <r>   -10.9304     5.0101     8.4615 </r>
       <r>   -10.8209     9.9864     9.5544 </r>
       <r>   -10.7115     4.8842    10.0890 </r>
       <r>   -10.6020    -0.4211    10.0429 </r>
       <r>   -10.4926    -0.4753     9.9909 </r>
       <r>   -10.3832     0.0417     9.9954 </r>
       <r>   -10.2737     0.0367     9.9994 </r>
       <r>   -10.1643     0.0048    10.0000 </r>
       <r>   -10.0548     0.0003    10.0000 </r>
       <r>    -9.9454     0.0000    10.0000 </r>
       <r>    -9.8360     0.0000    10.0000 </r>
       <r>    -9.7265     0.0000    10.0000 </r>
       <r>    -9.6171     0.0000    10.0000 </r>
       <r>    -9.5076     0.0000    10.0000 </r>
       <r>    -9.3982     0.0000    10.0000 </r>
       <r>    -9.2888     0.0000    10.0000 </r>
       <r>    -9.1793     0.0000    10.0000 </r>
       <r>    -9.0699     0.0000    10.0000 </r>
       <r>    -8.9604     0.0000    10.0000 </r>
       <r>    -8.8510     0.0000    10.0000 </r>
       <r>    -8.7416     0.0000    10.0000 </r>
       <r>    -8.6321     0.0000    10.0000 </r>
       <r>    -8.5227     0.0000    10.0000 </r>
       <r>    -8.4132     0.0000    10.0000 </r>
       <r>    -8.3038     0.0000    10.0000 </r>
       <r>    -8.1944     0.0000    10.0000 </r>
       <r>    -8.0849     0.0000    10.0000 </r>
       <r>    -7.9755     0.0000    10.0000 </r>
       <r>    -7.8660     0.0000    10.0000 </r>
       <r>    -7.7566     0.0000    10.0000 </r>
       <r>    -7.6472     0.0000    10.0000 </r>
       <r>    -7.5377     0.0000    10.0000 </r>
       <r>    -7.4283     0.0000    10.0000 </r>
       <r>    -7.3188     0.0003    10.0000 </r>
       <r>    -7.2094     0.0065    10.0008 </r>
       <r>    -7.1000     0.0530    10.0066 </r>
       <r>    -6.9905     0.0979    10.0173 </r>
       <r>    -6.8811    -0.5695     9.9549 </r>
       <r>    -6.7716    -1.0459     9.8405 </r>
       <r>    -6.6622     5.9974    10.4968 </r>
       <r>    -6.5528    17.7335    12.4376 </r>
       <r>    -6.4433    17.8271    14.3886 </r>
       <r>    -6.3339     9.3339    15.4101 </r>
       <r>    -6.2244     8.2523    16.3132 </r>
       <r>    -6.1150    22.7792    18.8062 </r>
       <r>    -6.0056    23.3271    21.3591 </r>
       <r>    -5.8961    13.5888    22.8463 </r>
       <r>    -5.7867    31.1302    26.2532 </r>
       <r>    -5.6772    68.3898    33.7378 </r>
       <r>    -5.5678   144.9815    49.6046 </r>
       <r>    -5.4584   253.4268    77.3397 </r>
       <r>    -5.3489   288.3140   108.8928 </r>
       <r>    -5.2395   240.4023   135.2025 </r>
       <r>    -5.1300   229.7310   160.3443 </r>
       <r>    -5.0206   293.8666   192.5052 </r>
       <r>    -4.9112   355.2656   231.3855 </r>
       <r>    -4.8017   333.9013   267.9277 </r>
       <r>    -4.6923   309.7337   301.8251 </r>
       <r>    -4.5828   369.8468   342.3012 </r>
       <r>    -4.4734   407.8211   386.9332 </r>
       <r>    -4.3639   427.1265   433.6780 </r>
       <r>    -4.2545   522.9540   490.9103 </r>
       <r>    -4.1451   510.7902   546.8113 </r>
       <r>    -4.0356   258.9844   575.1546 </r>
       <r>    -3.9262    46.6768   580.2629 </r>
       <r>    -3.8167    19.1149   582.3548 </r>
       <r>    -3.7073    27.0073   585.3105 </r>
       <r>    -3.5979    15.6300   587.0211 </r>
       <r>    -3.4884    18.7055   589.0682 </r>
       <r>    -3.3790    20.4789   591.3094 </r>
       <r>    -3.2695     7.4481   592.1245 </r>
       <r>    -3.1601     7.2558   592.9186 </r>
       <r>    -3.0507    36.2711   596.8881 </r>
       <r>    -2.9412    60.2676   603.4838 </r>
       <r>    -2.8318    40.4698   607.9129 </r>
       <r>    -2.7223    12.9244   609.3273 </r>
       <r>    -2.6129     4.9325   609.8671 </r>
       <r>    -2.5035    16.7150   611.6964 </r>
       <r>    -2.3940    31.1063   615.1007 </r>
       <r>    -2.2846    22.8886   617.6056 </r>
       <r>    -2.1751    13.5930   619.0933 </r>
       <r>    -2.0657    20.1348   621.2968 </r>
       <r>    -1.9563    33.1709   624.9271 </r>
       <r>    -1.8468    46.0277   629.9643 </r>
       <r>    -1.7374    45.8194   634.9788 </r>
       <r>    -1.6279    36.0321   638.9222 </r>
       <r>    -1.5185    31.0260   642.3177 </r>
       <r>    -1.4091    30.5195   645.6577 </r>
       <r>    -1.2996    30.0390   648.9452 </r>
       <r>    -1.1902    26.5428   651.8501 </r>
       <r>    -1.0807    22.9517   654.3619 </r>
       <r>    -0.9713    32.7760   657.9489 </r>
       <r>    -0.8619    48.8818   663.2986 </r>
       <r>    -0.7524    44.6554   668.1857 </r>
       <r>    -0.6430    27.8260   671.2309 </r>
       <r>    -0.5335     8.8348   672.1978 </r>
       <r>    -0.4241    -1.1804   672.0686 </r>
       <r>    -0.3147    -0.8765   671.9727 </r>
       <r>    -0.2052     0.1420   671.9883 </r>
       <r>    -0.0958     0.0936   671.9985 </r>
       <r>     0.0137     0.0129   671.9999 </r>
       <r>     0.1231     0.0007   672.0000 </r>
       <r>     0.2325     0.0000   672.0000 </r>
       <r>     0.3420     0.0000   672.0000 </r>
       <r>     0.4514     0.0000   672.0000 </r>
       <r>     0.5609     0.0000   672.0000 </r>
       <r>     0.6703     0.0000   672.0000 </r>
       <r>     0.7797     0.0000   672.0000 </r>
       <r>     0.8892     0.0000   672.0000 </r>
       <r>     0.9986     0.0000   672.0000 </r>
       <r>     1.1081     0.0000   672.0000 </r>
       <r>     1.2175     0.0000   672.0000 </r>
       <r>     1.3269     0.0000   672.0000 </r>
      </set>
     </set>
    </array>
   </total>
  </dos>
 </calculation>
 <structure name="finalpos" >
  <crystal>
   <varray name="basis" >
    <v>      30.00000000       0.00000000       0.00000000 </v>
    <v>       0.00000000      30.00000000       0.00000000 </v>
    <v>       0.00000000       0.00000000      30.00000000 </v>
   </varray>
   <i name="volume">  27000.00000000 </i>
   <varray name="rec_basis" >
    <v>       0.03333333       0.00000000       0.00000000 </v>
    <v>       0.00000000       0.03333333       0.00000000 </v>
    <v>       0.00000000       0.00000000       0.03333333 </v>
   </varray>
  </crystal>
  <varray name="positions" >
   <v>       0.44576020       0.32826710       0.41691983 </v>
   <v>       0.67173288       0.55423978       0.41691983 </v>
   <v>       0.55423980       0.32826710       0.41691983 </v>
   <v>       0.32826712       0.55423978       0.41691983 </v>
   <v>       0.50000000       0.38250690       0.34021317 </v>
   <v>       0.50000000       0.38250690       0.65978680 </v>
   <v>       0.50000000       0.27609440       0.50000000 </v>
   <v>       0.27609443       0.49999998       0.50000000 </v>
   <v>       0.72390557       0.49999998       0.50000000 </v>
   <v>       0.50000000       0.72390555       0.50000000 </v>
   <v>       0.61195280       0.38804720       0.34167483 </v>
   <v>       0.61195280       0.38804720       0.65832513 </v>
   <v>       0.38804722       0.61195278       0.34167483 </v>
   <v>       0.38804722       0.61195278       0.65832513 </v>
   <v>       0.38804720       0.38804720       0.34167483 </v>
   <v>       0.38804720       0.38804720       0.65832513 </v>
   <v>       0.61195278       0.61195278       0.34167483 </v>
   <v>       0.61195278       0.61195278       0.65832513 </v>
   <v>       0.44576020       0.32826710       0.58308023 </v>
   <v>       0.67173288       0.55423978       0.58308023 </v>
   <v>       0.55791699       0.44208301       0.41809300 </v>
   <v>       0.32826705       0.44576024       0.41691983 </v>
   <v>       0.55423973       0.67173293       0.41691983 </v>
   <v>       0.55423980       0.32826710       0.58308023 </v>
   <v>       0.32826712       0.55423978       0.58308023 </v>
   <v>       0.67173295       0.44576024       0.41691983 </v>
   <v>       0.44576027       0.67173293       0.41691983 </v>
   <v>       0.44208301       0.44208301       0.41809300 </v>
   <v>       0.50000000       0.38416601       0.50000000 </v>
   <v>       0.61749315       0.50000005       0.34021317 </v>
   <v>       0.61749315       0.50000005       0.65978680 </v>
   <v>       0.38250685       0.50000005       0.34021317 </v>
   <v>       0.38250685       0.50000005       0.65978680 </v>
   <v>       0.38317830       0.38317830       0.50000000 </v>
   <v>       0.61682172       0.61682172       0.50000000 </v>
   <v>       0.61682170       0.38317830       0.50000000 </v>
   <v>       0.38317828       0.61682172       0.50000000 </v>
   <v>       0.50000000       0.50000000       0.33478917 </v>
   <v>       0.50000000       0.50000000       0.66521087 </v>
   <v>       0.32826705       0.44576024       0.58308023 </v>
   <v>       0.55423973       0.67173293       0.58308023 </v>
   <v>       0.55791699       0.44208301       0.58190703 </v>
   <v>       0.44208298       0.55791702       0.41809300 </v>
   <v>       0.44208301       0.44208301       0.58190703 </v>
   <v>       0.67173295       0.44576024       0.58308023 </v>
   <v>       0.44576027       0.67173293       0.58308023 </v>
   <v>       0.55791702       0.55791702       0.41809300 </v>
   <v>       0.38416599       0.50000002       0.50000000 </v>
   <v>       0.61583401       0.50000002       0.50000000 </v>
   <v>       0.50000000       0.61749319       0.34021317 </v>
   <v>       0.50000000       0.61749319       0.65978680 </v>
   <v>       0.50000000       0.50000000       0.50000000 </v>
   <v>       0.44208298       0.55791702       0.58190703 </v>
   <v>       0.55791702       0.55791702       0.58190703 </v>
   <v>       0.50000000       0.61583404       0.50000000 </v>
   <v>       0.44859533       0.66111763       0.50729823 </v>
   <v>       0.43717723       0.69690533       0.50891930 </v>
  </varray>
  <varray name="selective"  type="logical" >
   <v type="logical" >  F  F  F </v>
   <v type="logical" >  F  F  F </v>
   <v type="logical" >  F  F  F </v>
   <v type="logical" >  F  F  F </v>
   <v type="logical" >  F  F  F </v>
   <v type="logical" >  F  F  F </v>
   <v type="logical" >  F  F  F </v>
   <v type="logical" >  F  F  F </v>
   <v type="logical" >  F  F  F </v>
   <v type="logical" >  F  F  F </v>
   <v type="logical" >  F  F  F </v>
   <v type="logical" >  F  F  F </v>
   <v type="logical" >  F  F  F </v>
   <v type="logical" >  F  F  F </v>
   <v type="logical" >  F  F  F </v>
   <v type="logical" >  F  F  F </v>
   <v type="logical" >  F  F  F </v>
   <v type="logical" >  F  F  F </v>
   <v type="logical" >  F  F  F </v>
   <v type="logical" >  F  F  F </v>
   <v type="logical" >  F  F  F </v>
   <v type="logical" >  F  F  F </v>
   <v type="logical" >  F  F  F </v>
   <v type="logical" >  F  F  F </v>
   <v type="logical" >  F  F  F </v>
   <v type="logical" >  F  F  F </v>
   <v type="logical" >  F  F  F </v>
   <v type="logical" >  F  F  F </v>
   <v type="logical" >  F  F  F </v>
   <v type="logical" >  F  F  F </v>
   <v type="logical" >  F  F  F </v>
   <v type="logical" >  F  F  F </v>
   <v type="logical" >  F  F  F </v>
   <v type="logical" >  F  F  F </v>
   <v type="logical" >  F  F  F </v>
   <v type="logical" >  F  F  F </v>
   <v type="logical" >  F  F  F </v>
   <v type="logical" >  F  F  F </v>
   <v type="logical" >  F  F  F </v>
   <v type="logical" >  F  F  F </v>
   <v type="logical" >  F  F  F </v>
   <v type="logical" >  F  F  F </v>
   <v type="logical" >  F  F  F </v>
   <v type="logical" >  F  F  F </v>
   <v type="logical" >  F  F  F </v>
   <v type="logical" >  F  F  F </v>
   <v type="logical" >  F  F  F </v>
   <v type="logical" >  F  F  F </v>
   <v type="logical" >  F  F  F </v>
   <v type="logical" >  F  F  F </v>
   <v type="logical" >  F  F  F </v>
   <v type="logical" >  F  F  F </v>
   <v type="logical" >  F  F  F </v>
   <v type="logical" >  F  F  F </v>
   <v type="logical" >  F  F  F </v>
   <v type="logical" >  F  F  F </v>
   <v type="logical" >  F  F  F </v>
  </varray>
  <nose>
   <v>      -3.00000000       0.00000000       0.00010000       0.00010000 </v>
  </nose>
 </structure>
</modeling>
