   57   57    1    1
  0.4736842E+03  0.3000000E-08  0.3000000E-08  0.3000000E-08  0.5000000E-15
  1.000000000000000E-004
  CAR 
 6_Pd100_top_free_z(O)                   
    560      1    336
 
  0.0000000E+00  0.0000000E+00  0.0000000E+00  0.1000000E+01
    1      -28.578220   1.000000
    2      -13.355908   1.000000
    3      -11.191203   1.000000
    4      -10.998900   1.000000
    5      -10.139263   1.000000
    6       -6.658045   1.000000
    7       -6.147124   1.000000
    8       -6.141162   1.000000
    9       -6.137811   1.000000
   10       -5.984261   1.000000
   11       -5.877456   1.000000
   12       -5.838162   1.000000
   13       -5.820494   1.000000
   14       -5.803233   1.000000
   15       -5.756173   1.000000
   16       -5.703053   1.000000
   17       -5.695936   1.000000
   18       -5.688923   1.000000
   19       -5.684669   1.000000
   20       -5.638628   1.000000
   21       -5.631004   1.000000
   22       -5.621190   1.000000
   23       -5.607576   1.000000
   24       -5.602889   1.000000
   25       -5.592649   1.000000
   26       -5.564417   1.000000
   27       -5.557828   1.000000
   28       -5.556855   1.000000
   29       -5.555232   1.000000
   30       -5.544701   1.000000
   31       -5.536631   1.000000
   32       -5.530754   1.000000
   33       -5.527134   1.000000
   34       -5.524512   1.000000
   35       -5.523588   1.000000
   36       -5.517610   1.000000
   37       -5.514062   1.000000
   38       -5.492869   1.000000
   39       -5.486358   1.000000
   40       -5.483846   1.000000
   41       -5.480213   1.000000
   42       -5.479456   1.000000
   43       -5.476233   1.000000
   44       -5.470839   1.000000
   45       -5.453103   1.000000
   46       -5.443663   1.000000
   47       -5.442347   1.000000
   48       -5.440609   1.000000
   49       -5.436024   1.000000
   50       -5.433677   1.000000
   51       -5.430058   1.000000
   52       -5.417757   1.000000
   53       -5.416906   1.000000
   54       -5.416108   1.000000
   55       -5.413948   1.000000
   56       -5.400255   1.000000
   57       -5.379205   1.000000
   58       -5.348941   1.000000
   59       -5.338656   1.000000
   60       -5.337088   1.000000
   61       -5.335531   1.000000
   62       -5.332597   1.000000
   63       -5.316152   1.000000
   64       -5.313067   1.000000
   65       -5.311233   1.000000
   66       -5.309643   1.000000
   67       -5.301102   1.000000
   68       -5.284323   1.000000
   69       -5.276631   1.000000
   70       -5.241113   1.000000
   71       -5.220597   1.000000
   72       -5.216254   1.000000
   73       -5.213977   1.000000
   74       -5.204493   1.000000
   75       -5.191257   1.000000
   76       -5.189971   1.000000
   77       -5.187424   1.000000
   78       -5.180492   1.000000
   79       -5.176196   1.000000
   80       -5.171818   1.000000
   81       -5.165851   1.000000
   82       -5.162667   1.000000
   83       -5.151973   1.000000
   84       -5.137509   1.000000
   85       -5.135614   1.000000
   86       -5.132431   1.000000
   87       -5.123888   1.000000
   88       -5.120715   1.000000
   89       -5.112868   1.000000
   90       -5.076699   1.000000
   91       -5.067750   1.000000
   92       -5.067641   1.000000
   93       -5.066797   1.000000
   94       -5.063044   1.000000
   95       -5.060646   1.000000
   96       -5.050046   1.000000
   97       -5.044331   1.000000
   98       -5.041906   1.000000
   99       -5.039889   1.000000
  100       -5.037505   1.000000
  101       -5.027226   1.000000
  102       -5.024919   1.000000
  103       -5.020761   1.000000
  104       -5.018142   1.000000
  105       -5.011718   1.000000
  106       -5.001934   1.000000
  107       -5.000406   1.000000
  108       -4.998650   1.000000
  109       -4.994080   1.000000
  110       -4.983685   1.000000
  111       -4.980358   1.000000
  112       -4.978446   1.000000
  113       -4.974676   1.000000
  114       -4.971235   0.999999
  115       -4.968172   0.999999
  116       -4.963998   0.999999
  117       -4.958160   0.999999
  118       -4.950881   0.999999
  119       -4.948149   0.999999
  120       -4.936322   0.999998
  121       -4.927838   0.999998
  122       -4.926926   0.999997
  123       -4.924994   0.999997
  124       -4.912009   0.999996
  125       -4.911425   0.999996
  126       -4.910546   0.999996
  127       -4.900591   0.999994
  128       -4.882496   0.999989
  129       -4.870573   0.999985
  130       -4.853928   0.999975
  131       -4.853520   0.999975
  132       -4.852132   0.999974
  133       -4.851066   0.999973
  134       -4.846029   0.999968
  135       -4.842831   0.999965
  136       -4.840814   0.999963
  137       -4.830876   0.999952
  138       -4.816673   0.999928
  139       -4.805300   0.999903
  140       -4.802775   0.999897
  141       -4.801445   0.999893
  142       -4.797924   0.999883
  143       -4.784042   0.999833
  144       -4.774326   0.999788
  145       -4.772238   0.999777
  146       -4.766140   0.999743
  147       -4.760319   0.999705
  148       -4.740870   0.999543
  149       -4.733682   0.999466
  150       -4.726757   0.999382
  151       -4.723389   0.999338
  152       -4.713211   0.999187
  153       -4.698872   0.998929
  154       -4.695488   0.998860
  155       -4.694517   0.998839
  156       -4.693108   0.998809
  157       -4.687095   0.998674
  158       -4.683052   0.998577
  159       -4.677207   0.998428
  160       -4.674207   0.998347
  161       -4.666779   0.998136
  162       -4.664202   0.998059
  163       -4.661460   0.997975
  164       -4.658623   0.997886
  165       -4.656701   0.997824
  166       -4.656076   0.997804
  167       -4.655552   0.997787
  168       -4.653142   0.997708
  169       -4.650992   0.997636
  170       -4.644679   0.997418
  171       -4.633899   0.997028
  172       -4.629852   0.996877
  173       -4.616744   0.996385
  174       -4.607432   0.996043
  175       -4.606680   0.996016
  176       -4.605857   0.995987
  177       -4.605154   0.995963
  178       -4.601239   0.995828
  179       -4.588378   0.995434
  180       -4.586223   0.995378
  181       -4.584836   0.995344
  182       -4.581077   0.995259
  183       -4.580462   0.995246
  184       -4.575932   0.995165
  185       -4.564042   0.995065
  186       -4.561837   0.995068
  187       -4.560138   0.995076
  188       -4.559456   0.995080
  189       -4.558645   0.995087
  190       -4.557552   0.995097
  191       -4.529166   0.996267
  192       -4.519303   0.997189
  193       -4.516627   0.997495
  194       -4.514714   0.997729
  195       -4.514145   0.997801
  196       -4.509377   0.998453
  197       -4.504743   0.999171
  198       -4.496891   1.000585
  199       -4.492632   1.001460
  200       -4.488374   1.002415
  201       -4.478822   1.004852
  202       -4.476056   1.005635
  203       -4.474433   1.006111
  204       -4.469357   1.007677
  205       -4.468377   1.007993
  206       -4.460992   1.010512
  207       -4.458750   1.011324
  208       -4.452495   1.013702
  209       -4.450627   1.014443
  210       -4.447274   1.015807
  211       -4.442018   1.018028
  212       -4.435285   1.021006
  213       -4.433402   1.021862
  214       -4.421568   1.027414
  215       -4.419529   1.028391
  216       -4.418927   1.028681
  217       -4.417081   1.029569
  218       -4.412035   1.031998
  219       -4.409769   1.033086
  220       -4.382484   1.045094
  221       -4.380621   1.045774
  222       -4.376545   1.047164
  223       -4.371753   1.048605
  224       -4.363091   1.050576
  225       -4.356447   1.051427
  226       -4.347529   1.051483
  227       -4.347270   1.051464
  228       -4.345001   1.051243
  229       -4.343532   1.051047
  230       -4.342690   1.050915
  231       -4.341486   1.050702
  232       -4.338083   1.049937
  233       -4.337171   1.049690
  234       -4.336875   1.049606
  235       -4.331927   1.047906
  236       -4.330375   1.047255
  237       -4.329534   1.046877
  238       -4.328257   1.046271
  239       -4.327167   1.045721
  240       -4.318336   1.040113
  241       -4.312070   1.034808
  242       -4.309142   1.031926
  243       -4.300911   1.022374
  244       -4.296135   1.015805
  245       -4.295145   1.014345
  246       -4.293730   1.012200
  247       -4.293054   1.011151
  248       -4.292349   1.010039
  249       -4.287481   1.001879
  250       -4.283218   0.994028
  251       -4.274867   0.976686
  252       -4.273620   0.973869
  253       -4.264856   0.952389
  254       -4.264170   0.950584
  255       -4.261037   0.942101
  256       -4.258604   0.935251
  257       -4.257606   0.932374
  258       -4.256732   0.929825
  259       -4.254924   0.924454
  260       -4.252988   0.918562
  261       -4.251803   0.914888
  262       -4.250103   0.909520
  263       -4.248826   0.905414
  264       -4.246374   0.897355
  265       -4.243412   0.887320
  266       -4.242310   0.883503
  267       -4.240790   0.878163
  268       -4.230791   0.840937
  269       -4.228811   0.833147
  270       -4.227344   0.827288
  271       -4.225349   0.819201
  272       -4.219929   0.796576
  273       -4.213322   0.767751
  274       -4.207574   0.741641
  275       -4.193064   0.672026
  276       -4.189454   0.654010
  277       -4.186213   0.637636
  278       -4.183861   0.625651
  279       -4.182000   0.616109
  280       -4.181492   0.613497
  281       -4.179082   0.601059
  282       -4.166690   0.536211
  283       -4.140920   0.400634
  284       -4.139395   0.392749
  285       -4.136445   0.377577
  286       -4.136110   0.375861
  287       -4.124432   0.317219
  288       -4.122696   0.308718
  289       -4.108055   0.239883
  290       -3.975187  -0.051179
  291       -3.900622  -0.028620
  292       -3.823018  -0.000631
  293       -3.822437  -0.000517
  294       -3.713183   0.003990
  295       -3.508712   0.000083
  296       -3.499948   0.000066
  297       -3.457248   0.000019
  298       -3.075612   0.000000
  299       -3.066502   0.000000
  300       -3.054775   0.000000
  301       -3.040119   0.000000
  302       -3.017973   0.000000
  303       -2.971112   0.000000
  304       -2.944132   0.000000
  305       -2.776260   0.000000
  306       -2.556359   0.000000
  307       -2.530880   0.000000
  308       -2.484017   0.000000
  309       -2.345233   0.000000
  310       -2.199975   0.000000
  311       -2.122755   0.000000
  312       -2.079052   0.000000
  313       -2.037668   0.000000
  314       -1.967396   0.000000
  315       -1.907780   0.000000
  316       -1.874272   0.000000
  317       -1.840104   0.000000
  318       -1.778113   0.000000
  319       -1.720328   0.000000
  320       -1.654505   0.000000
  321       -1.615444   0.000000
  322       -1.568358   0.000000
  323       -1.499410   0.000000
  324       -1.343098   0.000000
  325       -1.302714   0.000000
  326       -1.244716   0.000000
  327       -1.205831   0.000000
  328       -1.098167   0.000000
  329       -0.990573   0.000000
  330       -0.975760   0.000000
  331       -0.954861   0.000000
  332       -0.942412   0.000000
  333       -0.898229   0.000000
  334       -0.881978   0.000000
  335       -0.849042   0.000000
  336       -0.697735   0.000000
