  57  57   0   0
  0.4736842E+03  0.3000000E-08  0.3000000E-08  0.3000000E-08  0.5000000E-15
  1.000000000000000E-004
  CAR 
 6_Pd100_top_free_z(O)                   
      1.27423738    -30.49411283  301     -4.14026357      1.00000000
    -30.494  0.0000E+00  0.0000E+00
    -30.388  0.0000E+00  0.0000E+00
    -30.282  0.0000E+00  0.0000E+00
    -30.176  0.2817E-27  0.2983E-28
    -30.071  0.1284E-23  0.1360E-24
    -29.965  0.3289E-20  0.3485E-21
    -29.859  0.4725E-17  0.5007E-18
    -29.753  0.3792E-14  0.4021E-15
    -29.647  0.1695E-11  0.1799E-12
    -29.541  0.4184E-09  0.4449E-10
    -29.435  0.5653E-07  0.6031E-08
    -29.329  0.4121E-05  0.4424E-06
    -29.223  0.1582E-03  0.1720E-04
    -29.117  0.3052E-02  0.3404E-03
    -29.012  0.2643E-01  0.3139E-02
    -28.906  0.6280E-01  0.9789E-02
    -28.800 -0.2612E+00 -0.1787E-01
    -28.694 -0.7963E+00 -0.1022E+00
    -28.588  0.2460E+01  0.1583E+00
    -28.482  0.9144E+01  0.1127E+01
    -28.376  0.7926E+01  0.1966E+01
    -28.270  0.1166E+01  0.2089E+01
    -28.164 -0.8030E+00  0.2004E+01
    -28.059 -0.1230E+00  0.1991E+01
    -27.953  0.6305E-01  0.1998E+01
    -27.847  0.1759E-01  0.2000E+01
    -27.741  0.1665E-02  0.2000E+01
    -27.635  0.7337E-04  0.2000E+01
    -27.529  0.1648E-05  0.2000E+01
    -27.423  0.1962E-07  0.2000E+01
    -27.317  0.1266E-09  0.2000E+01
    -27.211  0.4487E-12  0.2000E+01
    -27.105  0.0000E+00  0.2000E+01
    -27.000  0.0000E+00  0.2000E+01
    -26.894  0.0000E+00  0.2000E+01
    -26.788  0.0000E+00  0.2000E+01
    -26.682  0.0000E+00  0.2000E+01
    -26.576  0.0000E+00  0.2000E+01
    -26.470  0.0000E+00  0.2000E+01
    -26.364  0.0000E+00  0.2000E+01
    -26.258  0.0000E+00  0.2000E+01
    -26.152  0.0000E+00  0.2000E+01
    -26.047  0.0000E+00  0.2000E+01
    -25.941  0.0000E+00  0.2000E+01
    -25.835  0.0000E+00  0.2000E+01
    -25.729  0.0000E+00  0.2000E+01
    -25.623  0.0000E+00  0.2000E+01
    -25.517  0.0000E+00  0.2000E+01
    -25.411  0.0000E+00  0.2000E+01
    -25.305  0.0000E+00  0.2000E+01
    -25.199  0.0000E+00  0.2000E+01
    -25.093  0.0000E+00  0.2000E+01
    -24.988  0.0000E+00  0.2000E+01
    -24.882  0.0000E+00  0.2000E+01
    -24.776  0.0000E+00  0.2000E+01
    -24.670  0.0000E+00  0.2000E+01
    -24.564  0.0000E+00  0.2000E+01
    -24.458  0.0000E+00  0.2000E+01
    -24.352  0.0000E+00  0.2000E+01
    -24.246  0.0000E+00  0.2000E+01
    -24.140  0.0000E+00  0.2000E+01
    -24.035  0.0000E+00  0.2000E+01
    -23.929  0.0000E+00  0.2000E+01
    -23.823  0.0000E+00  0.2000E+01
    -23.717  0.0000E+00  0.2000E+01
    -23.611  0.0000E+00  0.2000E+01
    -23.505  0.0000E+00  0.2000E+01
    -23.399  0.0000E+00  0.2000E+01
    -23.293  0.0000E+00  0.2000E+01
    -23.187  0.0000E+00  0.2000E+01
    -23.081  0.0000E+00  0.2000E+01
    -22.976  0.0000E+00  0.2000E+01
    -22.870  0.0000E+00  0.2000E+01
    -22.764  0.0000E+00  0.2000E+01
    -22.658  0.0000E+00  0.2000E+01
    -22.552  0.0000E+00  0.2000E+01
    -22.446  0.0000E+00  0.2000E+01
    -22.340  0.0000E+00  0.2000E+01
    -22.234  0.0000E+00  0.2000E+01
    -22.128  0.0000E+00  0.2000E+01
    -22.023  0.0000E+00  0.2000E+01
    -21.917  0.0000E+00  0.2000E+01
    -21.811  0.0000E+00  0.2000E+01
    -21.705  0.0000E+00  0.2000E+01
    -21.599  0.0000E+00  0.2000E+01
    -21.493  0.0000E+00  0.2000E+01
    -21.387  0.0000E+00  0.2000E+01
    -21.281  0.0000E+00  0.2000E+01
    -21.175  0.0000E+00  0.2000E+01
    -21.070  0.0000E+00  0.2000E+01
    -20.964  0.0000E+00  0.2000E+01
    -20.858  0.0000E+00  0.2000E+01
    -20.752  0.0000E+00  0.2000E+01
    -20.646  0.0000E+00  0.2000E+01
    -20.540  0.0000E+00  0.2000E+01
    -20.434  0.0000E+00  0.2000E+01
    -20.328  0.0000E+00  0.2000E+01
    -20.222  0.0000E+00  0.2000E+01
    -20.116  0.0000E+00  0.2000E+01
    -20.011  0.0000E+00  0.2000E+01
    -19.905  0.0000E+00  0.2000E+01
    -19.799  0.0000E+00  0.2000E+01
    -19.693  0.0000E+00  0.2000E+01
    -19.587  0.0000E+00  0.2000E+01
    -19.481  0.0000E+00  0.2000E+01
    -19.375  0.0000E+00  0.2000E+01
    -19.269  0.0000E+00  0.2000E+01
    -19.163  0.0000E+00  0.2000E+01
    -19.058  0.0000E+00  0.2000E+01
    -18.952  0.0000E+00  0.2000E+01
    -18.846  0.0000E+00  0.2000E+01
    -18.740  0.0000E+00  0.2000E+01
    -18.634  0.0000E+00  0.2000E+01
    -18.528  0.0000E+00  0.2000E+01
    -18.422  0.0000E+00  0.2000E+01
    -18.316  0.0000E+00  0.2000E+01
    -18.210  0.0000E+00  0.2000E+01
    -18.104  0.0000E+00  0.2000E+01
    -17.999  0.0000E+00  0.2000E+01
    -17.893  0.0000E+00  0.2000E+01
    -17.787  0.0000E+00  0.2000E+01
    -17.681  0.0000E+00  0.2000E+01
    -17.575  0.0000E+00  0.2000E+01
    -17.469  0.0000E+00  0.2000E+01
    -17.363  0.0000E+00  0.2000E+01
    -17.257  0.0000E+00  0.2000E+01
    -17.151  0.0000E+00  0.2000E+01
    -17.046  0.0000E+00  0.2000E+01
    -16.940  0.0000E+00  0.2000E+01
    -16.834  0.0000E+00  0.2000E+01
    -16.728  0.0000E+00  0.2000E+01
    -16.622  0.0000E+00  0.2000E+01
    -16.516  0.0000E+00  0.2000E+01
    -16.410  0.0000E+00  0.2000E+01
    -16.304  0.0000E+00  0.2000E+01
    -16.198  0.0000E+00  0.2000E+01
    -16.092  0.0000E+00  0.2000E+01
    -15.987  0.0000E+00  0.2000E+01
    -15.881  0.0000E+00  0.2000E+01
    -15.775  0.0000E+00  0.2000E+01
    -15.669  0.0000E+00  0.2000E+01
    -15.563  0.0000E+00  0.2000E+01
    -15.457  0.0000E+00  0.2000E+01
    -15.351  0.0000E+00  0.2000E+01
    -15.245  0.0000E+00  0.2000E+01
    -15.139  0.0000E+00  0.2000E+01
    -15.034  0.0000E+00  0.2000E+01
    -14.928  0.2040E-25  0.2000E+01
    -14.822  0.6973E-22  0.2000E+01
    -14.716  0.1338E-18  0.2000E+01
    -14.610  0.1438E-15  0.2000E+01
    -14.504  0.8612E-13  0.2000E+01
    -14.398  0.2867E-10  0.2000E+01
    -14.292  0.5242E-08  0.2000E+01
    -14.186  0.5215E-06  0.2000E+01
    -14.080  0.2770E-04  0.2000E+01
    -13.975  0.7603E-03  0.2000E+01
    -13.869  0.1005E-01  0.2001E+01
    -13.763  0.5202E-01  0.2007E+01
    -13.657 -0.1145E-01  0.2005E+01
    -13.551 -0.6506E+00  0.1937E+01
    -13.445  0.4531E-01  0.1941E+01
    -13.339  0.6035E+01  0.2580E+01
    -13.233  0.9946E+01  0.3634E+01
    -13.127  0.4355E+01  0.4095E+01
    -13.022 -0.5088E+00  0.4041E+01
    -12.916 -0.4714E+00  0.3991E+01
    -12.810  0.3900E-01  0.3995E+01
    -12.704  0.3996E-01  0.3999E+01
    -12.598  0.6015E-02  0.4000E+01
    -12.492  0.3819E-03  0.4000E+01
    -12.386  0.1194E-04  0.4000E+01
    -12.280  0.1945E-06  0.4000E+01
    -12.174  0.1744E-08  0.4000E+01
    -12.068  0.7348E-08  0.4000E+01
    -11.963  0.7010E-06  0.4000E+01
    -11.857  0.3576E-04  0.4000E+01
    -11.751  0.9441E-03  0.4000E+01
    -11.645  0.1208E-01  0.4001E+01
    -11.539  0.6206E-01  0.4008E+01
    -11.433  0.8460E-02  0.4009E+01
    -11.327 -0.6671E+00  0.3938E+01
    -11.221 -0.2277E+00  0.3914E+01
    -11.115  0.6108E+01  0.4561E+01
    -11.010  0.1450E+02  0.6096E+01
    -10.904  0.1385E+02  0.7563E+01
    -10.798  0.5117E+01  0.8105E+01
    -10.692 -0.4382E+00  0.8058E+01
    -10.586 -0.6976E+00  0.7984E+01
    -10.480 -0.7684E+00  0.7903E+01
    -10.374  0.1267E+01  0.8037E+01
    -10.268  0.7992E+01  0.8883E+01
    -10.162  0.9104E+01  0.9848E+01
    -10.056  0.2402E+01  0.1010E+02
     -9.951 -0.7999E+00  0.1002E+02
     -9.845 -0.2550E+00  0.9990E+01
     -9.739  0.6307E-01  0.9997E+01
     -9.633  0.2603E-01  0.1000E+02
     -9.527  0.2981E-02  0.1000E+02
     -9.421  0.1535E-03  0.1000E+02
     -9.315  0.3975E-05  0.1000E+02
     -9.209  0.5422E-07  0.1000E+02
     -9.103  0.3991E-09  0.1000E+02
     -8.998  0.1608E-11  0.1000E+02
     -8.892  0.4194E-14  0.1000E+02
     -8.786  0.0000E+00  0.1000E+02
     -8.680  0.0000E+00  0.1000E+02
     -8.574  0.0000E+00  0.1000E+02
     -8.468  0.0000E+00  0.1000E+02
     -8.362  0.0000E+00  0.1000E+02
     -8.256  0.7180E-25  0.1000E+02
     -8.150  0.2251E-21  0.1000E+02
     -8.044  0.3961E-18  0.1000E+02
     -7.939  0.3899E-15  0.1000E+02
     -7.833  0.2138E-12  0.1000E+02
     -7.727  0.6511E-10  0.1000E+02
     -7.621  0.1088E-07  0.1000E+02
     -7.515  0.9861E-06  0.1000E+02
     -7.409  0.4757E-04  0.1000E+02
     -7.303  0.1177E-02  0.1000E+02
     -7.197  0.1378E-01  0.1000E+02
     -7.091  0.5901E-01  0.1001E+02
     -6.986 -0.6517E-01  0.1000E+02
     -6.880 -0.7488E+00  0.9922E+01
     -6.774  0.6042E+00  0.9986E+01
     -6.668  0.7174E+01  0.1075E+02
     -6.562  0.9802E+01  0.1178E+02
     -6.456  0.2821E+01  0.1208E+02
     -6.350 -0.2926E+01  0.1177E+02
     -6.244  0.4314E+01  0.1223E+02
     -6.138  0.2371E+02  0.1474E+02
     -6.032  0.2855E+02  0.1776E+02
     -5.927  0.2323E+02  0.2022E+02
     -5.821  0.3370E+02  0.2379E+02
     -5.715  0.6137E+02  0.3029E+02
     -5.609  0.1328E+03  0.4436E+02
     -5.503  0.2509E+03  0.7093E+02
     -5.397  0.3022E+03  0.1029E+03
     -5.291  0.2421E+03  0.1286E+03
     -5.185  0.2067E+03  0.1505E+03
     -5.079  0.2792E+03  0.1800E+03
     -4.974  0.3631E+03  0.2185E+03
     -4.868  0.3388E+03  0.2544E+03
     -4.762  0.2886E+03  0.2849E+03
     -4.656  0.3462E+03  0.3216E+03
     -4.550  0.4160E+03  0.3656E+03
     -4.444  0.4218E+03  0.4103E+03
     -4.338  0.4808E+03  0.4612E+03
     -4.232  0.5547E+03  0.5199E+03
     -4.126  0.4170E+03  0.5641E+03
     -4.020  0.1458E+03  0.5795E+03
     -3.915  0.1954E+02  0.5816E+03
     -3.809  0.2781E+02  0.5846E+03
     -3.703  0.2697E+02  0.5874E+03
     -3.597  0.8981E+01  0.5884E+03
     -3.491  0.1504E+02  0.5900E+03
     -3.385  0.2250E+02  0.5923E+03
     -3.279  0.1012E+02  0.5934E+03
     -3.173  0.3675E+01  0.5938E+03
     -3.067  0.3550E+02  0.5976E+03
     -2.962  0.6495E+02  0.6044E+03
     -2.856  0.4166E+02  0.6089E+03
     -2.750  0.9013E+01  0.6098E+03
     -2.644  0.6171E+01  0.6105E+03
     -2.538  0.2365E+02  0.6130E+03
     -2.432  0.2373E+02  0.6155E+03
     -2.326  0.5666E+01  0.6161E+03
     -2.220  0.1022E+02  0.6172E+03
     -2.114  0.3293E+02  0.6206E+03
     -2.008  0.4238E+02  0.6251E+03
     -1.903  0.4137E+02  0.6295E+03
     -1.797  0.3968E+02  0.6337E+03
     -1.691  0.3892E+02  0.6378E+03
     -1.585  0.4001E+02  0.6421E+03
     -1.479  0.3568E+02  0.6459E+03
     -1.373  0.2471E+02  0.6485E+03
     -1.267  0.1023E+02  0.6496E+03
     -1.161  0.2915E+01  0.6499E+03
     -1.055  0.2775E+02  0.6528E+03
     -0.950  0.6990E+02  0.6602E+03
     -0.844  0.7008E+02  0.6676E+03
     -0.738  0.3341E+02  0.6712E+03
     -0.632  0.8467E+01  0.6721E+03
     -0.526  0.1696E+00  0.6721E+03
     -0.420 -0.8514E+00  0.6720E+03
     -0.314 -0.2748E-01  0.6720E+03
     -0.208  0.1257E+00  0.6720E+03
     -0.102  0.3344E-01  0.6720E+03
      0.004  0.3439E-02  0.6720E+03
      0.109  0.1694E-03  0.6720E+03
      0.215  0.4295E-05  0.6720E+03
      0.321  0.5799E-07  0.6720E+03
      0.427  0.4252E-09  0.6720E+03
      0.533  0.1713E-11  0.6720E+03
      0.639  0.4194E-14  0.6720E+03
      0.745  0.0000E+00  0.6720E+03
      0.851  0.0000E+00  0.6720E+03
      0.957  0.0000E+00  0.6720E+03
      1.062  0.0000E+00  0.6720E+03
      1.168  0.0000E+00  0.6720E+03
      1.274  0.0000E+00  0.6720E+03
