   57   57    1    1
  0.4736842E+03  0.3000000E-08  0.3000000E-08  0.3000000E-08  0.5000000E-15
  1.000000000000000E-004
  CAR 
 6_Pd100_top_free_z(O)                   
    560      1    336
 
  0.0000000E+00  0.0000000E+00  0.0000000E+00  0.1000000E+01
    1      -28.878550   1.000000
    2      -13.464285   1.000000
    3      -11.238660   1.000000
    4      -11.226544   1.000000
    5       -9.639767   1.000000
    6       -6.629457   1.000000
    7       -6.119120   1.000000
    8       -6.115980   1.000000
    9       -6.101074   1.000000
   10       -5.808787   1.000000
   11       -5.802744   1.000000
   12       -5.799051   1.000000
   13       -5.731994   1.000000
   14       -5.681769   1.000000
   15       -5.673780   1.000000
   16       -5.672490   1.000000
   17       -5.671623   1.000000
   18       -5.622853   1.000000
   19       -5.610835   1.000000
   20       -5.595943   1.000000
   21       -5.585513   1.000000
   22       -5.584741   1.000000
   23       -5.581782   1.000000
   24       -5.564002   1.000000
   25       -5.558631   1.000000
   26       -5.537112   1.000000
   27       -5.534782   1.000000
   28       -5.518470   1.000000
   29       -5.510397   1.000000
   30       -5.508907   1.000000
   31       -5.504110   1.000000
   32       -5.503483   1.000000
   33       -5.502891   1.000000
   34       -5.500301   1.000000
   35       -5.499150   1.000000
   36       -5.478266   1.000000
   37       -5.467862   1.000000
   38       -5.465429   1.000000
   39       -5.461253   1.000000
   40       -5.459469   1.000000
   41       -5.455234   1.000000
   42       -5.453824   1.000000
   43       -5.453156   1.000000
   44       -5.445895   1.000000
   45       -5.430629   1.000000
   46       -5.416828   1.000000
   47       -5.415259   1.000000
   48       -5.415109   1.000000
   49       -5.413443   1.000000
   50       -5.412324   1.000000
   51       -5.410355   1.000000
   52       -5.401335   1.000000
   53       -5.392659   1.000000
   54       -5.389826   1.000000
   55       -5.381165   1.000000
   56       -5.328327   1.000000
   57       -5.322736   1.000000
   58       -5.317849   1.000000
   59       -5.313488   1.000000
   60       -5.305255   1.000000
   61       -5.302912   1.000000
   62       -5.302045   1.000000
   63       -5.293627   1.000000
   64       -5.289865   1.000000
   65       -5.287109   1.000000
   66       -5.279183   1.000000
   67       -5.277694   1.000000
   68       -5.231468   1.000000
   69       -5.213493   1.000000
   70       -5.206981   1.000000
   71       -5.196445   1.000000
   72       -5.171652   1.000000
   73       -5.167045   1.000000
   74       -5.165847   1.000000
   75       -5.165195   1.000000
   76       -5.161592   1.000000
   77       -5.156927   1.000000
   78       -5.153574   1.000000
   79       -5.142970   1.000000
   80       -5.134544   1.000000
   81       -5.129839   1.000000
   82       -5.114560   1.000000
   83       -5.110974   1.000000
   84       -5.110129   1.000000
   85       -5.098300   1.000000
   86       -5.091741   1.000000
   87       -5.088685   1.000000
   88       -5.062867   1.000000
   89       -5.053803   1.000000
   90       -5.045349   1.000000
   91       -5.044068   1.000000
   92       -5.042647   1.000000
   93       -5.040353   1.000000
   94       -5.034944   1.000000
   95       -5.034411   1.000000
   96       -5.033991   1.000000
   97       -5.023711   1.000000
   98       -5.014043   1.000000
   99       -5.009093   1.000000
  100       -5.006122   1.000000
  101       -5.003128   1.000000
  102       -4.992278   1.000000
  103       -4.991879   1.000000
  104       -4.988812   1.000000
  105       -4.986484   1.000000
  106       -4.978901   1.000000
  107       -4.976084   1.000000
  108       -4.973211   1.000000
  109       -4.967696   1.000000
  110       -4.966941   1.000000
  111       -4.965182   1.000000
  112       -4.955291   1.000000
  113       -4.954554   1.000000
  114       -4.945732   0.999999
  115       -4.940400   0.999999
  116       -4.939183   0.999999
  117       -4.932230   0.999999
  118       -4.912429   0.999998
  119       -4.909483   0.999998
  120       -4.905053   0.999998
  121       -4.902284   0.999998
  122       -4.898979   0.999997
  123       -4.894648   0.999997
  124       -4.894464   0.999997
  125       -4.888448   0.999996
  126       -4.885725   0.999996
  127       -4.851608   0.999988
  128       -4.845539   0.999985
  129       -4.836737   0.999981
  130       -4.831346   0.999978
  131       -4.830817   0.999977
  132       -4.826361   0.999974
  133       -4.819291   0.999968
  134       -4.817600   0.999967
  135       -4.816818   0.999966
  136       -4.815239   0.999964
  137       -4.786406   0.999921
  138       -4.782654   0.999913
  139       -4.781671   0.999910
  140       -4.775107   0.999894
  141       -4.762082   0.999852
  142       -4.750265   0.999801
  143       -4.730169   0.999680
  144       -4.724783   0.999638
  145       -4.723505   0.999627
  146       -4.723084   0.999624
  147       -4.721995   0.999615
  148       -4.697581   0.999348
  149       -4.696623   0.999335
  150       -4.687830   0.999206
  151       -4.681779   0.999106
  152       -4.672682   0.998937
  153       -4.668668   0.998855
  154       -4.663794   0.998749
  155       -4.662463   0.998719
  156       -4.659629   0.998653
  157       -4.658986   0.998638
  158       -4.658517   0.998627
  159       -4.655890   0.998563
  160       -4.647623   0.998348
  161       -4.638999   0.998101
  162       -4.637752   0.998064
  163       -4.636350   0.998021
  164       -4.636213   0.998017
  165       -4.631915   0.997883
  166       -4.631326   0.997864
  167       -4.630276   0.997830
  168       -4.623345   0.997600
  169       -4.616604   0.997366
  170       -4.614952   0.997307
  171       -4.605205   0.996950
  172       -4.599629   0.996741
  173       -4.591762   0.996445
  174       -4.583619   0.996144
  175       -4.582601   0.996107
  176       -4.579476   0.995995
  177       -4.578180   0.995949
  178       -4.574970   0.995839
  179       -4.571895   0.995737
  180       -4.559896   0.995385
  181       -4.558783   0.995357
  182       -4.547120   0.995133
  183       -4.541589   0.995079
  184       -4.540060   0.995071
  185       -4.537624   0.995065
  186       -4.537597   0.995065
  187       -4.536912   0.995065
  188       -4.536244   0.995066
  189       -4.534574   0.995071
  190       -4.533186   0.995078
  191       -4.499026   0.996562
  192       -4.494225   0.997026
  193       -4.492294   0.997234
  194       -4.488857   0.997636
  195       -4.488208   0.997717
  196       -4.477953   0.999202
  197       -4.468018   1.001043
  198       -4.465979   1.001472
  199       -4.460593   1.002694
  200       -4.458247   1.003267
  201       -4.453187   1.004587
  202       -4.448896   1.005799
  203       -4.445871   1.006703
  204       -4.443389   1.007476
  205       -4.440736   1.008334
  206       -4.437881   1.009292
  207       -4.434271   1.010555
  208       -4.432535   1.011183
  209       -4.431469   1.011575
  210       -4.425079   1.014024
  211       -4.420209   1.016000
  212       -4.401971   1.024098
  213       -4.398214   1.025868
  214       -4.395025   1.027387
  215       -4.393249   1.028238
  216       -4.387855   1.030834
  217       -4.386112   1.031673
  218       -4.385540   1.031948
  219       -4.384492   1.032452
  220       -4.371154   1.038718
  221       -4.362981   1.042286
  222       -4.360298   1.043385
  223       -4.340079   1.049868
  224       -4.334024   1.050965
  225       -4.327967   1.051549
  226       -4.326259   1.051610
  227       -4.323157   1.051597
  228       -4.322378   1.051567
  229       -4.321597   1.051527
  230       -4.318915   1.051301
  231       -4.317440   1.051119
  232       -4.314946   1.050713
  233       -4.313099   1.050331
  234       -4.310230   1.049593
  235       -4.308449   1.049044
  236       -4.307247   1.048632
  237       -4.305879   1.048124
  238       -4.302539   1.046693
  239       -4.301450   1.046168
  240       -4.296208   1.043214
  241       -4.291938   1.040264
  242       -4.285570   1.034901
  243       -4.278383   1.027371
  244       -4.277142   1.025906
  245       -4.276653   1.025315
  246       -4.273936   1.021884
  247       -4.269406   1.015615
  248       -4.267650   1.012995
  249       -4.266689   1.011515
  250       -4.264276   1.007657
  251       -4.249888   0.980253
  252       -4.243413   0.965384
  253       -4.242109   0.962195
  254       -4.241443   0.960539
  255       -4.235378   0.944683
  256       -4.234913   0.943410
  257       -4.234336   0.941816
  258       -4.232466   0.936564
  259       -4.229547   0.928096
  260       -4.228334   0.924479
  261       -4.223460   0.909377
  262       -4.222713   0.906981
  263       -4.221118   0.901795
  264       -4.220435   0.899545
  265       -4.218369   0.892631
  266       -4.207633   0.854152
  267       -4.205962   0.847786
  268       -4.203602   0.838630
  269       -4.202991   0.836227
  270       -4.199792   0.823441
  271       -4.199251   0.821241
  272       -4.188922   0.777488
  273       -4.178558   0.730392
  274       -4.178072   0.728113
  275       -4.172003   0.699162
  276       -4.166874   0.674051
  277       -4.165327   0.666369
  278       -4.161548   0.647425
  279       -4.154440   0.611165
  280       -4.153115   0.604327
  281       -4.152815   0.602775
  282       -4.139252   0.531781
  283       -4.120848   0.434656
  284       -4.115188   0.405124
  285       -4.113150   0.394574
  286       -4.110248   0.379637
  287       -4.101651   0.336119
  288       -4.094617   0.301525
  289       -4.045403   0.098346
  290       -3.958534  -0.048875
  291       -3.886503  -0.034611
  292       -3.808547  -0.003346
  293       -3.807258  -0.003026
  294       -3.784295   0.001459
  295       -3.483309   0.000086
  296       -3.479076   0.000077
  297       -3.380920   0.000004
  298       -3.047737   0.000000
  299       -3.042866   0.000000
  300       -3.017869   0.000000
  301       -3.008550   0.000000
  302       -2.998582   0.000000
  303       -2.993769   0.000000
  304       -2.923555   0.000000
  305       -2.843498   0.000000
  306       -2.588624   0.000000
  307       -2.518779   0.000000
  308       -2.504191   0.000000
  309       -2.252600   0.000000
  310       -2.113063   0.000000
  311       -2.110029   0.000000
  312       -2.103907   0.000000
  313       -1.996065   0.000000
  314       -1.945736   0.000000
  315       -1.928255   0.000000
  316       -1.875853   0.000000
  317       -1.835217   0.000000
  318       -1.753060   0.000000
  319       -1.722889   0.000000
  320       -1.672093   0.000000
  321       -1.624929   0.000000
  322       -1.554387   0.000000
  323       -1.522087   0.000000
  324       -1.458694   0.000000
  325       -1.396224   0.000000
  326       -1.119216   0.000000
  327       -1.088079   0.000000
  328       -1.003782   0.000000
  329       -0.975339   0.000000
  330       -0.971219   0.000000
  331       -0.944490   0.000000
  332       -0.926261   0.000000
  333       -0.916894   0.000000
  334       -0.891211   0.000000
  335       -0.774960   0.000000
  336       -0.657329   0.000000
