  57  57   0   0
  0.4736842E+03  0.3000000E-08  0.3000000E-08  0.3000000E-08  0.5000000E-15
  1.000000000000000E-004
  CAR 
 6_Pd100_top_free_z(O)                   
      1.32503012    -30.34663169  301     -4.14205629      1.00000000
    -30.347  0.0000E+00  0.0000E+00
    -30.241  0.0000E+00  0.0000E+00
    -30.135  0.0000E+00  0.0000E+00
    -30.030  0.2609E-27  0.2755E-28
    -29.924  0.1166E-23  0.1231E-24
    -29.819  0.2941E-20  0.3106E-21
    -29.713  0.4172E-17  0.4407E-18
    -29.608  0.3319E-14  0.3508E-15
    -29.502  0.1476E-11  0.1562E-12
    -29.396  0.3638E-09  0.3856E-10
    -29.291  0.4927E-07  0.5240E-08
    -29.185  0.3617E-05  0.3871E-06
    -29.080  0.1405E-03  0.1522E-04
    -28.974  0.2760E-02  0.3066E-03
    -28.869  0.2463E-01  0.2907E-02
    -28.763  0.6397E-01  0.9660E-02
    -28.657 -0.2290E+00 -0.1451E-01
    -28.552 -0.8135E+00 -0.1004E+00
    -28.446  0.2127E+01  0.1242E+00
    -28.341  0.8884E+01  0.1062E+01
    -28.235  0.8286E+01  0.1937E+01
    -28.130  0.1490E+01  0.2094E+01
    -28.024 -0.8180E+00  0.2008E+01
    -27.918 -0.1603E+00  0.1991E+01
    -27.813  0.6432E-01  0.1998E+01
    -27.707  0.2022E-01  0.2000E+01
    -27.602  0.2055E-02  0.2000E+01
    -27.496  0.9660E-04  0.2000E+01
    -27.391  0.2313E-05  0.2000E+01
    -27.285  0.2941E-07  0.2000E+01
    -27.179  0.2030E-09  0.2000E+01
    -27.074  0.7698E-12  0.2000E+01
    -26.968  0.2103E-14  0.2000E+01
    -26.863  0.0000E+00  0.2000E+01
    -26.757  0.0000E+00  0.2000E+01
    -26.652  0.0000E+00  0.2000E+01
    -26.546  0.0000E+00  0.2000E+01
    -26.440  0.0000E+00  0.2000E+01
    -26.335  0.0000E+00  0.2000E+01
    -26.229  0.0000E+00  0.2000E+01
    -26.124  0.0000E+00  0.2000E+01
    -26.018  0.0000E+00  0.2000E+01
    -25.913  0.0000E+00  0.2000E+01
    -25.807  0.0000E+00  0.2000E+01
    -25.701  0.0000E+00  0.2000E+01
    -25.596  0.0000E+00  0.2000E+01
    -25.490  0.0000E+00  0.2000E+01
    -25.385  0.0000E+00  0.2000E+01
    -25.279  0.0000E+00  0.2000E+01
    -25.174  0.0000E+00  0.2000E+01
    -25.068  0.0000E+00  0.2000E+01
    -24.962  0.0000E+00  0.2000E+01
    -24.857  0.0000E+00  0.2000E+01
    -24.751  0.0000E+00  0.2000E+01
    -24.646  0.0000E+00  0.2000E+01
    -24.540  0.0000E+00  0.2000E+01
    -24.435  0.0000E+00  0.2000E+01
    -24.329  0.0000E+00  0.2000E+01
    -24.223  0.0000E+00  0.2000E+01
    -24.118  0.0000E+00  0.2000E+01
    -24.012  0.0000E+00  0.2000E+01
    -23.907  0.0000E+00  0.2000E+01
    -23.801  0.0000E+00  0.2000E+01
    -23.696  0.0000E+00  0.2000E+01
    -23.590  0.0000E+00  0.2000E+01
    -23.484  0.0000E+00  0.2000E+01
    -23.379  0.0000E+00  0.2000E+01
    -23.273  0.0000E+00  0.2000E+01
    -23.168  0.0000E+00  0.2000E+01
    -23.062  0.0000E+00  0.2000E+01
    -22.957  0.0000E+00  0.2000E+01
    -22.851  0.0000E+00  0.2000E+01
    -22.745  0.0000E+00  0.2000E+01
    -22.640  0.0000E+00  0.2000E+01
    -22.534  0.0000E+00  0.2000E+01
    -22.429  0.0000E+00  0.2000E+01
    -22.323  0.0000E+00  0.2000E+01
    -22.218  0.0000E+00  0.2000E+01
    -22.112  0.0000E+00  0.2000E+01
    -22.006  0.0000E+00  0.2000E+01
    -21.901  0.0000E+00  0.2000E+01
    -21.795  0.0000E+00  0.2000E+01
    -21.690  0.0000E+00  0.2000E+01
    -21.584  0.0000E+00  0.2000E+01
    -21.479  0.0000E+00  0.2000E+01
    -21.373  0.0000E+00  0.2000E+01
    -21.267  0.0000E+00  0.2000E+01
    -21.162  0.0000E+00  0.2000E+01
    -21.056  0.0000E+00  0.2000E+01
    -20.951  0.0000E+00  0.2000E+01
    -20.845  0.0000E+00  0.2000E+01
    -20.740  0.0000E+00  0.2000E+01
    -20.634  0.0000E+00  0.2000E+01
    -20.528  0.0000E+00  0.2000E+01
    -20.423  0.0000E+00  0.2000E+01
    -20.317  0.0000E+00  0.2000E+01
    -20.212  0.0000E+00  0.2000E+01
    -20.106  0.0000E+00  0.2000E+01
    -20.001  0.0000E+00  0.2000E+01
    -19.895  0.0000E+00  0.2000E+01
    -19.789  0.0000E+00  0.2000E+01
    -19.684  0.0000E+00  0.2000E+01
    -19.578  0.0000E+00  0.2000E+01
    -19.473  0.0000E+00  0.2000E+01
    -19.367  0.0000E+00  0.2000E+01
    -19.262  0.0000E+00  0.2000E+01
    -19.156  0.0000E+00  0.2000E+01
    -19.050  0.0000E+00  0.2000E+01
    -18.945  0.0000E+00  0.2000E+01
    -18.839  0.0000E+00  0.2000E+01
    -18.734  0.0000E+00  0.2000E+01
    -18.628  0.0000E+00  0.2000E+01
    -18.523  0.0000E+00  0.2000E+01
    -18.417  0.0000E+00  0.2000E+01
    -18.311  0.0000E+00  0.2000E+01
    -18.206  0.0000E+00  0.2000E+01
    -18.100  0.0000E+00  0.2000E+01
    -17.995  0.0000E+00  0.2000E+01
    -17.889  0.0000E+00  0.2000E+01
    -17.784  0.0000E+00  0.2000E+01
    -17.678  0.0000E+00  0.2000E+01
    -17.572  0.0000E+00  0.2000E+01
    -17.467  0.0000E+00  0.2000E+01
    -17.361  0.0000E+00  0.2000E+01
    -17.256  0.0000E+00  0.2000E+01
    -17.150  0.0000E+00  0.2000E+01
    -17.045  0.0000E+00  0.2000E+01
    -16.939  0.0000E+00  0.2000E+01
    -16.833  0.0000E+00  0.2000E+01
    -16.728  0.0000E+00  0.2000E+01
    -16.622  0.0000E+00  0.2000E+01
    -16.517  0.0000E+00  0.2000E+01
    -16.411  0.0000E+00  0.2000E+01
    -16.306  0.0000E+00  0.2000E+01
    -16.200  0.0000E+00  0.2000E+01
    -16.094  0.0000E+00  0.2000E+01
    -15.989  0.0000E+00  0.2000E+01
    -15.883  0.0000E+00  0.2000E+01
    -15.778  0.0000E+00  0.2000E+01
    -15.672  0.0000E+00  0.2000E+01
    -15.567  0.0000E+00  0.2000E+01
    -15.461  0.0000E+00  0.2000E+01
    -15.355  0.0000E+00  0.2000E+01
    -15.250  0.0000E+00  0.2000E+01
    -15.144  0.0000E+00  0.2000E+01
    -15.039  0.0000E+00  0.2000E+01
    -14.933  0.0000E+00  0.2000E+01
    -14.828  0.1037E-25  0.2000E+01
    -14.722  0.3624E-22  0.2000E+01
    -14.616  0.7139E-19  0.2000E+01
    -14.511  0.7903E-16  0.2000E+01
    -14.405  0.4896E-13  0.2000E+01
    -14.300  0.1693E-10  0.2000E+01
    -14.194  0.3229E-08  0.2000E+01
    -14.089  0.3369E-06  0.2000E+01
    -13.983  0.1888E-04  0.2000E+01
    -13.877  0.5514E-03  0.2000E+01
    -13.772  0.7875E-02  0.2001E+01
    -13.666  0.4608E-01  0.2006E+01
    -13.561  0.1865E-01  0.2008E+01
    -13.455 -0.5587E+00  0.1949E+01
    -13.350 -0.2939E+00  0.1918E+01
    -13.244  0.5108E+01  0.2457E+01
    -13.138  0.1003E+02  0.3515E+01
    -13.033  0.5326E+01  0.4078E+01
    -12.927 -0.2216E+00  0.4054E+01
    -12.822 -0.5820E+00  0.3993E+01
    -12.716  0.1196E-01  0.3994E+01
    -12.611  0.4765E-01  0.3999E+01
    -12.505  0.8410E-02  0.4000E+01
    -12.399  0.6023E-03  0.4000E+01
    -12.294  0.2104E-04  0.4000E+01
    -12.188  0.3825E-06  0.4000E+01
    -12.083  0.2232E-07  0.4000E+01
    -11.977  0.1553E-05  0.4000E+01
    -11.871  0.6908E-04  0.4000E+01
    -11.766  0.1574E-02  0.4000E+01
    -11.660  0.1683E-01  0.4002E+01
    -11.555  0.6273E-01  0.4009E+01
    -11.449 -0.1030E+00  0.3998E+01
    -11.344 -0.7562E+00  0.3918E+01
    -11.238  0.1042E+01  0.4028E+01
    -11.132  0.7274E+01  0.4796E+01
    -11.027  0.8690E+01  0.5713E+01
    -10.921  0.6522E+01  0.6402E+01
    -10.816  0.9023E+01  0.7354E+01
    -10.710  0.6363E+01  0.8026E+01
    -10.605  0.4395E+00  0.8072E+01
    -10.499 -0.6240E+00  0.8007E+01
    -10.393 -0.3276E+00  0.7972E+01
    -10.288 -0.7230E+00  0.7896E+01
    -10.182  0.2678E+01  0.8178E+01
    -10.077  0.9271E+01  0.9157E+01
     -9.971  0.7762E+01  0.9977E+01
     -9.866  0.1050E+01  0.1009E+02
     -9.760 -0.7970E+00  0.1000E+02
     -9.654 -0.1141E+00  0.9991E+01
     -9.549  0.6274E-01  0.9998E+01
     -9.443  0.1721E-01  0.1000E+02
     -9.338  0.1626E-02  0.1000E+02
     -9.232  0.7197E-04  0.1000E+02
     -9.127  0.1630E-05  0.1000E+02
     -9.021  0.1965E-07  0.1000E+02
     -8.915  0.1289E-09  0.1000E+02
     -8.810  0.4648E-12  0.1000E+02
     -8.704  0.0000E+00  0.1000E+02
     -8.599  0.0000E+00  0.1000E+02
     -8.493  0.0000E+00  0.1000E+02
     -8.388  0.0000E+00  0.1000E+02
     -8.282  0.7962E-26  0.1000E+02
     -8.176  0.2833E-22  0.1000E+02
     -8.071  0.5683E-19  0.1000E+02
     -7.965  0.6405E-16  0.1000E+02
     -7.860  0.4041E-13  0.1000E+02
     -7.754  0.1423E-10  0.1000E+02
     -7.649  0.2766E-08  0.1000E+02
     -7.543  0.2941E-06  0.1000E+02
     -7.437  0.1681E-04  0.1000E+02
     -7.332  0.5014E-03  0.1000E+02
     -7.226  0.7335E-02  0.1000E+02
     -7.121  0.4440E-01  0.1001E+02
     -7.015  0.2517E-01  0.1001E+02
     -6.910 -0.5335E+00  0.9952E+01
     -6.804 -0.3628E+00  0.9914E+01
     -6.698  0.4908E+01  0.1043E+02
     -6.593  0.1017E+02  0.1151E+02
     -6.487  0.5516E+01  0.1209E+02
     -6.382 -0.2027E+01  0.1187E+02
     -6.276 -0.8245E-01  0.1187E+02
     -6.171  0.1808E+02  0.1377E+02
     -6.065  0.2772E+02  0.1670E+02
     -5.959  0.1467E+02  0.1825E+02
     -5.854  0.2302E+02  0.2068E+02
     -5.748  0.6165E+02  0.2719E+02
     -5.643  0.1212E+03  0.3998E+02
     -5.537  0.2193E+03  0.6313E+02
     -5.432  0.2919E+03  0.9394E+02
     -5.326  0.2583E+03  0.1212E+03
     -5.220  0.2064E+03  0.1430E+03
     -5.115  0.2515E+03  0.1696E+03
     -5.009  0.3474E+03  0.2062E+03
     -4.904  0.3585E+03  0.2441E+03
     -4.798  0.2969E+03  0.2754E+03
     -4.693  0.3181E+03  0.3090E+03
     -4.587  0.4024E+03  0.3515E+03
     -4.481  0.4213E+03  0.3960E+03
     -4.376  0.4478E+03  0.4432E+03
     -4.270  0.5407E+03  0.5003E+03
     -4.165  0.4910E+03  0.5522E+03
     -4.059  0.2323E+03  0.5767E+03
     -3.954  0.4051E+02  0.5810E+03
     -3.848  0.2031E+02  0.5831E+03
     -3.742  0.3173E+02  0.5865E+03
     -3.637  0.1511E+02  0.5880E+03
     -3.531  0.1099E+02  0.5892E+03
     -3.426  0.2047E+02  0.5914E+03
     -3.320  0.1507E+02  0.5930E+03
     -3.215  0.4064E+01  0.5934E+03
     -3.109  0.2160E+02  0.5957E+03
     -3.003  0.5968E+02  0.6020E+03
     -2.898  0.5458E+02  0.6077E+03
     -2.792  0.1859E+02  0.6097E+03
     -2.687  0.2130E+01  0.6099E+03
     -2.581  0.1365E+02  0.6114E+03
     -2.476  0.2791E+02  0.6143E+03
     -2.370  0.1497E+02  0.6159E+03
     -2.264  0.3966E+01  0.6163E+03
     -2.159  0.2391E+02  0.6188E+03
     -2.053  0.4487E+02  0.6236E+03
     -1.948  0.4349E+02  0.6282E+03
     -1.842  0.3614E+02  0.6320E+03
     -1.737  0.3447E+02  0.6356E+03
     -1.631  0.3975E+02  0.6398E+03
     -1.525  0.4090E+02  0.6441E+03
     -1.420  0.2941E+02  0.6472E+03
     -1.314  0.1623E+02  0.6489E+03
     -1.209  0.6413E+01  0.6496E+03
     -1.103  0.1395E+02  0.6511E+03
     -0.998  0.5241E+02  0.6566E+03
     -0.892  0.7679E+02  0.6647E+03
     -0.786  0.4810E+02  0.6698E+03
     -0.681  0.1459E+02  0.6714E+03
     -0.575  0.5263E+01  0.6719E+03
     -0.470  0.1357E+01  0.6721E+03
     -0.364 -0.5082E+00  0.6720E+03
     -0.259 -0.1013E+00  0.6720E+03
     -0.153  0.8191E-01  0.6720E+03
     -0.047  0.2585E-01  0.6720E+03
      0.058  0.2803E-02  0.6720E+03
      0.164  0.1413E-03  0.6720E+03
      0.269  0.3625E-05  0.6720E+03
      0.375  0.4932E-07  0.6720E+03
      0.480  0.3639E-09  0.6720E+03
      0.586  0.1476E-11  0.6720E+03
      0.692  0.4206E-14  0.6720E+03
      0.797  0.0000E+00  0.6720E+03
      0.903  0.0000E+00  0.6720E+03
      1.008  0.0000E+00  0.6720E+03
      1.114  0.0000E+00  0.6720E+03
      1.219  0.0000E+00  0.6720E+03
      1.325  0.0000E+00  0.6720E+03
