<?xml version="1.0" encoding="ISO-8859-1"?>
<modeling>
 <generator>
  <i name="program" type="string">vasp </i>
  <i name="version" type="string">5.4.4.18Apr17-6-g9f103f2a35  </i>
  <i name="subversion" type="string">(build Sep 03 2018 23:53:05) complex            parallel </i>
  <i name="platform" type="string">LinuxIFC </i>
  <i name="date" type="string">2021 11 26 </i>
  <i name="time" type="string">07:13:02 </i>
 </generator>
 <incar>
  <i type="string" name="SYSTEM"> 6_Pd100_top_free_z(O)</i>
  <i type="int" name="ISTART">     0</i>
  <i type="string" name="PREC">normal   			! encut=max(enmax), ngx,y,z</i>
  <i type="string" name="ALGO"> Fast     			! Mix RMM-DIIS and Dav</i>
  <i type="logical" name="ADDGRID"> F  </i>
  <i type="int" name="ISPIN">     1</i>
  <i type="int" name="ICHARG">     2</i>
  <i type="int" name="NELM">   100</i>
  <i type="int" name="NELMIN">     6</i>
  <i type="int" name="IBRION">     2</i>
  <i name="EDIFF">      0.00010000</i>
  <i name="EDIFFG">     -0.05000000</i>
  <i type="int" name="NSW">     0</i>
  <i type="int" name="ISIF">     2</i>
  <i type="int" name="ISYM">     2</i>
  <i name="ENCUT">    400.00000000</i>
  <i type="string" name="LREAL"> Auto     			! Auto or A projection done</i>
  <i type="int" name="ISMEAR">     2</i>
  <i name="SIGMA">      0.20000000</i>
  <i type="logical" name="LWAVE"> F  </i>
  <i type="logical" name="LCHARG"> F  </i>
  <v type="int" name="KPOINT_BSE">    -1     0     0     0</v>
  <i type="int" name="MAXMEM"> 10000</i>
  <i type="int" name="NELM">   100</i>
  <i type="string" name="GGA"> RP         			! Revised PBE</i>
 </incar>
 <structure name="primitive_cell" >
  <crystal>
   <varray name="basis" >
    <v>      30.00000000       0.00000000       0.00000000 </v>
    <v>       0.00000000      30.00000000       0.00000000 </v>
    <v>       0.00000000       0.00000000      30.00000000 </v>
   </varray>
   <i name="volume">  27000.00000000 </i>
   <varray name="rec_basis" >
    <v>       0.03333333       0.00000000       0.00000000 </v>
    <v>       0.00000000       0.03333333       0.00000000 </v>
    <v>       0.00000000       0.00000000       0.03333333 </v>
   </varray>
  </crystal>
  <varray name="positions" >
   <v>       0.44576020       0.32826710       0.41691983 </v>
   <v>      -0.44576020       0.32826710       0.41691983 </v>
   <v>      -0.50000000       0.38250690       0.34021317 </v>
   <v>      -0.50000000       0.27609440      -0.50000000 </v>
   <v>       0.38804720       0.38804720       0.34167483 </v>
   <v>      -0.50000000       0.38416601      -0.50000000 </v>
   <v>       0.44208300       0.44208300       0.41809300 </v>
   <v>       0.38317830       0.38317830      -0.50000000 </v>
   <v>      -0.44208300       0.44208300       0.41809300 </v>
   <v>       0.44576020       0.32826710      -0.41691977 </v>
   <v>       0.32826705       0.44576024       0.41691983 </v>
   <v>      -0.38804720       0.38804720       0.34167483 </v>
   <v>      -0.38317830       0.38317830      -0.50000000 </v>
   <v>      -0.50000000      -0.50000000       0.33478917 </v>
   <v>      -0.50000000      -0.50000000      -0.50000000 </v>
   <v>      -0.44576020       0.32826710      -0.41691977 </v>
   <v>       0.38250685      -0.49999995       0.34021317 </v>
   <v>       0.44208300       0.44208300      -0.41809297 </v>
   <v>       0.38416599      -0.49999998      -0.50000000 </v>
   <v>      -0.44208300       0.44208300      -0.41809297 </v>
   <v>       0.44208298      -0.44208298       0.41809300 </v>
   <v>       0.32826705       0.44576024      -0.41691977 </v>
   <v>      -0.50000000       0.38250690      -0.34021320 </v>
   <v>       0.32826712      -0.44576022       0.41691983 </v>
   <v>      -0.38250685      -0.49999995       0.34021317 </v>
   <v>      -0.32826705       0.44576024       0.41691983 </v>
   <v>       0.27609443       0.49999998      -0.50000000 </v>
   <v>       0.38804720       0.38804720      -0.34167487 </v>
   <v>      -0.38416599      -0.49999998      -0.50000000 </v>
   <v>      -0.44208298      -0.44208298       0.41809300 </v>
   <v>       0.44208298      -0.44208298      -0.41809297 </v>
   <v>      -0.38804720       0.38804720      -0.34167487 </v>
   <v>       0.38804722      -0.38804722       0.34167483 </v>
   <v>       0.38250685      -0.49999995      -0.34021320 </v>
   <v>       0.32826712      -0.44576022      -0.41691977 </v>
   <v>      -0.32826705       0.44576024      -0.41691977 </v>
   <v>       0.50000000      -0.38250681       0.34021317 </v>
   <v>      -0.50000000      -0.38416596      -0.50000000 </v>
   <v>      -0.44208298      -0.44208298      -0.41809297 </v>
   <v>      -0.50000000      -0.50000000      -0.33478913 </v>
   <v>       0.38317828      -0.38317828      -0.50000000 </v>
   <v>      -0.32826712      -0.44576022       0.41691983 </v>
   <v>      -0.27609443       0.49999998      -0.50000000 </v>
   <v>      -0.38804722      -0.38804722       0.34167483 </v>
   <v>      -0.38250685      -0.49999995      -0.34021320 </v>
   <v>       0.44576027      -0.32826707       0.41691983 </v>
   <v>      -0.38317828      -0.38317828      -0.50000000 </v>
   <v>      -0.25079317       0.44915153      -0.46120703 </v>
   <v>      -0.32826712      -0.44576022      -0.41691977 </v>
   <v>      -0.44576027      -0.32826707       0.41691983 </v>
   <v>       0.38804722      -0.38804722      -0.34167487 </v>
   <v>      -0.21437343       0.44172043      -0.45553773 </v>
   <v>      -0.50000000      -0.38250681      -0.34021320 </v>
   <v>       0.44576027      -0.32826707      -0.41691977 </v>
   <v>      -0.44576027      -0.32826707      -0.41691977 </v>
   <v>      -0.50000000      -0.27609445       0.50000000 </v>
   <v>      -0.38804722      -0.38804722      -0.34167487 </v>
  </varray>
 </structure>
 <varray name="primitive_index" >
  <v type="int" >        1 </v>
  <v type="int" >        3 </v>
  <v type="int" >        5 </v>
  <v type="int" >        7 </v>
  <v type="int" >       15 </v>
  <v type="int" >       29 </v>
  <v type="int" >       28 </v>
  <v type="int" >       34 </v>
  <v type="int" >       21 </v>
  <v type="int" >       19 </v>
  <v type="int" >       22 </v>
  <v type="int" >       11 </v>
  <v type="int" >       36 </v>
  <v type="int" >       38 </v>
  <v type="int" >       52 </v>
  <v type="int" >       24 </v>
  <v type="int" >       32 </v>
  <v type="int" >       44 </v>
  <v type="int" >       48 </v>
  <v type="int" >       42 </v>
  <v type="int" >       43 </v>
  <v type="int" >       40 </v>
  <v type="int" >        6 </v>
  <v type="int" >        4 </v>
  <v type="int" >       30 </v>
  <v type="int" >       26 </v>
  <v type="int" >        8 </v>
  <v type="int" >       16 </v>
  <v type="int" >       49 </v>
  <v type="int" >       47 </v>
  <v type="int" >       53 </v>
  <v type="int" >       12 </v>
  <v type="int" >       13 </v>
  <v type="int" >       33 </v>
  <v type="int" >       25 </v>
  <v type="int" >       45 </v>
  <v type="int" >       50 </v>
  <v type="int" >       55 </v>
  <v type="int" >       54 </v>
  <v type="int" >       39 </v>
  <v type="int" >       37 </v>
  <v type="int" >        2 </v>
  <v type="int" >        9 </v>
  <v type="int" >       17 </v>
  <v type="int" >       31 </v>
  <v type="int" >       27 </v>
  <v type="int" >       35 </v>
  <v type="int" >       56 </v>
  <v type="int" >       20 </v>
  <v type="int" >       23 </v>
  <v type="int" >       14 </v>
  <v type="int" >       57 </v>
  <v type="int" >       51 </v>
  <v type="int" >       46 </v>
  <v type="int" >       41 </v>
  <v type="int" >       10 </v>
  <v type="int" >       18 </v>
 </varray>
 <kpoints>
  <generation param="Monkhorst-Pack">
   <v type="int" name="divisions">       1        1        1 </v>
   <v name="usershift">      0.00000000       0.00000000       0.00000000 </v>
   <v name="genvec1">      1.00000000       0.00000000       0.00000000 </v>
   <v name="genvec2">      0.00000000       1.00000000       0.00000000 </v>
   <v name="genvec3">      0.00000000       0.00000000       1.00000000 </v>
   <v name="shift">      0.00000000       0.00000000       0.00000000 </v>
  </generation>
  <varray name="kpointlist" >
   <v>       0.00000000       0.00000000       0.00000000 </v>
  </varray>
  <varray name="weights" >
   <v>       1.00000000 </v>
  </varray>
 </kpoints>
 <parameters>
  <separator name="general" >
   <i type="string" name="SYSTEM">6_Pd100_top_free_z(O)</i>
   <i type="logical" name="LCOMPAT"> F  </i>
  </separator>
  <separator name="electronic" >
   <i type="string" name="PREC">normal</i>
   <i name="ENMAX">    400.00000000</i>
   <i name="ENAUG">    644.87300000</i>
   <i name="EDIFF">      0.00010000</i>
   <i type="int" name="IALGO">    68</i>
   <i type="int" name="IWAVPR">    10</i>
   <i type="int" name="NBANDS">   336</i>
   <i name="NELECT">    560.00000000</i>
   <i type="int" name="TURBO">     0</i>
   <i type="int" name="IRESTART">     0</i>
   <i type="int" name="NREBOOT">     0</i>
   <i type="int" name="NMIN">     0</i>
   <i name="EREF">      0.00000000</i>
   <separator name="electronic smearing" >
    <i type="int" name="ISMEAR">     2</i>
    <i name="SIGMA">      0.20000000</i>
    <i name="KSPACING">      0.50000000</i>
    <i type="logical" name="KGAMMA"> T  </i>
   </separator>
   <separator name="electronic projectors" >
    <i type="logical" name="LREAL"> T  </i>
    <v name="ROPT">     -0.00050000     -0.00050000     -0.00050000</v>
    <i type="int" name="LMAXPAW">  -100</i>
    <i type="int" name="LMAXMIX">     2</i>
    <i type="logical" name="NLSPLINE"> F  </i>
   </separator>
   <separator name="electronic startup" >
    <i type="int" name="ISTART">     0</i>
    <i type="int" name="ICHARG">     2</i>
    <i type="int" name="INIWAV">     1</i>
   </separator>
   <separator name="electronic spin" >
    <i type="int" name="ISPIN">     1</i>
    <i type="logical" name="LNONCOLLINEAR"> F  </i>
    <v name="MAGMOM">      1.00000000      1.00000000      1.00000000      1.00000000      1.00000000      1.00000000      1.00000000      1.00000000      1.00000000      1.00000000      1.00000000      1.00000000      1.00000000      1.00000000      1.00000000      1.00000000      1.00000000      1.00000000      1.00000000      1.00000000
      1.00000000      1.00000000      1.00000000      1.00000000      1.00000000      1.00000000      1.00000000      1.00000000      1.00000000      1.00000000      1.00000000      1.00000000      1.00000000      1.00000000      1.00000000      1.00000000      1.00000000      1.00000000      1.00000000      1.00000000
      1.00000000      1.00000000      1.00000000      1.00000000      1.00000000      1.00000000      1.00000000      1.00000000      1.00000000      1.00000000      1.00000000      1.00000000      1.00000000      1.00000000      1.00000000      1.00000000      1.00000000</v>
    <i name="NUPDOWN">     -1.00000000</i>
    <i type="logical" name="LSORBIT"> F  </i>
    <v name="SAXIS">      0.00000000      0.00000000      1.00000000</v>
    <i type="logical" name="LSPIRAL"> F  </i>
    <v name="QSPIRAL">      0.00000000      0.00000000      0.00000000</v>
    <i type="logical" name="LZEROZ"> F  </i>
   </separator>
   <separator name="electronic exchange-correlation" >
    <i type="logical" name="LASPH"> F  </i>
    <i type="logical" name="LMETAGGA"> F  </i>
   </separator>
   <separator name="electronic convergence" >
    <i type="int" name="NELM">   100</i>
    <i type="int" name="NELMDL">    -5</i>
    <i type="int" name="NELMIN">     6</i>
    <i name="ENINI">    400.00000000</i>
    <separator name="electronic convergence detail" >
     <i type="logical" name="LDIAG"> T  </i>
     <i type="logical" name="LSUBROT"> F  </i>
     <i name="WEIMIN">      0.00000000</i>
     <i name="EBREAK">      0.00000007</i>
     <i name="DEPER">      0.30000000</i>
     <i type="int" name="NRMM">     4</i>
     <i name="TIME">      0.40000000</i>
    </separator>
   </separator>
   <separator name="electronic mixer" >
    <i name="AMIX">      0.40000000</i>
    <i name="BMIX">      1.00000000</i>
    <i name="AMIN">      0.10000000</i>
    <i name="AMIX_MAG">      1.60000000</i>
    <i name="BMIX_MAG">      1.00000000</i>
    <separator name="electronic mixer details" >
     <i type="int" name="IMIX">     4</i>
     <i type="logical" name="MIXFIRST"> F  </i>
     <i type="int" name="MAXMIX">   -45</i>
     <i name="WC">    100.00000000</i>
     <i type="int" name="INIMIX">     1</i>
     <i type="int" name="MIXPRE">     1</i>
     <i type="int" name="MREMOVE">     5</i>
    </separator>
   </separator>
   <separator name="electronic dipolcorrection" >
    <i type="logical" name="LDIPOL"> F  </i>
    <i type="logical" name="LMONO"> F  </i>
    <i type="int" name="IDIPOL">     0</i>
    <i name="EPSILON">      1.00000000</i>
    <v name="DIPOL">   -100.00000000   -100.00000000   -100.00000000</v>
    <i name="EFIELD">      0.00000000</i>
   </separator>
  </separator>
  <separator name="grids" >
   <i type="int" name="NGX">   150</i>
   <i type="int" name="NGY">   150</i>
   <i type="int" name="NGZ">   150</i>
   <i type="int" name="NGXF">   300</i>
   <i type="int" name="NGYF">   300</i>
   <i type="int" name="NGZF">   300</i>
   <i type="logical" name="ADDGRID"> F  </i>
  </separator>
  <separator name="ionic" >
   <i type="int" name="NSW">     0</i>
   <i type="int" name="IBRION">    -1</i>
   <i type="int" name="MDALGO">     0</i>
   <i type="int" name="ISIF">     2</i>
   <i name="PSTRESS">      0.00000000</i>
   <i name="EDIFFG">     -0.05000000</i>
   <i type="int" name="NFREE">     1</i>
   <i name="POTIM">      0.50000000</i>
   <i name="SMASS">     -3.00000000</i>
   <i name="SCALEE">      1.00000000</i>
  </separator>
  <separator name="ionic md" >
   <i name="TEBEG">      0.00010000</i>
   <i name="TEEND">      0.00010000</i>
   <i type="int" name="NBLOCK">     1</i>
   <i type="int" name="KBLOCK">     1</i>
   <i type="int" name="NPACO">   256</i>
   <i name="APACO">     16.00000000</i>
  </separator>
  <separator name="symmetry" >
   <i type="int" name="ISYM">     2</i>
   <i name="SYMPREC">      0.00001000</i>
  </separator>
  <separator name="dos" >
   <i type="int" name="LORBIT">     0</i>
   <v name="RWIGS">     -1.00000000     -1.00000000     -1.00000000</v>
   <i type="int" name="NEDOS">   301</i>
   <i name="EMIN">     10.00000000</i>
   <i name="EMAX">    -10.00000000</i>
   <i name="EFERMI">      0.00000000</i>
  </separator>
  <separator name="writing" >
   <i type="int" name="NWRITE">     2</i>
   <i type="logical" name="LWAVE"> F  </i>
   <i type="logical" name="LDOWNSAMPLE"> F  </i>
   <i type="logical" name="LCHARG"> F  </i>
   <i type="logical" name="LPARD"> F  </i>
   <i type="logical" name="LVTOT"> F  </i>
   <i type="logical" name="LVHAR"> F  </i>
   <i type="logical" name="LELF"> F  </i>
   <i type="logical" name="LOPTICS"> F  </i>
   <v name="STM">      0.00000000      0.00000000      0.00000000      0.00000000      0.00000000      0.00000000      0.00000000</v>
  </separator>
  <separator name="performance" >
   <i type="int" name="NPAR">     1</i>
   <i type="int" name="NSIM">     4</i>
   <i type="int" name="NBLK">    -1</i>
   <i type="logical" name="LPLANE"> T  </i>
   <i type="logical" name="LSCALAPACK"> T  </i>
   <i type="logical" name="LSCAAWARE"> F  </i>
   <i type="logical" name="LSCALU"> F  </i>
   <i type="logical" name="LASYNC"> F  </i>
   <i type="logical" name="LORBITALREAL"> F  </i>
  </separator>
  <separator name="miscellaneous" >
   <i type="int" name="IDIOT">     3</i>
   <i type="int" name="ISPECIAL">     0</i>
   <i type="logical" name="LMUSIC"> F  </i>
   <v name="POMASS">    106.42000000     12.01100000     16.00000000</v>
   <v name="DARWINR">      0.00000000      0.00000000      0.00000000</v>
   <v name="DARWINV">      1.00000000      1.00000000      1.00000000</v>
   <i type="logical" name="LCORR"> T  </i>
  </separator>
  <i type="logical" name="GGA_COMPAT"> T  </i>
  <i type="logical" name="LBERRY"> F  </i>
  <i type="int" name="ICORELEVEL">     0</i>
  <i type="logical" name="LDAU"> F  </i>
  <i type="int" name="I_CONSTRAINED_M">     0</i>
  <separator name="electronic exchange-correlation" >
   <i type="string" name="GGA">RP</i>
   <i type="int" name="VOSKOWN">     0</i>
   <i type="logical" name="LHFCALC"> F  </i>
   <i type="string" name="PRECFOCK"></i>
   <i type="logical" name="LSYMGRAD"> F  </i>
   <i type="logical" name="LHFONE"> F  </i>
   <i type="logical" name="LRHFCALC"> F  </i>
   <i type="logical" name="LTHOMAS"> F  </i>
   <i type="logical" name="LMODELHF"> F  </i>
   <i name="ENCUT4O">     -1.00000000</i>
   <i type="int" name="EXXOEP">     0</i>
   <i type="int" name="FOURORBIT">     0</i>
   <i name="AEXX">      0.00000000</i>
   <i name="HFALPHA">      0.00000000</i>
   <i name="MCALPHA">      0.00000000</i>
   <i name="ALDAX">      1.00000000</i>
   <i name="AGGAX">      1.00000000</i>
   <i name="ALDAC">      1.00000000</i>
   <i name="AGGAC">      1.00000000</i>
   <i type="int" name="NKREDX">     1</i>
   <i type="int" name="NKREDY">     1</i>
   <i type="int" name="NKREDZ">     1</i>
   <i type="logical" name="SHIFTRED"> F  </i>
   <i type="logical" name="ODDONLY"> F  </i>
   <i type="logical" name="EVENONLY"> F  </i>
   <i type="int" name="LMAXFOCK">     0</i>
   <i type="int" name="NMAXFOCKAE">     0</i>
   <i type="logical" name="LFOCKAEDFT"> F  </i>
   <i name="HFSCREEN">      0.00000000</i>
   <i name="HFSCREENC">      0.00000000</i>
   <i type="int" name="NBANDSGWLOW">     0</i>
  </separator>
  <separator name="vdW DFT" >
   <i type="logical" name="LUSE_VDW"> F  </i>
   <i name="Zab_VDW">     -0.84910000</i>
   <i name="PARAM1">      0.12340000</i>
   <i name="PARAM2">      1.00000000</i>
   <i name="PARAM3">      0.00000000</i>
  </separator>
  <separator name="model GW" >
   <i type="int" name="MODEL_GW">     0</i>
   <i name="MODEL_EPS0">    284.21052632</i>
   <i name="MODEL_ALPHA">      1.00000000</i>
  </separator>
  <separator name="linear response parameters" >
   <i type="logical" name="LEPSILON"> F  </i>
   <i type="logical" name="LRPA"> F  </i>
   <i type="logical" name="LNABLA"> F  </i>
   <i type="logical" name="LVEL"> F  </i>
   <i type="int" name="KINTER">     0</i>
   <i name="CSHIFT">      0.10000000</i>
   <i name="OMEGAMAX">     -1.00000000</i>
   <i name="DEG_THRESHOLD">      0.00200000</i>
   <i name="RTIME">     -0.10000000</i>
   <i name="WPLASMAI">      0.00000000</i>
   <v name="DFIELD">      0.00000000      0.00000000      0.00000000</v>
   <v name="WPLASMA">      0.00000000      0.00000000      0.00000000      0.00000000      0.00000000      0.00000000      0.00000000      0.00000000      0.00000000</v>
  </separator>
  <separator name="orbital magnetization" >
   <i type="logical" name="NUCIND"> F  </i>
   <v name="MAGPOS">      0.00000000      0.00000000      0.00000000</v>
   <i type="logical" name="LNICSALL"> T  </i>
   <i type="logical" name="ORBITALMAG"> F  </i>
   <i type="logical" name="LMAGBLOCH"> F  </i>
   <i type="logical" name="LCHIMAG"> F  </i>
   <i type="logical" name="LGAUGE"> T  </i>
   <i type="int" name="MAGATOM">     0</i>
   <v name="MAGDIPOL">      0.00000000      0.00000000      0.00000000</v>
   <v name="AVECCONST">      0.00000000      0.00000000      0.00000000</v>
  </separator>
  <separator name="response functions" >
   <i type="logical" name="LADDER"> F  </i>
   <i type="logical" name="LRPAFORCE"> F  </i>
   <i type="logical" name="LFXC"> F  </i>
   <i type="logical" name="LHARTREE"> T  </i>
   <i type="int" name="IBSE">     0</i>
   <v type="int" name="KPOINT">    -1     0     0     0</v>
   <i type="logical" name="LTCTE"> F  </i>
   <i type="logical" name="LTETE"> F  </i>
   <i type="logical" name="LTRIPLET"> F  </i>
   <i type="logical" name="LFXCEPS"> F  </i>
   <i type="logical" name="LFXHEG"> F  </i>
   <i type="int" name="NATURALO">     2</i>
   <i type="logical" name="L2ORDER"> F  </i>
   <i type="logical" name="LMP2LT"> F  </i>
   <i type="logical" name="LUSEW"> F  </i>
   <i name="ENCUTGW">     -2.00000000</i>
   <i name="ENCUTGWSOFT">     -2.00000000</i>
   <i name="ENCUTLF">     -1.00000000</i>
   <i type="int" name="LMAXMP2">    -1</i>
   <i name="SCISSOR">      0.00000000</i>
   <i type="int" name="NOMEGA">     0</i>
   <i type="int" name="NOMEGAR">     0</i>
   <i type="int" name="NBANDSGW">    -1</i>
   <i type="int" name="NBANDSO">    -1</i>
   <i type="int" name="NBANDSV">    -1</i>
   <i type="int" name="NELM">   100</i>
   <i type="int" name="NELMHF">     1</i>
   <i type="int" name="DIM">     3</i>
   <i type="int" name="ANTIRES">     0</i>
   <i name="OMEGAMAX">    -30.00000000</i>
   <i name="OMEGAMIN">    -30.00000000</i>
   <i name="OMEGATL">   -200.00000000</i>
   <i type="int" name="OMEGAGRID">   140</i>
   <i name="CSHIFT">     -0.10000000</i>
   <i type="logical" name="SELFENERGY"> F  </i>
   <i type="logical" name="LSPECTRAL"> F  </i>
   <i type="logical" name="LSPECTRALGW"> F  </i>
   <i type="logical" name="LSINGLES"> F  </i>
   <i type="logical" name="LFERMIGW"> F  </i>
   <i type="logical" name="ODDONLYGW"> F  </i>
   <i type="logical" name="EVENONLYGW"> F  </i>
   <i type="int" name="NKREDLFX">     1</i>
   <i type="int" name="NKREDLFY">     1</i>
   <i type="int" name="NKREDLFZ">     1</i>
   <i type="int" name="MAXMEM"> 10000</i>
   <i type="int" name="TELESCOPE">     0</i>
   <i type="int" name="TAUPAR">     1</i>
   <i type="int" name="OMEGAPAR">    -1</i>
   <i name="LAMBDA">      1.00000000</i>
  </separator>
  <separator name="External order field" >
   <i name="OFIELD_KAPPA">      0.00000000</i>
   <v name="OFIELD_K">      0.00000000      0.00000000      0.00000000</v>
   <i name="OFIELD_Q6_NEAR">      0.00000000</i>
   <i name="OFIELD_Q6_FAR">      0.00000000</i>
   <i name="OFIELD_A">      0.00000000</i>
  </separator>
 </parameters>
 <atominfo>
  <atoms>      57 </atoms>
  <types>       3 </types>
  <array name="atoms" >
   <dimension dim="1">ion</dimension>
   <field type="string">element</field>
   <field type="int">atomtype</field>
   <set>
    <rc><c>Pd</c><c>   1</c></rc>
    <rc><c>Pd</c><c>   1</c></rc>
    <rc><c>Pd</c><c>   1</c></rc>
    <rc><c>Pd</c><c>   1</c></rc>
    <rc><c>Pd</c><c>   1</c></rc>
    <rc><c>Pd</c><c>   1</c></rc>
    <rc><c>Pd</c><c>   1</c></rc>
    <rc><c>Pd</c><c>   1</c></rc>
    <rc><c>Pd</c><c>   1</c></rc>
    <rc><c>Pd</c><c>   1</c></rc>
    <rc><c>Pd</c><c>   1</c></rc>
    <rc><c>Pd</c><c>   1</c></rc>
    <rc><c>Pd</c><c>   1</c></rc>
    <rc><c>Pd</c><c>   1</c></rc>
    <rc><c>Pd</c><c>   1</c></rc>
    <rc><c>Pd</c><c>   1</c></rc>
    <rc><c>Pd</c><c>   1</c></rc>
    <rc><c>Pd</c><c>   1</c></rc>
    <rc><c>Pd</c><c>   1</c></rc>
    <rc><c>Pd</c><c>   1</c></rc>
    <rc><c>Pd</c><c>   1</c></rc>
    <rc><c>Pd</c><c>   1</c></rc>
    <rc><c>Pd</c><c>   1</c></rc>
    <rc><c>Pd</c><c>   1</c></rc>
    <rc><c>Pd</c><c>   1</c></rc>
    <rc><c>Pd</c><c>   1</c></rc>
    <rc><c>Pd</c><c>   1</c></rc>
    <rc><c>Pd</c><c>   1</c></rc>
    <rc><c>Pd</c><c>   1</c></rc>
    <rc><c>Pd</c><c>   1</c></rc>
    <rc><c>Pd</c><c>   1</c></rc>
    <rc><c>Pd</c><c>   1</c></rc>
    <rc><c>Pd</c><c>   1</c></rc>
    <rc><c>Pd</c><c>   1</c></rc>
    <rc><c>Pd</c><c>   1</c></rc>
    <rc><c>Pd</c><c>   1</c></rc>
    <rc><c>Pd</c><c>   1</c></rc>
    <rc><c>Pd</c><c>   1</c></rc>
    <rc><c>Pd</c><c>   1</c></rc>
    <rc><c>Pd</c><c>   1</c></rc>
    <rc><c>Pd</c><c>   1</c></rc>
    <rc><c>Pd</c><c>   1</c></rc>
    <rc><c>Pd</c><c>   1</c></rc>
    <rc><c>Pd</c><c>   1</c></rc>
    <rc><c>Pd</c><c>   1</c></rc>
    <rc><c>Pd</c><c>   1</c></rc>
    <rc><c>Pd</c><c>   1</c></rc>
    <rc><c>Pd</c><c>   1</c></rc>
    <rc><c>Pd</c><c>   1</c></rc>
    <rc><c>Pd</c><c>   1</c></rc>
    <rc><c>Pd</c><c>   1</c></rc>
    <rc><c>Pd</c><c>   1</c></rc>
    <rc><c>Pd</c><c>   1</c></rc>
    <rc><c>Pd</c><c>   1</c></rc>
    <rc><c>Pd</c><c>   1</c></rc>
    <rc><c>C </c><c>   2</c></rc>
    <rc><c>O </c><c>   3</c></rc>
   </set>
  </array>
  <array name="atomtypes" >
   <dimension dim="1">type</dimension>
   <field type="int">atomspertype</field>
   <field type="string">element</field>
   <field>mass</field>
   <field>valence</field>
   <field type="string">pseudopotential</field>
   <set>
    <rc><c>  55</c><c>Pd</c><c>    106.42000000</c><c>     10.00000000</c><c>  PAW_PBE Pd 04Jan2005                  </c></rc>
    <rc><c>   1</c><c>C </c><c>     12.01100000</c><c>      4.00000000</c><c>  PAW_PBE C 08Apr2002                   </c></rc>
    <rc><c>   1</c><c>O </c><c>     16.00000000</c><c>      6.00000000</c><c>  PAW_PBE O 08Apr2002                   </c></rc>
   </set>
  </array>
 </atominfo>
 <structure name="initialpos" >
  <crystal>
   <varray name="basis" >
    <v>      30.00000000       0.00000000       0.00000000 </v>
    <v>       0.00000000      30.00000000       0.00000000 </v>
    <v>       0.00000000       0.00000000      30.00000000 </v>
   </varray>
   <i name="volume">  27000.00000000 </i>
   <varray name="rec_basis" >
    <v>       0.03333333       0.00000000       0.00000000 </v>
    <v>       0.00000000       0.03333333       0.00000000 </v>
    <v>       0.00000000       0.00000000       0.03333333 </v>
   </varray>
  </crystal>
  <varray name="positions" >
   <v>       0.44576020       0.32826710       0.41691983 </v>
   <v>       0.67173288       0.55423978       0.41691983 </v>
   <v>       0.55423980       0.32826710       0.41691983 </v>
   <v>       0.32826712       0.55423978       0.41691983 </v>
   <v>       0.50000000       0.38250690       0.34021317 </v>
   <v>       0.50000000       0.38250690       0.65978680 </v>
   <v>       0.50000000       0.27609440       0.50000000 </v>
   <v>       0.27609443       0.49999998       0.50000000 </v>
   <v>       0.72390557       0.49999998       0.50000000 </v>
   <v>       0.50000000       0.72390555       0.50000000 </v>
   <v>       0.61195280       0.38804720       0.34167483 </v>
   <v>       0.61195280       0.38804720       0.65832513 </v>
   <v>       0.38804722       0.61195278       0.34167483 </v>
   <v>       0.38804722       0.61195278       0.65832513 </v>
   <v>       0.38804720       0.38804720       0.34167483 </v>
   <v>       0.38804720       0.38804720       0.65832513 </v>
   <v>       0.61195278       0.61195278       0.34167483 </v>
   <v>       0.61195278       0.61195278       0.65832513 </v>
   <v>       0.44576020       0.32826710       0.58308023 </v>
   <v>       0.67173288       0.55423978       0.58308023 </v>
   <v>       0.55791699       0.44208301       0.41809300 </v>
   <v>       0.32826705       0.44576024       0.41691983 </v>
   <v>       0.55423973       0.67173293       0.41691983 </v>
   <v>       0.55423980       0.32826710       0.58308023 </v>
   <v>       0.32826712       0.55423978       0.58308023 </v>
   <v>       0.67173295       0.44576024       0.41691983 </v>
   <v>       0.44576027       0.67173293       0.41691983 </v>
   <v>       0.44208301       0.44208301       0.41809300 </v>
   <v>       0.50000000       0.38416601       0.50000000 </v>
   <v>       0.61749315       0.50000005       0.34021317 </v>
   <v>       0.61749315       0.50000005       0.65978680 </v>
   <v>       0.38250685       0.50000005       0.34021317 </v>
   <v>       0.38250685       0.50000005       0.65978680 </v>
   <v>       0.38317830       0.38317830       0.50000000 </v>
   <v>       0.61682172       0.61682172       0.50000000 </v>
   <v>       0.61682170       0.38317830       0.50000000 </v>
   <v>       0.38317828       0.61682172       0.50000000 </v>
   <v>       0.50000000       0.50000000       0.33478917 </v>
   <v>       0.50000000       0.50000000       0.66521087 </v>
   <v>       0.32826705       0.44576024       0.58308023 </v>
   <v>       0.55423973       0.67173293       0.58308023 </v>
   <v>       0.55791699       0.44208301       0.58190703 </v>
   <v>       0.44208298       0.55791702       0.41809300 </v>
   <v>       0.44208301       0.44208301       0.58190703 </v>
   <v>       0.67173295       0.44576024       0.58308023 </v>
   <v>       0.44576027       0.67173293       0.58308023 </v>
   <v>       0.55791702       0.55791702       0.41809300 </v>
   <v>       0.38416599       0.50000002       0.50000000 </v>
   <v>       0.61583401       0.50000002       0.50000000 </v>
   <v>       0.50000000       0.61749319       0.34021317 </v>
   <v>       0.50000000       0.61749319       0.65978680 </v>
   <v>       0.50000000       0.50000000       0.50000000 </v>
   <v>       0.44208298       0.55791702       0.58190703 </v>
   <v>       0.55791702       0.55791702       0.58190703 </v>
   <v>       0.50000000       0.61583404       0.50000000 </v>
   <v>       0.74920683       0.44915153       0.53879297 </v>
   <v>       0.78562657       0.44172043       0.54446227 </v>
  </varray>
  <varray name="selective"  type="logical" >
   <v type="logical" >  F  F  F </v>
   <v type="logical" >  F  F  F </v>
   <v type="logical" >  F  F  F </v>
   <v type="logical" >  F  F  F </v>
   <v type="logical" >  F  F  F </v>
   <v type="logical" >  F  F  F </v>
   <v type="logical" >  F  F  F </v>
   <v type="logical" >  F  F  F </v>
   <v type="logical" >  F  F  F </v>
   <v type="logical" >  F  F  F </v>
   <v type="logical" >  F  F  F </v>
   <v type="logical" >  F  F  F </v>
   <v type="logical" >  F  F  F </v>
   <v type="logical" >  F  F  F </v>
   <v type="logical" >  F  F  F </v>
   <v type="logical" >  F  F  F </v>
   <v type="logical" >  F  F  F </v>
   <v type="logical" >  F  F  F </v>
   <v type="logical" >  F  F  F </v>
   <v type="logical" >  F  F  F </v>
   <v type="logical" >  F  F  F </v>
   <v type="logical" >  F  F  F </v>
   <v type="logical" >  F  F  F </v>
   <v type="logical" >  F  F  F </v>
   <v type="logical" >  F  F  F </v>
   <v type="logical" >  F  F  F </v>
   <v type="logical" >  F  F  F </v>
   <v type="logical" >  F  F  F </v>
   <v type="logical" >  F  F  F </v>
   <v type="logical" >  F  F  F </v>
   <v type="logical" >  F  F  F </v>
   <v type="logical" >  F  F  F </v>
   <v type="logical" >  F  F  F </v>
   <v type="logical" >  F  F  F </v>
   <v type="logical" >  F  F  F </v>
   <v type="logical" >  F  F  F </v>
   <v type="logical" >  F  F  F </v>
   <v type="logical" >  F  F  F </v>
   <v type="logical" >  F  F  F </v>
   <v type="logical" >  F  F  F </v>
   <v type="logical" >  F  F  F </v>
   <v type="logical" >  F  F  F </v>
   <v type="logical" >  F  F  F </v>
   <v type="logical" >  F  F  F </v>
   <v type="logical" >  F  F  F </v>
   <v type="logical" >  F  F  F </v>
   <v type="logical" >  F  F  F </v>
   <v type="logical" >  F  F  F </v>
   <v type="logical" >  F  F  F </v>
   <v type="logical" >  F  F  F </v>
   <v type="logical" >  F  F  F </v>
   <v type="logical" >  F  F  F </v>
   <v type="logical" >  F  F  F </v>
   <v type="logical" >  F  F  F </v>
   <v type="logical" >  F  F  F </v>
   <v type="logical" >  F  F  F </v>
   <v type="logical" >  F  F  F </v>
  </varray>
  <nose>
   <v>      -3.00000000       0.00000000       0.00010000       0.00010000 </v>
  </nose>
 </structure>
 <calculation>
  <scstep>
   <time name="dav">  365.31  365.40</time>
   <time name="total">  379.79  379.87</time>
   <energy>
    <i name="alphaZ">     75.25431677 </i>
    <i name="ewald"> 138059.35345846 </i>
    <i name="hartreedc">-181421.23474645 </i>
    <i name="XCdc">  -1703.09042668 </i>
    <i name="pawpsdc">  44873.02882129 </i>
    <i name="pawaedc"> -41398.84523641 </i>
    <i name="eentropy">     -0.03279598 </i>
    <i name="bandstr">    815.57257806 </i>
    <i name="atom">  45086.50549395 </i>
    <i name="e_fr_energy">   4386.51146302 </i>
    <i name="e_wo_entrp">   4386.54425899 </i>
    <i name="e_0_energy">   4386.51966201 </i>
   </energy>
  </scstep>
  <scstep>
   <time name="dav">  587.88  587.92</time>
   <time name="total">  587.88  587.92</time>
   <energy>
    <i name="e_fr_energy">   2013.06400516 </i>
    <i name="e_wo_entrp">   2013.04431269 </i>
    <i name="e_0_energy">   2013.05908204 </i>
   </energy>
  </scstep>
  <scstep>
   <time name="dav">  495.63  495.66</time>
   <time name="total">  495.63  495.66</time>
   <energy>
    <i name="e_fr_energy">    235.52214363 </i>
    <i name="e_wo_entrp">    235.57419537 </i>
    <i name="e_0_energy">    235.53515656 </i>
   </energy>
  </scstep>
  <scstep>
   <time name="dav">  430.75  430.77</time>
   <time name="total">  430.76  430.77</time>
   <energy>
    <i name="e_fr_energy">   -135.64405283 </i>
    <i name="e_wo_entrp">   -135.70759907 </i>
    <i name="e_0_energy">   -135.65993939 </i>
   </energy>
  </scstep>
  <scstep>
   <time name="dav">  519.99  520.04</time>
   <time name="total">  546.41  546.46</time>
   <energy>
    <i name="e_fr_energy">   -179.98060660 </i>
    <i name="e_wo_entrp">   -180.51506845 </i>
    <i name="e_0_energy">   -180.11422206 </i>
   </energy>
  </scstep>
  <scstep>
   <time name="diag">   68.42   68.43</time>
   <time name="diis">  196.44  196.45</time>
   <time name="orth">   14.14   14.14</time>
   <time name="total">  319.16  319.18</time>
   <energy>
    <i name="e_fr_energy">   -180.29240412 </i>
    <i name="e_wo_entrp">   -180.24077370 </i>
    <i name="e_0_energy">   -180.27949651 </i>
   </energy>
  </scstep>
  <scstep>
   <time name="diag">   68.67   68.68</time>
   <time name="diis">  237.39  237.40</time>
   <time name="orth">   13.87   13.87</time>
   <time name="total">  359.86  359.88</time>
   <energy>
    <i name="e_fr_energy">   -181.85434615 </i>
    <i name="e_wo_entrp">   -181.87735792 </i>
    <i name="e_0_energy">   -181.86009909 </i>
   </energy>
  </scstep>
  <scstep>
   <time name="diag">   68.26   68.26</time>
   <time name="diis">  209.32  209.35</time>
   <time name="orth">   13.91   13.91</time>
   <time name="total">  331.71  331.74</time>
   <energy>
    <i name="e_fr_energy">   -183.68060644 </i>
    <i name="e_wo_entrp">   -183.54553082 </i>
    <i name="e_0_energy">   -183.64683754 </i>
   </energy>
  </scstep>
  <scstep>
   <time name="diag">   68.28   68.29</time>
   <time name="diis">  198.15  198.16</time>
   <time name="orth">   13.84   13.84</time>
   <time name="total">  320.68  320.70</time>
   <energy>
    <i name="e_fr_energy">   -182.99073029 </i>
    <i name="e_wo_entrp">   -182.91320200 </i>
    <i name="e_0_energy">   -182.97134822 </i>
   </energy>
  </scstep>
  <scstep>
   <time name="diag">   68.09   68.09</time>
   <time name="diis">  197.98  197.99</time>
   <time name="orth">   13.77   13.77</time>
   <time name="total">  320.57  320.58</time>
   <energy>
    <i name="e_fr_energy">   -181.27046020 </i>
    <i name="e_wo_entrp">   -181.18067438 </i>
    <i name="e_0_energy">   -181.24801375 </i>
   </energy>
  </scstep>
  <scstep>
   <time name="diag">   67.84   67.85</time>
   <time name="diis">  197.02  197.02</time>
   <time name="orth">   13.92   13.92</time>
   <time name="total">  319.83  319.84</time>
   <energy>
    <i name="e_fr_energy">   -179.69677851 </i>
    <i name="e_wo_entrp">   -179.57869333 </i>
    <i name="e_0_energy">   -179.66725722 </i>
   </energy>
  </scstep>
  <scstep>
   <time name="diag">   67.72   67.72</time>
   <time name="diis">  194.72  194.74</time>
   <time name="orth">   13.83   13.83</time>
   <time name="total">  316.98  316.99</time>
   <energy>
    <i name="e_fr_energy">   -177.99730295 </i>
    <i name="e_wo_entrp">   -177.89762812 </i>
    <i name="e_0_energy">   -177.97238424 </i>
   </energy>
  </scstep>
  <scstep>
   <time name="diag">   67.99   67.99</time>
   <time name="diis">  193.26  193.27</time>
   <time name="orth">   13.84   13.84</time>
   <time name="total">  315.93  315.93</time>
   <energy>
    <i name="e_fr_energy">   -177.14278473 </i>
    <i name="e_wo_entrp">   -177.07081104 </i>
    <i name="e_0_energy">   -177.12479131 </i>
   </energy>
  </scstep>
  <scstep>
   <time name="diag">   68.07   68.07</time>
   <time name="diis">  193.37  193.38</time>
   <time name="orth">   13.91   13.91</time>
   <time name="total">  316.23  316.24</time>
   <energy>
    <i name="e_fr_energy">   -177.23031810 </i>
    <i name="e_wo_entrp">   -177.19610184 </i>
    <i name="e_0_energy">   -177.22176404 </i>
   </energy>
  </scstep>
  <scstep>
   <time name="diag">   68.01   68.01</time>
   <time name="diis">  193.42  193.43</time>
   <time name="orth">   13.93   13.93</time>
   <time name="total">  316.07  316.08</time>
   <energy>
    <i name="e_fr_energy">   -177.33202902 </i>
    <i name="e_wo_entrp">   -177.31558826 </i>
    <i name="e_0_energy">   -177.32791883 </i>
   </energy>
  </scstep>
  <scstep>
   <time name="diag">   68.19   68.19</time>
   <time name="diis">  191.93  191.94</time>
   <time name="orth">   13.94   13.94</time>
   <time name="total">  314.52  314.54</time>
   <energy>
    <i name="e_fr_energy">   -176.85698630 </i>
    <i name="e_wo_entrp">   -176.80269276 </i>
    <i name="e_0_energy">   -176.84341292 </i>
   </energy>
  </scstep>
  <scstep>
   <time name="diag">   68.16   68.16</time>
   <time name="diis">  188.85  188.85</time>
   <time name="orth">   13.90   13.90</time>
   <time name="total">  311.48  311.48</time>
   <energy>
    <i name="e_fr_energy">   -176.11290019 </i>
    <i name="e_wo_entrp">   -176.11478530 </i>
    <i name="e_0_energy">   -176.11337147 </i>
   </energy>
  </scstep>
  <scstep>
   <time name="diag">   68.12   68.12</time>
   <time name="diis">  188.76  188.77</time>
   <time name="orth">   13.94   13.94</time>
   <time name="total">  311.38  311.40</time>
   <energy>
    <i name="e_fr_energy">   -175.75422160 </i>
    <i name="e_wo_entrp">   -175.80149633 </i>
    <i name="e_0_energy">   -175.76604028 </i>
   </energy>
  </scstep>
  <scstep>
   <time name="diag">   67.90   67.91</time>
   <time name="diis">  191.95  191.97</time>
   <time name="orth">   13.90   13.90</time>
   <time name="total">  314.35  314.38</time>
   <energy>
    <i name="e_fr_energy">   -175.53315417 </i>
    <i name="e_wo_entrp">   -175.48168860 </i>
    <i name="e_0_energy">   -175.52028778 </i>
   </energy>
  </scstep>
  <scstep>
   <time name="diag">   67.98   67.99</time>
   <time name="diis">  187.76  187.76</time>
   <time name="orth">   13.91   13.91</time>
   <time name="total">  310.28  310.29</time>
   <energy>
    <i name="e_fr_energy">   -175.40202593 </i>
    <i name="e_wo_entrp">   -175.35640995 </i>
    <i name="e_0_energy">   -175.39062193 </i>
   </energy>
  </scstep>
  <scstep>
   <time name="diag">   67.67   67.67</time>
   <time name="diis">  191.14  191.14</time>
   <time name="orth">   13.51   13.51</time>
   <time name="total">  312.76  312.77</time>
   <energy>
    <i name="e_fr_energy">   -175.40551311 </i>
    <i name="e_wo_entrp">   -175.44149010 </i>
    <i name="e_0_energy">   -175.41450736 </i>
   </energy>
  </scstep>
  <scstep>
   <time name="diag">   67.64   67.64</time>
   <time name="diis">  187.35  187.36</time>
   <time name="orth">   13.64   13.64</time>
   <time name="total">  308.68  308.69</time>
   <energy>
    <i name="e_fr_energy">   -175.25141449 </i>
    <i name="e_wo_entrp">   -175.25577631 </i>
    <i name="e_0_energy">   -175.25250494 </i>
   </energy>
  </scstep>
  <scstep>
   <time name="diag">   69.24   69.25</time>
   <time name="diis">  186.05  186.05</time>
   <time name="orth">   13.64   13.64</time>
   <time name="total">  310.03  310.04</time>
   <energy>
    <i name="e_fr_energy">   -175.08013766 </i>
    <i name="e_wo_entrp">   -175.01134477 </i>
    <i name="e_0_energy">   -175.06293944 </i>
   </energy>
  </scstep>
  <scstep>
   <time name="diag">   69.34   69.34</time>
   <time name="diis">  183.45  183.45</time>
   <time name="orth">   14.06   14.06</time>
   <time name="total">  308.28  308.29</time>
   <energy>
    <i name="e_fr_energy">   -175.14638975 </i>
    <i name="e_wo_entrp">   -175.07965320 </i>
    <i name="e_0_energy">   -175.12970562 </i>
   </energy>
  </scstep>
  <scstep>
   <time name="diag">   68.98   68.98</time>
   <time name="diis">  184.82  184.83</time>
   <time name="orth">   14.20   14.20</time>
   <time name="total">  309.30  309.31</time>
   <energy>
    <i name="e_fr_energy">   -175.11009005 </i>
    <i name="e_wo_entrp">   -175.03217173 </i>
    <i name="e_0_energy">   -175.09061047 </i>
   </energy>
  </scstep>
  <scstep>
   <time name="diag">   68.20   68.21</time>
   <time name="diis">  184.28  184.29</time>
   <time name="orth">   13.63   13.63</time>
   <time name="total">  306.74  306.74</time>
   <energy>
    <i name="e_fr_energy">   -175.00312344 </i>
    <i name="e_wo_entrp">   -174.93477451 </i>
    <i name="e_0_energy">   -174.98603621 </i>
   </energy>
  </scstep>
  <scstep>
   <time name="diag">   67.75   67.75</time>
   <time name="diis">  185.35  185.36</time>
   <time name="orth">   13.59   13.59</time>
   <time name="total">  307.36  307.37</time>
   <energy>
    <i name="e_fr_energy">   -174.97050127 </i>
    <i name="e_wo_entrp">   -174.90499052 </i>
    <i name="e_0_energy">   -174.95412358 </i>
   </energy>
  </scstep>
  <scstep>
   <time name="diag">   69.23   69.24</time>
   <time name="diis">  183.77  183.80</time>
   <time name="orth">   13.92   13.92</time>
   <time name="total">  308.14  308.18</time>
   <energy>
    <i name="e_fr_energy">   -174.98496745 </i>
    <i name="e_wo_entrp">   -174.91558767 </i>
    <i name="e_0_energy">   -174.96762251 </i>
   </energy>
  </scstep>
  <scstep>
   <time name="diag">   68.31   68.32</time>
   <time name="diis">  184.63  184.64</time>
   <time name="orth">   13.41   13.41</time>
   <time name="total">  308.01  308.04</time>
   <energy>
    <i name="e_fr_energy">   -174.93212000 </i>
    <i name="e_wo_entrp">   -174.85619471 </i>
    <i name="e_0_energy">   -174.91313867 </i>
   </energy>
  </scstep>
  <scstep>
   <time name="diag">   67.16   67.16</time>
   <time name="diis">  183.89  183.92</time>
   <time name="orth">   13.57   13.57</time>
   <time name="total">  305.08  305.11</time>
   <energy>
    <i name="e_fr_energy">   -174.92011871 </i>
    <i name="e_wo_entrp">   -174.84463491 </i>
    <i name="e_0_energy">   -174.90124776 </i>
   </energy>
  </scstep>
  <scstep>
   <time name="diag">   68.03   68.04</time>
   <time name="diis">  185.07  185.10</time>
   <time name="orth">   13.67   13.67</time>
   <time name="total">  308.00  308.04</time>
   <energy>
    <i name="e_fr_energy">   -174.91148159 </i>
    <i name="e_wo_entrp">   -174.83890463 </i>
    <i name="e_0_energy">   -174.89333735 </i>
   </energy>
  </scstep>
  <scstep>
   <time name="diag">   68.82   68.82</time>
   <time name="diis">  182.85  182.87</time>
   <time name="orth">   13.93   13.93</time>
   <time name="total">  307.12  307.15</time>
   <energy>
    <i name="e_fr_energy">   -174.90723587 </i>
    <i name="e_wo_entrp">   -174.82960344 </i>
    <i name="e_0_energy">   -174.88782777 </i>
   </energy>
  </scstep>
  <scstep>
   <time name="diag">   67.95   67.96</time>
   <time name="diis">  181.85  181.87</time>
   <time name="orth">   13.45   13.46</time>
   <time name="total">  304.82  304.86</time>
   <energy>
    <i name="e_fr_energy">   -174.90595988 </i>
    <i name="e_wo_entrp">   -174.82854886 </i>
    <i name="e_0_energy">   -174.88660713 </i>
   </energy>
  </scstep>
  <scstep>
   <time name="diag">   67.61   67.62</time>
   <time name="diis">  182.41  182.44</time>
   <time name="orth">   13.50   13.50</time>
   <time name="total">  304.29  304.32</time>
   <energy>
    <i name="e_fr_energy">   -174.90221040 </i>
    <i name="e_wo_entrp">   -174.82368100 </i>
    <i name="e_0_energy">   -174.88257805 </i>
   </energy>
  </scstep>
  <scstep>
   <time name="diag">   68.24   68.24</time>
   <time name="diis">  180.08  180.10</time>
   <time name="orth">   13.20   13.20</time>
   <time name="total">  302.66  302.69</time>
   <energy>
    <i name="e_fr_energy">   -174.90346509 </i>
    <i name="e_wo_entrp">   -174.82561660 </i>
    <i name="e_0_energy">   -174.88400297 </i>
   </energy>
  </scstep>
  <scstep>
   <time name="diag">   67.89   67.90</time>
   <time name="diis">  179.40  179.42</time>
   <time name="orth">   13.45   13.45</time>
   <time name="total">  302.23  302.27</time>
   <energy>
    <i name="e_fr_energy">   -174.90384826 </i>
    <i name="e_wo_entrp">   -174.82480621 </i>
    <i name="e_0_energy">   -174.88408774 </i>
   </energy>
  </scstep>
  <scstep>
   <time name="diag">   69.16   69.16</time>
   <time name="diis">  177.54  177.55</time>
   <time name="orth">   13.78   13.78</time>
   <time name="total">  301.94  301.96</time>
   <energy>
    <i name="e_fr_energy">   -174.90412921 </i>
    <i name="e_wo_entrp">   -174.82637183 </i>
    <i name="e_0_energy">   -174.88468987 </i>
   </energy>
  </scstep>
  <scstep>
   <time name="diag">   68.16   68.16</time>
   <time name="diis">  176.37  176.39</time>
   <time name="orth">   13.51   13.51</time>
   <time name="total">  299.64  299.66</time>
   <energy>
    <i name="e_fr_energy">   -174.90550990 </i>
    <i name="e_wo_entrp">   -174.82724723 </i>
    <i name="e_0_energy">   -174.88594423 </i>
   </energy>
  </scstep>
  <scstep>
   <time name="diag">   68.73   68.74</time>
   <time name="diis">  177.79  177.80</time>
   <time name="orth">   13.46   13.46</time>
   <time name="total">  301.36  301.38</time>
   <energy>
    <i name="e_fr_energy">   -174.90875903 </i>
    <i name="e_wo_entrp">   -174.83090834 </i>
    <i name="e_0_energy">   -174.88929636 </i>
   </energy>
  </scstep>
  <scstep>
   <time name="diag">   67.50   67.50</time>
   <time name="diis">  173.11  173.11</time>
   <time name="orth">   13.43   13.43</time>
   <time name="total">  295.56  295.57</time>
   <energy>
    <i name="e_fr_energy">   -174.91144870 </i>
    <i name="e_wo_entrp">   -174.83427536 </i>
    <i name="e_0_energy">   -174.89215536 </i>
   </energy>
  </scstep>
  <scstep>
   <time name="diag">   68.56   68.57</time>
   <time name="diis">  155.08  155.09</time>
   <time name="orth">   13.42   13.42</time>
   <time name="total">  278.86  278.88</time>
   <energy>
    <i name="e_fr_energy">   -174.91378771 </i>
    <i name="e_wo_entrp">   -174.83705471 </i>
    <i name="e_0_energy">   -174.89460446 </i>
   </energy>
  </scstep>
  <scstep>
   <time name="diag">   68.25   68.26</time>
   <time name="diis">  121.35  121.38</time>
   <time name="orth">   13.53   13.53</time>
   <time name="total">  245.14  245.19</time>
   <energy>
    <i name="e_fr_energy">   -174.91545561 </i>
    <i name="e_wo_entrp">   -174.83819235 </i>
    <i name="e_0_energy">   -174.89613979 </i>
   </energy>
  </scstep>
  <scstep>
   <time name="diag">   67.80   67.81</time>
   <time name="diis">  113.64  113.64</time>
   <time name="orth">   13.36   13.36</time>
   <time name="total">  236.85  236.86</time>
   <energy>
    <i name="e_fr_energy">   -174.91707531 </i>
    <i name="e_wo_entrp">   -174.83920299 </i>
    <i name="e_0_energy">   -174.89760723 </i>
   </energy>
  </scstep>
  <scstep>
   <time name="diag">   67.70   67.70</time>
   <time name="diis">  115.96  115.98</time>
   <time name="orth">   13.50   13.50</time>
   <time name="total">  239.60  239.63</time>
   <energy>
    <i name="e_fr_energy">   -174.91901475 </i>
    <i name="e_wo_entrp">   -174.84106478 </i>
    <i name="e_0_energy">   -174.89952726 </i>
   </energy>
  </scstep>
  <scstep>
   <time name="diag">   68.31   68.33</time>
   <time name="diis">  115.76  115.78</time>
   <time name="orth">   13.58   13.58</time>
   <time name="total">  240.47  240.52</time>
   <energy>
    <i name="e_fr_energy">   -174.92024999 </i>
    <i name="e_wo_entrp">   -174.84289062 </i>
    <i name="e_0_energy">   -174.90091015 </i>
   </energy>
  </scstep>
  <scstep>
   <time name="diag">   68.51   68.51</time>
   <time name="diis">  128.01  128.03</time>
   <time name="orth">   13.76   13.76</time>
   <time name="total">  253.76  253.79</time>
   <energy>
    <i name="e_fr_energy">   -174.92304268 </i>
    <i name="e_wo_entrp">   -174.84597754 </i>
    <i name="e_0_energy">   -174.90377640 </i>
   </energy>
  </scstep>
  <scstep>
   <time name="diag">   68.72   68.72</time>
   <time name="diis">  115.02  115.03</time>
   <time name="orth">   13.31   13.31</time>
   <time name="total">  239.76  239.76</time>
   <energy>
    <i name="e_fr_energy">   -174.92438053 </i>
    <i name="e_wo_entrp">   -174.84664054 </i>
    <i name="e_0_energy">   -174.90494553 </i>
   </energy>
  </scstep>
  <scstep>
   <time name="diag">   68.54   68.54</time>
   <time name="diis">  117.53  117.53</time>
   <time name="orth">   13.85   13.85</time>
   <time name="total">  243.79  243.79</time>
   <energy>
    <i name="e_fr_energy">   -174.92561516 </i>
    <i name="e_wo_entrp">   -174.84793222 </i>
    <i name="e_0_energy">   -174.90619443 </i>
   </energy>
  </scstep>
  <scstep>
   <time name="diag">   67.56   67.56</time>
   <time name="diis">  116.12  116.12</time>
   <time name="orth">   13.97   13.97</time>
   <time name="total">  242.11  242.11</time>
   <energy>
    <i name="e_fr_energy">   -174.92647560 </i>
    <i name="e_wo_entrp">   -174.84887894 </i>
    <i name="e_0_energy">   -174.90707644 </i>
   </energy>
  </scstep>
  <scstep>
   <time name="diag">   69.07   69.07</time>
   <time name="diis">  114.01  114.01</time>
   <time name="orth">   13.43   13.43</time>
   <time name="total">  240.47  240.47</time>
   <energy>
    <i name="e_fr_energy">   -174.92735335 </i>
    <i name="e_wo_entrp">   -174.84942655 </i>
    <i name="e_0_energy">   -174.90787165 </i>
   </energy>
  </scstep>
  <scstep>
   <time name="diag">   68.77   68.77</time>
   <time name="diis">  114.42  114.42</time>
   <time name="orth">   13.32   13.32</time>
   <time name="total">  239.29  239.29</time>
   <energy>
    <i name="e_fr_energy">   -174.92793967 </i>
    <i name="e_wo_entrp">   -174.85053605 </i>
    <i name="e_0_energy">   -174.90858876 </i>
   </energy>
  </scstep>
  <scstep>
   <time name="diag">   67.73   67.73</time>
   <time name="diis">  114.97  114.97</time>
   <time name="orth">   13.40   13.40</time>
   <time name="total">  239.33  239.34</time>
   <energy>
    <i name="e_fr_energy">   -174.92846042 </i>
    <i name="e_wo_entrp">   -174.85110182 </i>
    <i name="e_0_energy">   -174.90912077 </i>
   </energy>
  </scstep>
  <scstep>
   <time name="diag">   67.70   67.70</time>
   <time name="diis">  109.25  109.25</time>
   <time name="orth">   13.67   13.67</time>
   <time name="total">  234.34  234.34</time>
   <energy>
    <i name="e_fr_energy">   -174.92895680 </i>
    <i name="e_wo_entrp">   -174.85148625 </i>
    <i name="e_0_energy">   -174.90958917 </i>
   </energy>
  </scstep>
  <scstep>
   <time name="diag">   68.48   68.48</time>
   <time name="diis">   82.27   82.28</time>
   <time name="orth">   13.38   13.38</time>
   <time name="total">  207.24  207.24</time>
   <energy>
    <i name="e_fr_energy">   -174.92914625 </i>
    <i name="e_wo_entrp">   -174.85156929 </i>
    <i name="e_0_energy">   -174.90975201 </i>
   </energy>
  </scstep>
  <scstep>
   <time name="diag">   68.55   68.57</time>
   <time name="diis">   99.20   99.20</time>
   <time name="orth">   13.49   13.49</time>
   <time name="total">  225.15  225.17</time>
   <energy>
    <i name="e_fr_energy">   -174.92980225 </i>
    <i name="e_wo_entrp">   -174.85232551 </i>
    <i name="e_0_energy">   -174.91043306 </i>
   </energy>
  </scstep>
  <scstep>
   <time name="diag">   68.00   68.00</time>
   <time name="diis">   77.56   77.56</time>
   <time name="orth">   13.76   13.76</time>
   <time name="total">  203.16  203.17</time>
   <energy>
    <i name="e_fr_energy">   -174.92993268 </i>
    <i name="e_wo_entrp">   -174.85244947 </i>
    <i name="e_0_energy">   -174.91056188 </i>
   </energy>
  </scstep>
  <scstep>
   <time name="diag">   69.04   69.04</time>
   <time name="diis">   99.37   99.37</time>
   <time name="orth">   13.37   13.37</time>
   <time name="total">  225.48  225.50</time>
   <energy>
    <i name="e_fr_energy">   -174.93033962 </i>
    <i name="e_wo_entrp">   -174.85279064 </i>
    <i name="e_0_energy">   -174.91095237 </i>
   </energy>
  </scstep>
  <scstep>
   <time name="diag">   69.26   69.26</time>
   <time name="diis">   84.10   84.10</time>
   <time name="orth">   13.58   13.58</time>
   <time name="total">  210.46  210.48</time>
   <energy>
    <i name="e_fr_energy">   -174.93050479 </i>
    <i name="e_wo_entrp">   -174.85295822 </i>
    <i name="e_0_energy">   -174.91111815 </i>
   </energy>
  </scstep>
  <scstep>
   <time name="diag">   68.52   68.53</time>
   <time name="diis">   79.17   79.18</time>
   <time name="orth">   13.62   13.63</time>
   <time name="total">  205.53  205.56</time>
   <energy>
    <i name="e_fr_energy">   -174.93064018 </i>
    <i name="e_wo_entrp">   -174.85309348 </i>
    <i name="e_0_energy">   -174.91125350 </i>
   </energy>
  </scstep>
  <scstep>
   <time name="diag">   69.03   69.04</time>
   <time name="diis">   83.59   83.60</time>
   <time name="orth">   13.31   13.32</time>
   <time name="total">  209.52  209.55</time>
   <energy>
    <i name="e_fr_energy">   -174.93076611 </i>
    <i name="e_wo_entrp">   -174.85320157 </i>
    <i name="e_0_energy">   -174.91137497 </i>
   </energy>
  </scstep>
  <scstep>
   <time name="diag">   69.23   69.24</time>
   <time name="diis">   72.55   72.55</time>
   <time name="orth">   13.54   13.54</time>
   <time name="total">  169.55  169.56</time>
   <energy>
    <i name="alphaZ">     75.25431677 </i>
    <i name="ewald"> 138059.35345846 </i>
    <i name="hartreedc">-182417.37416677 </i>
    <i name="XCdc">  -1692.41545281 </i>
    <i name="pawpsdc">  46128.41042167 </i>
    <i name="pawaedc"> -42598.64012505 </i>
    <i name="eentropy">     -0.07749562 </i>
    <i name="bandstr">  -2815.94726452 </i>
    <i name="atom">  45086.50549395 </i>
    <i name="e_fr_energy">   -174.93081392 </i>
    <i name="e_wo_entrp">   -174.85331830 </i>
    <i name="e_0_energy">   -174.91144001 </i>
   </energy>
  </scstep>
  <structure>
   <crystal>
    <varray name="basis" >
     <v>      30.00000000       0.00000000       0.00000000 </v>
     <v>       0.00000000      30.00000000       0.00000000 </v>
     <v>       0.00000000       0.00000000      30.00000000 </v>
    </varray>
    <i name="volume">  27000.00000000 </i>
    <varray name="rec_basis" >
     <v>       0.03333333       0.00000000       0.00000000 </v>
     <v>       0.00000000       0.03333333       0.00000000 </v>
     <v>       0.00000000       0.00000000       0.03333333 </v>
    </varray>
   </crystal>
   <varray name="positions" >
    <v>       0.44576020       0.32826710       0.41691983 </v>
    <v>       0.67173288       0.55423978       0.41691983 </v>
    <v>       0.55423980       0.32826710       0.41691983 </v>
    <v>       0.32826712       0.55423978       0.41691983 </v>
    <v>       0.50000000       0.38250690       0.34021317 </v>
    <v>       0.50000000       0.38250690       0.65978680 </v>
    <v>       0.50000000       0.27609440       0.50000000 </v>
    <v>       0.27609443       0.49999998       0.50000000 </v>
    <v>       0.72390557       0.49999998       0.50000000 </v>
    <v>       0.50000000       0.72390555       0.50000000 </v>
    <v>       0.61195280       0.38804720       0.34167483 </v>
    <v>       0.61195280       0.38804720       0.65832513 </v>
    <v>       0.38804722       0.61195278       0.34167483 </v>
    <v>       0.38804722       0.61195278       0.65832513 </v>
    <v>       0.38804720       0.38804720       0.34167483 </v>
    <v>       0.38804720       0.38804720       0.65832513 </v>
    <v>       0.61195278       0.61195278       0.34167483 </v>
    <v>       0.61195278       0.61195278       0.65832513 </v>
    <v>       0.44576020       0.32826710       0.58308023 </v>
    <v>       0.67173288       0.55423978       0.58308023 </v>
    <v>       0.55791699       0.44208301       0.41809300 </v>
    <v>       0.32826705       0.44576024       0.41691983 </v>
    <v>       0.55423973       0.67173293       0.41691983 </v>
    <v>       0.55423980       0.32826710       0.58308023 </v>
    <v>       0.32826712       0.55423978       0.58308023 </v>
    <v>       0.67173295       0.44576024       0.41691983 </v>
    <v>       0.44576027       0.67173293       0.41691983 </v>
    <v>       0.44208301       0.44208301       0.41809300 </v>
    <v>       0.50000000       0.38416601       0.50000000 </v>
    <v>       0.61749315       0.50000005       0.34021317 </v>
    <v>       0.61749315       0.50000005       0.65978680 </v>
    <v>       0.38250685       0.50000005       0.34021317 </v>
    <v>       0.38250685       0.50000005       0.65978680 </v>
    <v>       0.38317830       0.38317830       0.50000000 </v>
    <v>       0.61682172       0.61682172       0.50000000 </v>
    <v>       0.61682170       0.38317830       0.50000000 </v>
    <v>       0.38317828       0.61682172       0.50000000 </v>
    <v>       0.50000000       0.50000000       0.33478917 </v>
    <v>       0.50000000       0.50000000       0.66521087 </v>
    <v>       0.32826705       0.44576024       0.58308023 </v>
    <v>       0.55423973       0.67173293       0.58308023 </v>
    <v>       0.55791699       0.44208301       0.58190703 </v>
    <v>       0.44208298       0.55791702       0.41809300 </v>
    <v>       0.44208301       0.44208301       0.58190703 </v>
    <v>       0.67173295       0.44576024       0.58308023 </v>
    <v>       0.44576027       0.67173293       0.58308023 </v>
    <v>       0.55791702       0.55791702       0.41809300 </v>
    <v>       0.38416599       0.50000002       0.50000000 </v>
    <v>       0.61583401       0.50000002       0.50000000 </v>
    <v>       0.50000000       0.61749319       0.34021317 </v>
    <v>       0.50000000       0.61749319       0.65978680 </v>
    <v>       0.50000000       0.50000000       0.50000000 </v>
    <v>       0.44208298       0.55791702       0.58190703 </v>
    <v>       0.55791702       0.55791702       0.58190703 </v>
    <v>       0.50000000       0.61583404       0.50000000 </v>
    <v>       0.74920683       0.44915153       0.53879297 </v>
    <v>       0.78562657       0.44172043       0.54446227 </v>
   </varray>
  </structure>
  <varray name="forces" >
   <v>       0.70342248       1.10821861       0.29339647 </v>
   <v>      -1.12120901      -0.68734960       0.21259151 </v>
   <v>      -0.70624052       1.10689722       0.29156030 </v>
   <v>       1.11136927      -0.70167204       0.28442240 </v>
   <v>      -0.00543860       0.40883544       1.28411647 </v>
   <v>       0.00335502       0.41618729      -1.27905556 </v>
   <v>       0.00028547       1.51604348      -0.00047139 </v>
   <v>       1.51263052      -0.00422692       0.00083976 </v>
   <v>      -1.11411820      -0.99733033       0.63986343 </v>
   <v>      -0.00101091      -1.51806386      -0.00187811 </v>
   <v>      -0.75640662       0.75748856       1.06914634 </v>
   <v>      -0.75876311       0.76481822      -1.07567434 </v>
   <v>       0.75931890      -0.75489949       1.07153152 </v>
   <v>       0.75569537      -0.75602134      -1.07174030 </v>
   <v>       0.75667621       0.75406792       1.07085183 </v>
   <v>       0.75226503       0.75871926      -1.07478379 </v>
   <v>      -0.77461729      -0.72610827       1.05620845 </v>
   <v>      -0.72949199      -0.75492695      -1.09466209 </v>
   <v>       0.70180013       1.10721358      -0.29550336 </v>
   <v>      -1.17515993      -0.62884313      -0.15654121 </v>
   <v>       0.10674162      -0.10578567      -0.16152609 </v>
   <v>       1.11204924       0.69951409       0.28964870 </v>
   <v>      -0.70943320      -1.10926129       0.29010005 </v>
   <v>      -0.70708938       1.10964457      -0.29162844 </v>
   <v>       1.11613380      -0.69641246      -0.28378060 </v>
   <v>      -1.16450371       0.70704783       0.18554604 </v>
   <v>       0.70757347      -1.10501374       0.29006647 </v>
   <v>      -0.11736617      -0.11509686      -0.14973391 </v>
   <v>       0.00411578      -0.22647668       0.00067118 </v>
   <v>      -0.38637232      -0.01735904       1.30049997 </v>
   <v>      -0.44214474      -0.01213509      -1.28097429 </v>
   <v>       0.40944494       0.00083181       1.27625687 </v>
   <v>       0.40409939      -0.00036121      -1.27796667 </v>
   <v>       0.82774892       0.82650886      -0.00159181 </v>
   <v>      -0.82886012      -0.82893936      -0.00557403 </v>
   <v>      -0.86173254       0.80021113      -0.01371766 </v>
   <v>       0.83091451      -0.82617023       0.00185408 </v>
   <v>      -0.00580990      -0.00339052       1.18122044 </v>
   <v>       0.02003214      -0.00538266      -1.18287100 </v>
   <v>       1.11770848       0.69459433      -0.28611862 </v>
   <v>      -0.70676905      -1.10644220      -0.29209572 </v>
   <v>       0.09481892      -0.10886374       0.15703436 </v>
   <v>      -0.10979836       0.11195402      -0.15461945 </v>
   <v>      -0.13760605      -0.11237055       0.15960133 </v>
   <v>      -0.26411687       0.63088501      -0.63576834 </v>
   <v>       0.70230589      -1.10778573      -0.29326392 </v>
   <v>       0.11411559       0.10861988      -0.14490217 </v>
   <v>      -0.22572155       0.00278073      -0.00495424 </v>
   <v>       0.09367041       0.02347470      -0.04353676 </v>
   <v>      -0.00489344      -0.40523487       1.28414660 </v>
   <v>      -0.00790155      -0.41155788      -1.28084617 </v>
   <v>       0.00313770      -0.00026025       0.00454952 </v>
   <v>      -0.12045902       0.11177411       0.15311056 </v>
   <v>       0.10833241       0.10589322       0.15328723 </v>
   <v>       0.00444212       0.22841864      -0.00191896 </v>
   <v>      -5.71351272       2.52147618      -1.18924814 </v>
   <v>       4.82234313      -1.54837674       1.02482527 </v>
  </varray>
  <varray name="stress" >
   <v>      -6.50623529      -0.05343468       0.10736593 </v>
   <v>      -0.05343468      -6.79988961       0.04538544 </v>
   <v>       0.10736594       0.04538545      -6.77882808 </v>
  </varray>
  <energy>
   <i name="e_fr_energy">   -174.93081392 </i>
   <i name="e_wo_entrp">   -174.91144001 </i>
   <i name="e_0_energy">     -0.07749562 </i>
  </energy>
  <time name="totalsc">18533.3818534.71</time>
  <eigenvalues>
   <array>
    <dimension dim="1">band</dimension>
    <dimension dim="2">kpoint</dimension>
    <dimension dim="3">spin</dimension>
    <field>eigene</field>
    <field>occ</field>
    <set>
     <set comment="spin 1">
      <set comment="kpoint 1">
       <r>  -28.5037    1.0000 </r>
       <r>  -13.2834    1.0000 </r>
       <r>  -11.1743    1.0000 </r>
       <r>  -10.9446    1.0000 </r>
       <r>   -9.9596    1.0000 </r>
       <r>   -6.6538    1.0000 </r>
       <r>   -6.1496    1.0000 </r>
       <r>   -6.1389    1.0000 </r>
       <r>   -6.1323    1.0000 </r>
       <r>   -5.9027    1.0000 </r>
       <r>   -5.8481    1.0000 </r>
       <r>   -5.8188    1.0000 </r>
       <r>   -5.8101    1.0000 </r>
       <r>   -5.7624    1.0000 </r>
       <r>   -5.7470    1.0000 </r>
       <r>   -5.6971    1.0000 </r>
       <r>   -5.6903    1.0000 </r>
       <r>   -5.6824    1.0000 </r>
       <r>   -5.6508    1.0000 </r>
       <r>   -5.6423    1.0000 </r>
       <r>   -5.6271    1.0000 </r>
       <r>   -5.6165    1.0000 </r>
       <r>   -5.6142    1.0000 </r>
       <r>   -5.5953    1.0000 </r>
       <r>   -5.5909    1.0000 </r>
       <r>   -5.5602    1.0000 </r>
       <r>   -5.5588    1.0000 </r>
       <r>   -5.5528    1.0000 </r>
       <r>   -5.5525    1.0000 </r>
       <r>   -5.5424    1.0000 </r>
       <r>   -5.5365    1.0000 </r>
       <r>   -5.5251    1.0000 </r>
       <r>   -5.5229    1.0000 </r>
       <r>   -5.5202    1.0000 </r>
       <r>   -5.5191    1.0000 </r>
       <r>   -5.5128    1.0000 </r>
       <r>   -5.5076    1.0000 </r>
       <r>   -5.4902    1.0000 </r>
       <r>   -5.4836    1.0000 </r>
       <r>   -5.4804    1.0000 </r>
       <r>   -5.4786    1.0000 </r>
       <r>   -5.4747    1.0000 </r>
       <r>   -5.4744    1.0000 </r>
       <r>   -5.4673    1.0000 </r>
       <r>   -5.4581    1.0000 </r>
       <r>   -5.4417    1.0000 </r>
       <r>   -5.4377    1.0000 </r>
       <r>   -5.4336    1.0000 </r>
       <r>   -5.4305    1.0000 </r>
       <r>   -5.4282    1.0000 </r>
       <r>   -5.4250    1.0000 </r>
       <r>   -5.4179    1.0000 </r>
       <r>   -5.4111    1.0000 </r>
       <r>   -5.4108    1.0000 </r>
       <r>   -5.4048    1.0000 </r>
       <r>   -5.3963    1.0000 </r>
       <r>   -5.3565    1.0000 </r>
       <r>   -5.3529    1.0000 </r>
       <r>   -5.3352    1.0000 </r>
       <r>   -5.3313    1.0000 </r>
       <r>   -5.3270    1.0000 </r>
       <r>   -5.3261    1.0000 </r>
       <r>   -5.3122    1.0000 </r>
       <r>   -5.3108    1.0000 </r>
       <r>   -5.3061    1.0000 </r>
       <r>   -5.3001    1.0000 </r>
       <r>   -5.2942    1.0000 </r>
       <r>   -5.2799    1.0000 </r>
       <r>   -5.2615    1.0000 </r>
       <r>   -5.2297    1.0000 </r>
       <r>   -5.2170    1.0000 </r>
       <r>   -5.2135    1.0000 </r>
       <r>   -5.2089    1.0000 </r>
       <r>   -5.2071    1.0000 </r>
       <r>   -5.1990    1.0000 </r>
       <r>   -5.1853    1.0000 </r>
       <r>   -5.1823    1.0000 </r>
       <r>   -5.1769    1.0000 </r>
       <r>   -5.1746    1.0000 </r>
       <r>   -5.1664    1.0000 </r>
       <r>   -5.1626    1.0000 </r>
       <r>   -5.1544    1.0000 </r>
       <r>   -5.1445    1.0000 </r>
       <r>   -5.1361    1.0000 </r>
       <r>   -5.1294    1.0000 </r>
       <r>   -5.1224    1.0000 </r>
       <r>   -5.1152    1.0000 </r>
       <r>   -5.1122    1.0000 </r>
       <r>   -5.1059    1.0000 </r>
       <r>   -5.0803    1.0000 </r>
       <r>   -5.0746    1.0000 </r>
       <r>   -5.0608    1.0000 </r>
       <r>   -5.0601    1.0000 </r>
       <r>   -5.0566    1.0000 </r>
       <r>   -5.0549    1.0000 </r>
       <r>   -5.0501    1.0000 </r>
       <r>   -5.0424    1.0000 </r>
       <r>   -5.0384    1.0000 </r>
       <r>   -5.0347    1.0000 </r>
       <r>   -5.0320    1.0000 </r>
       <r>   -5.0244    1.0000 </r>
       <r>   -5.0191    1.0000 </r>
       <r>   -5.0168    1.0000 </r>
       <r>   -5.0134    1.0000 </r>
       <r>   -5.0081    1.0000 </r>
       <r>   -5.0029    1.0000 </r>
       <r>   -4.9995    1.0000 </r>
       <r>   -4.9942    1.0000 </r>
       <r>   -4.9897    1.0000 </r>
       <r>   -4.9858    1.0000 </r>
       <r>   -4.9784    1.0000 </r>
       <r>   -4.9750    1.0000 </r>
       <r>   -4.9700    1.0000 </r>
       <r>   -4.9669    1.0000 </r>
       <r>   -4.9619    1.0000 </r>
       <r>   -4.9590    1.0000 </r>
       <r>   -4.9548    1.0000 </r>
       <r>   -4.9473    1.0000 </r>
       <r>   -4.9442    1.0000 </r>
       <r>   -4.9436    1.0000 </r>
       <r>   -4.9260    1.0000 </r>
       <r>   -4.9208    1.0000 </r>
       <r>   -4.9185    1.0000 </r>
       <r>   -4.9082    1.0000 </r>
       <r>   -4.9063    1.0000 </r>
       <r>   -4.9044    1.0000 </r>
       <r>   -4.8991    1.0000 </r>
       <r>   -4.8802    1.0000 </r>
       <r>   -4.8758    1.0000 </r>
       <r>   -4.8512    1.0000 </r>
       <r>   -4.8482    1.0000 </r>
       <r>   -4.8457    1.0000 </r>
       <r>   -4.8451    1.0000 </r>
       <r>   -4.8395    1.0000 </r>
       <r>   -4.8361    1.0000 </r>
       <r>   -4.8342    1.0000 </r>
       <r>   -4.8228    0.9999 </r>
       <r>   -4.8087    0.9999 </r>
       <r>   -4.8004    0.9999 </r>
       <r>   -4.7982    0.9999 </r>
       <r>   -4.7962    0.9999 </r>
       <r>   -4.7885    0.9999 </r>
       <r>   -4.7861    0.9999 </r>
       <r>   -4.7695    0.9998 </r>
       <r>   -4.7682    0.9998 </r>
       <r>   -4.7611    0.9997 </r>
       <r>   -4.7511    0.9997 </r>
       <r>   -4.7382    0.9996 </r>
       <r>   -4.7289    0.9995 </r>
       <r>   -4.7218    0.9994 </r>
       <r>   -4.7194    0.9994 </r>
       <r>   -4.7124    0.9993 </r>
       <r>   -4.6965    0.9990 </r>
       <r>   -4.6909    0.9989 </r>
       <r>   -4.6896    0.9989 </r>
       <r>   -4.6862    0.9988 </r>
       <r>   -4.6787    0.9986 </r>
       <r>   -4.6782    0.9986 </r>
       <r>   -4.6723    0.9985 </r>
       <r>   -4.6685    0.9984 </r>
       <r>   -4.6621    0.9982 </r>
       <r>   -4.6586    0.9981 </r>
       <r>   -4.6570    0.9980 </r>
       <r>   -4.6558    0.9980 </r>
       <r>   -4.6510    0.9978 </r>
       <r>   -4.6501    0.9978 </r>
       <r>   -4.6500    0.9978 </r>
       <r>   -4.6476    0.9977 </r>
       <r>   -4.6444    0.9976 </r>
       <r>   -4.6391    0.9974 </r>
       <r>   -4.6280    0.9970 </r>
       <r>   -4.6238    0.9969 </r>
       <r>   -4.6122    0.9964 </r>
       <r>   -4.6028    0.9961 </r>
       <r>   -4.6005    0.9960 </r>
       <r>   -4.6002    0.9960 </r>
       <r>   -4.5994    0.9960 </r>
       <r>   -4.5934    0.9958 </r>
       <r>   -4.5835    0.9955 </r>
       <r>   -4.5810    0.9954 </r>
       <r>   -4.5790    0.9954 </r>
       <r>   -4.5752    0.9953 </r>
       <r>   -4.5734    0.9952 </r>
       <r>   -4.5691    0.9952 </r>
       <r>   -4.5605    0.9951 </r>
       <r>   -4.5567    0.9951 </r>
       <r>   -4.5554    0.9951 </r>
       <r>   -4.5534    0.9951 </r>
       <r>   -4.5529    0.9951 </r>
       <r>   -4.5511    0.9951 </r>
       <r>   -4.5257    0.9961 </r>
       <r>   -4.5179    0.9967 </r>
       <r>   -4.5138    0.9971 </r>
       <r>   -4.5103    0.9975 </r>
       <r>   -4.5099    0.9975 </r>
       <r>   -4.5041    0.9983 </r>
       <r>   -4.4983    0.9992 </r>
       <r>   -4.4921    1.0003 </r>
       <r>   -4.4854    1.0017 </r>
       <r>   -4.4774    1.0036 </r>
       <r>   -4.4754    1.0041 </r>
       <r>   -4.4737    1.0046 </r>
       <r>   -4.4682    1.0061 </r>
       <r>   -4.4671    1.0064 </r>
       <r>   -4.4600    1.0087 </r>
       <r>   -4.4556    1.0102 </r>
       <r>   -4.4530    1.0112 </r>
       <r>   -4.4513    1.0118 </r>
       <r>   -4.4469    1.0135 </r>
       <r>   -4.4435    1.0148 </r>
       <r>   -4.4386    1.0168 </r>
       <r>   -4.4302    1.0205 </r>
       <r>   -4.4250    1.0229 </r>
       <r>   -4.4148    1.0277 </r>
       <r>   -4.4131    1.0285 </r>
       <r>   -4.4110    1.0295 </r>
       <r>   -4.4105    1.0298 </r>
       <r>   -4.4053    1.0322 </r>
       <r>   -4.3960    1.0367 </r>
       <r>   -4.3813    1.0431 </r>
       <r>   -4.3749    1.0456 </r>
       <r>   -4.3722    1.0465 </r>
       <r>   -4.3662    1.0484 </r>
       <r>   -4.3637    1.0491 </r>
       <r>   -4.3518    1.0513 </r>
       <r>   -4.3500    1.0514 </r>
       <r>   -4.3419    1.0515 </r>
       <r>   -4.3415    1.0515 </r>
       <r>   -4.3379    1.0511 </r>
       <r>   -4.3372    1.0510 </r>
       <r>   -4.3364    1.0509 </r>
       <r>   -4.3340    1.0504 </r>
       <r>   -4.3319    1.0499 </r>
       <r>   -4.3309    1.0497 </r>
       <r>   -4.3285    1.0489 </r>
       <r>   -4.3254    1.0478 </r>
       <r>   -4.3236    1.0470 </r>
       <r>   -4.3227    1.0466 </r>
       <r>   -4.3206    1.0455 </r>
       <r>   -4.3159    1.0428 </r>
       <r>   -4.3085    1.0372 </r>
       <r>   -4.3040    1.0330 </r>
       <r>   -4.2934    1.0206 </r>
       <r>   -4.2921    1.0189 </r>
       <r>   -4.2896    1.0154 </r>
       <r>   -4.2879    1.0128 </r>
       <r>   -4.2868    1.0112 </r>
       <r>   -4.2858    1.0096 </r>
       <r>   -4.2817    1.0026 </r>
       <r>   -4.2751    0.9904 </r>
       <r>   -4.2689    0.9773 </r>
       <r>   -4.2672    0.9734 </r>
       <r>   -4.2600    0.9558 </r>
       <r>   -4.2587    0.9524 </r>
       <r>   -4.2572    0.9486 </r>
       <r>   -4.2543    0.9407 </r>
       <r>   -4.2533    0.9377 </r>
       <r>   -4.2515    0.9328 </r>
       <r>   -4.2510    0.9311 </r>
       <r>   -4.2476    0.9213 </r>
       <r>   -4.2456    0.9149 </r>
       <r>   -4.2444    0.9111 </r>
       <r>   -4.2432    0.9075 </r>
       <r>   -4.2419    0.9033 </r>
       <r>   -4.2385    0.8916 </r>
       <r>   -4.2372    0.8874 </r>
       <r>   -4.2307    0.8642 </r>
       <r>   -4.2252    0.8436 </r>
       <r>   -4.2232    0.8355 </r>
       <r>   -4.2223    0.8319 </r>
       <r>   -4.2196    0.8210 </r>
       <r>   -4.2113    0.7864 </r>
       <r>   -4.2091    0.7764 </r>
       <r>   -4.2029    0.7487 </r>
       <r>   -4.1885    0.6802 </r>
       <r>   -4.1841    0.6585 </r>
       <r>   -4.1811    0.6432 </r>
       <r>   -4.1771    0.6232 </r>
       <r>   -4.1761    0.6176 </r>
       <r>   -4.1757    0.6157 </r>
       <r>   -4.1688    0.5800 </r>
       <r>   -4.1604    0.5360 </r>
       <r>   -4.1355    0.4046 </r>
       <r>   -4.1337    0.3957 </r>
       <r>   -4.1313    0.3833 </r>
       <r>   -4.1304    0.3786 </r>
       <r>   -4.1190    0.3213 </r>
       <r>   -4.1158    0.3052 </r>
       <r>   -4.0860    0.1722 </r>
       <r>   -3.9677   -0.0513 </r>
       <r>   -3.9023   -0.0324 </r>
       <r>   -3.8190   -0.0011 </r>
       <r>   -3.8173   -0.0007 </r>
       <r>   -3.7095    0.0041 </r>
       <r>   -3.4993    0.0001 </r>
       <r>   -3.4973    0.0001 </r>
       <r>   -3.4278    0.0000 </r>
       <r>   -3.0782    0.0000 </r>
       <r>   -3.0629    0.0000 </r>
       <r>   -3.0462    0.0000 </r>
       <r>   -3.0394    0.0000 </r>
       <r>   -3.0154    0.0000 </r>
       <r>   -2.9701    0.0000 </r>
       <r>   -2.9443    0.0000 </r>
       <r>   -2.8218    0.0000 </r>
       <r>   -2.5425    0.0000 </r>
       <r>   -2.5339    0.0000 </r>
       <r>   -2.4215    0.0000 </r>
       <r>   -2.3502    0.0000 </r>
       <r>   -2.2018    0.0000 </r>
       <r>   -2.1181    0.0000 </r>
       <r>   -2.0937    0.0000 </r>
       <r>   -2.0593    0.0000 </r>
       <r>   -1.9888    0.0000 </r>
       <r>   -1.9270    0.0000 </r>
       <r>   -1.8728    0.0000 </r>
       <r>   -1.8531    0.0000 </r>
       <r>   -1.7747    0.0000 </r>
       <r>   -1.7308    0.0000 </r>
       <r>   -1.6500    0.0000 </r>
       <r>   -1.6112    0.0000 </r>
       <r>   -1.5573    0.0000 </r>
       <r>   -1.4465    0.0000 </r>
       <r>   -1.3141    0.0000 </r>
       <r>   -1.2553    0.0000 </r>
       <r>   -1.2234    0.0000 </r>
       <r>   -1.1765    0.0000 </r>
       <r>   -1.1080    0.0000 </r>
       <r>   -0.9871    0.0000 </r>
       <r>   -0.9774    0.0000 </r>
       <r>   -0.9505    0.0000 </r>
       <r>   -0.9414    0.0000 </r>
       <r>   -0.9213    0.0000 </r>
       <r>   -0.8758    0.0000 </r>
       <r>   -0.8357    0.0000 </r>
       <r>   -0.7801    0.0000 </r>
      </set>
     </set>
    </set>
   </array>
  </eigenvalues>
  <separator name="orbital magnetization" >
   <v name="MAGDIPOLOUT">      0.00000000      0.00000000      0.00000000</v>
  </separator>
  <dos>
   <i name="efermi">     -4.15361373 </i>
   <total>
    <array>
     <dimension dim="1">gridpoints</dimension>
     <dimension dim="2">spin</dimension>
     <field>energy</field>
     <field>total</field>
     <field>integrated</field>
     <set>
      <set comment="spin 1">
       <r>   -30.5037     0.0000     0.0000 </r>
       <r>   -30.3979     0.0000     0.0000 </r>
       <r>   -30.2922     0.0000     0.0000 </r>
       <r>   -30.1864     0.0000     0.0000 </r>
       <r>   -30.0807     0.0000     0.0000 </r>
       <r>   -29.9749     0.0000     0.0000 </r>
       <r>   -29.8692     0.0000     0.0000 </r>
       <r>   -29.7634     0.0000     0.0000 </r>
       <r>   -29.6577     0.0000     0.0000 </r>
       <r>   -29.5520     0.0000     0.0000 </r>
       <r>   -29.4462     0.0000     0.0000 </r>
       <r>   -29.3405     0.0000     0.0000 </r>
       <r>   -29.2347     0.0001     0.0000 </r>
       <r>   -29.1290     0.0029     0.0003 </r>
       <r>   -29.0232     0.0256     0.0030 </r>
       <r>   -28.9175     0.0634     0.0097 </r>
       <r>   -28.8117    -0.2461    -0.0163 </r>
       <r>   -28.7060    -0.8055    -0.1015 </r>
       <r>   -28.6002     2.3038     0.1422 </r>
       <r>   -28.4945     9.0270     1.0967 </r>
       <r>   -28.3888     8.0958     1.9528 </r>
       <r>   -28.2830     1.3130     2.0916 </r>
       <r>   -28.1773    -0.8113     2.0059 </r>
       <r>   -28.0715    -0.1398     1.9911 </r>
       <r>   -27.9658     0.0638     1.9978 </r>
       <r>   -27.8600     0.0188     1.9998 </r>
       <r>   -27.7543     0.0018     2.0000 </r>
       <r>   -27.6485     0.0001     2.0000 </r>
       <r>   -27.5428     0.0000     2.0000 </r>
       <r>   -27.4371     0.0000     2.0000 </r>
       <r>   -27.3313     0.0000     2.0000 </r>
       <r>   -27.2256     0.0000     2.0000 </r>
       <r>   -27.1198     0.0000     2.0000 </r>
       <r>   -27.0141     0.0000     2.0000 </r>
       <r>   -26.9083     0.0000     2.0000 </r>
       <r>   -26.8026     0.0000     2.0000 </r>
       <r>   -26.6968     0.0000     2.0000 </r>
       <r>   -26.5911     0.0000     2.0000 </r>
       <r>   -26.4853     0.0000     2.0000 </r>
       <r>   -26.3796     0.0000     2.0000 </r>
       <r>   -26.2739     0.0000     2.0000 </r>
       <r>   -26.1681     0.0000     2.0000 </r>
       <r>   -26.0624     0.0000     2.0000 </r>
       <r>   -25.9566     0.0000     2.0000 </r>
       <r>   -25.8509     0.0000     2.0000 </r>
       <r>   -25.7451     0.0000     2.0000 </r>
       <r>   -25.6394     0.0000     2.0000 </r>
       <r>   -25.5336     0.0000     2.0000 </r>
       <r>   -25.4279     0.0000     2.0000 </r>
       <r>   -25.3222     0.0000     2.0000 </r>
       <r>   -25.2164     0.0000     2.0000 </r>
       <r>   -25.1107     0.0000     2.0000 </r>
       <r>   -25.0049     0.0000     2.0000 </r>
       <r>   -24.8992     0.0000     2.0000 </r>
       <r>   -24.7934     0.0000     2.0000 </r>
       <r>   -24.6877     0.0000     2.0000 </r>
       <r>   -24.5819     0.0000     2.0000 </r>
       <r>   -24.4762     0.0000     2.0000 </r>
       <r>   -24.3704     0.0000     2.0000 </r>
       <r>   -24.2647     0.0000     2.0000 </r>
       <r>   -24.1590     0.0000     2.0000 </r>
       <r>   -24.0532     0.0000     2.0000 </r>
       <r>   -23.9475     0.0000     2.0000 </r>
       <r>   -23.8417     0.0000     2.0000 </r>
       <r>   -23.7360     0.0000     2.0000 </r>
       <r>   -23.6302     0.0000     2.0000 </r>
       <r>   -23.5245     0.0000     2.0000 </r>
       <r>   -23.4187     0.0000     2.0000 </r>
       <r>   -23.3130     0.0000     2.0000 </r>
       <r>   -23.2072     0.0000     2.0000 </r>
       <r>   -23.1015     0.0000     2.0000 </r>
       <r>   -22.9958     0.0000     2.0000 </r>
       <r>   -22.8900     0.0000     2.0000 </r>
       <r>   -22.7843     0.0000     2.0000 </r>
       <r>   -22.6785     0.0000     2.0000 </r>
       <r>   -22.5728     0.0000     2.0000 </r>
       <r>   -22.4670     0.0000     2.0000 </r>
       <r>   -22.3613     0.0000     2.0000 </r>
       <r>   -22.2555     0.0000     2.0000 </r>
       <r>   -22.1498     0.0000     2.0000 </r>
       <r>   -22.0441     0.0000     2.0000 </r>
       <r>   -21.9383     0.0000     2.0000 </r>
       <r>   -21.8326     0.0000     2.0000 </r>
       <r>   -21.7268     0.0000     2.0000 </r>
       <r>   -21.6211     0.0000     2.0000 </r>
       <r>   -21.5153     0.0000     2.0000 </r>
       <r>   -21.4096     0.0000     2.0000 </r>
       <r>   -21.3038     0.0000     2.0000 </r>
       <r>   -21.1981     0.0000     2.0000 </r>
       <r>   -21.0923     0.0000     2.0000 </r>
       <r>   -20.9866     0.0000     2.0000 </r>
       <r>   -20.8809     0.0000     2.0000 </r>
       <r>   -20.7751     0.0000     2.0000 </r>
       <r>   -20.6694     0.0000     2.0000 </r>
       <r>   -20.5636     0.0000     2.0000 </r>
       <r>   -20.4579     0.0000     2.0000 </r>
       <r>   -20.3521     0.0000     2.0000 </r>
       <r>   -20.2464     0.0000     2.0000 </r>
       <r>   -20.1406     0.0000     2.0000 </r>
       <r>   -20.0349     0.0000     2.0000 </r>
       <r>   -19.9291     0.0000     2.0000 </r>
       <r>   -19.8234     0.0000     2.0000 </r>
       <r>   -19.7177     0.0000     2.0000 </r>
       <r>   -19.6119     0.0000     2.0000 </r>
       <r>   -19.5062     0.0000     2.0000 </r>
       <r>   -19.4004     0.0000     2.0000 </r>
       <r>   -19.2947     0.0000     2.0000 </r>
       <r>   -19.1889     0.0000     2.0000 </r>
       <r>   -19.0832     0.0000     2.0000 </r>
       <r>   -18.9774     0.0000     2.0000 </r>
       <r>   -18.8717     0.0000     2.0000 </r>
       <r>   -18.7660     0.0000     2.0000 </r>
       <r>   -18.6602     0.0000     2.0000 </r>
       <r>   -18.5545     0.0000     2.0000 </r>
       <r>   -18.4487     0.0000     2.0000 </r>
       <r>   -18.3430     0.0000     2.0000 </r>
       <r>   -18.2372     0.0000     2.0000 </r>
       <r>   -18.1315     0.0000     2.0000 </r>
       <r>   -18.0257     0.0000     2.0000 </r>
       <r>   -17.9200     0.0000     2.0000 </r>
       <r>   -17.8142     0.0000     2.0000 </r>
       <r>   -17.7085     0.0000     2.0000 </r>
       <r>   -17.6028     0.0000     2.0000 </r>
       <r>   -17.4970     0.0000     2.0000 </r>
       <r>   -17.3913     0.0000     2.0000 </r>
       <r>   -17.2855     0.0000     2.0000 </r>
       <r>   -17.1798     0.0000     2.0000 </r>
       <r>   -17.0740     0.0000     2.0000 </r>
       <r>   -16.9683     0.0000     2.0000 </r>
       <r>   -16.8625     0.0000     2.0000 </r>
       <r>   -16.7568     0.0000     2.0000 </r>
       <r>   -16.6510     0.0000     2.0000 </r>
       <r>   -16.5453     0.0000     2.0000 </r>
       <r>   -16.4396     0.0000     2.0000 </r>
       <r>   -16.3338     0.0000     2.0000 </r>
       <r>   -16.2281     0.0000     2.0000 </r>
       <r>   -16.1223     0.0000     2.0000 </r>
       <r>   -16.0166     0.0000     2.0000 </r>
       <r>   -15.9108     0.0000     2.0000 </r>
       <r>   -15.8051     0.0000     2.0000 </r>
       <r>   -15.6993     0.0000     2.0000 </r>
       <r>   -15.5936     0.0000     2.0000 </r>
       <r>   -15.4879     0.0000     2.0000 </r>
       <r>   -15.3821     0.0000     2.0000 </r>
       <r>   -15.2764     0.0000     2.0000 </r>
       <r>   -15.1706     0.0000     2.0000 </r>
       <r>   -15.0649     0.0000     2.0000 </r>
       <r>   -14.9591     0.0000     2.0000 </r>
       <r>   -14.8534     0.0000     2.0000 </r>
       <r>   -14.7476     0.0000     2.0000 </r>
       <r>   -14.6419     0.0000     2.0000 </r>
       <r>   -14.5361     0.0000     2.0000 </r>
       <r>   -14.4304     0.0000     2.0000 </r>
       <r>   -14.3247     0.0000     2.0000 </r>
       <r>   -14.2189     0.0000     2.0000 </r>
       <r>   -14.1132     0.0000     2.0000 </r>
       <r>   -14.0074     0.0002     2.0000 </r>
       <r>   -13.9017     0.0035     2.0004 </r>
       <r>   -13.7959     0.0286     2.0034 </r>
       <r>   -13.6902     0.0610     2.0099 </r>
       <r>   -13.5844    -0.2930     1.9789 </r>
       <r>   -13.4787    -0.7746     1.8970 </r>
       <r>   -13.3730     2.7309     2.1857 </r>
       <r>   -13.2672     9.3151     3.1708 </r>
       <r>   -13.1615     7.6770     3.9826 </r>
       <r>   -13.0557     0.9804     4.0862 </r>
       <r>   -12.9500    -0.7906     4.0026 </r>
       <r>   -12.8442    -0.1052     3.9915 </r>
       <r>   -12.7385     0.0622     3.9981 </r>
       <r>   -12.6327     0.0165     3.9998 </r>
       <r>   -12.5270     0.0015     4.0000 </r>
       <r>   -12.4212     0.0001     4.0000 </r>
       <r>   -12.3155     0.0000     4.0000 </r>
       <r>   -12.2098     0.0000     4.0000 </r>
       <r>   -12.1040     0.0000     4.0000 </r>
       <r>   -11.9983     0.0000     4.0000 </r>
       <r>   -11.8925     0.0002     4.0000 </r>
       <r>   -11.7868     0.0040     4.0004 </r>
       <r>   -11.6810     0.0313     4.0038 </r>
       <r>   -11.5753     0.0604     4.0101 </r>
       <r>   -11.4695    -0.3099     3.9774 </r>
       <r>   -11.3638    -0.6712     3.9064 </r>
       <r>   -11.2580     2.8823     4.2112 </r>
       <r>   -11.1523     8.6990     5.1311 </r>
       <r>   -11.0466     9.3099     6.1155 </r>
       <r>   -10.9408     9.5099     7.1212 </r>
       <r>   -10.8351     7.6286     7.9279 </r>
       <r>   -10.7293     1.5064     8.0872 </r>
       <r>   -10.6236    -0.7579     8.0070 </r>
       <r>   -10.5178    -0.1410     7.9921 </r>
       <r>   -10.4121     0.1232     8.0051 </r>
       <r>   -10.3063    -0.0294     8.0020 </r>
       <r>   -10.2006    -0.7245     7.9254 </r>
       <r>   -10.0949     0.4347     7.9714 </r>
       <r>    -9.9891     6.8218     8.6928 </r>
       <r>    -9.8834     9.7321     9.7219 </r>
       <r>    -9.7776     3.5901    10.1015 </r>
       <r>    -9.6719    -0.6631    10.0314 </r>
       <r>    -9.5661    -0.3885     9.9903 </r>
       <r>    -9.4604     0.0518     9.9958 </r>
       <r>    -9.3546     0.0347     9.9995 </r>
       <r>    -9.2489     0.0047    10.0000 </r>
       <r>    -9.1431     0.0003    10.0000 </r>
       <r>    -9.0374     0.0000    10.0000 </r>
       <r>    -8.9317     0.0000    10.0000 </r>
       <r>    -8.8259     0.0000    10.0000 </r>
       <r>    -8.7202     0.0000    10.0000 </r>
       <r>    -8.6144     0.0000    10.0000 </r>
       <r>    -8.5087     0.0000    10.0000 </r>
       <r>    -8.4029     0.0000    10.0000 </r>
       <r>    -8.2972     0.0000    10.0000 </r>
       <r>    -8.1914     0.0000    10.0000 </r>
       <r>    -8.0857     0.0000    10.0000 </r>
       <r>    -7.9799     0.0000    10.0000 </r>
       <r>    -7.8742     0.0000    10.0000 </r>
       <r>    -7.7685     0.0000    10.0000 </r>
       <r>    -7.6627     0.0000    10.0000 </r>
       <r>    -7.5570     0.0000    10.0000 </r>
       <r>    -7.4512     0.0000    10.0000 </r>
       <r>    -7.3455     0.0005    10.0001 </r>
       <r>    -7.2397     0.0073    10.0008 </r>
       <r>    -7.1340     0.0442    10.0055 </r>
       <r>    -7.0282     0.0254    10.0082 </r>
       <r>    -6.9225    -0.5336     9.9518 </r>
       <r>    -6.8168    -0.3581     9.9139 </r>
       <r>    -6.7110     4.9318    10.4354 </r>
       <r>    -6.6053    10.1703    11.5109 </r>
       <r>    -6.4995     5.4819    12.0905 </r>
       <r>    -6.3938    -2.0155    11.8774 </r>
       <r>    -6.2880    -0.2260    11.8535 </r>
       <r>    -6.1823    17.7244    13.7278 </r>
       <r>    -6.0765    27.7909    16.6665 </r>
       <r>    -5.9708    15.9500    18.3532 </r>
       <r>    -5.8650    23.2281    20.8094 </r>
       <r>    -5.7593    53.1705    26.4320 </r>
       <r>    -5.6536   106.3560    37.6786 </r>
       <r>    -5.5478   213.4144    60.2461 </r>
       <r>    -5.4421   297.9705    91.7550 </r>
       <r>    -5.3363   267.6407   120.0567 </r>
       <r>    -5.2306   215.5732   142.8526 </r>
       <r>    -5.1248   251.4497   169.4421 </r>
       <r>    -5.0191   338.3063   205.2164 </r>
       <r>    -4.9133   360.6218   243.3504 </r>
       <r>    -4.8076   309.2663   276.0538 </r>
       <r>    -4.7018   321.5024   310.0511 </r>
       <r>    -4.5961   394.8351   351.8030 </r>
       <r>    -4.4904   413.2179   395.4988 </r>
       <r>    -4.3846   444.5998   442.5131 </r>
       <r>    -4.2789   547.0999   500.3662 </r>
       <r>    -4.1731   498.6351   553.0944 </r>
       <r>    -4.0674   232.5957   577.6903 </r>
       <r>    -3.9616    34.2513   581.3122 </r>
       <r>    -3.8559    12.2522   582.6078 </r>
       <r>    -3.7501    28.7707   585.6502 </r>
       <r>    -3.6444    18.5448   587.6112 </r>
       <r>    -3.5387    17.0232   589.4113 </r>
       <r>    -3.4329    27.1928   592.2868 </r>
       <r>    -3.3272    14.9470   593.8674 </r>
       <r>    -3.2214    -2.0620   593.6494 </r>
       <r>    -3.1157    18.7502   595.6321 </r>
       <r>    -3.0099    58.0664   601.7723 </r>
       <r>    -2.9042    54.0965   607.4928 </r>
       <r>    -2.7984    20.1970   609.6285 </r>
       <r>    -2.6927     2.6948   609.9135 </r>
       <r>    -2.5869     9.3561   610.9029 </r>
       <r>    -2.4812    24.5761   613.5017 </r>
       <r>    -2.3755    25.3799   616.1854 </r>
       <r>    -2.2697    17.0142   617.9846 </r>
       <r>    -2.1640    21.8396   620.2941 </r>
       <r>    -2.0582    36.2218   624.1243 </r>
       <r>    -1.9525    40.3286   628.3889 </r>
       <r>    -1.8467    38.8149   632.4934 </r>
       <r>    -1.7410    37.0965   636.4162 </r>
       <r>    -1.6352    35.3223   640.1513 </r>
       <r>    -1.5295    29.5775   643.2790 </r>
       <r>    -1.4238    18.8751   645.2749 </r>
       <r>    -1.3180    20.8752   647.4824 </r>
       <r>    -1.2123    32.7715   650.9478 </r>
       <r>    -1.1065    32.7847   654.4147 </r>
       <r>    -1.0008    41.1563   658.7667 </r>
       <r>    -0.8950    61.5487   665.2752 </r>
       <r>    -0.7893    49.6873   670.5294 </r>
       <r>    -0.6835    16.2228   672.2449 </r>
       <r>    -0.5778    -0.9494   672.1445 </r>
       <r>    -0.4720    -1.6234   671.9728 </r>
       <r>    -0.3663     0.0309   671.9761 </r>
       <r>    -0.2606     0.1808   671.9952 </r>
       <r>    -0.1548     0.0412   671.9996 </r>
       <r>    -0.0491     0.0039   672.0000 </r>
       <r>     0.0567     0.0002   672.0000 </r>
       <r>     0.1624     0.0000   672.0000 </r>
       <r>     0.2682     0.0000   672.0000 </r>
       <r>     0.3739     0.0000   672.0000 </r>
       <r>     0.4797     0.0000   672.0000 </r>
       <r>     0.5854     0.0000   672.0000 </r>
       <r>     0.6912     0.0000   672.0000 </r>
       <r>     0.7969     0.0000   672.0000 </r>
       <r>     0.9026     0.0000   672.0000 </r>
       <r>     1.0084     0.0000   672.0000 </r>
       <r>     1.1141     0.0000   672.0000 </r>
       <r>     1.2199     0.0000   672.0000 </r>
      </set>
     </set>
    </array>
   </total>
  </dos>
 </calculation>
 <structure name="finalpos" >
  <crystal>
   <varray name="basis" >
    <v>      30.00000000       0.00000000       0.00000000 </v>
    <v>       0.00000000      30.00000000       0.00000000 </v>
    <v>       0.00000000       0.00000000      30.00000000 </v>
   </varray>
   <i name="volume">  27000.00000000 </i>
   <varray name="rec_basis" >
    <v>       0.03333333       0.00000000       0.00000000 </v>
    <v>       0.00000000       0.03333333       0.00000000 </v>
    <v>       0.00000000       0.00000000       0.03333333 </v>
   </varray>
  </crystal>
  <varray name="positions" >
   <v>       0.44576020       0.32826710       0.41691983 </v>
   <v>       0.67173288       0.55423978       0.41691983 </v>
   <v>       0.55423980       0.32826710       0.41691983 </v>
   <v>       0.32826712       0.55423978       0.41691983 </v>
   <v>       0.50000000       0.38250690       0.34021317 </v>
   <v>       0.50000000       0.38250690       0.65978680 </v>
   <v>       0.50000000       0.27609440       0.50000000 </v>
   <v>       0.27609443       0.49999998       0.50000000 </v>
   <v>       0.72390557       0.49999998       0.50000000 </v>
   <v>       0.50000000       0.72390555       0.50000000 </v>
   <v>       0.61195280       0.38804720       0.34167483 </v>
   <v>       0.61195280       0.38804720       0.65832513 </v>
   <v>       0.38804722       0.61195278       0.34167483 </v>
   <v>       0.38804722       0.61195278       0.65832513 </v>
   <v>       0.38804720       0.38804720       0.34167483 </v>
   <v>       0.38804720       0.38804720       0.65832513 </v>
   <v>       0.61195278       0.61195278       0.34167483 </v>
   <v>       0.61195278       0.61195278       0.65832513 </v>
   <v>       0.44576020       0.32826710       0.58308023 </v>
   <v>       0.67173288       0.55423978       0.58308023 </v>
   <v>       0.55791699       0.44208301       0.41809300 </v>
   <v>       0.32826705       0.44576024       0.41691983 </v>
   <v>       0.55423973       0.67173293       0.41691983 </v>
   <v>       0.55423980       0.32826710       0.58308023 </v>
   <v>       0.32826712       0.55423978       0.58308023 </v>
   <v>       0.67173295       0.44576024       0.41691983 </v>
   <v>       0.44576027       0.67173293       0.41691983 </v>
   <v>       0.44208301       0.44208301       0.41809300 </v>
   <v>       0.50000000       0.38416601       0.50000000 </v>
   <v>       0.61749315       0.50000005       0.34021317 </v>
   <v>       0.61749315       0.50000005       0.65978680 </v>
   <v>       0.38250685       0.50000005       0.34021317 </v>
   <v>       0.38250685       0.50000005       0.65978680 </v>
   <v>       0.38317830       0.38317830       0.50000000 </v>
   <v>       0.61682172       0.61682172       0.50000000 </v>
   <v>       0.61682170       0.38317830       0.50000000 </v>
   <v>       0.38317828       0.61682172       0.50000000 </v>
   <v>       0.50000000       0.50000000       0.33478917 </v>
   <v>       0.50000000       0.50000000       0.66521087 </v>
   <v>       0.32826705       0.44576024       0.58308023 </v>
   <v>       0.55423973       0.67173293       0.58308023 </v>
   <v>       0.55791699       0.44208301       0.58190703 </v>
   <v>       0.44208298       0.55791702       0.41809300 </v>
   <v>       0.44208301       0.44208301       0.58190703 </v>
   <v>       0.67173295       0.44576024       0.58308023 </v>
   <v>       0.44576027       0.67173293       0.58308023 </v>
   <v>       0.55791702       0.55791702       0.41809300 </v>
   <v>       0.38416599       0.50000002       0.50000000 </v>
   <v>       0.61583401       0.50000002       0.50000000 </v>
   <v>       0.50000000       0.61749319       0.34021317 </v>
   <v>       0.50000000       0.61749319       0.65978680 </v>
   <v>       0.50000000       0.50000000       0.50000000 </v>
   <v>       0.44208298       0.55791702       0.58190703 </v>
   <v>       0.55791702       0.55791702       0.58190703 </v>
   <v>       0.50000000       0.61583404       0.50000000 </v>
   <v>       0.74920683       0.44915153       0.53879297 </v>
   <v>       0.78562657       0.44172043       0.54446227 </v>
  </varray>
  <varray name="selective"  type="logical" >
   <v type="logical" >  F  F  F </v>
   <v type="logical" >  F  F  F </v>
   <v type="logical" >  F  F  F </v>
   <v type="logical" >  F  F  F </v>
   <v type="logical" >  F  F  F </v>
   <v type="logical" >  F  F  F </v>
   <v type="logical" >  F  F  F </v>
   <v type="logical" >  F  F  F </v>
   <v type="logical" >  F  F  F </v>
   <v type="logical" >  F  F  F </v>
   <v type="logical" >  F  F  F </v>
   <v type="logical" >  F  F  F </v>
   <v type="logical" >  F  F  F </v>
   <v type="logical" >  F  F  F </v>
   <v type="logical" >  F  F  F </v>
   <v type="logical" >  F  F  F </v>
   <v type="logical" >  F  F  F </v>
   <v type="logical" >  F  F  F </v>
   <v type="logical" >  F  F  F </v>
   <v type="logical" >  F  F  F </v>
   <v type="logical" >  F  F  F </v>
   <v type="logical" >  F  F  F </v>
   <v type="logical" >  F  F  F </v>
   <v type="logical" >  F  F  F </v>
   <v type="logical" >  F  F  F </v>
   <v type="logical" >  F  F  F </v>
   <v type="logical" >  F  F  F </v>
   <v type="logical" >  F  F  F </v>
   <v type="logical" >  F  F  F </v>
   <v type="logical" >  F  F  F </v>
   <v type="logical" >  F  F  F </v>
   <v type="logical" >  F  F  F </v>
   <v type="logical" >  F  F  F </v>
   <v type="logical" >  F  F  F </v>
   <v type="logical" >  F  F  F </v>
   <v type="logical" >  F  F  F </v>
   <v type="logical" >  F  F  F </v>
   <v type="logical" >  F  F  F </v>
   <v type="logical" >  F  F  F </v>
   <v type="logical" >  F  F  F </v>
   <v type="logical" >  F  F  F </v>
   <v type="logical" >  F  F  F </v>
   <v type="logical" >  F  F  F </v>
   <v type="logical" >  F  F  F </v>
   <v type="logical" >  F  F  F </v>
   <v type="logical" >  F  F  F </v>
   <v type="logical" >  F  F  F </v>
   <v type="logical" >  F  F  F </v>
   <v type="logical" >  F  F  F </v>
   <v type="logical" >  F  F  F </v>
   <v type="logical" >  F  F  F </v>
   <v type="logical" >  F  F  F </v>
   <v type="logical" >  F  F  F </v>
   <v type="logical" >  F  F  F </v>
   <v type="logical" >  F  F  F </v>
   <v type="logical" >  F  F  F </v>
   <v type="logical" >  F  F  F </v>
  </varray>
  <nose>
   <v>      -3.00000000       0.00000000       0.00010000       0.00010000 </v>
  </nose>
 </structure>
</modeling>
