 vasp.5.4.4.18Apr17-6-g9f103f2a35 (build Sep 03 2018 23:53:05) complex          
  
 executed on             LinuxIFC date 2021.12.01  20:23:23
 running on    1 total cores
 distrk:  each k-point on    1 cores,    1 groups
 distr:  one band on NCORES_PER_BAND=   1 cores,    1 groups


--------------------------------------------------------------------------------------------------------


 INCAR:
 POTCAR:    PAW_PBE Pd 04Jan2005                  
 POTCAR:    PAW_PBE C 08Apr2002                   
 POTCAR:    PAW_PBE O 08Apr2002                   
 POTCAR:    PAW_PBE Pd 04Jan2005                  
   VRHFIN =Pd : s1 d9                                                           
   LEXCH  = PE                                                                  
   EATOM  =   809.7530 eV,   59.5152 Ry                                         
                                                                                
   TITEL  = PAW_PBE Pd 04Jan2005                                                
   LULTRA =        F    use ultrasoft PP ?                                      
   IUNSCR =        1    unscreen: 0-lin 1-nonlin 2-no                           
   RPACOR =    2.000    partial core radius                                     
   POMASS =  106.420; ZVAL   =   10.000    mass and valenz                      
   RCORE  =    2.600    outmost cutoff radius                                   
   RWIGS  =    2.710; RWIGS  =    1.434    wigner-seitz radius (au A)           
   ENMAX  =  250.925; ENMIN  =  188.194 eV                                      
   ICORE  =        3    local potential                                         
   LCOR   =        T    correct aug charges                                     
   LPAW   =        T    paw PP                                                  
   EAUG   =  416.230                                                            
   DEXC   =    0.000                                                            
   RMAX   =    2.653    core radius for proj-oper                               
   RAUG   =    1.300    factor for augmentation sphere                          
   RDEP   =    2.734    radius for radial grids                                 
   RDEPT  =    2.103    core radius for aug-charge                              
                                                                                
   Atomic configuration                                                         
   12 entries                                                                   
     n  l   j            E        occ.                                          
     1  0  0.50    -24164.6631   2.0000                                         
     2  0  0.50     -3530.9218   2.0000                                         
     2  1  1.50     -3165.6822   6.0000                                         
     3  0  0.50      -639.4577   2.0000                                         
     3  1  1.50      -519.4532   6.0000                                         
     3  2  2.50      -328.9757  10.0000                                         
     4  0  0.50       -88.7014   2.0000                                         
     4  1  1.50       -54.4540   6.0000                                         
     4  2  2.50        -6.6878   9.0000                                         
     5  0  0.50        -4.3543   1.0000                                         
     5  1  0.50        -1.3606   0.0000                                         
     4  3  2.50        -1.3606   0.0000                                         
   Description                                                                  
     l       E           TYP  RCUT    TYP  RCUT                                 
     2     -6.6878251     23  2.400                                             
     2     -8.0484077     23  2.400                                             
     0     -4.3542939     23  2.400                                             
     0      4.3406793     23  2.400                                             
     1     -4.0817478     23  2.600                                             
     1     15.8380318     23  2.600                                             
     3     -4.0817478     23  2.400                                             
  local pseudopotential read in
  partial core-charges read in
  partial kinetic energy density read in
  atomic valenz-charges read in
  non local Contribution for L=           2  read in
    real space projection operators read in
  non local Contribution for L=           2  read in
    real space projection operators read in
  non local Contribution for L=           0  read in
    real space projection operators read in
  non local Contribution for L=           0  read in
    real space projection operators read in
  non local Contribution for L=           1  read in
    real space projection operators read in
  non local Contribution for L=           1  read in
    real space projection operators read in
    PAW grid and wavefunctions read in
 
   number of l-projection  operators is LMAX  =           6
   number of lm-projection operators is LMMAX =          18
 
 POTCAR:    PAW_PBE C 08Apr2002                   
   VRHFIN =C: s2p2                                                              
   LEXCH  = PE                                                                  
   EATOM  =   147.1560 eV,   10.8157 Ry                                         
                                                                                
   TITEL  = PAW_PBE C 08Apr2002                                                 
   LULTRA =        F    use ultrasoft PP ?                                      
   IUNSCR =        1    unscreen: 0-lin 1-nonlin 2-no                           
   RPACOR =    1.200    partial core radius                                     
   POMASS =   12.011; ZVAL   =    4.000    mass and valenz                      
   RCORE  =    1.500    outmost cutoff radius                                   
   RWIGS  =    1.630; RWIGS  =    0.863    wigner-seitz radius (au A)           
   ENMAX  =  400.000; ENMIN  =  300.000 eV                                      
   ICORE  =        2    local potential                                         
   LCOR   =        T    correct aug charges                                     
   LPAW   =        T    paw PP                                                  
   EAUG   =  644.873                                                            
   DEXC   =    0.000                                                            
   RMAX   =    1.529    core radius for proj-oper                               
   RAUG   =    1.300    factor for augmentation sphere                          
   RDEP   =    1.501    radius for radial grids                                 
   RDEPT  =    1.300    core radius for aug-charge                              
                                                                                
   Atomic configuration                                                         
    4 entries                                                                   
     n  l   j            E        occ.                                          
     1  0  0.50      -273.3789   2.0000                                         
     2  0  0.50       -13.7508   2.0000                                         
     2  1  0.50        -5.2854   2.0000                                         
     3  2  1.50        -5.4423   0.0000                                         
   Description                                                                  
     l       E           TYP  RCUT    TYP  RCUT                                 
     0    -13.7508458     23  1.200                                             
     0     -8.2022199     23  1.200                                             
     1     -5.2854383     23  1.500                                             
     1     34.0145650     23  1.500                                             
     2     -5.4423304      7  1.500                                             
  local pseudopotential read in
  partial core-charges read in
  partial kinetic energy density read in
  atomic valenz-charges read in
  non local Contribution for L=           0  read in
    real space projection operators read in
  non local Contribution for L=           0  read in
    real space projection operators read in
  non local Contribution for L=           1  read in
    real space projection operators read in
  non local Contribution for L=           1  read in
    real space projection operators read in
    PAW grid and wavefunctions read in
 
   number of l-projection  operators is LMAX  =           4
   number of lm-projection operators is LMMAX =           8
 
 POTCAR:    PAW_PBE O 08Apr2002                   
   VRHFIN =O: s2p4                                                              
   LEXCH  = PE                                                                  
   EATOM  =   432.3788 eV,   31.7789 Ry                                         
                                                                                
   TITEL  = PAW_PBE O 08Apr2002                                                 
   LULTRA =        F    use ultrasoft PP ?                                      
   IUNSCR =        1    unscreen: 0-lin 1-nonlin 2-no                           
   RPACOR =    1.200    partial core radius                                     
   POMASS =   16.000; ZVAL   =    6.000    mass and valenz                      
   RCORE  =    1.520    outmost cutoff radius                                   
   RWIGS  =    1.550; RWIGS  =    0.820    wigner-seitz radius (au A)           
   ENMAX  =  400.000; ENMIN  =  300.000 eV                                      
   ICORE  =        2    local potential                                         
   LCOR   =        T    correct aug charges                                     
   LPAW   =        T    paw PP                                                  
   EAUG   =  605.392                                                            
   DEXC   =    0.000                                                            
   RMAX   =    1.553    core radius for proj-oper                               
   RAUG   =    1.300    factor for augmentation sphere                          
   RDEP   =    1.550    radius for radial grids                                 
   RDEPT  =    1.329    core radius for aug-charge                              
                                                                                
   Atomic configuration                                                         
    4 entries                                                                   
     n  l   j            E        occ.                                          
     1  0  0.50      -514.6923   2.0000                                         
     2  0  0.50       -23.9615   2.0000                                         
     2  1  0.50        -9.0305   4.0000                                         
     3  2  1.50        -9.5241   0.0000                                         
   Description                                                                  
     l       E           TYP  RCUT    TYP  RCUT                                 
     0    -23.9615318     23  1.200                                             
     0     -9.5240782     23  1.200                                             
     1     -9.0304911     23  1.520                                             
     1      8.1634956     23  1.520                                             
     2     -9.5240782      7  1.500                                             
  local pseudopotential read in
  partial core-charges read in
  partial kinetic energy density read in
  kinetic energy density of atom read in
  atomic valenz-charges read in
  non local Contribution for L=           0  read in
    real space projection operators read in
  non local Contribution for L=           0  read in
    real space projection operators read in
  non local Contribution for L=           1  read in
    real space projection operators read in
  non local Contribution for L=           1  read in
    real space projection operators read in
    PAW grid and wavefunctions read in
 
   number of l-projection  operators is LMAX  =           4
   number of lm-projection operators is LMMAX =           8
 
 Optimization of the real space projectors (new method)

 maximal supplied QI-value         = 14.36
 optimisation between [QCUT,QGAM] = [ 10.20, 20.39] = [ 29.12,116.47] Ry 
 Optimized for a Real-space Cutoff    1.51 Angstroem

   l    n(q)    QCUT    max X(q) W(low)/X(q) W(high)/X(q)  e(spline) 
   2      8    10.197    59.108    0.26E-03    0.14E-03    0.96E-07
   2      8    10.197    58.101    0.27E-03    0.14E-03    0.98E-07
   0      9    10.197   102.235    0.54E-04    0.60E-05    0.72E-07
   0      9    10.197    58.388    0.52E-04    0.60E-05    0.68E-07
   1      9    10.197    22.191    0.18E-03    0.25E-03    0.79E-07
   1      9    10.197    15.590    0.15E-03    0.21E-03    0.69E-07
 Optimization of the real space projectors (new method)

 maximal supplied QI-value         = 25.13
 optimisation between [QCUT,QGAM] = [ 10.05, 20.36] = [ 28.30,116.06] Ry 
 Optimized for a Real-space Cutoff    1.30 Angstroem

   l    n(q)    QCUT    max X(q) W(low)/X(q) W(high)/X(q)  e(spline) 
   0      8    10.053   115.676    0.49E-03    0.72E-03    0.18E-06
   0      8    10.053    87.132    0.49E-03    0.71E-03    0.18E-06
   1      7    10.053     4.429    0.32E-03    0.31E-03    0.18E-06
   1      7    10.053     2.733    0.23E-03    0.19E-03    0.20E-06
 Optimization of the real space projectors (new method)

 maximal supplied QI-value         = 24.76
 optimisation between [QCUT,QGAM] = [ 10.15, 20.30] = [ 28.85,115.39] Ry 
 Optimized for a Real-space Cutoff    1.38 Angstroem

   l    n(q)    QCUT    max X(q) W(low)/X(q) W(high)/X(q)  e(spline) 
   0      8    10.150    20.381    0.22E-03    0.32E-03    0.29E-06
   0      8    10.150    15.268    0.23E-03    0.35E-03    0.30E-06
   1      8    10.150     5.964    0.46E-03    0.53E-03    0.21E-06
   1      8    10.150     5.382    0.38E-03    0.45E-03    0.19E-06

 ----------------------------------------------------------------------------- 
|                                                                             |
|  ADVICE TO THIS USER RUNNING 'VASP/VAMP'   (HEAR YOUR MASTER'S VOICE ...):  |
|                                                                             |
|      You enforced a specific xc-type in the INCAR file,                     |
|      a different type was found on the POTCAR file                          |
|          I HOPE YOU KNOW, WHAT YOU ARE  DOING                               |
|                                                                             |
 ----------------------------------------------------------------------------- 

  PAW_PBE Pd 04Jan2005                  :
 energy of atom  1       EATOM= -809.7530
 kinetic energy error for atom=    0.0091 (will be added to EATOM!!)
  PAW_PBE C 08Apr2002                   :
 energy of atom  2       EATOM= -147.1560
 kinetic energy error for atom=    0.0288 (will be added to EATOM!!)
  PAW_PBE O 08Apr2002                   :
 energy of atom  3       EATOM= -432.3788
 kinetic energy error for atom=    0.1156 (will be added to EATOM!!)
 
 
 POSCAR: Pd55PES                                 
  positions in cartesian coordinates
  No initial velocities read in
 exchange correlation table for  LEXCH =        9
   RHO(1)=    0.500       N(1)  =     2000
   RHO(2)=  100.500       N(2)  =     4000
 


--------------------------------------------------------------------------------------------------------


 ion  position               nearest neighbor table
   1  0.446  0.328  0.417-   3 3.25   5 3.25   7 3.36  15 3.36  29 3.42  28 3.42
   2  0.672  0.554  0.417-  26 3.25  30 3.25  17 3.36   9 3.36  47 3.42  49 3.42
   3  0.554  0.328  0.417-   1 3.25   5 3.25   7 3.36  11 3.36  29 3.42  21 3.42
   4  0.328  0.554  0.417-  32 3.25  22 3.25  13 3.36   8 3.36  43 3.42  48 3.42
   5  0.500  0.383  0.340-   1 3.25   3 3.25  11 3.36  15 3.36  21 3.42  28 3.42
   6  0.500  0.383  0.660-  24 3.25  19 3.25  16 3.36  12 3.36  42 3.42  44 3.42
   7  0.500  0.276  0.500-  29 3.24   3 3.36   1 3.36  19 3.36  24 3.36
   8  0.276  0.500  0.500-  48 3.24  22 3.36  40 3.36   4 3.36  25 3.36
   9  0.724  0.500  0.500-  49 3.24  26 3.36  45 3.36   2 3.36  20 3.36
  10  0.500  0.724  0.500-  55 3.24  27 3.36  23 3.36  46 3.36  41 3.36
  11  0.612  0.388  0.342-  21 3.24   5 3.36   3 3.36  30 3.36  26 3.36
  12  0.612  0.388  0.658-  42 3.24  24 3.36  45 3.36   6 3.36  31 3.36
  13  0.388  0.612  0.342-  43 3.24  32 3.36  50 3.36   4 3.36  27 3.36
  14  0.388  0.612  0.658-  53 3.24  25 3.36  33 3.36  51 3.36  46 3.36
  15  0.388  0.388  0.342-  28 3.24   5 3.36   1 3.36  32 3.36  22 3.36
  16  0.388  0.388  0.658-  44 3.24  19 3.36  40 3.36   6 3.36  33 3.36
  17  0.612  0.612  0.342-  47 3.24  30 3.36  50 3.36   2 3.36  23 3.36
  18  0.612  0.612  0.658-  54 3.24  31 3.36  20 3.36  51 3.36  41 3.36
  19  0.446  0.328  0.583-   6 3.25  24 3.25  16 3.36   7 3.36  44 3.42  29 3.42
  20  0.672  0.554  0.583-  31 3.25  45 3.25  18 3.36   9 3.36  54 3.42  49 3.42
  21  0.558  0.442  0.418-  11 3.24   5 3.42   3 3.42  30 3.42  26 3.42
  22  0.328  0.446  0.417-   4 3.25  32 3.25   8 3.36  15 3.36  48 3.42  28 3.42
  23  0.554  0.672  0.417-  27 3.25  50 3.25  10 3.36  17 3.36  55 3.42  47 3.42
  24  0.554  0.328  0.583-   6 3.25  19 3.25  12 3.36   7 3.36  42 3.42  29 3.42
  25  0.328  0.554  0.583-  33 3.25  40 3.25  14 3.36   8 3.36  53 3.42  48 3.42
  26  0.672  0.446  0.417-   2 3.25  30 3.25   9 3.36  11 3.36  49 3.42  21 3.42
  27  0.446  0.672  0.417-  23 3.25  50 3.25  10 3.36  13 3.36  55 3.42  43 3.42
  28  0.442  0.442  0.418-  15 3.24   5 3.42   1 3.42  32 3.42  22 3.42
  29  0.500  0.384  0.500-   7 3.24   3 3.42   1 3.42  24 3.42  19 3.42
  30  0.617  0.500  0.340-   2 3.25  26 3.25  17 3.36  11 3.36  47 3.42  21 3.42
  31  0.617  0.500  0.660-  20 3.25  45 3.25  18 3.36  12 3.36  54 3.42  42 3.42
  32  0.383  0.500  0.340-   4 3.25  22 3.25  13 3.36  15 3.36  43 3.42  28 3.42
  33  0.383  0.500  0.660-  25 3.25  40 3.25  14 3.36  16 3.36  53 3.42  44 3.42
  34  0.383  0.383  0.500-
  35  0.617  0.617  0.500-
  36  0.617  0.383  0.500-
  37  0.383  0.617  0.500-
  38  0.500  0.500  0.335-
  39  0.500  0.500  0.665-
  40  0.328  0.446  0.583-  33 3.25  25 3.25  16 3.36   8 3.36  44 3.42  48 3.42
  41  0.554  0.672  0.583-  46 3.25  51 3.25  10 3.36  18 3.36  54 3.42  55 3.42
  42  0.558  0.442  0.582-  12 3.24   6 3.42  24 3.42  31 3.42  45 3.42
  43  0.442  0.558  0.418-  13 3.24   4 3.42  32 3.42  27 3.42  50 3.42
  44  0.442  0.442  0.582-  16 3.24   6 3.42  19 3.42  33 3.42  40 3.42
  45  0.672  0.446  0.583-  20 3.25  31 3.25   9 3.36  12 3.36  49 3.42  42 3.42
  46  0.446  0.672  0.583-  41 3.25  51 3.25  10 3.36  14 3.36  53 3.42  55 3.42
  47  0.558  0.558  0.418-  17 3.24   2 3.42  30 3.42  23 3.42  50 3.42
  48  0.384  0.500  0.500-   8 3.24   4 3.42  22 3.42  25 3.42  40 3.42
  49  0.616  0.500  0.500-   9 3.24   2 3.42  26 3.42  20 3.42  45 3.42
  50  0.500  0.617  0.340-  27 3.25  23 3.25  13 3.36  17 3.36  43 3.42  47 3.42
  51  0.500  0.617  0.660-  41 3.25  46 3.25  14 3.36  18 3.36  53 3.42  54 3.42
  52  0.500  0.500  0.500-
  53  0.442  0.558  0.582-  14 3.24  25 3.42  33 3.42  51 3.42  46 3.42
  54  0.558  0.558  0.582-  18 3.24  31 3.42  20 3.42  51 3.42  41 3.42
  55  0.500  0.616  0.500-  10 3.24  23 3.42  27 3.42  41 3.42  46 3.42
  56  0.464  0.512  0.756-  57 1.13
  57  0.459  0.513  0.793-  56 1.13
 
  LATTYP: Found a simple cubic cell.
 ALAT       =    30.0000000000
  
  Lattice vectors:
  
 A1 = (  30.0000000000,   0.0000000000,   0.0000000000)
 A2 = (   0.0000000000,  30.0000000000,   0.0000000000)
 A3 = (   0.0000000000,   0.0000000000,  30.0000000000)


Analysis of symmetry for initial positions (statically):
=====================================================================
 Subroutine PRICEL returns:
 Original cell was already a primitive cell.
 

 Routine SETGRP: Setting up the symmetry group for a 
 simple cubic supercell.


 Subroutine GETGRP returns: Found  1 space group operations
 (whereof  1 operations were pure point group operations)
 out of a pool of 48 trial point group operations.


The static configuration has the point symmetry C_1 .


Analysis of symmetry for dynamics (positions and initial velocities):
=====================================================================
 Subroutine PRICEL returns:
 Original cell was already a primitive cell.
 

 Routine SETGRP: Setting up the symmetry group for a 
 simple cubic supercell.


 Subroutine GETGRP returns: Found  1 space group operations
 (whereof  1 operations were pure point group operations)
 out of a pool of 48 trial point group operations.


The dynamic configuration has the point symmetry C_1 .


Analysis of constrained symmetry for selective dynamics:
=====================================================================
 Subroutine PRICEL returns:
 Original cell was already a primitive cell.
 

 Routine SETGRP: Setting up the symmetry group for a 
 simple cubic supercell.


 Subroutine GETGRP returns: Found  1 space group operations
 (whereof  1 operations were pure point group operations)
 out of a pool of 48 trial point group operations.


The constrained configuration has the point symmetry C_1 .


 Subroutine INISYM returns: Found  1 space group operations
 (whereof  1 operations are pure point group operations),
 and found     1 'primitive' translations

 
 
 KPOINTS: K-points                                

Automatic generation of k-mesh.
Space group operators:
 irot       det(A)        alpha          n_x          n_y          n_z        tau_x        tau_y        tau_z
    1     1.000000     0.000000     1.000000     0.000000     0.000000     0.000000     0.000000     0.000000
 
 Subroutine IBZKPT returns following result:
 ===========================================
 
 Found      1 irreducible k-points:
 
 Following reciprocal coordinates:
            Coordinates               Weight
  0.000000  0.000000  0.000000      1.000000
 
 Following cartesian coordinates:
            Coordinates               Weight
  0.000000  0.000000  0.000000      1.000000
 


--------------------------------------------------------------------------------------------------------




 Dimension of arrays:
   k-points           NKPTS =      1   k-points in BZ     NKDIM =      1   number of bands    NBANDS=    336
   number of dos      NEDOS =    301   number of ions     NIONS =     57
   non local maximal  LDIM  =      6   non local SUM 2l+1 LMDIM =     18
   total plane-waves  NPLWV = ******
   max r-space proj   IRMAX =   1847   max aug-charges    IRDMAX=   6262
   dimension x,y,z NGX =   150 NGY =  150 NGZ =  150
   dimension x,y,z NGXF=   300 NGYF=  300 NGZF=  300
   support grid    NGXF=   300 NGYF=  300 NGZF=  300
   ions per type =              55   1   1
   NGX,Y,Z   is equivalent  to a cutoff of   8.31,  8.31,  8.31 a.u.
   NGXF,Y,Z  is equivalent  to a cutoff of  16.62, 16.62, 16.62 a.u.

 SYSTEM =  6_Pd100_top_free_z(O)                   
 POSCAR =  Pd55PES                                 

 Startparameter for this run:
   NWRITE =      2    write-flag & timer
   PREC   = normal    normal or accurate (medium, high low for compatibility)
   ISTART =      0    job   : 0-new  1-cont  2-samecut
   ICHARG =      2    charge: 1-file 2-atom 10-const
   ISPIN  =      1    spin polarized calculation?
   LNONCOLLINEAR =      F non collinear calculations
   LSORBIT =      F    spin-orbit coupling
   INIWAV =      1    electr: 0-lowe 1-rand  2-diag
   LASPH  =      F    aspherical Exc in radial PAW
   METAGGA=      F    non-selfconsistent MetaGGA calc.

 Electronic Relaxation 1
   ENCUT  =  400.0 eV  29.40 Ry    5.42 a.u.  48.92 48.92 48.92*2*pi/ulx,y,z
   ENINI  =  400.0     initial cutoff
   ENAUG  =  644.9 eV  augmentation charge cutoff
   NELM   =    100;   NELMIN=  6; NELMDL= -5     # of ELM steps 
   EDIFF  = 0.1E-03   stopping-criterion for ELM
   LREAL  =      T    real-space projection
   NLSPLINE    = F    spline interpolate recip. space projectors
   LCOMPAT=      F    compatible to vasp.4.4
   GGA_COMPAT  = T    GGA compatible to vasp.4.4-vasp.4.6
   LMAXPAW     = -100 max onsite density
   LMAXMIX     =    2 max onsite mixed and CHGCAR
   VOSKOWN=      0    Vosko Wilk Nusair interpolation
   ROPT   =   -0.00050  -0.00050  -0.00050
 Ionic relaxation
   EDIFFG = -.5E-01   stopping-criterion for IOM
   NSW    =      0    number of steps for IOM
   NBLOCK =      1;   KBLOCK =      1    inner block; outer block 
   IBRION =     -1    ionic relax: 0-MD 1-quasi-New 2-CG
   NFREE  =      1    steps in history (QN), initial steepest desc. (CG)
   ISIF   =      2    stress and relaxation
   IWAVPR =     10    prediction:  0-non 1-charg 2-wave 3-comb
   ISYM   =      2    0-nonsym 1-usesym 2-fastsym
   LCORR  =      T    Harris-Foulkes like correction to forces

   POTIM  = 0.5000    time-step for ionic-motion
   TEIN   =    0.0    initial temperature
   TEBEG  =    0.0;   TEEND  =   0.0 temperature during run
   SMASS  =  -3.00    Nose mass-parameter (am)
   estimated Nose-frequenzy (Omega)   =  0.10E-29 period in steps =****** mass=  -0.206E-25a.u.
   SCALEE = 1.0000    scale energy and forces
   NPACO  =    256;   APACO  = 16.0  distance and # of slots for P.C.
   PSTRESS=    0.0 pullay stress

  Mass of Ions in am
   POMASS = 106.42 12.01 16.00
  Ionic Valenz
   ZVAL   =  10.00  4.00  6.00
  Atomic Wigner-Seitz radii
   RWIGS  =  -1.00 -1.00 -1.00
  virtual crystal weights 
   VCA    =   1.00  1.00  1.00
   NELECT =     560.0000    total number of electrons
   NUPDOWN=      -1.0000    fix difference up-down

 DOS related values:
   EMIN   =  10.00;   EMAX   =-10.00  energy-range for DOS
   EFERMI =   0.00
   ISMEAR =     2;   SIGMA  =   0.20  broadening in eV -4-tet -1-fermi 0-gaus

 Electronic relaxation 2 (details)
   IALGO  =     68    algorithm
   LDIAG  =      T    sub-space diagonalisation (order eigenvalues)
   LSUBROT=      F    optimize rotation matrix (better conditioning)
   TURBO    =      0    0=normal 1=particle mesh
   IRESTART =      0    0=no restart 2=restart with 2 vectors
   NREBOOT  =      0    no. of reboots
   NMIN     =      0    reboot dimension
   EREF     =   0.00    reference energy to select bands
   IMIX   =      4    mixing-type and parameters
     AMIX     =   0.40;   BMIX     =  1.00
     AMIX_MAG =   1.60;   BMIX_MAG =  1.00
     AMIN     =   0.10
     WC   =   100.;   INIMIX=   1;  MIXPRE=   1;  MAXMIX= -45

 Intra band minimization:
   WEIMIN = 0.0000     energy-eigenvalue tresh-hold
   EBREAK =  0.74E-07  absolut break condition
   DEPER  =   0.30     relativ break condition  

   TIME   =   0.40     timestep for ELM

  volume/ion in A,a.u.               =     473.68      3196.58
  Fermi-wavevector in a.u.,A,eV,Ry     =   0.449797  0.849992  2.752691  0.202317
  Thomas-Fermi vector in A             =   1.430086
 
 Write flags
   LWAVE        =      F    write WAVECAR
   LDOWNSAMPLE  =      F    k-point downsampling of WAVECAR
   LCHARG       =      F    write CHGCAR
   LVTOT        =      F    write LOCPOT, total local potential
   LVHAR        =      F    write LOCPOT, Hartree potential only
   LELF         =      F    write electronic localiz. function (ELF)
   LORBIT       =      0    0 simple, 1 ext, 2 COOP (PROOUT), +10 PAW based schemes


 Dipole corrections
   LMONO  =      F    monopole corrections only (constant potential shift)
   LDIPOL =      F    correct potential (dipole corrections)
   IDIPOL =      0    1-x, 2-y, 3-z, 4-all directions 
   EPSILON=  1.0000000 bulk dielectric constant

 Exchange correlation treatment:
   GGA     =    RP    GGA type
   LEXCH   =     9    internal setting for exchange type
   VOSKOWN=      0    Vosko Wilk Nusair interpolation
   LHFCALC =     F    Hartree Fock is set to
   LHFONE  =     F    Hartree Fock one center treatment
   AEXX    =    0.0000 exact exchange contribution

 Linear response parameters
   LEPSILON=     F    determine dielectric tensor
   LRPA    =     F    only Hartree local field effects (RPA)
   LNABLA  =     F    use nabla operator in PAW spheres
   LVEL    =     F    velocity operator in full k-point grid
   LINTERFAST=   F  fast interpolation
   KINTER  =     0    interpolate to denser k-point grid
   CSHIFT  =0.1000    complex shift for real part using Kramers Kronig
   OMEGAMAX=  -1.0    maximum frequency
   DEG_THRESHOLD= 0.2000000E-02 threshold for treating states as degnerate
   RTIME   =   -0.100 relaxation time in fs
  (WPLASMAI=    0.000 imaginary part of plasma frequency in eV, 0.658/RTIME)
   DFIELD  = 0.0000000 0.0000000 0.0000000 field for delta impulse in time
 
 Orbital magnetization related:
   ORBITALMAG=     F  switch on orbital magnetization
   LCHIMAG   =     F  perturbation theory with respect to B field
   DQ        =  0.001000  dq finite difference perturbation B field
   LLRAUG    =     F  two centre corrections for induced B field



--------------------------------------------------------------------------------------------------------


 Static calculation
 charge density and potential will be updated during run
 non-spin polarized calculation
 RMM-DIIS sequential band-by-band and
  variant of blocked Davidson during initial phase
 perform sub-space diagonalisation
    before iterative eigenvector-optimisation
 modified Broyden-mixing scheme, WC =      100.0
 initial mixing is a Kerker type mixing with AMIX =  0.4000 and BMIX =      1.0000
 Hartree-type preconditioning will be used
 using additional bands           56
 real space projection scheme for non local part
 use partial core corrections
 calculate Harris-corrections to forces 
   (improved forces if not selfconsistent)
 use gradient corrections 
 use of overlap-Matrix (Vanderbilt PP)
 Methfessel and Paxton  Order N= 2 SIGMA  =   0.20


--------------------------------------------------------------------------------------------------------


  energy-cutoff  :      400.00
  volume of cell :    27000.00
      direct lattice vectors                 reciprocal lattice vectors
    30.000000000  0.000000000  0.000000000     0.033333333  0.000000000  0.000000000
     0.000000000 30.000000000  0.000000000     0.000000000  0.033333333  0.000000000
     0.000000000  0.000000000 30.000000000     0.000000000  0.000000000  0.033333333

  length of vectors
    30.000000000 30.000000000 30.000000000     0.033333333  0.033333333  0.033333333


 
 k-points in units of 2pi/SCALE and weight: K-points                                
   0.00000000  0.00000000  0.00000000       1.000
 
 k-points in reciprocal lattice and weights: K-points                                
   0.00000000  0.00000000  0.00000000       1.000
 
 position of ions in fractional coordinates (direct lattice) 
   0.44576020  0.32826710  0.41691983
   0.67173288  0.55423978  0.41691983
   0.55423980  0.32826710  0.41691983
   0.32826712  0.55423978  0.41691983
   0.50000000  0.38250690  0.34021317
   0.50000000  0.38250690  0.65978680
   0.50000000  0.27609440  0.50000000
   0.27609443  0.49999998  0.50000000
   0.72390557  0.49999998  0.50000000
   0.50000000  0.72390555  0.50000000
   0.61195280  0.38804720  0.34167483
   0.61195280  0.38804720  0.65832513
   0.38804722  0.61195278  0.34167483
   0.38804722  0.61195278  0.65832513
   0.38804720  0.38804720  0.34167483
   0.38804720  0.38804720  0.65832513
   0.61195278  0.61195278  0.34167483
   0.61195278  0.61195278  0.65832513
   0.44576020  0.32826710  0.58308023
   0.67173288  0.55423978  0.58308023
   0.55791699  0.44208301  0.41809300
   0.32826705  0.44576024  0.41691983
   0.55423973  0.67173293  0.41691983
   0.55423980  0.32826710  0.58308023
   0.32826712  0.55423978  0.58308023
   0.67173295  0.44576024  0.41691983
   0.44576027  0.67173293  0.41691983
   0.44208301  0.44208301  0.41809300
   0.50000000  0.38416601  0.50000000
   0.61749315  0.50000005  0.34021317
   0.61749315  0.50000005  0.65978680
   0.38250685  0.50000005  0.34021317
   0.38250685  0.50000005  0.65978680
   0.38317830  0.38317830  0.50000000
   0.61682172  0.61682172  0.50000000
   0.61682170  0.38317830  0.50000000
   0.38317828  0.61682172  0.50000000
   0.50000000  0.50000000  0.33478917
   0.50000000  0.50000000  0.66521087
   0.32826705  0.44576024  0.58308023
   0.55423973  0.67173293  0.58308023
   0.55791699  0.44208301  0.58190703
   0.44208298  0.55791702  0.41809300
   0.44208301  0.44208301  0.58190703
   0.67173295  0.44576024  0.58308023
   0.44576027  0.67173293  0.58308023
   0.55791702  0.55791702  0.41809300
   0.38416599  0.50000002  0.50000000
   0.61583401  0.50000002  0.50000000
   0.50000000  0.61749319  0.34021317
   0.50000000  0.61749319  0.65978680
   0.50000000  0.50000000  0.50000000
   0.44208298  0.55791702  0.58190703
   0.55791702  0.55791702  0.58190703
   0.50000000  0.61583404  0.50000000
   0.46419460  0.51159300  0.75559330
   0.45898350  0.51328027  0.79279217
 
 position of ions in cartesian coordinates  (Angst):
  13.37280588  9.84801292 12.50759500
  20.15198637 16.62719342 12.50759500
  16.62719412  9.84801292 12.50759500
   9.84801363 16.62719342 12.50759500
  15.00000000 11.47520705 10.20639500
  15.00000000 11.47520705 19.79360400
  15.00000000  8.28283206 15.00000000
   8.28283277 14.99999929 15.00000000
  21.71716723 14.99999929 15.00000000
  15.00000000 21.71716652 14.99999999
  18.35858397 11.64141603 10.25024500
  18.35858397 11.64141603 19.74975399
  11.64141674 18.35858326 10.25024500
  11.64141674 18.35858326 19.74975400
  11.64141603 11.64141603 10.25024500
  11.64141603 11.64141603 19.74975400
  18.35858326 18.35858326 10.25024500
  18.35858326 18.35858326 19.74975400
  13.37280588  9.84801291 17.49240700
  20.15198638 16.62719341 17.49240700
  16.73750985 13.26249015 12.54279000
   9.84801151 13.37280729 12.50759500
  16.62719200 20.15198779 12.50759500
  16.62719412  9.84801292 17.49240700
   9.84801363 16.62719342 17.49240700
  20.15198849 13.37280729 12.50759500
  13.37280800 20.15198779 12.50759500
  13.26249015 13.26249015 12.54279000
  15.00000000 11.52498029 15.00000000
  18.52479437 15.00000140 10.20639500
  18.52479437 15.00000141 19.79360400
  11.47520562 15.00000141 10.20639501
  11.47520563 15.00000141 19.79360400
  11.49534898 11.49534898 15.00000000
  18.50465172 18.50465172 15.00000000
  18.50465102 11.49534898 15.00000000
  11.49534828 18.50465172 15.00000000
  15.00000000 15.00000000 10.04367500
  15.00000000 15.00000000 19.95632599
   9.84801151 13.37280729 17.49240700
  16.62719200 20.15198779 17.49240700
  16.73750985 13.26249015 17.45721100
  13.26248944 16.73751056 12.54279001
  13.26249015 13.26249015 17.45721100
  20.15198849 13.37280729 17.49240699
  13.37280800 20.15198779 17.49240700
  16.73751056 16.73751056 12.54279000
  11.52497959 15.00000071 15.00000000
  18.47502041 15.00000071 15.00000000
  14.99999999 18.52479579 10.20639500
  15.00000000 18.52479578 19.79360400
  15.00000000 15.00000000 15.00000000
  13.26248944 16.73751057 17.45721101
  16.73751056 16.73751057 17.45721100
  15.00000000 18.47502112 15.00000000
  13.92583800 15.34779000 22.66779900
  13.76950500 15.39840800 23.78376500
 


--------------------------------------------------------------------------------------------------------


 k-point  1 :   0.0000 0.0000 0.0000  plane waves:  490521

 maximum and minimum number of plane-waves per node :    490521   490521

 maximum number of plane-waves:    490521
 maximum index in each direction: 
   IXMAX=   48   IYMAX=   48   IZMAX=   48
   IXMIN=  -48   IYMIN=  -48   IZMIN=  -48


 serial   3D FFT for wavefunctions
 parallel 3D FFT for charge:
    minimum data exchange during FFTs selected (reduces bandwidth)


 total amount of memory used by VASP MPI-rank0  5486941. kBytes
=======================================================================

   base      :      30000. kBytes
   nonlr-proj:      17126. kBytes
   fftplans  :     924480. kBytes
   grid      :    1872000. kBytes
   one-center:        886. kBytes
   wavefun   :    2642449. kBytes
 
     INWAV:  cpu time    0.0001: real time    0.0003
 Broyden mixing: mesh for mixing (old mesh)
   NGX = 97   NGY = 97   NGZ = 97
  (NGX  =300   NGY  =300   NGZ  =300)
  gives a total of 912673 points

 initial charge density was supplied:
 charge density of overlapping atoms calculated
 number of electron     560.0000000 magnetization 
 keeping initial charge density in first step


--------------------------------------------------------------------------------------------------------


 Maximum index for non-local projection operator         1763
 Maximum index for augmentation-charges         5898 (set IRDMAX)


--------------------------------------------------------------------------------------------------------


 First call to EWALD:  gamma=   0.059
 Maximum number of real-space cells 3x 3x 3
 Maximum number of reciprocal cells 3x 3x 3

    FEWALD:  cpu time    0.0149: real time    0.0149


--------------------------------------- Iteration      1(   1)  ---------------------------------------


    POTLOK:  cpu time   13.3697: real time   13.3724
    SETDIJ:  cpu time    0.1172: real time    0.1172
     EDDAV:  cpu time  340.4497: real time  340.5211
       DOS:  cpu time    0.0013: real time    0.0013
    --------------------------------------------
      LOOP:  cpu time  353.9379: real time  354.0120

 eigenvalue-minimisations  :   688
 total energy-change (2. order) : 0.4381868E+04  (-0.1004744E+05)
 number of electron     560.0000000 magnetization 
 augmentation part      560.0000000 magnetization 

 Free energy of the ion-electron system (eV)
  ---------------------------------------------------
  alpha Z        PSCENC =        75.25431677
  Ewald energy   TEWEN  =    137750.60251978
  -Hartree energ DENC   =   -181119.15651124
  -exchange      EXHF   =         0.00000000
  -V(xc)+E(xc)   XCENC  =     -1704.12256701
  PAW double counting   =     44873.02882129   -41398.84523641
  entropy T*S    EENTRO =        -0.00553616
  eigenvalues    EBANDS =       818.60681919
  atomic energy  EATOM  =     45086.50549395
  Solvation  Ediel_sol  =         0.00000000
  ---------------------------------------------------
  free energy    TOTEN  =      4381.86812016 eV

  energy without entropy =     4381.87365632  energy(sigma->0) =     4381.86950420


--------------------------------------------------------------------------------------------------------




--------------------------------------- Iteration      1(   2)  ---------------------------------------


     EDDAV:  cpu time  545.3781: real time  545.3880
       DOS:  cpu time    0.0013: real time    0.0013
    --------------------------------------------
      LOOP:  cpu time  545.3793: real time  545.3892

 eigenvalue-minimisations  :  1232
 total energy-change (2. order) :-0.2369124E+04  (-0.2130372E+04)
 number of electron     560.0000000 magnetization 
 augmentation part      560.0000000 magnetization 

 Free energy of the ion-electron system (eV)
  ---------------------------------------------------
  alpha Z        PSCENC =        75.25431677
  Ewald energy   TEWEN  =    137750.60251978
  -Hartree energ DENC   =   -181119.15651124
  -exchange      EXHF   =         0.00000000
  -V(xc)+E(xc)   XCENC  =     -1704.12256701
  PAW double counting   =     44873.02882129   -41398.84523641
  entropy T*S    EENTRO =        -0.03050658
  eigenvalues    EBANDS =     -1550.49212950
  atomic energy  EATOM  =     45086.50549395
  Solvation  Ediel_sol  =         0.00000000
  ---------------------------------------------------
  free energy    TOTEN  =      2012.74420105 eV

  energy without entropy =     2012.77470763  energy(sigma->0) =     2012.75182769


--------------------------------------------------------------------------------------------------------




--------------------------------------- Iteration      1(   3)  ---------------------------------------


     EDDAV:  cpu time  454.8411: real time  454.8431
       DOS:  cpu time    0.0010: real time    0.0010
    --------------------------------------------
      LOOP:  cpu time  454.8421: real time  454.8442

 eigenvalue-minimisations  :   992
 total energy-change (2. order) :-0.1775085E+04  (-0.1670876E+04)
 number of electron     560.0000000 magnetization 
 augmentation part      560.0000000 magnetization 

 Free energy of the ion-electron system (eV)
  ---------------------------------------------------
  alpha Z        PSCENC =        75.25431677
  Ewald energy   TEWEN  =    137750.60251978
  -Hartree energ DENC   =   -181119.15651124
  -exchange      EXHF   =         0.00000000
  -V(xc)+E(xc)   XCENC  =     -1704.12256701
  PAW double counting   =     44873.02882129   -41398.84523641
  entropy T*S    EENTRO =        -0.02064258
  eigenvalues    EBANDS =     -3325.58748935
  atomic energy  EATOM  =     45086.50549395
  Solvation  Ediel_sol  =         0.00000000
  ---------------------------------------------------
  free energy    TOTEN  =       237.65870520 eV

  energy without entropy =      237.67934778  energy(sigma->0) =      237.66386584


--------------------------------------------------------------------------------------------------------




--------------------------------------- Iteration      1(   4)  ---------------------------------------


     EDDAV:  cpu time  388.8935: real time  388.9072
       DOS:  cpu time    0.0012: real time    0.0012
    --------------------------------------------
      LOOP:  cpu time  388.8946: real time  388.9083

 eigenvalue-minimisations  :   816
 total energy-change (2. order) :-0.3698255E+03  (-0.3082733E+03)
 number of electron     560.0000000 magnetization 
 augmentation part      560.0000000 magnetization 

 Free energy of the ion-electron system (eV)
  ---------------------------------------------------
  alpha Z        PSCENC =        75.25431677
  Ewald energy   TEWEN  =    137750.60251978
  -Hartree energ DENC   =   -181119.15651124
  -exchange      EXHF   =         0.00000000
  -V(xc)+E(xc)   XCENC  =     -1704.12256701
  PAW double counting   =     44873.02882129   -41398.84523641
  entropy T*S    EENTRO =        -0.03114693
  eigenvalues    EBANDS =     -3695.40247717
  atomic energy  EATOM  =     45086.50549395
  Solvation  Ediel_sol  =         0.00000000
  ---------------------------------------------------
  free energy    TOTEN  =      -132.16678697 eV

  energy without entropy =     -132.13564004  energy(sigma->0) =     -132.15900024


--------------------------------------------------------------------------------------------------------




--------------------------------------- Iteration      1(   5)  ---------------------------------------


     EDDAV:  cpu time  476.6047: real time  476.6073
       DOS:  cpu time    0.0014: real time    0.0014
    CHARGE:  cpu time   23.9142: real time   23.9141
    MIXING:  cpu time    0.4278: real time    0.4278
    --------------------------------------------
      LOOP:  cpu time  500.9480: real time  500.9506

 eigenvalue-minimisations  :  1056
 total energy-change (2. order) :-0.4601436E+02  (-0.3815783E+02)
 number of electron     559.9999899 magnetization 
 augmentation part      245.2351705 magnetization 

 Broyden mixing:
  rms(total) = 0.13854E+01    rms(broyden)= 0.13844E+01
  rms(prec ) = 0.14912E+01
  weight for this iteration     100.00

 Free energy of the ion-electron system (eV)
  ---------------------------------------------------
  alpha Z        PSCENC =        75.25431677
  Ewald energy   TEWEN  =    137750.60251978
  -Hartree energ DENC   =   -181119.15651124
  -exchange      EXHF   =         0.00000000
  -V(xc)+E(xc)   XCENC  =     -1704.12256701
  PAW double counting   =     44873.02882129   -41398.84523641
  entropy T*S    EENTRO =         0.56385681
  eigenvalues    EBANDS =     -3742.01184122
  atomic energy  EATOM  =     45086.50549395
  Solvation  Ediel_sol  =         0.00000000
  ---------------------------------------------------
  free energy    TOTEN  =      -178.18114728 eV

  energy without entropy =     -178.74500409  energy(sigma->0) =     -178.32211148


--------------------------------------------------------------------------------------------------------




--------------------------------------- Iteration      1(   6)  ---------------------------------------


    POTLOK:  cpu time   12.3062: real time   12.3069
    SETDIJ:  cpu time    0.1197: real time    0.1197
    EDDIAG:  cpu time   64.5249: real time   64.5252
  RMM-DIIS:  cpu time  177.9339: real time  177.9353
    ORTHCH:  cpu time   12.8473: real time   12.8473
       DOS:  cpu time    0.0015: real time    0.0015
    CHARGE:  cpu time   23.8907: real time   23.8906
    MIXING:  cpu time    0.4381: real time    0.4381
    --------------------------------------------
      LOOP:  cpu time  292.0623: real time  292.0646

 eigenvalue-minimisations  :   732
 total energy-change (2. order) :-0.1277661E+01  (-0.5844157E+01)
 number of electron     559.9999918 magnetization 
 augmentation part      240.4445493 magnetization 

 Broyden mixing:
  rms(total) = 0.27558E+01    rms(broyden)= 0.27557E+01
  rms(prec ) = 0.32655E+01
  weight for this iteration     100.00

 eigenvalues of (default mixing * dielectric matrix)
  average eigenvalue GAMMA=   0.2491
  0.2491

 Free energy of the ion-electron system (eV)
  ---------------------------------------------------
  alpha Z        PSCENC =        75.25431677
  Ewald energy   TEWEN  =    137750.60251978
  -Hartree energ DENC   =   -181532.02664027
  -exchange      EXHF   =         0.00000000
  -V(xc)+E(xc)   XCENC  =     -1697.84145478
  PAW double counting   =     45612.62848827   -42111.26909245
  entropy T*S    EENTRO =        -0.12629827
  eigenvalues    EBANDS =     -3363.18614122
  atomic energy  EATOM  =     45086.50549395
  Solvation  Ediel_sol  =         0.00000000
  ---------------------------------------------------
  free energy    TOTEN  =      -179.45880822 eV

  energy without entropy =     -179.33250995  energy(sigma->0) =     -179.42723365


--------------------------------------------------------------------------------------------------------




--------------------------------------- Iteration      1(   7)  ---------------------------------------


    POTLOK:  cpu time   12.3864: real time   12.3871
    SETDIJ:  cpu time    0.1180: real time    0.1180
    EDDIAG:  cpu time   64.4739: real time   64.4744
  RMM-DIIS:  cpu time  209.9525: real time  209.9546
    ORTHCH:  cpu time   12.7763: real time   12.7763
       DOS:  cpu time    0.0014: real time    0.0014
    CHARGE:  cpu time   24.1603: real time   24.1634
    MIXING:  cpu time    0.4581: real time    0.4581
    --------------------------------------------
      LOOP:  cpu time  324.3270: real time  324.3334

 eigenvalue-minimisations  :   867
 total energy-change (2. order) :-0.1295504E+01  (-0.1806893E+01)
 number of electron     559.9999901 magnetization 
 augmentation part      240.5703709 magnetization 

 Broyden mixing:
  rms(total) = 0.24620E+01    rms(broyden)= 0.24618E+01
  rms(prec ) = 0.30023E+01
  weight for this iteration     100.00

 eigenvalues of (default mixing * dielectric matrix)
  average eigenvalue GAMMA=   0.2528
  0.3879  0.1177

 Free energy of the ion-electron system (eV)
  ---------------------------------------------------
  alpha Z        PSCENC =        75.25431677
  Ewald energy   TEWEN  =    137750.60251978
  -Hartree energ DENC   =   -181589.96682531
  -exchange      EXHF   =         0.00000000
  -V(xc)+E(xc)   XCENC  =     -1697.99427687
  PAW double counting   =     45652.30438204   -42149.17779085
  entropy T*S    EENTRO =         0.07521644
  eigenvalues    EBANDS =     -3308.35734830
  atomic energy  EATOM  =     45086.50549395
  Solvation  Ediel_sol  =         0.00000000
  ---------------------------------------------------
  free energy    TOTEN  =      -180.75431236 eV

  energy without entropy =     -180.82952880  energy(sigma->0) =     -180.77311647


--------------------------------------------------------------------------------------------------------




--------------------------------------- Iteration      1(   8)  ---------------------------------------


    POTLOK:  cpu time   12.3010: real time   12.3021
    SETDIJ:  cpu time    0.1195: real time    0.1195
    EDDIAG:  cpu time   64.5721: real time   64.5722
  RMM-DIIS:  cpu time  190.4668: real time  190.4695
    ORTHCH:  cpu time   12.7867: real time   12.7867
       DOS:  cpu time    0.0015: real time    0.0015
    CHARGE:  cpu time   24.1984: real time   24.1984
    MIXING:  cpu time    0.4884: real time    0.4884
    --------------------------------------------
      LOOP:  cpu time  304.9344: real time  304.9383

 eigenvalue-minimisations  :   783
 total energy-change (2. order) :-0.6940337E+00  (-0.6698525E+00)
 number of electron     559.9999884 magnetization 
 augmentation part      240.3455555 magnetization 

 Broyden mixing:
  rms(total) = 0.21204E+01    rms(broyden)= 0.21200E+01
  rms(prec ) = 0.24414E+01
  weight for this iteration     100.00

 eigenvalues of (default mixing * dielectric matrix)
  average eigenvalue GAMMA=   0.3032
  0.6561  0.1267  0.1267

 Free energy of the ion-electron system (eV)
  ---------------------------------------------------
  alpha Z        PSCENC =        75.25431677
  Ewald energy   TEWEN  =    137750.60251978
  -Hartree energ DENC   =   -181641.44883144
  -exchange      EXHF   =         0.00000000
  -V(xc)+E(xc)   XCENC  =     -1698.03798716
  PAW double counting   =     45696.84488582   -42191.60794703
  entropy T*S    EENTRO =        -0.22803582
  eigenvalues    EBANDS =     -3259.33276092
  atomic energy  EATOM  =     45086.50549395
  Solvation  Ediel_sol  =         0.00000000
  ---------------------------------------------------
  free energy    TOTEN  =      -181.44834605 eV

  energy without entropy =     -181.22031023  energy(sigma->0) =     -181.39133709


--------------------------------------------------------------------------------------------------------




--------------------------------------- Iteration      1(   9)  ---------------------------------------


    POTLOK:  cpu time   12.4819: real time   12.4842
    SETDIJ:  cpu time    0.1169: real time    0.1170
    EDDIAG:  cpu time   64.7574: real time   64.7582
  RMM-DIIS:  cpu time  177.4071: real time  177.4099
    ORTHCH:  cpu time   12.9708: real time   12.9708
       DOS:  cpu time    0.0015: real time    0.0015
    CHARGE:  cpu time   24.1004: real time   24.1022
    MIXING:  cpu time    0.5271: real time    0.5281
    --------------------------------------------
      LOOP:  cpu time  292.3631: real time  292.3718

 eigenvalue-minimisations  :   729
 total energy-change (2. order) : 0.2158554E+00  (-0.5428674E+00)
 number of electron     559.9999879 magnetization 
 augmentation part      240.8755286 magnetization 

 Broyden mixing:
  rms(total) = 0.25378E+01    rms(broyden)= 0.25375E+01
  rms(prec ) = 0.29428E+01
  weight for this iteration     100.00

 eigenvalues of (default mixing * dielectric matrix)
  average eigenvalue GAMMA=   0.2931
  0.7810  0.1487  0.1487  0.0941

 Free energy of the ion-electron system (eV)
  ---------------------------------------------------
  alpha Z        PSCENC =        75.25431677
  Ewald energy   TEWEN  =    137750.60251978
  -Hartree energ DENC   =   -181675.83371950
  -exchange      EXHF   =         0.00000000
  -V(xc)+E(xc)   XCENC  =     -1697.98024835
  PAW double counting   =     45772.96960395   -42263.98141691
  entropy T*S    EENTRO =        -0.13401272
  eigenvalues    EBANDS =     -3228.63502761
  atomic energy  EATOM  =     45086.50549395
  Solvation  Ediel_sol  =         0.00000000
  ---------------------------------------------------
  free energy    TOTEN  =      -181.23249064 eV

  energy without entropy =     -181.09847792  energy(sigma->0) =     -181.19898746


--------------------------------------------------------------------------------------------------------




--------------------------------------- Iteration      1(  10)  ---------------------------------------


    POTLOK:  cpu time   12.3050: real time   12.3070
    SETDIJ:  cpu time    0.1167: real time    0.1167
    EDDIAG:  cpu time   64.3633: real time   64.3634
  RMM-DIIS:  cpu time  177.3680: real time  177.3675
    ORTHCH:  cpu time   12.7437: real time   12.7436
       DOS:  cpu time    0.0014: real time    0.0014
    CHARGE:  cpu time   23.8539: real time   23.8537
    MIXING:  cpu time    0.5479: real time    0.5479
    --------------------------------------------
      LOOP:  cpu time  291.3000: real time  291.3011

 eigenvalue-minimisations  :   731
 total energy-change (2. order) : 0.2156704E+01  (-0.2945826E+00)
 number of electron     559.9999887 magnetization 
 augmentation part      241.3884417 magnetization 

 Broyden mixing:
  rms(total) = 0.20798E+01    rms(broyden)= 0.20794E+01
  rms(prec ) = 0.24363E+01
  weight for this iteration     100.00

 eigenvalues of (default mixing * dielectric matrix)
  average eigenvalue GAMMA=   0.2708
  0.8336  0.1638  0.1638  0.0963  0.0963

 Free energy of the ion-electron system (eV)
  ---------------------------------------------------
  alpha Z        PSCENC =        75.25431677
  Ewald energy   TEWEN  =    137750.60251978
  -Hartree energ DENC   =   -181702.93374335
  -exchange      EXHF   =         0.00000000
  -V(xc)+E(xc)   XCENC  =     -1697.85316619
  PAW double counting   =     45818.07984133   -42307.00498599
  entropy T*S    EENTRO =        -0.13959365
  eigenvalues    EBANDS =     -3201.58646909
  atomic energy  EATOM  =     45086.50549395
  Solvation  Ediel_sol  =         0.00000000
  ---------------------------------------------------
  free energy    TOTEN  =      -179.07578644 eV

  energy without entropy =     -178.93619279  energy(sigma->0) =     -179.04088803


--------------------------------------------------------------------------------------------------------




--------------------------------------- Iteration      1(  11)  ---------------------------------------


    POTLOK:  cpu time   12.4078: real time   12.4109
    SETDIJ:  cpu time    0.1161: real time    0.1161
    EDDIAG:  cpu time   64.6443: real time   64.6441
  RMM-DIIS:  cpu time  176.8069: real time  176.8077
    ORTHCH:  cpu time   12.8126: real time   12.8126
       DOS:  cpu time    0.0014: real time    0.0014
    CHARGE:  cpu time   24.0734: real time   24.0733
    MIXING:  cpu time    0.5743: real time    0.5743
    --------------------------------------------
      LOOP:  cpu time  291.4369: real time  291.4406

 eigenvalue-minimisations  :   728
 total energy-change (2. order) : 0.1301289E+01  (-0.1653500E+00)
 number of electron     559.9999901 magnetization 
 augmentation part      241.5300292 magnetization 

 Broyden mixing:
  rms(total) = 0.21336E+01    rms(broyden)= 0.21333E+01
  rms(prec ) = 0.25382E+01
  weight for this iteration     100.00

 eigenvalues of (default mixing * dielectric matrix)
  average eigenvalue GAMMA=   0.2492
  0.8642  0.1843  0.1843  0.0979  0.0979  0.0665

 Free energy of the ion-electron system (eV)
  ---------------------------------------------------
  alpha Z        PSCENC =        75.25431677
  Ewald energy   TEWEN  =    137750.60251978
  -Hartree energ DENC   =   -181723.18491543
  -exchange      EXHF   =         0.00000000
  -V(xc)+E(xc)   XCENC  =     -1697.68569647
  PAW double counting   =     45847.60203629   -42335.13362792
  entropy T*S    EENTRO =         0.06256537
  eigenvalues    EBANDS =     -3181.79718944
  atomic energy  EATOM  =     45086.50549395
  Solvation  Ediel_sol  =         0.00000000
  ---------------------------------------------------
  free energy    TOTEN  =      -177.77449709 eV

  energy without entropy =     -177.83706247  energy(sigma->0) =     -177.79013844


--------------------------------------------------------------------------------------------------------




--------------------------------------- Iteration      1(  12)  ---------------------------------------


    POTLOK:  cpu time   12.3711: real time   12.3740
    SETDIJ:  cpu time    0.1181: real time    0.1181
    EDDIAG:  cpu time   64.5502: real time   64.5506
  RMM-DIIS:  cpu time  175.8611: real time  175.8617
    ORTHCH:  cpu time   12.7689: real time   12.7688
       DOS:  cpu time    0.0015: real time    0.0015
    CHARGE:  cpu time   23.9499: real time   23.9498
    MIXING:  cpu time    0.6157: real time    0.6157
    --------------------------------------------
      LOOP:  cpu time  290.2366: real time  290.2402

 eigenvalue-minimisations  :   723
 total energy-change (2. order) : 0.1314919E+01  (-0.9466403E-01)
 number of electron     559.9999890 magnetization 
 augmentation part      241.5547916 magnetization 

 Broyden mixing:
  rms(total) = 0.13269E+01    rms(broyden)= 0.13266E+01
  rms(prec ) = 0.15388E+01
  weight for this iteration     100.00

 eigenvalues of (default mixing * dielectric matrix)
  average eigenvalue GAMMA=   0.2500
  0.9195  0.2304  0.2304  0.1071  0.1071  0.1008  0.0546

 Free energy of the ion-electron system (eV)
  ---------------------------------------------------
  alpha Z        PSCENC =        75.25431677
  Ewald energy   TEWEN  =    137750.60251978
  -Hartree energ DENC   =   -181739.06521274
  -exchange      EXHF   =         0.00000000
  -V(xc)+E(xc)   XCENC  =     -1697.56643717
  PAW double counting   =     45866.86924178   -42353.43060521
  entropy T*S    EENTRO =        -0.11766043
  eigenvalues    EBANDS =     -3165.51123524
  atomic energy  EATOM  =     45086.50549395
  Solvation  Ediel_sol  =         0.00000000
  ---------------------------------------------------
  free energy    TOTEN  =      -176.45957852 eV

  energy without entropy =     -176.34191809  energy(sigma->0) =     -176.43016341


--------------------------------------------------------------------------------------------------------




--------------------------------------- Iteration      1(  13)  ---------------------------------------


    POTLOK:  cpu time   12.4240: real time   12.4272
    SETDIJ:  cpu time    0.1188: real time    0.1188
    EDDIAG:  cpu time   64.5265: real time   64.5272
  RMM-DIIS:  cpu time  176.4951: real time  176.4973
    ORTHCH:  cpu time   12.9455: real time   12.9455
       DOS:  cpu time    0.0014: real time    0.0014
    CHARGE:  cpu time   24.1018: real time   24.1018
    MIXING:  cpu time    0.7057: real time    0.7057
    --------------------------------------------
      LOOP:  cpu time  291.3188: real time  291.3250

 eigenvalue-minimisations  :   721
 total energy-change (2. order) : 0.4419034E+00  (-0.1035137E+00)
 number of electron     559.9999880 magnetization 
 augmentation part      241.6565992 magnetization 

 Broyden mixing:
  rms(total) = 0.14610E+01    rms(broyden)= 0.14607E+01
  rms(prec ) = 0.17300E+01
  weight for this iteration     100.00

 eigenvalues of (default mixing * dielectric matrix)
  average eigenvalue GAMMA=   0.2534
  0.9607  0.2956  0.2956  0.1113  0.1113  0.1152  0.0847  0.0525

 Free energy of the ion-electron system (eV)
  ---------------------------------------------------
  alpha Z        PSCENC =        75.25431677
  Ewald energy   TEWEN  =    137750.60251978
  -Hartree energ DENC   =   -181756.57535857
  -exchange      EXHF   =         0.00000000
  -V(xc)+E(xc)   XCENC  =     -1697.28420872
  PAW double counting   =     45897.95031607   -42382.84112733
  entropy T*S    EENTRO =        -0.10538008
  eigenvalues    EBANDS =     -3149.52424703
  atomic energy  EATOM  =     45086.50549395
  Solvation  Ediel_sol  =         0.00000000
  ---------------------------------------------------
  free energy    TOTEN  =      -176.01767516 eV

  energy without entropy =     -175.91229508  energy(sigma->0) =     -175.99133014


--------------------------------------------------------------------------------------------------------




--------------------------------------- Iteration      1(  14)  ---------------------------------------


    POTLOK:  cpu time   12.4412: real time   12.4441
    SETDIJ:  cpu time    0.1194: real time    0.1194
    EDDIAG:  cpu time   65.1979: real time   65.1983
  RMM-DIIS:  cpu time  172.4929: real time  172.4943
    ORTHCH:  cpu time   12.9245: real time   12.9243
       DOS:  cpu time    0.0015: real time    0.0015
    CHARGE:  cpu time   24.1285: real time   24.1283
    MIXING:  cpu time    0.6711: real time    0.6711
    --------------------------------------------
      LOOP:  cpu time  287.9770: real time  287.9812

 eigenvalue-minimisations  :   715
 total energy-change (2. order) : 0.3058294E-01  (-0.9171819E-01)
 number of electron     559.9999896 magnetization 
 augmentation part      241.5360985 magnetization 

 Broyden mixing:
  rms(total) = 0.19298E+01    rms(broyden)= 0.19295E+01
  rms(prec ) = 0.23119E+01
  weight for this iteration     100.00

 eigenvalues of (default mixing * dielectric matrix)
  average eigenvalue GAMMA=   0.2561
  1.0029  0.4551  0.2950  0.1168  0.1168  0.0975  0.0872  0.0872  0.0465

 Free energy of the ion-electron system (eV)
  ---------------------------------------------------
  alpha Z        PSCENC =        75.25431677
  Ewald energy   TEWEN  =    137750.60251978
  -Hartree energ DENC   =   -181784.09372184
  -exchange      EXHF   =         0.00000000
  -V(xc)+E(xc)   XCENC  =     -1696.91296506
  PAW double counting   =     45934.53165786   -42417.41013396
  entropy T*S    EENTRO =         0.04505244
  eigenvalues    EBANDS =     -3124.50931215
  atomic energy  EATOM  =     45086.50549395
  Solvation  Ediel_sol  =         0.00000000
  ---------------------------------------------------
  free energy    TOTEN  =      -175.98709222 eV

  energy without entropy =     -176.03214466  energy(sigma->0) =     -175.99835533


--------------------------------------------------------------------------------------------------------




--------------------------------------- Iteration      1(  15)  ---------------------------------------


    POTLOK:  cpu time   12.3027: real time   12.3032
    SETDIJ:  cpu time    0.1195: real time    0.1195
    EDDIAG:  cpu time   65.2214: real time   65.2211
  RMM-DIIS:  cpu time  176.0525: real time  176.0535
    ORTHCH:  cpu time   12.8482: real time   12.8482
       DOS:  cpu time    0.0014: real time    0.0014
    CHARGE:  cpu time   24.0623: real time   24.0621
    MIXING:  cpu time    0.7353: real time    0.7353
    --------------------------------------------
      LOOP:  cpu time  291.3434: real time  291.3444

 eigenvalue-minimisations  :   720
 total energy-change (2. order) : 0.5218454E+00  (-0.8025970E-01)
 number of electron     559.9999893 magnetization 
 augmentation part      241.3231981 magnetization 

 Broyden mixing:
  rms(total) = 0.14675E+01    rms(broyden)= 0.14672E+01
  rms(prec ) = 0.17127E+01
  weight for this iteration     100.00

 eigenvalues of (default mixing * dielectric matrix)
  average eigenvalue GAMMA=   0.2738
  1.1485  0.6382  0.2699  0.1440  0.1440  0.0943  0.0943  0.0985  0.0593  0.0471

 Free energy of the ion-electron system (eV)
  ---------------------------------------------------
  alpha Z        PSCENC =        75.25431677
  Ewald energy   TEWEN  =    137750.60251978
  -Hartree energ DENC   =   -181815.46477252
  -exchange      EXHF   =         0.00000000
  -V(xc)+E(xc)   XCENC  =     -1696.51576902
  PAW double counting   =     45969.89551139   -42450.80306550
  entropy T*S    EENTRO =        -0.08780276
  eigenvalues    EBANDS =     -3094.85167890
  atomic energy  EATOM  =     45086.50549395
  Solvation  Ediel_sol  =         0.00000000
  ---------------------------------------------------
  free energy    TOTEN  =      -175.46524680 eV

  energy without entropy =     -175.37744405  energy(sigma->0) =     -175.44329612


--------------------------------------------------------------------------------------------------------




--------------------------------------- Iteration      1(  16)  ---------------------------------------


    POTLOK:  cpu time   12.4594: real time   12.4622
    SETDIJ:  cpu time    0.1166: real time    0.1166
    EDDIAG:  cpu time   64.9667: real time   64.9666
  RMM-DIIS:  cpu time  174.4765: real time  174.4770
    ORTHCH:  cpu time   12.8092: real time   12.8092
       DOS:  cpu time    0.0015: real time    0.0015
    CHARGE:  cpu time   24.0991: real time   24.0989
    MIXING:  cpu time    0.7579: real time    0.7588
    --------------------------------------------
      LOOP:  cpu time  289.6869: real time  289.6907

 eigenvalue-minimisations  :   717
 total energy-change (2. order) : 0.1828485E+00  (-0.9053293E-01)
 number of electron     559.9999895 magnetization 
 augmentation part      241.2246093 magnetization 

 Broyden mixing:
  rms(total) = 0.15811E+01    rms(broyden)= 0.15809E+01
  rms(prec ) = 0.18403E+01
  weight for this iteration     100.00

 eigenvalues of (default mixing * dielectric matrix)
  average eigenvalue GAMMA=   0.2877
  1.3423  0.7614  0.1962  0.1962  0.1932  0.0937  0.0937  0.0919  0.0919  0.0578
  0.0466

 Free energy of the ion-electron system (eV)
  ---------------------------------------------------
  alpha Z        PSCENC =        75.25431677
  Ewald energy   TEWEN  =    137750.60251978
  -Hartree energ DENC   =   -181847.40584154
  -exchange      EXHF   =         0.00000000
  -V(xc)+E(xc)   XCENC  =     -1696.02090026
  PAW double counting   =     46013.12278871   -42491.49714065
  entropy T*S    EENTRO =        -0.03134904
  eigenvalues    EBANDS =     -3065.81228599
  atomic energy  EATOM  =     45086.50549395
  Solvation  Ediel_sol  =         0.00000000
  ---------------------------------------------------
  free energy    TOTEN  =      -175.28239827 eV

  energy without entropy =     -175.25104923  energy(sigma->0) =     -175.27456101


--------------------------------------------------------------------------------------------------------




--------------------------------------- Iteration      1(  17)  ---------------------------------------


    POTLOK:  cpu time   12.3747: real time   12.3778
    SETDIJ:  cpu time    0.1164: real time    0.1164
    EDDIAG:  cpu time   64.8978: real time   64.8977
  RMM-DIIS:  cpu time  173.9985: real time  173.9994
    ORTHCH:  cpu time   12.8671: real time   12.8670
       DOS:  cpu time    0.0015: real time    0.0015
    CHARGE:  cpu time   24.0404: real time   24.0403
    MIXING:  cpu time    0.8036: real time    0.8036
    --------------------------------------------
      LOOP:  cpu time  289.1000: real time  289.1038

 eigenvalue-minimisations  :   715
 total energy-change (2. order) : 0.2355279E+00  (-0.7638316E-01)
 number of electron     559.9999888 magnetization 
 augmentation part      241.1399687 magnetization 

 Broyden mixing:
  rms(total) = 0.16885E+01    rms(broyden)= 0.16883E+01
  rms(prec ) = 0.20279E+01
  weight for this iteration     100.00

 eigenvalues of (default mixing * dielectric matrix)
  average eigenvalue GAMMA=   0.2874
  1.4057  0.8248  0.2454  0.2454  0.1744  0.1057  0.1057  0.0843  0.0843  0.0737
  0.0539  0.0454

 Free energy of the ion-electron system (eV)
  ---------------------------------------------------
  alpha Z        PSCENC =        75.25431677
  Ewald energy   TEWEN  =    137750.60251978
  -Hartree energ DENC   =   -181876.26876636
  -exchange      EXHF   =         0.00000000
  -V(xc)+E(xc)   XCENC  =     -1695.58580769
  PAW double counting   =     46050.12620937   -42526.33341237
  entropy T*S    EENTRO =         0.06511219
  eigenvalues    EBANDS =     -3039.41253600
  atomic energy  EATOM  =     45086.50549395
  Solvation  Ediel_sol  =         0.00000000
  ---------------------------------------------------
  free energy    TOTEN  =      -175.04687037 eV

  energy without entropy =     -175.11198255  energy(sigma->0) =     -175.06314841


--------------------------------------------------------------------------------------------------------




--------------------------------------- Iteration      1(  18)  ---------------------------------------


    POTLOK:  cpu time   12.5922: real time   12.5950
    SETDIJ:  cpu time    0.1173: real time    0.1173
    EDDIAG:  cpu time   64.5640: real time   64.5637
  RMM-DIIS:  cpu time  176.1020: real time  176.1043
    ORTHCH:  cpu time   12.8793: real time   12.8792
       DOS:  cpu time    0.0014: real time    0.0014
    CHARGE:  cpu time   24.2386: real time   24.2384
    MIXING:  cpu time    0.8627: real time    0.8627
    --------------------------------------------
      LOOP:  cpu time  291.3574: real time  291.3620

 eigenvalue-minimisations  :   719
 total energy-change (2. order) : 0.3267476E+00  (-0.4567087E-01)
 number of electron     559.9999902 magnetization 
 augmentation part      241.0930790 magnetization 

 Broyden mixing:
  rms(total) = 0.12252E+01    rms(broyden)= 0.12251E+01
  rms(prec ) = 0.14475E+01
  weight for this iteration     100.00

 eigenvalues of (default mixing * dielectric matrix)
  average eigenvalue GAMMA=   0.2919
  1.4757  0.8786  0.3100  0.3100  0.1477  0.1236  0.1236  0.0882  0.0882  0.0870
  0.0661  0.0510  0.0449

 Free energy of the ion-electron system (eV)
  ---------------------------------------------------
  alpha Z        PSCENC =        75.25431677
  Ewald energy   TEWEN  =    137750.60251978
  -Hartree energ DENC   =   -181891.64516054
  -exchange      EXHF   =         0.00000000
  -V(xc)+E(xc)   XCENC  =     -1695.39855932
  PAW double counting   =     46064.03736811   -42539.26992600
  entropy T*S    EENTRO =         0.00291820
  eigenvalues    EBANDS =     -3024.80909375
  atomic energy  EATOM  =     45086.50549395
  Solvation  Ediel_sol  =         0.00000000
  ---------------------------------------------------
  free energy    TOTEN  =      -174.72012281 eV

  energy without entropy =     -174.72304101  energy(sigma->0) =     -174.72085236


--------------------------------------------------------------------------------------------------------




--------------------------------------- Iteration      1(  19)  ---------------------------------------


    POTLOK:  cpu time   12.4887: real time   12.4921
    SETDIJ:  cpu time    0.1198: real time    0.1198
    EDDIAG:  cpu time   64.9026: real time   64.9025
  RMM-DIIS:  cpu time  175.0217: real time  175.0240
    ORTHCH:  cpu time   12.8719: real time   12.8717
       DOS:  cpu time    0.0014: real time    0.0014
    CHARGE:  cpu time   24.2388: real time   24.2385
    MIXING:  cpu time    0.9336: real time    0.9336
    --------------------------------------------
      LOOP:  cpu time  290.5785: real time  290.5836

 eigenvalue-minimisations  :   716
 total energy-change (2. order) : 0.1726596E+00  (-0.3800112E-01)
 number of electron     559.9999907 magnetization 
 augmentation part      241.1552794 magnetization 

 Broyden mixing:
  rms(total) = 0.11056E+01    rms(broyden)= 0.11053E+01
  rms(prec ) = 0.12739E+01
  weight for this iteration     100.00

 eigenvalues of (default mixing * dielectric matrix)
  average eigenvalue GAMMA=   0.2941
  1.4942  1.0040  0.3509  0.3509  0.1500  0.1500  0.1011  0.1011  0.0881  0.0881
  0.0810  0.0627  0.0507  0.0450

 Free energy of the ion-electron system (eV)
  ---------------------------------------------------
  alpha Z        PSCENC =        75.25431677
  Ewald energy   TEWEN  =    137750.60251978
  -Hartree energ DENC   =   -181904.78807606
  -exchange      EXHF   =         0.00000000
  -V(xc)+E(xc)   XCENC  =     -1695.23426236
  PAW double counting   =     46072.75025943   -42547.08481349
  entropy T*S    EENTRO =         0.00189019
  eigenvalues    EBANDS =     -3012.55479143
  atomic energy  EATOM  =     45086.50549395
  Solvation  Ediel_sol  =         0.00000000
  ---------------------------------------------------
  free energy    TOTEN  =      -174.54746323 eV

  energy without entropy =     -174.54935342  energy(sigma->0) =     -174.54793578


--------------------------------------------------------------------------------------------------------




--------------------------------------- Iteration      1(  20)  ---------------------------------------


    POTLOK:  cpu time   12.5262: real time   12.5289
    SETDIJ:  cpu time    0.1198: real time    0.1198
    EDDIAG:  cpu time   65.1482: real time   65.1499
  RMM-DIIS:  cpu time  175.0381: real time  175.0381
    ORTHCH:  cpu time   12.8347: real time   12.8345
       DOS:  cpu time    0.0015: real time    0.0015
    CHARGE:  cpu time   24.4512: real time   24.4510
    MIXING:  cpu time    0.9740: real time    0.9740
    --------------------------------------------
      LOOP:  cpu time  291.0936: real time  291.0978

 eigenvalue-minimisations  :   717
 total energy-change (2. order) : 0.1930154E+00  (-0.2952916E-01)
 number of electron     559.9999909 magnetization 
 augmentation part      241.1505508 magnetization 

 Broyden mixing:
  rms(total) = 0.10206E+01    rms(broyden)= 0.10204E+01
  rms(prec ) = 0.11770E+01
  weight for this iteration     100.00

 eigenvalues of (default mixing * dielectric matrix)
  average eigenvalue GAMMA=   0.2956
  1.5302  1.1048  0.3745  0.3745  0.1733  0.1733  0.1061  0.1061  0.0874  0.0874
  0.0827  0.0827  0.0572  0.0482  0.0448

 Free energy of the ion-electron system (eV)
  ---------------------------------------------------
  alpha Z        PSCENC =        75.25431677
  Ewald energy   TEWEN  =    137750.60251978
  -Hartree energ DENC   =   -181920.24299309
  -exchange      EXHF   =         0.00000000
  -V(xc)+E(xc)   XCENC  =     -1695.06224295
  PAW double counting   =     46079.22101112   -42552.67839734
  entropy T*S    EENTRO =         0.00188224
  eigenvalues    EBANDS =     -2997.95603834
  atomic energy  EATOM  =     45086.50549395
  Solvation  Ediel_sol  =         0.00000000
  ---------------------------------------------------
  free energy    TOTEN  =      -174.35444786 eV

  energy without entropy =     -174.35633010  energy(sigma->0) =     -174.35491842


--------------------------------------------------------------------------------------------------------




--------------------------------------- Iteration      1(  21)  ---------------------------------------


    POTLOK:  cpu time   12.3279: real time   12.3298
    SETDIJ:  cpu time    0.1157: real time    0.1157
    EDDIAG:  cpu time   64.6708: real time   64.6707
  RMM-DIIS:  cpu time  173.0398: real time  173.0404
    ORTHCH:  cpu time   12.7897: real time   12.7895
       DOS:  cpu time    0.0015: real time    0.0015
    CHARGE:  cpu time   24.2897: real time   24.2894
    MIXING:  cpu time    1.0065: real time    1.0065
    --------------------------------------------
      LOOP:  cpu time  288.2417: real time  288.2435

 eigenvalue-minimisations  :   713
 total energy-change (2. order) : 0.2197968E+00  (-0.2191313E-01)
 number of electron     559.9999908 magnetization 
 augmentation part      241.1580345 magnetization 

 Broyden mixing:
  rms(total) = 0.88785E+00    rms(broyden)= 0.88772E+00
  rms(prec ) = 0.10326E+01
  weight for this iteration     100.00

 eigenvalues of (default mixing * dielectric matrix)
  average eigenvalue GAMMA=   0.3038
  1.7267  1.0412  0.4366  0.4366  0.2014  0.2014  0.1204  0.1204  0.0892  0.0892
  0.0865  0.0819  0.0819  0.0554  0.0480  0.0448

 Free energy of the ion-electron system (eV)
  ---------------------------------------------------
  alpha Z        PSCENC =        75.25431677
  Ewald energy   TEWEN  =    137750.60251978
  -Hartree energ DENC   =   -181934.32655286
  -exchange      EXHF   =         0.00000000
  -V(xc)+E(xc)   XCENC  =     -1694.91376032
  PAW double counting   =     46084.15466615   -42556.87344467
  entropy T*S    EENTRO =        -0.00430448
  eigenvalues    EBANDS =     -2984.53358543
  atomic energy  EATOM  =     45086.50549395
  Solvation  Ediel_sol  =         0.00000000
  ---------------------------------------------------
  free energy    TOTEN  =      -174.13465110 eV

  energy without entropy =     -174.13034663  energy(sigma->0) =     -174.13357498


--------------------------------------------------------------------------------------------------------




--------------------------------------- Iteration      1(  22)  ---------------------------------------


    POTLOK:  cpu time   12.5102: real time   12.5122
    SETDIJ:  cpu time    0.1186: real time    0.1186
    EDDIAG:  cpu time   64.6779: real time   64.6775
  RMM-DIIS:  cpu time  173.6685: real time  173.6692
    ORTHCH:  cpu time   12.9165: real time   12.9163
       DOS:  cpu time    0.0015: real time    0.0015
    CHARGE:  cpu time   24.2378: real time   24.2376
    MIXING:  cpu time    1.0892: real time    1.0892
    --------------------------------------------
      LOOP:  cpu time  289.2202: real time  289.2219

 eigenvalue-minimisations  :   714
 total energy-change (2. order) : 0.5064668E-01  (-0.1760325E-01)
 number of electron     559.9999901 magnetization 
 augmentation part      241.1848765 magnetization 

 Broyden mixing:
  rms(total) = 0.86731E+00    rms(broyden)= 0.86720E+00
  rms(prec ) = 0.10149E+01
  weight for this iteration     100.00

 eigenvalues of (default mixing * dielectric matrix)
  average eigenvalue GAMMA=   0.3096
  1.8212  1.0669  0.5191  0.5191  0.2127  0.2127  0.1236  0.1236  0.0875  0.0875
  0.0956  0.0956  0.0865  0.0650  0.0540  0.0450  0.0472

 Free energy of the ion-electron system (eV)
  ---------------------------------------------------
  alpha Z        PSCENC =        75.25431677
  Ewald energy   TEWEN  =    137750.60251978
  -Hartree energ DENC   =   -181946.81194902
  -exchange      EXHF   =         0.00000000
  -V(xc)+E(xc)   XCENC  =     -1694.76118649
  PAW double counting   =     46090.28682508   -42562.23217859
  entropy T*S    EENTRO =        -0.01398050
  eigenvalues    EBANDS =     -2972.91386541
  atomic energy  EATOM  =     45086.50549395
  Solvation  Ediel_sol  =         0.00000000
  ---------------------------------------------------
  free energy    TOTEN  =      -174.08400443 eV

  energy without entropy =     -174.07002393  energy(sigma->0) =     -174.08050930


--------------------------------------------------------------------------------------------------------




--------------------------------------- Iteration      1(  23)  ---------------------------------------


    POTLOK:  cpu time   12.3745: real time   12.3749
    SETDIJ:  cpu time    0.1180: real time    0.1180
    EDDIAG:  cpu time   64.8704: real time   64.8702
  RMM-DIIS:  cpu time  174.6233: real time  174.6241
    ORTHCH:  cpu time   12.9583: real time   12.9582
       DOS:  cpu time    0.0015: real time    0.0015
    CHARGE:  cpu time   24.3058: real time   24.3055
    MIXING:  cpu time    1.1458: real time    1.1458
    --------------------------------------------
      LOOP:  cpu time  290.3976: real time  290.3981

 eigenvalue-minimisations  :   711
 total energy-change (2. order) : 0.1405611E+00  (-0.1630745E-01)
 number of electron     559.9999906 magnetization 
 augmentation part      241.1750812 magnetization 

 Broyden mixing:
  rms(total) = 0.55998E+00    rms(broyden)= 0.55982E+00
  rms(prec ) = 0.64989E+00
  weight for this iteration     100.00

 eigenvalues of (default mixing * dielectric matrix)
  average eigenvalue GAMMA=   0.3175
  1.8833  1.1954  0.5623  0.5623  0.2098  0.2098  0.1976  0.1177  0.1177  0.0880
[...]
 -0.006  -0.012   0.004   0.004   0.006  -0.006  -0.012   0.004
 -0.011  -0.021   0.006   0.007   0.009  -0.010  -0.020   0.006
 -0.015  -0.005   0.013   0.000   0.022  -0.014  -0.005   0.012
  0.000  -0.023  -0.006  -0.015  -0.000   0.000  -0.022  -0.006
 -0.022   0.000   0.009  -0.005  -0.016  -0.021   0.000   0.008
 -0.017  -0.006   0.015   0.000   0.027  -0.017  -0.006   0.015
  0.000  -0.027  -0.007  -0.018  -0.000   0.000  -0.027  -0.007
 -0.027   0.000   0.010  -0.006  -0.019  -0.026   0.000   0.010
 total augmentation occupancy for first ion, spin component:           1
  1.537  -0.030   0.005   0.017   0.024   0.076  -0.008  -0.002   0.036  -0.010   0.092  -0.031   0.012   0.002   0.002  -0.019
 -0.030   1.401   0.029   0.070  -0.001  -0.007   0.071   0.011  -0.014  -0.008   0.220  -0.066   0.019   0.002   0.002  -0.006
  0.005   0.029   1.543   0.002   0.002  -0.002   0.013   0.074  -0.012   0.017  -0.053   0.018  -0.003  -0.007  -0.005   0.016
  0.017   0.070   0.002   1.338   0.044   0.033  -0.013  -0.012   0.091  -0.023  -0.081   0.021  -0.001  -0.008  -0.004   0.001
  0.024  -0.001   0.002   0.044   1.440  -0.010  -0.008   0.016  -0.022   0.067  -0.095   0.031  -0.003  -0.009  -0.010   0.026
  0.076  -0.007  -0.002   0.033  -0.010   0.217   0.019  -0.002  -0.045   0.004  -0.048   0.002   0.017  -0.010   0.034  -0.004
 -0.008   0.071   0.013  -0.013  -0.008   0.019   0.263  -0.023  -0.003   0.006  -0.109   0.007  -0.001   0.051  -0.010  -0.000
 -0.002   0.011   0.074  -0.012   0.016  -0.002  -0.023   0.215   0.014  -0.020   0.028  -0.001  -0.012   0.009  -0.018   0.003
  0.036  -0.014  -0.012   0.091  -0.022  -0.045  -0.003   0.014   0.260   0.007   0.043  -0.004  -0.009   0.036   0.004   0.000
 -0.010  -0.008   0.017  -0.023   0.067   0.004   0.006  -0.020   0.007   0.258   0.046  -0.002  -0.038   0.002   0.049   0.007
  0.092   0.220  -0.053  -0.081  -0.095  -0.048  -0.109   0.028   0.043   0.046   0.951  -0.141   0.084   0.014   0.064  -0.013
 -0.031  -0.066   0.018   0.021   0.031   0.002   0.007  -0.001  -0.004  -0.002  -0.141   0.023  -0.014  -0.003  -0.010   0.003
  0.012   0.019  -0.003  -0.001  -0.003   0.017  -0.001  -0.012  -0.009  -0.038   0.084  -0.014   0.029  -0.008  -0.004  -0.003
  0.002   0.002  -0.007  -0.008  -0.009  -0.010   0.051   0.009   0.036   0.002   0.014  -0.003  -0.008   0.036   0.004   0.000
  0.002   0.002  -0.005  -0.004  -0.010   0.034  -0.010  -0.018   0.004   0.049   0.064  -0.010  -0.004   0.004   0.035  -0.000
 -0.019  -0.006   0.016   0.001   0.026  -0.004  -0.000   0.003   0.000   0.007  -0.013   0.003  -0.003   0.000  -0.000   0.001
  0.001  -0.028  -0.007  -0.018   0.001   0.001  -0.008  -0.001  -0.006  -0.000  -0.003   0.001   0.000  -0.003  -0.000   0.000
 -0.028   0.001   0.012  -0.005  -0.019  -0.006   0.001   0.003  -0.001  -0.007  -0.008   0.001  -0.000  -0.000  -0.003   0.000


------------------------ aborting loop because EDIFF is reached ----------------------------------------


    CHARGE:  cpu time   25.7302: real time   25.7341
    FORLOC:  cpu time    6.7129: real time    6.7130
    FORNL :  cpu time   63.9003: real time   63.9008
    STRESS:  cpu time  199.4708: real time  199.4741
    FORCOR:  cpu time   21.5755: real time   21.5756
    FORHAR:  cpu time    9.5327: real time    9.5327
    MIXING:  cpu time    3.7239: real time    3.7240
    OFIELD:  cpu time    0.0000: real time    0.0000

  FORCE on cell =-STRESS in cart. coord.  units (eV):
  Direction    XX          YY          ZZ          XY          YZ          ZX
  --------------------------------------------------------------------------------------
  Alpha Z    75.25432    75.25432    75.25432
  Ewald   43939.90017 43836.42785 49974.16886   -23.02042   176.44446  -537.40324
  Hartree 58848.97893 58755.44802 64523.82128   -20.66176   160.43190  -490.28386
  E(xc)   -2904.78166 -2904.88530 -2902.90885    -0.03401     0.12664    -0.35350
  Local  ************************************    43.29854  -335.15820  1022.57611
  n-local  -882.32616  -881.74420  -894.38044     0.14694    -0.75089     2.23475
  augment  4104.11440  4104.17335  4103.00955     0.06223    -0.07806     0.18876
  Kinetic  7809.60504  7810.17807  7791.01126     0.26023    -1.08546     3.16583
  Fock        0.00000     0.00000     0.00000     0.00000     0.00000     0.00000
  -------------------------------------------------------------------------------------
  Total    -113.82216  -113.68022  -112.27303     0.05175    -0.06961     0.12486
  in kB      -6.75420    -6.74577    -6.66227     0.00307    -0.00413     0.00741
  external pressure =       -6.72 kB  Pullay stress =        0.00 kB


 VOLUME and BASIS-vectors are now :
 -----------------------------------------------------------------------------
  energy-cutoff  :      400.00
  volume of cell :    27000.00
      direct lattice vectors                 reciprocal lattice vectors
    30.000000000  0.000000000  0.000000000     0.033333333  0.000000000  0.000000000
     0.000000000 30.000000000  0.000000000     0.000000000  0.033333333  0.000000000
     0.000000000  0.000000000 30.000000000     0.000000000  0.000000000  0.033333333

  length of vectors
    30.000000000 30.000000000 30.000000000     0.033333333  0.033333333  0.033333333


 FORCES acting on ions
    electron-ion (+dipol)            ewald-force                    non-local-force                 convergence-correction
 -----------------------------------------------------------------------------------------------
   0.394E+03 0.974E+03 0.421E+03   -.392E+03 -.971E+03 -.421E+03   -.150E+01 -.182E+01 -.220E+00   -.964E-03 0.506E-02 -.125E-02
   -.974E+03 -.394E+03 0.421E+03   0.971E+03 0.392E+03 -.420E+03   0.182E+01 0.150E+01 -.225E+00   -.115E-02 -.173E-03 -.448E-02
   -.395E+03 0.974E+03 0.421E+03   0.393E+03 -.971E+03 -.420E+03   0.150E+01 -.182E+01 -.227E+00   -.452E-02 0.825E-03 -.172E-02
   0.973E+03 -.395E+03 0.422E+03   -.970E+03 0.392E+03 -.422E+03   -.182E+01 0.150E+01 -.215E+00   0.346E-02 -.290E-02 0.610E-03
   -.664E+00 0.588E+03 0.966E+03   0.668E+00 -.587E+03 -.963E+03   0.157E-03 -.309E+00 -.235E+01   -.472E-02 0.883E-03 0.666E-03
   -.105E+02 0.621E+03 -.932E+03   0.106E+02 -.620E+03 0.928E+03   -.118E-02 -.279E+00 0.234E+01   -.442E-02 -.873E-03 -.601E-03
   -.113E+01 0.114E+04 0.721E+01   0.113E+01 -.113E+04 -.721E+01   -.205E-02 -.311E+01 -.369E-03   -.159E-02 0.291E-02 -.200E-02
   0.114E+04 0.496E+00 0.994E+01   -.113E+04 -.495E+00 -.993E+01   -.310E+01 0.322E-03 -.489E-02   0.313E-02 -.104E-02 -.145E-02
   -.114E+04 0.322E+00 0.625E+01   0.113E+04 -.323E+00 -.625E+01   0.311E+01 0.718E-03 0.221E-02   0.222E-02 -.493E-03 -.565E-02
   -.130E+01 -.114E+04 0.837E+01   0.130E+01 0.113E+04 -.837E+01   -.194E-02 0.311E+01 -.176E-02   -.301E-03 -.123E-02 -.226E-02
   -.580E+03 0.579E+03 0.814E+03   0.577E+03 -.577E+03 -.811E+03   0.156E+01 -.156E+01 -.220E+01   -.311E-02 0.343E-03 0.316E-03
   -.597E+03 0.593E+03 -.797E+03   0.594E+03 -.591E+03 0.793E+03   0.156E+01 -.156E+01 0.220E+01   -.738E-04 -.241E-02 0.199E-02
   0.579E+03 -.579E+03 0.815E+03   -.576E+03 0.577E+03 -.811E+03   -.155E+01 0.156E+01 -.220E+01   0.166E-02 -.610E-02 0.376E-02
   0.600E+03 -.609E+03 -.775E+03   -.598E+03 0.606E+03 0.772E+03   -.155E+01 0.155E+01 0.218E+01   -.495E-02 -.322E-02 -.903E-03
   0.579E+03 0.579E+03 0.814E+03   -.576E+03 -.577E+03 -.811E+03   -.155E+01 -.156E+01 -.220E+01   0.219E-02 0.276E-02 0.223E-02
   0.595E+03 0.607E+03 -.784E+03   -.593E+03 -.605E+03 0.780E+03   -.155E+01 -.156E+01 0.219E+01   -.356E-02 0.247E-02 -.190E-02
   -.580E+03 -.579E+03 0.814E+03   0.577E+03 0.577E+03 -.811E+03   0.156E+01 0.156E+01 -.220E+01   -.236E-02 -.933E-03 0.109E-02
   -.600E+03 -.593E+03 -.794E+03   0.598E+03 0.590E+03 0.790E+03   0.156E+01 0.156E+01 0.220E+01   0.182E-02 0.905E-03 0.145E-02
   0.395E+03 0.984E+03 -.401E+03   -.393E+03 -.981E+03 0.400E+03   -.150E+01 -.182E+01 0.218E+00   -.367E-02 0.225E-02 -.287E-02
   -.983E+03 -.396E+03 -.404E+03   0.980E+03 0.394E+03 0.404E+03   0.182E+01 0.150E+01 0.217E+00   0.290E-02 0.366E-03 -.667E-03
   -.323E+03 0.322E+03 0.460E+03   0.323E+03 -.323E+03 -.460E+03   -.367E+00 0.367E+00 0.517E+00   -.480E-02 -.116E-02 -.527E-02
   0.973E+03 0.395E+03 0.422E+03   -.970E+03 -.393E+03 -.422E+03   -.182E+01 -.150E+01 -.217E+00   0.409E-02 0.573E-03 -.595E-03
   -.396E+03 -.973E+03 0.421E+03   0.393E+03 0.971E+03 -.421E+03   0.150E+01 0.182E+01 -.224E+00   -.547E-03 -.388E-02 -.369E-02
   -.400E+03 0.982E+03 -.403E+03   0.397E+03 -.979E+03 0.403E+03   0.150E+01 -.182E+01 0.214E+00   -.214E-02 -.229E-02 -.188E-02
   0.985E+03 -.398E+03 -.394E+03   -.982E+03 0.396E+03 0.394E+03   -.183E+01 0.151E+01 0.213E+00   0.562E-03 -.293E-02 -.994E-03
   -.974E+03 0.395E+03 0.420E+03   0.971E+03 -.393E+03 -.420E+03   0.182E+01 -.150E+01 -.227E+00   0.162E-02 0.100E-02 -.275E-02
   0.394E+03 -.974E+03 0.422E+03   -.392E+03 0.971E+03 -.421E+03   -.150E+01 0.182E+01 -.217E+00   0.731E-03 -.597E-02 0.319E-03
   0.321E+03 0.323E+03 0.461E+03   -.321E+03 -.323E+03 -.461E+03   0.365E+00 0.365E+00 0.522E+00   -.420E-02 -.862E-03 -.413E-02
   -.197E+01 0.644E+03 0.131E+02   0.198E+01 -.645E+03 -.131E+02   -.889E-03 0.734E+00 -.154E-02   -.638E-02 -.305E-02 -.417E-02
   -.588E+03 0.205E+00 0.966E+03   0.587E+03 -.207E+00 -.962E+03   0.309E+00 -.201E-03 -.235E+01   -.143E-02 0.268E-02 0.106E-02
   -.618E+03 0.261E+01 -.940E+03   0.617E+03 -.261E+01 0.936E+03   0.301E+00 -.371E-03 0.235E+01   -.174E-03 -.235E-02 0.409E-02
   0.587E+03 0.242E+00 0.967E+03   -.586E+03 -.239E+00 -.963E+03   -.309E+00 -.253E-03 -.235E+01   0.173E-02 -.252E-02 0.428E-02
   0.631E+03 0.708E+01 -.899E+03   -.630E+03 -.708E+01 0.895E+03   -.158E+00 0.119E-01 0.236E+01   -.312E-02 -.351E-02 -.119E-02
   0.763E+03 0.765E+03 0.120E+02   -.761E+03 -.763E+03 -.120E+02   -.114E+01 -.114E+01 0.302E-02   -.923E-03 0.992E-03 -.208E-02
   -.765E+03 -.763E+03 0.984E+01   0.763E+03 0.761E+03 -.985E+01   0.114E+01 0.114E+01 0.113E-01   -.174E-02 0.185E-02 -.671E-02
   -.765E+03 0.764E+03 0.901E+01   0.763E+03 -.762E+03 -.903E+01   0.114E+01 -.114E+01 0.135E-01   -.152E-02 -.375E-02 -.408E-02
   0.763E+03 -.765E+03 0.133E+02   -.761E+03 0.763E+03 -.133E+02   -.114E+01 0.114E+01 -.252E-02   -.130E-02 -.320E-02 -.365E-02
   -.748E+00 0.244E+00 0.107E+04   0.749E+00 -.243E+00 -.107E+04   0.206E-02 -.644E-03 -.162E+01   -.416E-02 -.211E-03 0.248E-02
   -.402E+02 0.130E+02 -.956E+03   0.403E+02 -.130E+02 0.954E+03   -.213E+00 0.679E-01 0.166E+01   -.564E-02 -.318E-02 0.190E-02
   0.984E+03 0.401E+03 -.396E+03   -.981E+03 -.398E+03 0.395E+03   -.182E+01 -.151E+01 0.208E+00   0.190E-02 -.108E-02 0.562E-04
   -.401E+03 -.982E+03 -.401E+03   0.399E+03 0.980E+03 0.400E+03   0.150E+01 0.182E+01 0.212E+00   -.843E-03 0.312E-02 -.375E-02
   -.333E+03 0.330E+03 -.428E+03   0.333E+03 -.330E+03 0.428E+03   -.324E+00 0.321E+00 -.569E+00   -.372E-02 -.411E-02 0.712E-03
   0.321E+03 -.322E+03 0.461E+03   -.321E+03 0.322E+03 -.462E+03   0.365E+00 -.365E+00 0.524E+00   -.185E-02 -.217E-02 -.212E-02
   0.324E+03 0.333E+03 -.419E+03   -.324E+03 -.333E+03 0.420E+03   0.353E+00 0.353E+00 -.503E+00   -.849E-02 -.291E-02 -.363E-03
   -.982E+03 0.397E+03 -.405E+03   0.979E+03 -.395E+03 0.404E+03   0.182E+01 -.150E+01 0.216E+00   0.205E-02 -.222E-02 0.385E-03
   0.395E+03 -.985E+03 -.397E+03   -.393E+03 0.982E+03 0.397E+03   -.150E+01 0.183E+01 0.217E+00   -.391E-02 -.827E-03 -.405E-02
   -.323E+03 -.322E+03 0.460E+03   0.324E+03 0.322E+03 -.461E+03   -.367E+00 -.367E+00 0.519E+00   -.372E-02 0.283E-02 -.656E-02
   0.642E+03 0.795E+00 0.164E+02   -.643E+03 -.794E+00 -.164E+02   0.730E+00 -.863E-04 -.174E-01   -.312E-02 -.117E-02 -.453E-02
   -.645E+03 0.580E+00 0.118E+02   0.646E+03 -.581E+00 -.118E+02   -.734E+00 0.317E-03 0.510E-02   0.145E-02 0.366E-03 -.792E-02
   -.702E+00 -.587E+03 0.966E+03   0.700E+00 0.587E+03 -.963E+03   0.183E-03 0.309E+00 -.235E+01   0.175E-02 -.383E-02 0.256E-02
   -.144E+02 -.625E+03 -.921E+03   0.144E+02 0.624E+03 0.917E+03   -.857E-02 0.244E+00 0.234E+01   -.392E-02 -.291E-03 -.422E-03
   -.267E+01 0.869E+00 0.181E+02   0.268E+01 -.869E+00 -.180E+02   -.137E-02 0.360E-03 -.235E-02   -.720E-02 0.206E-03 -.743E-02
   0.324E+03 -.329E+03 -.415E+03   -.325E+03 0.330E+03 0.416E+03   0.360E+00 -.361E+00 -.482E+00   -.760E-02 -.163E-02 -.235E-02
   -.334E+03 -.327E+03 -.425E+03   0.335E+03 0.327E+03 0.426E+03   -.335E+00 -.333E+00 -.548E+00   -.284E-02 0.584E-03 -.180E-02
   -.218E+01 -.643E+03 0.146E+02   0.219E+01 0.644E+03 -.146E+02   -.452E-03 -.732E+00 -.789E-02   -.444E-02 -.511E-03 -.701E-02
   0.148E+02 -.538E+01 -.167E+03   -.107E+02 0.406E+01 0.139E+03   -.354E+01 0.114E+01 0.256E+02   -.138E-02 -.834E-03 -.488E-03
   0.871E+02 -.284E+02 -.670E+03   -.959E+02 0.312E+02 0.732E+03   0.839E+01 -.271E+01 -.600E+02   -.124E-02 -.811E-03 -.801E-03
 -----------------------------------------------------------------------------------------------
   -.472E+01 0.160E+01 0.345E+02   0.105E-11 -.143E-11 -.102E-11   0.483E+01 -.155E+01 -.344E+02   -.945E-01 -.477E-01 -.866E-01
 
 
 POSITION                                       TOTAL-FORCE (eV/Angst)
 -----------------------------------------------------------------------------------
     13.37281      9.84801     12.50759         0.702337      1.107049      0.291582
     20.15199     16.62719     12.50759        -1.107413     -0.702886      0.292605
     16.62719      9.84801     12.50759        -0.703132      1.108073      0.293743
      9.84801     16.62719     12.50759         1.108096     -0.702585      0.290840
     15.00000     11.47521     10.20639        -0.000429      0.411332      1.280988
     15.00000     11.47521     19.79360         0.001286      0.398380     -1.298675
     15.00000      8.28283     15.00000         0.000087      1.515716     -0.000491
      8.28283     15.00000     15.00000         1.514622      0.000160      0.001061
     21.71717     15.00000     15.00000        -1.516355     -0.000101     -0.000807
     15.00000     21.71717     15.00000         0.000070     -1.515274     -0.000118
     18.35858     11.64142     10.25025        -0.755770      0.755197      1.072390
     18.35858     11.64142     19.74975        -0.756754      0.756494     -1.071692
     11.64142     18.35858     10.25025         0.754901     -0.755884      1.072394
     11.64142     18.35858     19.74975         0.754673     -0.751147     -1.077120
     11.64142     11.64142     10.25025         0.754788      0.756044      1.072784
     11.64142     11.64142     19.74975         0.757161      0.753750     -1.074980
     18.35858     18.35858     10.25025        -0.756016     -0.755201      1.072724
     18.35858     18.35858     19.74975        -0.756584     -0.757177     -1.072496
     13.37281      9.84801     17.49241         0.700389      1.106665     -0.293199
     20.15199     16.62719     17.49241        -1.107297     -0.701157     -0.291974
     16.73751     13.26249     12.54279         0.112146     -0.112420     -0.156946
      9.84801     13.37281     12.50759         1.108235      0.702169      0.290879
     16.62719     20.15199     12.50759        -0.702649     -1.108261      0.292819
     16.62719      9.84801     17.49241        -0.703620      1.107838     -0.291085
      9.84801     16.62719     17.49241         1.105589     -0.703340     -0.292104
     20.15199     13.37281     12.50759        -1.107781      0.703127      0.293504
     13.37281     20.15199     12.50759         0.702347     -1.107354      0.291355
     13.26249     13.26249     12.54279        -0.112923     -0.113047     -0.157056
     15.00000     11.52498     15.00000         0.001728     -0.226506     -0.001263
     18.52479     15.00000     10.20639        -0.411018      0.000096      1.280700
     18.52479     15.00000     19.79360        -0.406567      0.000035     -1.294681
     11.47521     15.00000     10.20640         0.411080      0.000098      1.281112
     11.47521     15.00000     19.79360         0.385230      0.000068     -1.289595
     11.49535     11.49535     15.00000         0.826757      0.825515     -0.004637
     18.50465     18.50465     15.00000        -0.823985     -0.825460     -0.007391
     18.50465     11.49535     15.00000        -0.824464      0.825243     -0.006919
     11.49535     18.50465     15.00000         0.827525     -0.827169     -0.002172
     15.00000     15.00000     10.04368        -0.001951      0.000515      1.180813
     15.00000     15.00000     19.95633        -0.119870      0.039699     -0.678270
      9.84801     13.37281     17.49241         1.107693      0.705079     -0.289812
     16.62719     20.15199     17.49241        -0.704607     -1.108795     -0.290245
     16.73751     13.26249     17.45721         0.096818     -0.091921      0.171204
     13.26249     16.73751     12.54279        -0.112901      0.112915     -0.157001
     13.26249     13.26249     17.45721        -0.115993     -0.126456      0.149821
     20.15199     13.37281     17.49241        -1.107176      0.701887     -0.291781
     13.37281     20.15199     17.49241         0.700688     -1.105697     -0.293417
     16.73751     16.73751     12.54279         0.112431      0.112626     -0.156879
     11.52498     15.00000     15.00000        -0.225791     -0.000182     -0.003294
     18.47502     15.00000     15.00000         0.226233     -0.000602      0.000264
     15.00000     18.52480     10.20639        -0.000456     -0.411513      1.280960
     15.00000     18.52480     19.79360         0.002998     -0.387276     -1.303389
     15.00000     15.00000     15.00000        -0.000490      0.000130      0.004504
     13.26249     16.73751     17.45721        -0.121233      0.127012      0.148017
     16.73751     16.73751     17.45721         0.111052      0.101482      0.160185
     15.00000     18.47502     15.00000         0.001294      0.225972     -0.002068
     13.92584     15.34779     22.66780         0.530965     -0.185685     -2.984717
     13.76951     15.39841     23.78376        -0.355994      0.122731      2.569028
 -----------------------------------------------------------------------------------
    total drift:                                0.007428      0.002026      0.016971


--------------------------------------------------------------------------------------------------------



  FREE ENERGIE OF THE ION-ELECTRON SYSTEM (eV)
  ---------------------------------------------------
  free  energy   TOTEN  =      -173.70674400 eV

  energy  without entropy=     -173.61781572  energy(sigma->0) =     -173.68451193
 


--------------------------------------------------------------------------------------------------------


    POTLOK:  cpu time   13.6514: real time   13.6517


--------------------------------------------------------------------------------------------------------


     LOOP+:  cpu time17196.5527: real time17197.1346
    4ORBIT:  cpu time    0.0000: real time    0.0000

 total amount of memory used by VASP MPI-rank0  5486941. kBytes
=======================================================================

   base      :      30000. kBytes
   nonlr-proj:      17126. kBytes
   fftplans  :     924480. kBytes
   grid      :    1872000. kBytes
   one-center:        886. kBytes
   wavefun   :    2642449. kBytes
 
  
  
 General timing and accounting informations for this job:
 ========================================================
  
                  Total CPU time used (sec):    17267.959
                            User time (sec):    16340.226
                          System time (sec):      927.732
                         Elapsed time (sec):    17268.582
  
                   Maximum memory used (kb):     7178488.
                   Average memory used (kb):           0.
  
                          Minor page faults:    811061293
                          Major page faults:            0
                 Voluntary context switches:          596
