<?xml version="1.0" encoding="ISO-8859-1"?>
<modeling>
 <generator>
  <i name="program" type="string">vasp </i>
  <i name="version" type="string">5.4.4.18Apr17-6-g9f103f2a35  </i>
  <i name="subversion" type="string">(build Sep 03 2018 23:53:05) complex            parallel </i>
  <i name="platform" type="string">LinuxIFC </i>
  <i name="date" type="string">2021 12 01 </i>
  <i name="time" type="string">20:23:23 </i>
 </generator>
 <incar>
  <i type="string" name="SYSTEM"> 6_Pd100_top_free_z(O)</i>
  <i type="int" name="ISTART">     0</i>
  <i type="string" name="PREC">normal   			! encut=max(enmax), ngx,y,z</i>
  <i type="string" name="ALGO"> Fast     			! Mix RMM-DIIS and Dav</i>
  <i type="logical" name="ADDGRID"> F  </i>
  <i type="int" name="ISPIN">     1</i>
  <i type="int" name="ICHARG">     2</i>
  <i type="int" name="NELM">   100</i>
  <i type="int" name="NELMIN">     6</i>
  <i type="int" name="IBRION">     2</i>
  <i name="EDIFF">      0.00010000</i>
  <i name="EDIFFG">     -0.05000000</i>
  <i type="int" name="NSW">     0</i>
  <i type="int" name="ISIF">     2</i>
  <i type="int" name="ISYM">     2</i>
  <i name="ENCUT">    400.00000000</i>
  <i type="string" name="LREAL"> Auto     			! Auto or A projection done</i>
  <i type="int" name="ISMEAR">     2</i>
  <i name="SIGMA">      0.20000000</i>
  <i type="logical" name="LWAVE"> F  </i>
  <i type="logical" name="LCHARG"> F  </i>
  <v type="int" name="KPOINT_BSE">    -1     0     0     0</v>
  <i type="int" name="MAXMEM"> 10000</i>
  <i type="int" name="NELM">   100</i>
  <i type="string" name="GGA"> RP         			! Revised PBE</i>
 </incar>
 <structure name="primitive_cell" >
  <crystal>
   <varray name="basis" >
    <v>      30.00000000       0.00000000       0.00000000 </v>
    <v>       0.00000000      30.00000000       0.00000000 </v>
    <v>       0.00000000       0.00000000      30.00000000 </v>
   </varray>
   <i name="volume">  27000.00000000 </i>
   <varray name="rec_basis" >
    <v>       0.03333333       0.00000000       0.00000000 </v>
    <v>       0.00000000       0.03333333       0.00000000 </v>
    <v>       0.00000000       0.00000000       0.03333333 </v>
   </varray>
  </crystal>
  <varray name="positions" >
   <v>       0.44576020       0.32826710       0.41691983 </v>
   <v>      -0.44576020       0.32826710       0.41691983 </v>
   <v>      -0.50000000       0.38250690       0.34021317 </v>
   <v>      -0.50000000       0.27609440      -0.50000000 </v>
   <v>       0.38804720       0.38804720       0.34167483 </v>
   <v>      -0.50000000       0.38416601      -0.50000000 </v>
   <v>       0.44208300       0.44208300       0.41809300 </v>
   <v>       0.38317830       0.38317830      -0.50000000 </v>
   <v>      -0.44208300       0.44208300       0.41809300 </v>
   <v>       0.44576020       0.32826710      -0.41691977 </v>
   <v>       0.32826705       0.44576024       0.41691983 </v>
   <v>      -0.38804720       0.38804720       0.34167483 </v>
   <v>      -0.38317830       0.38317830      -0.50000000 </v>
   <v>      -0.50000000      -0.50000000       0.33478917 </v>
   <v>      -0.50000000      -0.50000000      -0.50000000 </v>
   <v>      -0.44576020       0.32826710      -0.41691977 </v>
   <v>       0.38250685      -0.49999995       0.34021317 </v>
   <v>       0.44208300       0.44208300      -0.41809297 </v>
   <v>       0.38416599      -0.49999998      -0.50000000 </v>
   <v>      -0.44208300       0.44208300      -0.41809297 </v>
   <v>       0.44208298      -0.44208298       0.41809300 </v>
   <v>       0.32826705       0.44576024      -0.41691977 </v>
   <v>      -0.50000000       0.38250690      -0.34021320 </v>
   <v>       0.32826712      -0.44576022       0.41691983 </v>
   <v>      -0.38250685      -0.49999995       0.34021317 </v>
   <v>      -0.32826705       0.44576024       0.41691983 </v>
   <v>       0.27609443       0.49999998      -0.50000000 </v>
   <v>       0.38804720       0.38804720      -0.34167487 </v>
   <v>      -0.38416599      -0.49999998      -0.50000000 </v>
   <v>      -0.44208298      -0.44208298       0.41809300 </v>
   <v>       0.44208298      -0.44208298      -0.41809297 </v>
   <v>      -0.38804720       0.38804720      -0.34167487 </v>
   <v>       0.38804722      -0.38804722       0.34167483 </v>
   <v>       0.38250685      -0.49999995      -0.34021320 </v>
   <v>       0.32826712      -0.44576022      -0.41691977 </v>
   <v>      -0.32826705       0.44576024      -0.41691977 </v>
   <v>       0.50000000      -0.38250681       0.34021317 </v>
   <v>      -0.50000000      -0.38416596      -0.50000000 </v>
   <v>      -0.44208298      -0.44208298      -0.41809297 </v>
   <v>      -0.50000000      -0.50000000      -0.33478913 </v>
   <v>       0.38317828      -0.38317828      -0.50000000 </v>
   <v>      -0.32826712      -0.44576022       0.41691983 </v>
   <v>      -0.27609443       0.49999998      -0.50000000 </v>
   <v>      -0.38804722      -0.38804722       0.34167483 </v>
   <v>      -0.38250685      -0.49999995      -0.34021320 </v>
   <v>       0.44576027      -0.32826707       0.41691983 </v>
   <v>      -0.38317828      -0.38317828      -0.50000000 </v>
   <v>      -0.32826712      -0.44576022      -0.41691977 </v>
   <v>      -0.44576027      -0.32826707       0.41691983 </v>
   <v>       0.38804722      -0.38804722      -0.34167487 </v>
   <v>      -0.50000000      -0.38250681      -0.34021320 </v>
   <v>       0.44576027      -0.32826707      -0.41691977 </v>
   <v>       0.46419460      -0.48840700      -0.24440670 </v>
   <v>      -0.44576027      -0.32826707      -0.41691977 </v>
   <v>      -0.50000000      -0.27609445       0.50000000 </v>
   <v>      -0.38804722      -0.38804722      -0.34167487 </v>
   <v>       0.45898350      -0.48671973      -0.20720783 </v>
  </varray>
 </structure>
 <varray name="primitive_index" >
  <v type="int" >        1 </v>
  <v type="int" >        3 </v>
  <v type="int" >        5 </v>
  <v type="int" >        7 </v>
  <v type="int" >       15 </v>
  <v type="int" >       29 </v>
  <v type="int" >       28 </v>
  <v type="int" >       34 </v>
  <v type="int" >       21 </v>
  <v type="int" >       19 </v>
  <v type="int" >       22 </v>
  <v type="int" >       11 </v>
  <v type="int" >       36 </v>
  <v type="int" >       38 </v>
  <v type="int" >       52 </v>
  <v type="int" >       24 </v>
  <v type="int" >       32 </v>
  <v type="int" >       44 </v>
  <v type="int" >       48 </v>
  <v type="int" >       42 </v>
  <v type="int" >       43 </v>
  <v type="int" >       40 </v>
  <v type="int" >        6 </v>
  <v type="int" >        4 </v>
  <v type="int" >       30 </v>
  <v type="int" >       26 </v>
  <v type="int" >        8 </v>
  <v type="int" >       16 </v>
  <v type="int" >       49 </v>
  <v type="int" >       47 </v>
  <v type="int" >       53 </v>
  <v type="int" >       12 </v>
  <v type="int" >       13 </v>
  <v type="int" >       33 </v>
  <v type="int" >       25 </v>
  <v type="int" >       45 </v>
  <v type="int" >       50 </v>
  <v type="int" >       55 </v>
  <v type="int" >       54 </v>
  <v type="int" >       39 </v>
  <v type="int" >       37 </v>
  <v type="int" >        2 </v>
  <v type="int" >        9 </v>
  <v type="int" >       17 </v>
  <v type="int" >       31 </v>
  <v type="int" >       27 </v>
  <v type="int" >       35 </v>
  <v type="int" >       20 </v>
  <v type="int" >       23 </v>
  <v type="int" >       14 </v>
  <v type="int" >       51 </v>
  <v type="int" >       46 </v>
  <v type="int" >       56 </v>
  <v type="int" >       41 </v>
  <v type="int" >       10 </v>
  <v type="int" >       18 </v>
  <v type="int" >       57 </v>
 </varray>
 <kpoints>
  <generation param="Monkhorst-Pack">
   <v type="int" name="divisions">       1        1        1 </v>
   <v name="usershift">      0.00000000       0.00000000       0.00000000 </v>
   <v name="genvec1">      1.00000000       0.00000000       0.00000000 </v>
   <v name="genvec2">      0.00000000       1.00000000       0.00000000 </v>
   <v name="genvec3">      0.00000000       0.00000000       1.00000000 </v>
   <v name="shift">      0.00000000       0.00000000       0.00000000 </v>
  </generation>
  <varray name="kpointlist" >
   <v>       0.00000000       0.00000000       0.00000000 </v>
  </varray>
  <varray name="weights" >
   <v>       1.00000000 </v>
  </varray>
 </kpoints>
 <parameters>
  <separator name="general" >
   <i type="string" name="SYSTEM">6_Pd100_top_free_z(O)</i>
   <i type="logical" name="LCOMPAT"> F  </i>
  </separator>
  <separator name="electronic" >
   <i type="string" name="PREC">normal</i>
   <i name="ENMAX">    400.00000000</i>
   <i name="ENAUG">    644.87300000</i>
   <i name="EDIFF">      0.00010000</i>
   <i type="int" name="IALGO">    68</i>
   <i type="int" name="IWAVPR">    10</i>
   <i type="int" name="NBANDS">   336</i>
   <i name="NELECT">    560.00000000</i>
   <i type="int" name="TURBO">     0</i>
   <i type="int" name="IRESTART">     0</i>
   <i type="int" name="NREBOOT">     0</i>
   <i type="int" name="NMIN">     0</i>
   <i name="EREF">      0.00000000</i>
   <separator name="electronic smearing" >
    <i type="int" name="ISMEAR">     2</i>
    <i name="SIGMA">      0.20000000</i>
    <i name="KSPACING">      0.50000000</i>
    <i type="logical" name="KGAMMA"> T  </i>
   </separator>
   <separator name="electronic projectors" >
    <i type="logical" name="LREAL"> T  </i>
    <v name="ROPT">     -0.00050000     -0.00050000     -0.00050000</v>
    <i type="int" name="LMAXPAW">  -100</i>
    <i type="int" name="LMAXMIX">     2</i>
    <i type="logical" name="NLSPLINE"> F  </i>
   </separator>
   <separator name="electronic startup" >
    <i type="int" name="ISTART">     0</i>
    <i type="int" name="ICHARG">     2</i>
    <i type="int" name="INIWAV">     1</i>
   </separator>
   <separator name="electronic spin" >
    <i type="int" name="ISPIN">     1</i>
    <i type="logical" name="LNONCOLLINEAR"> F  </i>
    <v name="MAGMOM">      1.00000000      1.00000000      1.00000000      1.00000000      1.00000000      1.00000000      1.00000000      1.00000000      1.00000000      1.00000000      1.00000000      1.00000000      1.00000000      1.00000000      1.00000000      1.00000000      1.00000000      1.00000000      1.00000000      1.00000000
      1.00000000      1.00000000      1.00000000      1.00000000      1.00000000      1.00000000      1.00000000      1.00000000      1.00000000      1.00000000      1.00000000      1.00000000      1.00000000      1.00000000      1.00000000      1.00000000      1.00000000      1.00000000      1.00000000      1.00000000
      1.00000000      1.00000000      1.00000000      1.00000000      1.00000000      1.00000000      1.00000000      1.00000000      1.00000000      1.00000000      1.00000000      1.00000000      1.00000000      1.00000000      1.00000000      1.00000000      1.00000000</v>
    <i name="NUPDOWN">     -1.00000000</i>
    <i type="logical" name="LSORBIT"> F  </i>
    <v name="SAXIS">      0.00000000      0.00000000      1.00000000</v>
    <i type="logical" name="LSPIRAL"> F  </i>
    <v name="QSPIRAL">      0.00000000      0.00000000      0.00000000</v>
    <i type="logical" name="LZEROZ"> F  </i>
   </separator>
   <separator name="electronic exchange-correlation" >
    <i type="logical" name="LASPH"> F  </i>
    <i type="logical" name="LMETAGGA"> F  </i>
   </separator>
   <separator name="electronic convergence" >
    <i type="int" name="NELM">   100</i>
    <i type="int" name="NELMDL">    -5</i>
    <i type="int" name="NELMIN">     6</i>
    <i name="ENINI">    400.00000000</i>
    <separator name="electronic convergence detail" >
     <i type="logical" name="LDIAG"> T  </i>
     <i type="logical" name="LSUBROT"> F  </i>
     <i name="WEIMIN">      0.00000000</i>
     <i name="EBREAK">      0.00000007</i>
     <i name="DEPER">      0.30000000</i>
     <i type="int" name="NRMM">     4</i>
     <i name="TIME">      0.40000000</i>
    </separator>
   </separator>
   <separator name="electronic mixer" >
    <i name="AMIX">      0.40000000</i>
    <i name="BMIX">      1.00000000</i>
    <i name="AMIN">      0.10000000</i>
    <i name="AMIX_MAG">      1.60000000</i>
    <i name="BMIX_MAG">      1.00000000</i>
    <separator name="electronic mixer details" >
     <i type="int" name="IMIX">     4</i>
     <i type="logical" name="MIXFIRST"> F  </i>
     <i type="int" name="MAXMIX">   -45</i>
     <i name="WC">    100.00000000</i>
     <i type="int" name="INIMIX">     1</i>
     <i type="int" name="MIXPRE">     1</i>
     <i type="int" name="MREMOVE">     5</i>
    </separator>
   </separator>
   <separator name="electronic dipolcorrection" >
    <i type="logical" name="LDIPOL"> F  </i>
    <i type="logical" name="LMONO"> F  </i>
    <i type="int" name="IDIPOL">     0</i>
    <i name="EPSILON">      1.00000000</i>
    <v name="DIPOL">   -100.00000000   -100.00000000   -100.00000000</v>
    <i name="EFIELD">      0.00000000</i>
   </separator>
  </separator>
  <separator name="grids" >
   <i type="int" name="NGX">   150</i>
   <i type="int" name="NGY">   150</i>
   <i type="int" name="NGZ">   150</i>
   <i type="int" name="NGXF">   300</i>
   <i type="int" name="NGYF">   300</i>
   <i type="int" name="NGZF">   300</i>
   <i type="logical" name="ADDGRID"> F  </i>
  </separator>
  <separator name="ionic" >
   <i type="int" name="NSW">     0</i>
   <i type="int" name="IBRION">    -1</i>
   <i type="int" name="MDALGO">     0</i>
   <i type="int" name="ISIF">     2</i>
   <i name="PSTRESS">      0.00000000</i>
   <i name="EDIFFG">     -0.05000000</i>
   <i type="int" name="NFREE">     1</i>
   <i name="POTIM">      0.50000000</i>
   <i name="SMASS">     -3.00000000</i>
   <i name="SCALEE">      1.00000000</i>
  </separator>
  <separator name="ionic md" >
   <i name="TEBEG">      0.00010000</i>
   <i name="TEEND">      0.00010000</i>
   <i type="int" name="NBLOCK">     1</i>
   <i type="int" name="KBLOCK">     1</i>
   <i type="int" name="NPACO">   256</i>
   <i name="APACO">     16.00000000</i>
  </separator>
  <separator name="symmetry" >
   <i type="int" name="ISYM">     2</i>
   <i name="SYMPREC">      0.00001000</i>
  </separator>
  <separator name="dos" >
   <i type="int" name="LORBIT">     0</i>
   <v name="RWIGS">     -1.00000000     -1.00000000     -1.00000000</v>
   <i type="int" name="NEDOS">   301</i>
   <i name="EMIN">     10.00000000</i>
   <i name="EMAX">    -10.00000000</i>
   <i name="EFERMI">      0.00000000</i>
  </separator>
  <separator name="writing" >
   <i type="int" name="NWRITE">     2</i>
   <i type="logical" name="LWAVE"> F  </i>
   <i type="logical" name="LDOWNSAMPLE"> F  </i>
   <i type="logical" name="LCHARG"> F  </i>
   <i type="logical" name="LPARD"> F  </i>
   <i type="logical" name="LVTOT"> F  </i>
   <i type="logical" name="LVHAR"> F  </i>
   <i type="logical" name="LELF"> F  </i>
   <i type="logical" name="LOPTICS"> F  </i>
   <v name="STM">      0.00000000      0.00000000      0.00000000      0.00000000      0.00000000      0.00000000      0.00000000</v>
  </separator>
  <separator name="performance" >
   <i type="int" name="NPAR">     1</i>
   <i type="int" name="NSIM">     4</i>
   <i type="int" name="NBLK">    -1</i>
   <i type="logical" name="LPLANE"> T  </i>
   <i type="logical" name="LSCALAPACK"> T  </i>
   <i type="logical" name="LSCAAWARE"> F  </i>
   <i type="logical" name="LSCALU"> F  </i>
   <i type="logical" name="LASYNC"> F  </i>
   <i type="logical" name="LORBITALREAL"> F  </i>
  </separator>
  <separator name="miscellaneous" >
   <i type="int" name="IDIOT">     3</i>
   <i type="int" name="ISPECIAL">     0</i>
   <i type="logical" name="LMUSIC"> F  </i>
   <v name="POMASS">    106.42000000     12.01100000     16.00000000</v>
   <v name="DARWINR">      0.00000000      0.00000000      0.00000000</v>
   <v name="DARWINV">      1.00000000      1.00000000      1.00000000</v>
   <i type="logical" name="LCORR"> T  </i>
  </separator>
  <i type="logical" name="GGA_COMPAT"> T  </i>
  <i type="logical" name="LBERRY"> F  </i>
  <i type="int" name="ICORELEVEL">     0</i>
  <i type="logical" name="LDAU"> F  </i>
  <i type="int" name="I_CONSTRAINED_M">     0</i>
  <separator name="electronic exchange-correlation" >
   <i type="string" name="GGA">RP</i>
   <i type="int" name="VOSKOWN">     0</i>
   <i type="logical" name="LHFCALC"> F  </i>
   <i type="string" name="PRECFOCK"></i>
   <i type="logical" name="LSYMGRAD"> F  </i>
   <i type="logical" name="LHFONE"> F  </i>
   <i type="logical" name="LRHFCALC"> F  </i>
   <i type="logical" name="LTHOMAS"> F  </i>
   <i type="logical" name="LMODELHF"> F  </i>
   <i name="ENCUT4O">     -1.00000000</i>
   <i type="int" name="EXXOEP">     0</i>
   <i type="int" name="FOURORBIT">     0</i>
   <i name="AEXX">      0.00000000</i>
   <i name="HFALPHA">      0.00000000</i>
   <i name="MCALPHA">      0.00000000</i>
   <i name="ALDAX">      1.00000000</i>
   <i name="AGGAX">      1.00000000</i>
   <i name="ALDAC">      1.00000000</i>
   <i name="AGGAC">      1.00000000</i>
   <i type="int" name="NKREDX">     1</i>
   <i type="int" name="NKREDY">     1</i>
   <i type="int" name="NKREDZ">     1</i>
   <i type="logical" name="SHIFTRED"> F  </i>
   <i type="logical" name="ODDONLY"> F  </i>
   <i type="logical" name="EVENONLY"> F  </i>
   <i type="int" name="LMAXFOCK">     0</i>
   <i type="int" name="NMAXFOCKAE">     0</i>
   <i type="logical" name="LFOCKAEDFT"> F  </i>
   <i name="HFSCREEN">      0.00000000</i>
   <i name="HFSCREENC">      0.00000000</i>
   <i type="int" name="NBANDSGWLOW">     0</i>
  </separator>
  <separator name="vdW DFT" >
   <i type="logical" name="LUSE_VDW"> F  </i>
   <i name="Zab_VDW">     -0.84910000</i>
   <i name="PARAM1">      0.12340000</i>
   <i name="PARAM2">      1.00000000</i>
   <i name="PARAM3">      0.00000000</i>
  </separator>
  <separator name="model GW" >
   <i type="int" name="MODEL_GW">     0</i>
   <i name="MODEL_EPS0">    284.21052632</i>
   <i name="MODEL_ALPHA">      1.00000000</i>
  </separator>
  <separator name="linear response parameters" >
   <i type="logical" name="LEPSILON"> F  </i>
   <i type="logical" name="LRPA"> F  </i>
   <i type="logical" name="LNABLA"> F  </i>
   <i type="logical" name="LVEL"> F  </i>
   <i type="int" name="KINTER">     0</i>
   <i name="CSHIFT">      0.10000000</i>
   <i name="OMEGAMAX">     -1.00000000</i>
   <i name="DEG_THRESHOLD">      0.00200000</i>
   <i name="RTIME">     -0.10000000</i>
   <i name="WPLASMAI">      0.00000000</i>
   <v name="DFIELD">      0.00000000      0.00000000      0.00000000</v>
   <v name="WPLASMA">      0.00000000      0.00000000      0.00000000      0.00000000      0.00000000      0.00000000      0.00000000      0.00000000      0.00000000</v>
  </separator>
  <separator name="orbital magnetization" >
   <i type="logical" name="NUCIND"> F  </i>
   <v name="MAGPOS">      0.00000000      0.00000000      0.00000000</v>
   <i type="logical" name="LNICSALL"> T  </i>
   <i type="logical" name="ORBITALMAG"> F  </i>
   <i type="logical" name="LMAGBLOCH"> F  </i>
   <i type="logical" name="LCHIMAG"> F  </i>
   <i type="logical" name="LGAUGE"> T  </i>
   <i type="int" name="MAGATOM">     0</i>
   <v name="MAGDIPOL">      0.00000000      0.00000000      0.00000000</v>
   <v name="AVECCONST">      0.00000000      0.00000000      0.00000000</v>
  </separator>
  <separator name="response functions" >
   <i type="logical" name="LADDER"> F  </i>
   <i type="logical" name="LRPAFORCE"> F  </i>
   <i type="logical" name="LFXC"> F  </i>
   <i type="logical" name="LHARTREE"> T  </i>
   <i type="int" name="IBSE">     0</i>
   <v type="int" name="KPOINT">    -1     0     0     0</v>
   <i type="logical" name="LTCTE"> F  </i>
   <i type="logical" name="LTETE"> F  </i>
   <i type="logical" name="LTRIPLET"> F  </i>
   <i type="logical" name="LFXCEPS"> F  </i>
   <i type="logical" name="LFXHEG"> F  </i>
   <i type="int" name="NATURALO">     2</i>
   <i type="logical" name="L2ORDER"> F  </i>
   <i type="logical" name="LMP2LT"> F  </i>
   <i type="logical" name="LUSEW"> F  </i>
   <i name="ENCUTGW">     -2.00000000</i>
   <i name="ENCUTGWSOFT">     -2.00000000</i>
   <i name="ENCUTLF">     -1.00000000</i>
   <i type="int" name="LMAXMP2">    -1</i>
   <i name="SCISSOR">      0.00000000</i>
   <i type="int" name="NOMEGA">     0</i>
   <i type="int" name="NOMEGAR">     0</i>
   <i type="int" name="NBANDSGW">    -1</i>
   <i type="int" name="NBANDSO">    -1</i>
   <i type="int" name="NBANDSV">    -1</i>
   <i type="int" name="NELM">   100</i>
   <i type="int" name="NELMHF">     1</i>
   <i type="int" name="DIM">     3</i>
   <i type="int" name="ANTIRES">     0</i>
   <i name="OMEGAMAX">    -30.00000000</i>
   <i name="OMEGAMIN">    -30.00000000</i>
   <i name="OMEGATL">   -200.00000000</i>
   <i type="int" name="OMEGAGRID">   140</i>
   <i name="CSHIFT">     -0.10000000</i>
   <i type="logical" name="SELFENERGY"> F  </i>
   <i type="logical" name="LSPECTRAL"> F  </i>
   <i type="logical" name="LSPECTRALGW"> F  </i>
   <i type="logical" name="LSINGLES"> F  </i>
   <i type="logical" name="LFERMIGW"> F  </i>
   <i type="logical" name="ODDONLYGW"> F  </i>
   <i type="logical" name="EVENONLYGW"> F  </i>
   <i type="int" name="NKREDLFX">     1</i>
   <i type="int" name="NKREDLFY">     1</i>
   <i type="int" name="NKREDLFZ">     1</i>
   <i type="int" name="MAXMEM"> 10000</i>
   <i type="int" name="TELESCOPE">     0</i>
   <i type="int" name="TAUPAR">     1</i>
   <i type="int" name="OMEGAPAR">    -1</i>
   <i name="LAMBDA">      1.00000000</i>
  </separator>
  <separator name="External order field" >
   <i name="OFIELD_KAPPA">      0.00000000</i>
   <v name="OFIELD_K">      0.00000000      0.00000000      0.00000000</v>
   <i name="OFIELD_Q6_NEAR">      0.00000000</i>
   <i name="OFIELD_Q6_FAR">      0.00000000</i>
   <i name="OFIELD_A">      0.00000000</i>
  </separator>
 </parameters>
 <atominfo>
  <atoms>      57 </atoms>
  <types>       3 </types>
  <array name="atoms" >
   <dimension dim="1">ion</dimension>
   <field type="string">element</field>
   <field type="int">atomtype</field>
   <set>
    <rc><c>Pd</c><c>   1</c></rc>
    <rc><c>Pd</c><c>   1</c></rc>
    <rc><c>Pd</c><c>   1</c></rc>
    <rc><c>Pd</c><c>   1</c></rc>
    <rc><c>Pd</c><c>   1</c></rc>
    <rc><c>Pd</c><c>   1</c></rc>
    <rc><c>Pd</c><c>   1</c></rc>
    <rc><c>Pd</c><c>   1</c></rc>
    <rc><c>Pd</c><c>   1</c></rc>
    <rc><c>Pd</c><c>   1</c></rc>
    <rc><c>Pd</c><c>   1</c></rc>
    <rc><c>Pd</c><c>   1</c></rc>
    <rc><c>Pd</c><c>   1</c></rc>
    <rc><c>Pd</c><c>   1</c></rc>
    <rc><c>Pd</c><c>   1</c></rc>
    <rc><c>Pd</c><c>   1</c></rc>
    <rc><c>Pd</c><c>   1</c></rc>
    <rc><c>Pd</c><c>   1</c></rc>
    <rc><c>Pd</c><c>   1</c></rc>
    <rc><c>Pd</c><c>   1</c></rc>
    <rc><c>Pd</c><c>   1</c></rc>
    <rc><c>Pd</c><c>   1</c></rc>
    <rc><c>Pd</c><c>   1</c></rc>
    <rc><c>Pd</c><c>   1</c></rc>
    <rc><c>Pd</c><c>   1</c></rc>
    <rc><c>Pd</c><c>   1</c></rc>
    <rc><c>Pd</c><c>   1</c></rc>
    <rc><c>Pd</c><c>   1</c></rc>
    <rc><c>Pd</c><c>   1</c></rc>
    <rc><c>Pd</c><c>   1</c></rc>
    <rc><c>Pd</c><c>   1</c></rc>
    <rc><c>Pd</c><c>   1</c></rc>
    <rc><c>Pd</c><c>   1</c></rc>
    <rc><c>Pd</c><c>   1</c></rc>
    <rc><c>Pd</c><c>   1</c></rc>
    <rc><c>Pd</c><c>   1</c></rc>
    <rc><c>Pd</c><c>   1</c></rc>
    <rc><c>Pd</c><c>   1</c></rc>
    <rc><c>Pd</c><c>   1</c></rc>
    <rc><c>Pd</c><c>   1</c></rc>
    <rc><c>Pd</c><c>   1</c></rc>
    <rc><c>Pd</c><c>   1</c></rc>
    <rc><c>Pd</c><c>   1</c></rc>
    <rc><c>Pd</c><c>   1</c></rc>
    <rc><c>Pd</c><c>   1</c></rc>
    <rc><c>Pd</c><c>   1</c></rc>
    <rc><c>Pd</c><c>   1</c></rc>
    <rc><c>Pd</c><c>   1</c></rc>
    <rc><c>Pd</c><c>   1</c></rc>
    <rc><c>Pd</c><c>   1</c></rc>
    <rc><c>Pd</c><c>   1</c></rc>
    <rc><c>Pd</c><c>   1</c></rc>
    <rc><c>Pd</c><c>   1</c></rc>
    <rc><c>Pd</c><c>   1</c></rc>
    <rc><c>Pd</c><c>   1</c></rc>
    <rc><c>C </c><c>   2</c></rc>
    <rc><c>O </c><c>   3</c></rc>
   </set>
  </array>
  <array name="atomtypes" >
   <dimension dim="1">type</dimension>
   <field type="int">atomspertype</field>
   <field type="string">element</field>
   <field>mass</field>
   <field>valence</field>
   <field type="string">pseudopotential</field>
   <set>
    <rc><c>  55</c><c>Pd</c><c>    106.42000000</c><c>     10.00000000</c><c>  PAW_PBE Pd 04Jan2005                  </c></rc>
    <rc><c>   1</c><c>C </c><c>     12.01100000</c><c>      4.00000000</c><c>  PAW_PBE C 08Apr2002                   </c></rc>
    <rc><c>   1</c><c>O </c><c>     16.00000000</c><c>      6.00000000</c><c>  PAW_PBE O 08Apr2002                   </c></rc>
   </set>
  </array>
 </atominfo>
 <structure name="initialpos" >
  <crystal>
   <varray name="basis" >
    <v>      30.00000000       0.00000000       0.00000000 </v>
    <v>       0.00000000      30.00000000       0.00000000 </v>
    <v>       0.00000000       0.00000000      30.00000000 </v>
   </varray>
   <i name="volume">  27000.00000000 </i>
   <varray name="rec_basis" >
    <v>       0.03333333       0.00000000       0.00000000 </v>
    <v>       0.00000000       0.03333333       0.00000000 </v>
    <v>       0.00000000       0.00000000       0.03333333 </v>
   </varray>
  </crystal>
  <varray name="positions" >
   <v>       0.44576020       0.32826710       0.41691983 </v>
   <v>       0.67173288       0.55423978       0.41691983 </v>
   <v>       0.55423980       0.32826710       0.41691983 </v>
   <v>       0.32826712       0.55423978       0.41691983 </v>
   <v>       0.50000000       0.38250690       0.34021317 </v>
   <v>       0.50000000       0.38250690       0.65978680 </v>
   <v>       0.50000000       0.27609440       0.50000000 </v>
   <v>       0.27609443       0.49999998       0.50000000 </v>
   <v>       0.72390557       0.49999998       0.50000000 </v>
   <v>       0.50000000       0.72390555       0.50000000 </v>
   <v>       0.61195280       0.38804720       0.34167483 </v>
   <v>       0.61195280       0.38804720       0.65832513 </v>
   <v>       0.38804722       0.61195278       0.34167483 </v>
   <v>       0.38804722       0.61195278       0.65832513 </v>
   <v>       0.38804720       0.38804720       0.34167483 </v>
   <v>       0.38804720       0.38804720       0.65832513 </v>
   <v>       0.61195278       0.61195278       0.34167483 </v>
   <v>       0.61195278       0.61195278       0.65832513 </v>
   <v>       0.44576020       0.32826710       0.58308023 </v>
   <v>       0.67173288       0.55423978       0.58308023 </v>
   <v>       0.55791699       0.44208301       0.41809300 </v>
   <v>       0.32826705       0.44576024       0.41691983 </v>
   <v>       0.55423973       0.67173293       0.41691983 </v>
   <v>       0.55423980       0.32826710       0.58308023 </v>
   <v>       0.32826712       0.55423978       0.58308023 </v>
   <v>       0.67173295       0.44576024       0.41691983 </v>
   <v>       0.44576027       0.67173293       0.41691983 </v>
   <v>       0.44208301       0.44208301       0.41809300 </v>
   <v>       0.50000000       0.38416601       0.50000000 </v>
   <v>       0.61749315       0.50000005       0.34021317 </v>
   <v>       0.61749315       0.50000005       0.65978680 </v>
   <v>       0.38250685       0.50000005       0.34021317 </v>
   <v>       0.38250685       0.50000005       0.65978680 </v>
   <v>       0.38317830       0.38317830       0.50000000 </v>
   <v>       0.61682172       0.61682172       0.50000000 </v>
   <v>       0.61682170       0.38317830       0.50000000 </v>
   <v>       0.38317828       0.61682172       0.50000000 </v>
   <v>       0.50000000       0.50000000       0.33478917 </v>
   <v>       0.50000000       0.50000000       0.66521087 </v>
   <v>       0.32826705       0.44576024       0.58308023 </v>
   <v>       0.55423973       0.67173293       0.58308023 </v>
   <v>       0.55791699       0.44208301       0.58190703 </v>
   <v>       0.44208298       0.55791702       0.41809300 </v>
   <v>       0.44208301       0.44208301       0.58190703 </v>
   <v>       0.67173295       0.44576024       0.58308023 </v>
   <v>       0.44576027       0.67173293       0.58308023 </v>
   <v>       0.55791702       0.55791702       0.41809300 </v>
   <v>       0.38416599       0.50000002       0.50000000 </v>
   <v>       0.61583401       0.50000002       0.50000000 </v>
   <v>       0.50000000       0.61749319       0.34021317 </v>
   <v>       0.50000000       0.61749319       0.65978680 </v>
   <v>       0.50000000       0.50000000       0.50000000 </v>
   <v>       0.44208298       0.55791702       0.58190703 </v>
   <v>       0.55791702       0.55791702       0.58190703 </v>
   <v>       0.50000000       0.61583404       0.50000000 </v>
   <v>       0.46419460       0.51159300       0.75559330 </v>
   <v>       0.45898350       0.51328027       0.79279217 </v>
  </varray>
  <varray name="selective"  type="logical" >
   <v type="logical" >  F  F  F </v>
   <v type="logical" >  F  F  F </v>
   <v type="logical" >  F  F  F </v>
   <v type="logical" >  F  F  F </v>
   <v type="logical" >  F  F  F </v>
   <v type="logical" >  F  F  F </v>
   <v type="logical" >  F  F  F </v>
   <v type="logical" >  F  F  F </v>
   <v type="logical" >  F  F  F </v>
   <v type="logical" >  F  F  F </v>
   <v type="logical" >  F  F  F </v>
   <v type="logical" >  F  F  F </v>
   <v type="logical" >  F  F  F </v>
   <v type="logical" >  F  F  F </v>
   <v type="logical" >  F  F  F </v>
   <v type="logical" >  F  F  F </v>
   <v type="logical" >  F  F  F </v>
   <v type="logical" >  F  F  F </v>
   <v type="logical" >  F  F  F </v>
   <v type="logical" >  F  F  F </v>
   <v type="logical" >  F  F  F </v>
   <v type="logical" >  F  F  F </v>
   <v type="logical" >  F  F  F </v>
   <v type="logical" >  F  F  F </v>
   <v type="logical" >  F  F  F </v>
   <v type="logical" >  F  F  F </v>
   <v type="logical" >  F  F  F </v>
   <v type="logical" >  F  F  F </v>
   <v type="logical" >  F  F  F </v>
   <v type="logical" >  F  F  F </v>
   <v type="logical" >  F  F  F </v>
   <v type="logical" >  F  F  F </v>
   <v type="logical" >  F  F  F </v>
   <v type="logical" >  F  F  F </v>
   <v type="logical" >  F  F  F </v>
   <v type="logical" >  F  F  F </v>
   <v type="logical" >  F  F  F </v>
   <v type="logical" >  F  F  F </v>
   <v type="logical" >  F  F  F </v>
   <v type="logical" >  F  F  F </v>
   <v type="logical" >  F  F  F </v>
   <v type="logical" >  F  F  F </v>
   <v type="logical" >  F  F  F </v>
   <v type="logical" >  F  F  F </v>
   <v type="logical" >  F  F  F </v>
   <v type="logical" >  F  F  F </v>
   <v type="logical" >  F  F  F </v>
   <v type="logical" >  F  F  F </v>
   <v type="logical" >  F  F  F </v>
   <v type="logical" >  F  F  F </v>
   <v type="logical" >  F  F  F </v>
   <v type="logical" >  F  F  F </v>
   <v type="logical" >  F  F  F </v>
   <v type="logical" >  F  F  F </v>
   <v type="logical" >  F  F  F </v>
   <v type="logical" >  F  F  F </v>
   <v type="logical" >  F  F  F </v>
  </varray>
  <nose>
   <v>      -3.00000000       0.00000000       0.00010000       0.00010000 </v>
  </nose>
 </structure>
 <calculation>
  <scstep>
   <time name="dav">  340.45  340.52</time>
   <time name="total">  353.94  354.01</time>
   <energy>
    <i name="alphaZ">     75.25431677 </i>
    <i name="ewald"> 137750.60251978 </i>
    <i name="hartreedc">-181119.15651124 </i>
    <i name="XCdc">  -1704.12256701 </i>
    <i name="pawpsdc">  44873.02882129 </i>
    <i name="pawaedc"> -41398.84523641 </i>
    <i name="eentropy">     -0.00553616 </i>
    <i name="bandstr">    818.60681919 </i>
    <i name="atom">  45086.50549395 </i>
    <i name="e_fr_energy">   4381.86812016 </i>
    <i name="e_wo_entrp">   4381.87365632 </i>
    <i name="e_0_energy">   4381.86950420 </i>
   </energy>
  </scstep>
  <scstep>
   <time name="dav">  545.38  545.39</time>
   <time name="total">  545.38  545.39</time>
   <energy>
    <i name="e_fr_energy">   2012.74420105 </i>
    <i name="e_wo_entrp">   2012.77470763 </i>
    <i name="e_0_energy">   2012.75182769 </i>
   </energy>
  </scstep>
  <scstep>
   <time name="dav">  454.84  454.84</time>
   <time name="total">  454.84  454.84</time>
   <energy>
    <i name="e_fr_energy">    237.65870520 </i>
    <i name="e_wo_entrp">    237.67934778 </i>
    <i name="e_0_energy">    237.66386584 </i>
   </energy>
  </scstep>
  <scstep>
   <time name="dav">  388.89  388.91</time>
   <time name="total">  388.89  388.91</time>
   <energy>
    <i name="e_fr_energy">   -132.16678697 </i>
    <i name="e_wo_entrp">   -132.13564004 </i>
    <i name="e_0_energy">   -132.15900024 </i>
   </energy>
  </scstep>
  <scstep>
   <time name="dav">  476.60  476.61</time>
   <time name="total">  500.95  500.95</time>
   <energy>
    <i name="e_fr_energy">   -178.18114728 </i>
    <i name="e_wo_entrp">   -178.74500409 </i>
    <i name="e_0_energy">   -178.32211148 </i>
   </energy>
  </scstep>
  <scstep>
   <time name="diag">   64.52   64.53</time>
   <time name="diis">  177.93  177.94</time>
   <time name="orth">   12.85   12.85</time>
   <time name="total">  292.06  292.06</time>
   <energy>
    <i name="e_fr_energy">   -179.45880822 </i>
    <i name="e_wo_entrp">   -179.33250995 </i>
    <i name="e_0_energy">   -179.42723365 </i>
   </energy>
  </scstep>
  <scstep>
   <time name="diag">   64.47   64.47</time>
   <time name="diis">  209.95  209.95</time>
   <time name="orth">   12.78   12.78</time>
   <time name="total">  324.33  324.33</time>
   <energy>
    <i name="e_fr_energy">   -180.75431236 </i>
    <i name="e_wo_entrp">   -180.82952880 </i>
    <i name="e_0_energy">   -180.77311647 </i>
   </energy>
  </scstep>
  <scstep>
   <time name="diag">   64.57   64.57</time>
   <time name="diis">  190.47  190.47</time>
   <time name="orth">   12.79   12.79</time>
   <time name="total">  304.93  304.94</time>
   <energy>
    <i name="e_fr_energy">   -181.44834605 </i>
    <i name="e_wo_entrp">   -181.22031023 </i>
    <i name="e_0_energy">   -181.39133709 </i>
   </energy>
  </scstep>
  <scstep>
   <time name="diag">   64.76   64.76</time>
   <time name="diis">  177.41  177.41</time>
   <time name="orth">   12.97   12.97</time>
   <time name="total">  292.36  292.37</time>
   <energy>
    <i name="e_fr_energy">   -181.23249064 </i>
    <i name="e_wo_entrp">   -181.09847792 </i>
    <i name="e_0_energy">   -181.19898746 </i>
   </energy>
  </scstep>
  <scstep>
   <time name="diag">   64.36   64.36</time>
   <time name="diis">  177.37  177.37</time>
   <time name="orth">   12.74   12.74</time>
   <time name="total">  291.30  291.30</time>
   <energy>
    <i name="e_fr_energy">   -179.07578644 </i>
    <i name="e_wo_entrp">   -178.93619279 </i>
    <i name="e_0_energy">   -179.04088803 </i>
   </energy>
  </scstep>
  <scstep>
   <time name="diag">   64.64   64.64</time>
   <time name="diis">  176.81  176.81</time>
   <time name="orth">   12.81   12.81</time>
   <time name="total">  291.44  291.44</time>
   <energy>
    <i name="e_fr_energy">   -177.77449709 </i>
    <i name="e_wo_entrp">   -177.83706247 </i>
    <i name="e_0_energy">   -177.79013844 </i>
   </energy>
  </scstep>
  <scstep>
   <time name="diag">   64.55   64.55</time>
   <time name="diis">  175.86  175.86</time>
   <time name="orth">   12.77   12.77</time>
   <time name="total">  290.24  290.24</time>
   <energy>
    <i name="e_fr_energy">   -176.45957852 </i>
    <i name="e_wo_entrp">   -176.34191809 </i>
    <i name="e_0_energy">   -176.43016341 </i>
   </energy>
  </scstep>
  <scstep>
   <time name="diag">   64.53   64.53</time>
   <time name="diis">  176.50  176.50</time>
   <time name="orth">   12.95   12.95</time>
   <time name="total">  291.32  291.32</time>
   <energy>
    <i name="e_fr_energy">   -176.01767516 </i>
    <i name="e_wo_entrp">   -175.91229508 </i>
    <i name="e_0_energy">   -175.99133014 </i>
   </energy>
  </scstep>
  <scstep>
   <time name="diag">   65.20   65.20</time>
   <time name="diis">  172.49  172.49</time>
   <time name="orth">   12.92   12.92</time>
   <time name="total">  287.98  287.98</time>
   <energy>
    <i name="e_fr_energy">   -175.98709222 </i>
    <i name="e_wo_entrp">   -176.03214466 </i>
    <i name="e_0_energy">   -175.99835533 </i>
   </energy>
  </scstep>
  <scstep>
   <time name="diag">   65.22   65.22</time>
   <time name="diis">  176.05  176.05</time>
   <time name="orth">   12.85   12.85</time>
   <time name="total">  291.34  291.34</time>
   <energy>
    <i name="e_fr_energy">   -175.46524680 </i>
    <i name="e_wo_entrp">   -175.37744405 </i>
    <i name="e_0_energy">   -175.44329612 </i>
   </energy>
  </scstep>
  <scstep>
   <time name="diag">   64.97   64.97</time>
   <time name="diis">  174.48  174.48</time>
   <time name="orth">   12.81   12.81</time>
   <time name="total">  289.69  289.69</time>
   <energy>
    <i name="e_fr_energy">   -175.28239827 </i>
    <i name="e_wo_entrp">   -175.25104923 </i>
    <i name="e_0_energy">   -175.27456101 </i>
   </energy>
  </scstep>
  <scstep>
   <time name="diag">   64.90   64.90</time>
   <time name="diis">  174.00  174.00</time>
   <time name="orth">   12.87   12.87</time>
   <time name="total">  289.10  289.10</time>
   <energy>
    <i name="e_fr_energy">   -175.04687037 </i>
    <i name="e_wo_entrp">   -175.11198255 </i>
    <i name="e_0_energy">   -175.06314841 </i>
   </energy>
  </scstep>
  <scstep>
   <time name="diag">   64.56   64.56</time>
   <time name="diis">  176.10  176.10</time>
   <time name="orth">   12.88   12.88</time>
   <time name="total">  291.36  291.36</time>
   <energy>
    <i name="e_fr_energy">   -174.72012281 </i>
    <i name="e_wo_entrp">   -174.72304101 </i>
    <i name="e_0_energy">   -174.72085236 </i>
   </energy>
  </scstep>
  <scstep>
   <time name="diag">   64.90   64.90</time>
   <time name="diis">  175.02  175.02</time>
   <time name="orth">   12.87   12.87</time>
   <time name="total">  290.58  290.58</time>
   <energy>
    <i name="e_fr_energy">   -174.54746323 </i>
    <i name="e_wo_entrp">   -174.54935342 </i>
    <i name="e_0_energy">   -174.54793578 </i>
   </energy>
  </scstep>
  <scstep>
   <time name="diag">   65.15   65.15</time>
   <time name="diis">  175.04  175.04</time>
   <time name="orth">   12.83   12.83</time>
   <time name="total">  291.09  291.10</time>
   <energy>
    <i name="e_fr_energy">   -174.35444786 </i>
    <i name="e_wo_entrp">   -174.35633010 </i>
    <i name="e_0_energy">   -174.35491842 </i>
   </energy>
  </scstep>
  <scstep>
   <time name="diag">   64.67   64.67</time>
   <time name="diis">  173.04  173.04</time>
   <time name="orth">   12.79   12.79</time>
   <time name="total">  288.24  288.24</time>
   <energy>
    <i name="e_fr_energy">   -174.13465110 </i>
    <i name="e_wo_entrp">   -174.13034663 </i>
    <i name="e_0_energy">   -174.13357498 </i>
   </energy>
  </scstep>
  <scstep>
   <time name="diag">   64.68   64.68</time>
   <time name="diis">  173.67  173.67</time>
   <time name="orth">   12.92   12.92</time>
   <time name="total">  289.22  289.22</time>
   <energy>
    <i name="e_fr_energy">   -174.08400443 </i>
    <i name="e_wo_entrp">   -174.07002393 </i>
    <i name="e_0_energy">   -174.08050930 </i>
   </energy>
  </scstep>
  <scstep>
   <time name="diag">   64.87   64.87</time>
   <time name="diis">  174.62  174.62</time>
   <time name="orth">   12.96   12.96</time>
   <time name="total">  290.40  290.40</time>
   <energy>
    <i name="e_fr_energy">   -173.94344333 </i>
    <i name="e_wo_entrp">   -173.86514969 </i>
    <i name="e_0_energy">   -173.92386992 </i>
   </energy>
  </scstep>
  <scstep>
   <time name="diag">   65.44   65.44</time>
   <time name="diis">  176.44  176.44</time>
   <time name="orth">   13.00   13.00</time>
   <time name="total">  292.96  292.95</time>
   <energy>
    <i name="e_fr_energy">   -173.94833082 </i>
    <i name="e_wo_entrp">   -173.84110138 </i>
    <i name="e_0_energy">   -173.92152346 </i>
   </energy>
  </scstep>
  <scstep>
   <time name="diag">   64.78   64.77</time>
   <time name="diis">  176.28  176.28</time>
   <time name="orth">   12.94   12.94</time>
   <time name="total">  292.35  292.35</time>
   <energy>
    <i name="e_fr_energy">   -173.86482879 </i>
    <i name="e_wo_entrp">   -173.77469997 </i>
    <i name="e_0_energy">   -173.84229659 </i>
   </energy>
  </scstep>
  <scstep>
   <time name="diag">   64.89   64.89</time>
   <time name="diis">  174.15  174.15</time>
   <time name="orth">   13.06   13.06</time>
   <time name="total">  290.43  290.43</time>
   <energy>
    <i name="e_fr_energy">   -173.80510101 </i>
    <i name="e_wo_entrp">   -173.71219890 </i>
    <i name="e_0_energy">   -173.78187548 </i>
   </energy>
  </scstep>
  <scstep>
   <time name="diag">   64.66   64.66</time>
   <time name="diis">  174.67  174.67</time>
   <time name="orth">   13.07   13.07</time>
   <time name="total">  290.52  290.52</time>
   <energy>
    <i name="e_fr_energy">   -173.75467435 </i>
    <i name="e_wo_entrp">   -173.66632043 </i>
    <i name="e_0_energy">   -173.73258587 </i>
   </energy>
  </scstep>
  <scstep>
   <time name="diag">   64.53   64.53</time>
   <time name="diis">  173.56  173.56</time>
   <time name="orth">   13.94   13.95</time>
   <time name="total">  290.63  290.64</time>
   <energy>
    <i name="e_fr_energy">   -173.75217976 </i>
    <i name="e_wo_entrp">   -173.67177421 </i>
    <i name="e_0_energy">   -173.73207838 </i>
   </energy>
  </scstep>
  <scstep>
   <time name="diag">   64.67   64.67</time>
   <time name="diis">  175.25  175.25</time>
   <time name="orth">   13.21   13.21</time>
   <time name="total">  291.70  291.70</time>
   <energy>
    <i name="e_fr_energy">   -173.71098209 </i>
    <i name="e_wo_entrp">   -173.62004830 </i>
    <i name="e_0_energy">   -173.68824864 </i>
   </energy>
  </scstep>
  <scstep>
   <time name="diag">   65.08   65.07</time>
   <time name="diis">  174.67  174.68</time>
   <time name="orth">   13.16   13.16</time>
   <time name="total">  291.58  291.59</time>
   <energy>
    <i name="e_fr_energy">   -173.69374794 </i>
    <i name="e_wo_entrp">   -173.60263342 </i>
    <i name="e_0_energy">   -173.67096931 </i>
   </energy>
  </scstep>
  <scstep>
   <time name="diag">   64.91   64.91</time>
   <time name="diis">  174.91  174.91</time>
   <time name="orth">   13.20   13.20</time>
   <time name="total">  291.90  291.90</time>
   <energy>
    <i name="e_fr_energy">   -173.68856830 </i>
    <i name="e_wo_entrp">   -173.60152175 </i>
    <i name="e_0_energy">   -173.66680666 </i>
   </energy>
  </scstep>
  <scstep>
   <time name="diag">   64.97   64.97</time>
   <time name="diis">  173.07  173.08</time>
   <time name="orth">   13.05   13.05</time>
   <time name="total">  289.88  289.90</time>
   <energy>
    <i name="e_fr_energy">   -173.68050965 </i>
    <i name="e_wo_entrp">   -173.59139151 </i>
    <i name="e_0_energy">   -173.65823012 </i>
   </energy>
  </scstep>
  <scstep>
   <time name="diag">   64.97   64.98</time>
   <time name="diis">  173.10  173.11</time>
   <time name="orth">   13.11   13.12</time>
   <time name="total">  289.87  289.90</time>
   <energy>
    <i name="e_fr_energy">   -173.67993715 </i>
    <i name="e_wo_entrp">   -173.58938273 </i>
    <i name="e_0_energy">   -173.65729854 </i>
   </energy>
  </scstep>
  <scstep>
   <time name="diag">   64.92   64.92</time>
   <time name="diis">  171.88  171.90</time>
   <time name="orth">   13.19   13.19</time>
   <time name="total">  289.13  289.16</time>
   <energy>
    <i name="e_fr_energy">   -173.68020940 </i>
    <i name="e_wo_entrp">   -173.59217584 </i>
    <i name="e_0_energy">   -173.65820101 </i>
   </energy>
  </scstep>
  <scstep>
   <time name="diag">   65.48   65.48</time>
   <time name="diis">  173.02  173.04</time>
   <time name="orth">   13.22   13.22</time>
   <time name="total">  290.96  290.99</time>
   <energy>
    <i name="e_fr_energy">   -173.67885015 </i>
    <i name="e_wo_entrp">   -173.58927731 </i>
    <i name="e_0_energy">   -173.65645694 </i>
   </energy>
  </scstep>
  <scstep>
   <time name="diag">   65.35   65.36</time>
   <time name="diis">  172.50  172.52</time>
   <time name="orth">   13.11   13.11</time>
   <time name="total">  290.17  290.20</time>
   <energy>
    <i name="e_fr_energy">   -173.67993906 </i>
    <i name="e_wo_entrp">   -173.59059411 </i>
    <i name="e_0_energy">   -173.65760282 </i>
   </energy>
  </scstep>
  <scstep>
   <time name="diag">   65.03   65.03</time>
   <time name="diis">  174.08  174.10</time>
   <time name="orth">   13.55   13.55</time>
   <time name="total">  293.14  293.18</time>
   <energy>
    <i name="e_fr_energy">   -173.68000179 </i>
    <i name="e_wo_entrp">   -173.58992449 </i>
    <i name="e_0_energy">   -173.65748247 </i>
   </energy>
  </scstep>
  <scstep>
   <time name="diag">   66.64   66.65</time>
   <time name="diis">  177.99  178.01</time>
   <time name="orth">   13.58   13.58</time>
   <time name="total">  299.31  299.34</time>
   <energy>
    <i name="e_fr_energy">   -173.68187068 </i>
    <i name="e_wo_entrp">   -173.59111982 </i>
    <i name="e_0_energy">   -173.65918296 </i>
   </energy>
  </scstep>
  <scstep>
   <time name="diag">   66.73   66.73</time>
   <time name="diis">  177.16  177.18</time>
   <time name="orth">   13.49   13.49</time>
   <time name="total">  298.13  298.16</time>
   <energy>
    <i name="e_fr_energy">   -173.68597648 </i>
    <i name="e_wo_entrp">   -173.59744451 </i>
    <i name="e_0_energy">   -173.66384349 </i>
   </energy>
  </scstep>
  <scstep>
   <time name="diag">   66.18   66.18</time>
   <time name="diis">  158.85  158.87</time>
   <time name="orth">   13.60   13.60</time>
   <time name="total">  279.69  279.72</time>
   <energy>
    <i name="e_fr_energy">   -173.68761304 </i>
    <i name="e_wo_entrp">   -173.59913028 </i>
    <i name="e_0_energy">   -173.66549235 </i>
   </energy>
  </scstep>
  <scstep>
   <time name="diag">   65.94   65.94</time>
   <time name="diis">  141.79  141.80</time>
   <time name="orth">   12.87   12.87</time>
   <time name="total">  261.19  261.21</time>
   <energy>
    <i name="e_fr_energy">   -173.69037034 </i>
    <i name="e_wo_entrp">   -173.60114300 </i>
    <i name="e_0_energy">   -173.66806350 </i>
   </energy>
  </scstep>
  <scstep>
   <time name="diag">   65.28   65.28</time>
   <time name="diis">  145.47  145.48</time>
   <time name="orth">   13.50   13.50</time>
   <time name="total">  265.73  265.76</time>
   <energy>
    <i name="e_fr_energy">   -173.69299761 </i>
    <i name="e_wo_entrp">   -173.60362500 </i>
    <i name="e_0_energy">   -173.67065446 </i>
   </energy>
  </scstep>
  <scstep>
   <time name="diag">   67.89   67.89</time>
   <time name="diis">  121.31  121.31</time>
   <time name="orth">   13.54   13.54</time>
   <time name="total">  244.91  244.91</time>
   <energy>
    <i name="e_fr_energy">   -173.69439308 </i>
    <i name="e_wo_entrp">   -173.60541818 </i>
    <i name="e_0_energy">   -173.67214936 </i>
   </energy>
  </scstep>
  <scstep>
   <time name="diag">   67.22   67.22</time>
   <time name="diis">  129.00  129.00</time>
   <time name="orth">   13.27   13.27</time>
   <time name="total">  252.36  252.37</time>
   <energy>
    <i name="e_fr_energy">   -173.69729803 </i>
    <i name="e_wo_entrp">   -173.60903538 </i>
    <i name="e_0_energy">   -173.67523237 </i>
   </energy>
  </scstep>
  <scstep>
   <time name="diag">   67.10   67.10</time>
   <time name="diis">  119.92  119.94</time>
   <time name="orth">   13.40   13.40</time>
   <time name="total">  242.81  242.83</time>
   <energy>
    <i name="e_fr_energy">   -173.69826521 </i>
    <i name="e_wo_entrp">   -173.60973027 </i>
    <i name="e_0_energy">   -173.67613147 </i>
   </energy>
  </scstep>
  <scstep>
   <time name="diag">   67.46   67.46</time>
   <time name="diis">  120.65  120.65</time>
   <time name="orth">   13.38   13.38</time>
   <time name="total">  244.52  244.52</time>
   <energy>
    <i name="e_fr_energy">   -173.70033196 </i>
    <i name="e_wo_entrp">   -173.61158283 </i>
    <i name="e_0_energy">   -173.67814467 </i>
   </energy>
  </scstep>
  <scstep>
   <time name="diag">   66.92   66.92</time>
   <time name="diis">  116.55  116.55</time>
   <time name="orth">   13.53   13.53</time>
   <time name="total">  239.59  239.60</time>
   <energy>
    <i name="e_fr_energy">   -173.70151963 </i>
    <i name="e_wo_entrp">   -173.61227259 </i>
    <i name="e_0_energy">   -173.67920787 </i>
   </energy>
  </scstep>
  <scstep>
   <time name="diag">   67.29   67.29</time>
   <time name="diis">  115.22  115.22</time>
   <time name="orth">   13.51   13.51</time>
   <time name="total">  238.95  238.95</time>
   <energy>
    <i name="e_fr_energy">   -173.70248473 </i>
    <i name="e_wo_entrp">   -173.61320501 </i>
    <i name="e_0_energy">   -173.68016480 </i>
   </energy>
  </scstep>
  <scstep>
   <time name="diag">   67.70   67.70</time>
   <time name="diis">  114.70  114.70</time>
   <time name="orth">   13.37   13.37</time>
   <time name="total">  238.94  238.95</time>
   <energy>
    <i name="e_fr_energy">   -173.70330862 </i>
    <i name="e_wo_entrp">   -173.61405007 </i>
    <i name="e_0_energy">   -173.68099398 </i>
   </energy>
  </scstep>
  <scstep>
   <time name="diag">   66.89   66.89</time>
   <time name="diis">  114.05  114.05</time>
   <time name="orth">   13.25   13.25</time>
   <time name="total">  236.84  236.84</time>
   <energy>
    <i name="e_fr_energy">   -173.70375589 </i>
    <i name="e_wo_entrp">   -173.61474715 </i>
    <i name="e_0_energy">   -173.68150370 </i>
   </energy>
  </scstep>
  <scstep>
   <time name="diag">   66.76   66.76</time>
   <time name="diis">  115.14  115.14</time>
   <time name="orth">   12.93   12.93</time>
   <time name="total">  237.60  237.61</time>
   <energy>
    <i name="e_fr_energy">   -173.70441298 </i>
    <i name="e_wo_entrp">   -173.61559599 </i>
    <i name="e_0_energy">   -173.68220874 </i>
   </energy>
  </scstep>
  <scstep>
   <time name="diag">   65.89   65.89</time>
   <time name="diis">  100.36  100.36</time>
   <time name="orth">   13.23   13.23</time>
   <time name="total">  222.82  222.82</time>
   <energy>
    <i name="e_fr_energy">   -173.70462530 </i>
    <i name="e_wo_entrp">   -173.61568932 </i>
    <i name="e_0_energy">   -173.68239130 </i>
   </energy>
  </scstep>
  <scstep>
   <time name="diag">   66.77   66.77</time>
   <time name="diis">   98.95   98.95</time>
   <time name="orth">   13.72   13.72</time>
   <time name="total">  223.27  223.27</time>
   <energy>
    <i name="e_fr_energy">   -173.70518575 </i>
    <i name="e_wo_entrp">   -173.61653962 </i>
    <i name="e_0_energy">   -173.68302422 </i>
   </energy>
  </scstep>
  <scstep>
   <time name="diag">   66.86   66.86</time>
   <time name="diis">   83.71   83.71</time>
   <time name="orth">   13.34   13.34</time>
   <time name="total">  207.60  207.60</time>
   <energy>
    <i name="e_fr_energy">   -173.70547348 </i>
    <i name="e_wo_entrp">   -173.61661113 </i>
    <i name="e_0_energy">   -173.68325790 </i>
   </energy>
  </scstep>
  <scstep>
   <time name="diag">   67.40   67.40</time>
   <time name="diis">   94.98   94.98</time>
   <time name="orth">   13.38   13.38</time>
   <time name="total">  218.78  218.78</time>
   <energy>
    <i name="e_fr_energy">   -173.70581270 </i>
    <i name="e_wo_entrp">   -173.61685404 </i>
    <i name="e_0_energy">   -173.68357304 </i>
   </energy>
  </scstep>
  <scstep>
   <time name="diag">   67.51   67.51</time>
   <time name="diis">   91.46   91.47</time>
   <time name="orth">   13.25   13.25</time>
   <time name="total">  215.57  215.58</time>
   <energy>
    <i name="e_fr_energy">   -173.70627328 </i>
    <i name="e_wo_entrp">   -173.61739602 </i>
    <i name="e_0_energy">   -173.68405396 </i>
   </energy>
  </scstep>
  <scstep>
   <time name="diag">   66.87   66.88</time>
   <time name="diis">   81.14   81.14</time>
   <time name="orth">   13.39   13.39</time>
   <time name="total">  205.00  205.00</time>
   <energy>
    <i name="e_fr_energy">   -173.70641553 </i>
    <i name="e_wo_entrp">   -173.61753212 </i>
    <i name="e_0_energy">   -173.68419468 </i>
   </energy>
  </scstep>
  <scstep>
   <time name="diag">   67.09   67.10</time>
   <time name="diis">   87.11   87.11</time>
   <time name="orth">   13.47   13.47</time>
   <time name="total">  210.22  210.22</time>
   <energy>
    <i name="e_fr_energy">   -173.70666080 </i>
    <i name="e_wo_entrp">   -173.61779440 </i>
    <i name="e_0_energy">   -173.68444420 </i>
   </energy>
  </scstep>
  <scstep>
   <time name="diag">   66.36   66.36</time>
   <time name="diis">   78.59   78.59</time>
   <time name="orth">   13.50   13.50</time>
   <time name="total">  172.07  172.07</time>
   <energy>
    <i name="alphaZ">     75.25431677 </i>
    <i name="ewald"> 137750.60251978 </i>
    <i name="hartreedc">-182127.82208119 </i>
    <i name="XCdc">  -1693.40445275 </i>
    <i name="pawpsdc">  46032.69387946 </i>
    <i name="pawaedc"> -42501.97226355 </i>
    <i name="eentropy">     -0.08892828 </i>
    <i name="bandstr">  -2795.47522819 </i>
    <i name="atom">  45086.50549395 </i>
    <i name="e_fr_energy">   -173.70674400 </i>
    <i name="e_wo_entrp">   -173.61781572 </i>
    <i name="e_0_energy">   -173.68451193 </i>
   </energy>
  </scstep>
  <structure>
   <crystal>
    <varray name="basis" >
     <v>      30.00000000       0.00000000       0.00000000 </v>
     <v>       0.00000000      30.00000000       0.00000000 </v>
     <v>       0.00000000       0.00000000      30.00000000 </v>
    </varray>
    <i name="volume">  27000.00000000 </i>
    <varray name="rec_basis" >
     <v>       0.03333333       0.00000000       0.00000000 </v>
     <v>       0.00000000       0.03333333       0.00000000 </v>
     <v>       0.00000000       0.00000000       0.03333333 </v>
    </varray>
   </crystal>
   <varray name="positions" >
    <v>       0.44576020       0.32826710       0.41691983 </v>
    <v>       0.67173288       0.55423978       0.41691983 </v>
    <v>       0.55423980       0.32826710       0.41691983 </v>
    <v>       0.32826712       0.55423978       0.41691983 </v>
    <v>       0.50000000       0.38250690       0.34021317 </v>
    <v>       0.50000000       0.38250690       0.65978680 </v>
    <v>       0.50000000       0.27609440       0.50000000 </v>
    <v>       0.27609443       0.49999998       0.50000000 </v>
    <v>       0.72390557       0.49999998       0.50000000 </v>
    <v>       0.50000000       0.72390555       0.50000000 </v>
    <v>       0.61195280       0.38804720       0.34167483 </v>
    <v>       0.61195280       0.38804720       0.65832513 </v>
    <v>       0.38804722       0.61195278       0.34167483 </v>
    <v>       0.38804722       0.61195278       0.65832513 </v>
    <v>       0.38804720       0.38804720       0.34167483 </v>
    <v>       0.38804720       0.38804720       0.65832513 </v>
    <v>       0.61195278       0.61195278       0.34167483 </v>
    <v>       0.61195278       0.61195278       0.65832513 </v>
    <v>       0.44576020       0.32826710       0.58308023 </v>
    <v>       0.67173288       0.55423978       0.58308023 </v>
    <v>       0.55791699       0.44208301       0.41809300 </v>
    <v>       0.32826705       0.44576024       0.41691983 </v>
    <v>       0.55423973       0.67173293       0.41691983 </v>
    <v>       0.55423980       0.32826710       0.58308023 </v>
    <v>       0.32826712       0.55423978       0.58308023 </v>
    <v>       0.67173295       0.44576024       0.41691983 </v>
    <v>       0.44576027       0.67173293       0.41691983 </v>
    <v>       0.44208301       0.44208301       0.41809300 </v>
    <v>       0.50000000       0.38416601       0.50000000 </v>
    <v>       0.61749315       0.50000005       0.34021317 </v>
    <v>       0.61749315       0.50000005       0.65978680 </v>
    <v>       0.38250685       0.50000005       0.34021317 </v>
    <v>       0.38250685       0.50000005       0.65978680 </v>
    <v>       0.38317830       0.38317830       0.50000000 </v>
    <v>       0.61682172       0.61682172       0.50000000 </v>
    <v>       0.61682170       0.38317830       0.50000000 </v>
    <v>       0.38317828       0.61682172       0.50000000 </v>
    <v>       0.50000000       0.50000000       0.33478917 </v>
    <v>       0.50000000       0.50000000       0.66521087 </v>
    <v>       0.32826705       0.44576024       0.58308023 </v>
    <v>       0.55423973       0.67173293       0.58308023 </v>
    <v>       0.55791699       0.44208301       0.58190703 </v>
    <v>       0.44208298       0.55791702       0.41809300 </v>
    <v>       0.44208301       0.44208301       0.58190703 </v>
    <v>       0.67173295       0.44576024       0.58308023 </v>
    <v>       0.44576027       0.67173293       0.58308023 </v>
    <v>       0.55791702       0.55791702       0.41809300 </v>
    <v>       0.38416599       0.50000002       0.50000000 </v>
    <v>       0.61583401       0.50000002       0.50000000 </v>
    <v>       0.50000000       0.61749319       0.34021317 </v>
    <v>       0.50000000       0.61749319       0.65978680 </v>
    <v>       0.50000000       0.50000000       0.50000000 </v>
    <v>       0.44208298       0.55791702       0.58190703 </v>
    <v>       0.55791702       0.55791702       0.58190703 </v>
    <v>       0.50000000       0.61583404       0.50000000 </v>
    <v>       0.46419460       0.51159300       0.75559330 </v>
    <v>       0.45898350       0.51328027       0.79279217 </v>
   </varray>
  </structure>
  <varray name="forces" >
   <v>       0.70233735       1.10704917       0.29158182 </v>
   <v>      -1.10741279      -0.70288564       0.29260534 </v>
   <v>      -0.70313175       1.10807342       0.29374308 </v>
   <v>       1.10809607      -0.70258546       0.29083999 </v>
   <v>      -0.00042944       0.41133232       1.28098826 </v>
   <v>       0.00128619       0.39837993      -1.29867527 </v>
   <v>       0.00008677       1.51571639      -0.00049061 </v>
   <v>       1.51462220       0.00016008       0.00106074 </v>
   <v>      -1.51635539      -0.00010050      -0.00080689 </v>
   <v>       0.00006989      -1.51527423      -0.00011815 </v>
   <v>      -0.75577005       0.75519732       1.07239042 </v>
   <v>      -0.75675449       0.75649421      -1.07169193 </v>
   <v>       0.75490052      -0.75588439       1.07239369 </v>
   <v>       0.75467272      -0.75114736      -1.07712028 </v>
   <v>       0.75478757       0.75604447       1.07278397 </v>
   <v>       0.75716115       0.75375030      -1.07498039 </v>
   <v>      -0.75601610      -0.75520119       1.07272372 </v>
   <v>      -0.75658408      -0.75717680      -1.07249556 </v>
   <v>       0.70038903       1.10666512      -0.29319905 </v>
   <v>      -1.10729659      -0.70115652      -0.29197376 </v>
   <v>       0.11214603      -0.11242010      -0.15694590 </v>
   <v>       1.10823478       0.70216927       0.29087892 </v>
   <v>      -0.70264911      -1.10826089       0.29281880 </v>
   <v>      -0.70361983       1.10783787      -0.29108526 </v>
   <v>       1.10558855      -0.70333998      -0.29210444 </v>
   <v>      -1.10778053       0.70312651       0.29350422 </v>
   <v>       0.70234722      -1.10735408       0.29135504 </v>
   <v>      -0.11292338      -0.11304748      -0.15705585 </v>
   <v>       0.00172823      -0.22650636      -0.00126337 </v>
   <v>      -0.41101842       0.00009615       1.28069956 </v>
   <v>      -0.40656699       0.00003482      -1.29468090 </v>
   <v>       0.41108015       0.00009798       1.28111160 </v>
   <v>       0.38523024       0.00006805      -1.28959509 </v>
   <v>       0.82675663       0.82551464      -0.00463662 </v>
   <v>      -0.82398498      -0.82546029      -0.00739061 </v>
   <v>      -0.82446355       0.82524252      -0.00691867 </v>
   <v>       0.82752481      -0.82716890      -0.00217185 </v>
   <v>      -0.00195126       0.00051472       1.18081268 </v>
   <v>      -0.11986989       0.03969947      -0.67827004 </v>
   <v>       1.10769306       0.70507852      -0.28981184 </v>
   <v>      -0.70460659      -1.10879542      -0.29024517 </v>
   <v>       0.09681765      -0.09192089       0.17120374 </v>
   <v>      -0.11290074       0.11291521      -0.15700085 </v>
   <v>      -0.11599335      -0.12645581       0.14982075 </v>
   <v>      -1.10717627       0.70188675      -0.29178131 </v>
   <v>       0.70068821      -1.10569688      -0.29341672 </v>
   <v>       0.11243114       0.11262607      -0.15687912 </v>
   <v>      -0.22579084      -0.00018200      -0.00329425 </v>
   <v>       0.22623342      -0.00060247       0.00026399 </v>
   <v>      -0.00045620      -0.41151253       1.28096032 </v>
   <v>       0.00299818      -0.38727633      -1.30338907 </v>
   <v>      -0.00049018       0.00013006       0.00450410 </v>
   <v>      -0.12123250       0.12701201       0.14801670 </v>
   <v>       0.11105247       0.10148192       0.16018471 </v>
   <v>       0.00129384       0.22597190      -0.00206777 </v>
   <v>       0.53096484      -0.18568519      -2.98471715 </v>
   <v>      -0.35599360       0.12273052       2.56902755 </v>
  </varray>
  <varray name="stress" >
   <v>      -6.75419560       0.00307093       0.00740900 </v>
   <v>       0.00307094      -6.74577322      -0.00413048 </v>
   <v>       0.00740900      -0.00413050      -6.66227045 </v>
  </varray>
  <energy>
   <i name="e_fr_energy">   -173.70674400 </i>
   <i name="e_wo_entrp">   -173.68451193 </i>
   <i name="e_0_energy">     -0.08892828 </i>
  </energy>
  <time name="totalsc">17196.5517197.13</time>
  <eigenvalues>
   <array>
    <dimension dim="1">band</dimension>
    <dimension dim="2">kpoint</dimension>
    <dimension dim="3">spin</dimension>
    <field>eigene</field>
    <field>occ</field>
    <set>
     <set comment="spin 1">
      <set comment="kpoint 1">
       <r>  -29.2091    1.0000 </r>
       <r>  -13.7230    1.0000 </r>
       <r>  -11.5112    1.0000 </r>
       <r>  -11.5099    1.0000 </r>
       <r>   -9.0532    1.0000 </r>
       <r>   -6.6200    1.0000 </r>
       <r>   -6.1023    1.0000 </r>
       <r>   -6.1020    1.0000 </r>
       <r>   -6.0953    1.0000 </r>
       <r>   -5.7878    1.0000 </r>
       <r>   -5.7875    1.0000 </r>
       <r>   -5.7866    1.0000 </r>
       <r>   -5.7200    1.0000 </r>
       <r>   -5.6679    1.0000 </r>
       <r>   -5.6595    1.0000 </r>
       <r>   -5.6594    1.0000 </r>
       <r>   -5.6593    1.0000 </r>
       <r>   -5.5967    1.0000 </r>
       <r>   -5.5958    1.0000 </r>
       <r>   -5.5829    1.0000 </r>
       <r>   -5.5709    1.0000 </r>
       <r>   -5.5708    1.0000 </r>
       <r>   -5.5701    1.0000 </r>
       <r>   -5.5254    1.0000 </r>
       <r>   -5.5234    1.0000 </r>
       <r>   -5.5225    1.0000 </r>
       <r>   -5.5217    1.0000 </r>
       <r>   -5.4954    1.0000 </r>
       <r>   -5.4951    1.0000 </r>
       <r>   -5.4942    1.0000 </r>
       <r>   -5.4886    1.0000 </r>
       <r>   -5.4885    1.0000 </r>
       <r>   -5.4883    1.0000 </r>
       <r>   -5.4868    1.0000 </r>
       <r>   -5.4867    1.0000 </r>
       <r>   -5.4527    1.0000 </r>
       <r>   -5.4526    1.0000 </r>
       <r>   -5.4440    1.0000 </r>
       <r>   -5.4435    1.0000 </r>
       <r>   -5.4427    1.0000 </r>
       <r>   -5.4419    1.0000 </r>
       <r>   -5.4417    1.0000 </r>
       <r>   -5.4414    1.0000 </r>
       <r>   -5.4043    1.0000 </r>
       <r>   -5.4040    1.0000 </r>
       <r>   -5.4036    1.0000 </r>
       <r>   -5.4030    1.0000 </r>
       <r>   -5.4014    1.0000 </r>
       <r>   -5.3969    1.0000 </r>
       <r>   -5.3961    1.0000 </r>
       <r>   -5.3958    1.0000 </r>
       <r>   -5.3818    1.0000 </r>
       <r>   -5.3803    1.0000 </r>
       <r>   -5.3800    1.0000 </r>
       <r>   -5.3653    1.0000 </r>
       <r>   -5.3033    1.0000 </r>
       <r>   -5.3019    1.0000 </r>
       <r>   -5.3012    1.0000 </r>
       <r>   -5.3010    1.0000 </r>
       <r>   -5.2909    1.0000 </r>
       <r>   -5.2908    1.0000 </r>
       <r>   -5.2905    1.0000 </r>
       <r>   -5.2760    1.0000 </r>
       <r>   -5.2752    1.0000 </r>
       <r>   -5.2737    1.0000 </r>
       <r>   -5.2620    1.0000 </r>
       <r>   -5.2604    1.0000 </r>
       <r>   -5.1904    1.0000 </r>
       <r>   -5.1808    1.0000 </r>
       <r>   -5.1796    1.0000 </r>
       <r>   -5.1788    1.0000 </r>
       <r>   -5.1550    1.0000 </r>
       <r>   -5.1548    1.0000 </r>
       <r>   -5.1542    1.0000 </r>
       <r>   -5.1525    1.0000 </r>
       <r>   -5.1498    1.0000 </r>
       <r>   -5.1368    1.0000 </r>
       <r>   -5.1367    1.0000 </r>
       <r>   -5.1355    1.0000 </r>
       <r>   -5.1217    1.0000 </r>
       <r>   -5.0998    1.0000 </r>
       <r>   -5.0985    1.0000 </r>
       <r>   -5.0982    1.0000 </r>
       <r>   -5.0875    1.0000 </r>
       <r>   -5.0777    1.0000 </r>
       <r>   -5.0772    1.0000 </r>
       <r>   -5.0770    1.0000 </r>
       <r>   -5.0342    1.0000 </r>
       <r>   -5.0331    1.0000 </r>
       <r>   -5.0295    1.0000 </r>
       <r>   -5.0292    1.0000 </r>
       <r>   -5.0290    1.0000 </r>
       <r>   -5.0253    1.0000 </r>
       <r>   -5.0228    1.0000 </r>
       <r>   -5.0227    1.0000 </r>
       <r>   -5.0079    1.0000 </r>
       <r>   -5.0061    1.0000 </r>
       <r>   -5.0026    1.0000 </r>
       <r>   -4.9926    1.0000 </r>
       <r>   -4.9918    1.0000 </r>
       <r>   -4.9795    1.0000 </r>
       <r>   -4.9795    1.0000 </r>
       <r>   -4.9792    1.0000 </r>
       <r>   -4.9666    1.0000 </r>
       <r>   -4.9657    1.0000 </r>
       <r>   -4.9654    1.0000 </r>
       <r>   -4.9542    1.0000 </r>
       <r>   -4.9541    1.0000 </r>
       <r>   -4.9539    1.0000 </r>
       <r>   -4.9442    1.0000 </r>
       <r>   -4.9428    1.0000 </r>
       <r>   -4.9346    1.0000 </r>
       <r>   -4.9336    1.0000 </r>
       <r>   -4.9283    1.0000 </r>
       <r>   -4.9270    1.0000 </r>
       <r>   -4.9266    1.0000 </r>
       <r>   -4.9132    1.0000 </r>
       <r>   -4.8921    1.0000 </r>
       <r>   -4.8916    1.0000 </r>
       <r>   -4.8915    1.0000 </r>
       <r>   -4.8792    1.0000 </r>
       <r>   -4.8770    1.0000 </r>
       <r>   -4.8766    1.0000 </r>
       <r>   -4.8760    1.0000 </r>
       <r>   -4.8754    1.0000 </r>
       <r>   -4.8749    1.0000 </r>
       <r>   -4.8214    1.0000 </r>
       <r>   -4.8177    1.0000 </r>
       <r>   -4.8175    1.0000 </r>
       <r>   -4.8158    1.0000 </r>
       <r>   -4.8158    1.0000 </r>
       <r>   -4.8152    1.0000 </r>
       <r>   -4.8049    1.0000 </r>
       <r>   -4.8047    1.0000 </r>
       <r>   -4.8041    1.0000 </r>
       <r>   -4.7709    0.9999 </r>
       <r>   -4.7676    0.9999 </r>
       <r>   -4.7658    0.9999 </r>
       <r>   -4.7654    0.9999 </r>
       <r>   -4.7458    0.9998 </r>
       <r>   -4.7419    0.9998 </r>
       <r>   -4.7371    0.9998 </r>
       <r>   -4.7115    0.9996 </r>
       <r>   -4.7113    0.9996 </r>
       <r>   -4.7113    0.9996 </r>
       <r>   -4.7007    0.9995 </r>
       <r>   -4.6986    0.9995 </r>
       <r>   -4.6808    0.9993 </r>
       <r>   -4.6654    0.9990 </r>
       <r>   -4.6631    0.9990 </r>
       <r>   -4.6625    0.9990 </r>
       <r>   -4.6570    0.9988 </r>
       <r>   -4.6487    0.9987 </r>
       <r>   -4.6474    0.9986 </r>
       <r>   -4.6471    0.9986 </r>
       <r>   -4.6468    0.9986 </r>
       <r>   -4.6464    0.9986 </r>
       <r>   -4.6464    0.9986 </r>
       <r>   -4.6319    0.9982 </r>
       <r>   -4.6252    0.9980 </r>
       <r>   -4.6250    0.9980 </r>
       <r>   -4.6225    0.9979 </r>
       <r>   -4.6211    0.9979 </r>
       <r>   -4.6205    0.9979 </r>
       <r>   -4.6197    0.9979 </r>
       <r>   -4.6196    0.9978 </r>
       <r>   -4.6167    0.9978 </r>
       <r>   -4.6153    0.9977 </r>
       <r>   -4.6039    0.9973 </r>
       <r>   -4.6022    0.9973 </r>
       <r>   -4.5762    0.9963 </r>
       <r>   -4.5725    0.9961 </r>
       <r>   -4.5714    0.9961 </r>
       <r>   -4.5714    0.9961 </r>
       <r>   -4.5690    0.9960 </r>
       <r>   -4.5674    0.9960 </r>
       <r>   -4.5666    0.9959 </r>
       <r>   -4.5629    0.9958 </r>
       <r>   -4.5553    0.9956 </r>
       <r>   -4.5527    0.9955 </r>
       <r>   -4.5477    0.9954 </r>
       <r>   -4.5266    0.9951 </r>
       <r>   -4.5261    0.9951 </r>
       <r>   -4.5259    0.9951 </r>
       <r>   -4.5257    0.9951 </r>
       <r>   -4.5255    0.9951 </r>
       <r>   -4.5253    0.9951 </r>
       <r>   -4.5243    0.9951 </r>
       <r>   -4.5223    0.9951 </r>
       <r>   -4.5223    0.9951 </r>
       <r>   -4.4809    0.9972 </r>
       <r>   -4.4788    0.9975 </r>
       <r>   -4.4785    0.9975 </r>
       <r>   -4.4778    0.9976 </r>
       <r>   -4.4774    0.9977 </r>
       <r>   -4.4652    0.9994 </r>
       <r>   -4.4549    1.0014 </r>
       <r>   -4.4546    1.0015 </r>
       <r>   -4.4524    1.0020 </r>
       <r>   -4.4425    1.0044 </r>
       <r>   -4.4418    1.0046 </r>
       <r>   -4.4322    1.0074 </r>
       <r>   -4.4307    1.0079 </r>
       <r>   -4.4304    1.0080 </r>
       <r>   -4.4216    1.0110 </r>
       <r>   -4.4215    1.0111 </r>
       <r>   -4.4212    1.0112 </r>
       <r>   -4.4173    1.0127 </r>
       <r>   -4.4165    1.0130 </r>
       <r>   -4.4138    1.0140 </r>
       <r>   -4.3993    1.0202 </r>
       <r>   -4.3834    1.0275 </r>
       <r>   -4.3832    1.0276 </r>
       <r>   -4.3826    1.0279 </r>
       <r>   -4.3821    1.0281 </r>
       <r>   -4.3789    1.0297 </r>
       <r>   -4.3752    1.0315 </r>
       <r>   -4.3747    1.0317 </r>
       <r>   -4.3742    1.0320 </r>
       <r>   -4.3443    1.0452 </r>
       <r>   -4.3419    1.0461 </r>
       <r>   -4.3387    1.0471 </r>
       <r>   -4.3130    1.0516 </r>
       <r>   -4.3120    1.0516 </r>
       <r>   -4.3115    1.0516 </r>
       <r>   -4.3114    1.0516 </r>
       <r>   -4.3105    1.0515 </r>
       <r>   -4.3093    1.0515 </r>
       <r>   -4.3086    1.0514 </r>
       <r>   -4.3071    1.0512 </r>
       <r>   -4.3036    1.0507 </r>
       <r>   -4.3014    1.0502 </r>
       <r>   -4.2977    1.0492 </r>
       <r>   -4.2975    1.0492 </r>
       <r>   -4.2951    1.0483 </r>
       <r>   -4.2949    1.0483 </r>
       <r>   -4.2948    1.0482 </r>
       <r>   -4.2920    1.0471 </r>
       <r>   -4.2907    1.0464 </r>
       <r>   -4.2905    1.0463 </r>
       <r>   -4.2761    1.0365 </r>
       <r>   -4.2736    1.0343 </r>
       <r>   -4.2607    1.0193 </r>
       <r>   -4.2594    1.0174 </r>
       <r>   -4.2576    1.0148 </r>
       <r>   -4.2572    1.0143 </r>
       <r>   -4.2572    1.0142 </r>
       <r>   -4.2566    1.0134 </r>
       <r>   -4.2512    1.0047 </r>
       <r>   -4.2436    0.9907 </r>
       <r>   -4.2364    0.9753 </r>
       <r>   -4.2297    0.9594 </r>
       <r>   -4.2278    0.9545 </r>
       <r>   -4.2271    0.9529 </r>
       <r>   -4.2226    0.9406 </r>
       <r>   -4.2215    0.9375 </r>
       <r>   -4.2214    0.9372 </r>
       <r>   -4.2174    0.9254 </r>
       <r>   -4.2166    0.9231 </r>
       <r>   -4.2165    0.9229 </r>
       <r>   -4.2110    0.9055 </r>
       <r>   -4.2102    0.9029 </r>
       <r>   -4.2099    0.9019 </r>
       <r>   -4.2097    0.9013 </r>
       <r>   -4.2065    0.8906 </r>
       <r>   -4.1971    0.8570 </r>
       <r>   -4.1947    0.8479 </r>
       <r>   -4.1909    0.8332 </r>
       <r>   -4.1908    0.8325 </r>
       <r>   -4.1902    0.8303 </r>
       <r>   -4.1882    0.8222 </r>
       <r>   -4.1879    0.8208 </r>
       <r>   -4.1651    0.7201 </r>
       <r>   -4.1644    0.7167 </r>
       <r>   -4.1632    0.7112 </r>
       <r>   -4.1526    0.6592 </r>
       <r>   -4.1521    0.6569 </r>
       <r>   -4.1495    0.6434 </r>
       <r>   -4.1424    0.6073 </r>
       <r>   -4.1421    0.6059 </r>
       <r>   -4.1417    0.6039 </r>
       <r>   -4.1280    0.5321 </r>
       <r>   -4.1011    0.3908 </r>
       <r>   -4.1010    0.3900 </r>
       <r>   -4.1004    0.3870 </r>
       <r>   -4.0979    0.3743 </r>
       <r>   -4.0849    0.3091 </r>
       <r>   -4.0833    0.3016 </r>
       <r>   -4.0805    0.2880 </r>
       <r>   -3.9441   -0.0498 </r>
       <r>   -3.8709   -0.0326 </r>
       <r>   -3.7924   -0.0022 </r>
       <r>   -3.7906   -0.0018 </r>
       <r>   -3.7888   -0.0014 </r>
       <r>   -3.4654    0.0001 </r>
       <r>   -3.4638    0.0001 </r>
       <r>   -3.4273    0.0000 </r>
       <r>   -3.0281    0.0000 </r>
       <r>   -3.0277    0.0000 </r>
       <r>   -3.0026    0.0000 </r>
       <r>   -2.9887    0.0000 </r>
       <r>   -2.9872    0.0000 </r>
       <r>   -2.9854    0.0000 </r>
       <r>   -2.9047    0.0000 </r>
       <r>   -2.8755    0.0000 </r>
       <r>   -2.5272    0.0000 </r>
       <r>   -2.5149    0.0000 </r>
       <r>   -2.4919    0.0000 </r>
       <r>   -2.2874    0.0000 </r>
       <r>   -2.0954    0.0000 </r>
       <r>   -2.0930    0.0000 </r>
       <r>   -2.0919    0.0000 </r>
       <r>   -1.9359    0.0000 </r>
       <r>   -1.9227    0.0000 </r>
       <r>   -1.9090    0.0000 </r>
       <r>   -1.8599    0.0000 </r>
       <r>   -1.8233    0.0000 </r>
       <r>   -1.7485    0.0000 </r>
       <r>   -1.7357    0.0000 </r>
       <r>   -1.7028    0.0000 </r>
       <r>   -1.6180    0.0000 </r>
       <r>   -1.5437    0.0000 </r>
       <r>   -1.5257    0.0000 </r>
       <r>   -1.5070    0.0000 </r>
       <r>   -1.4837    0.0000 </r>
       <r>   -1.1610    0.0000 </r>
       <r>   -1.1474    0.0000 </r>
       <r>   -1.0360    0.0000 </r>
       <r>   -0.9632    0.0000 </r>
       <r>   -0.9613    0.0000 </r>
       <r>   -0.9487    0.0000 </r>
       <r>   -0.9114    0.0000 </r>
       <r>   -0.9067    0.0000 </r>
       <r>   -0.8449    0.0000 </r>
       <r>   -0.7777    0.0000 </r>
       <r>   -0.6916    0.0000 </r>
      </set>
     </set>
    </set>
   </array>
  </eigenvalues>
  <separator name="orbital magnetization" >
   <v name="MAGDIPOLOUT">      0.00000000      0.00000000      0.00000000</v>
  </separator>
  <dos>
   <i name="efermi">     -4.12194860 </i>
   <total>
    <array>
     <dimension dim="1">gridpoints</dimension>
     <dimension dim="2">spin</dimension>
     <field>energy</field>
     <field>total</field>
     <field>integrated</field>
     <set>
      <set comment="spin 1">
       <r>   -31.2091     0.0000     0.0000 </r>
       <r>   -31.1007     0.0000     0.0000 </r>
       <r>   -30.9924     0.0000     0.0000 </r>
       <r>   -30.8840     0.0000     0.0000 </r>
       <r>   -30.7756     0.0000     0.0000 </r>
       <r>   -30.6672     0.0000     0.0000 </r>
       <r>   -30.5588     0.0000     0.0000 </r>
       <r>   -30.4504     0.0000     0.0000 </r>
       <r>   -30.3420     0.0000     0.0000 </r>
       <r>   -30.2336     0.0000     0.0000 </r>
       <r>   -30.1252     0.0000     0.0000 </r>
       <r>   -30.0168     0.0000     0.0000 </r>
       <r>   -29.9084     0.0004     0.0000 </r>
       <r>   -29.8000     0.0064     0.0007 </r>
       <r>   -29.6917     0.0424     0.0053 </r>
       <r>   -29.5833     0.0260     0.0081 </r>
       <r>   -29.4749    -0.5458    -0.0510 </r>
       <r>   -29.3665    -0.2529    -0.0784 </r>
       <r>   -29.2581     5.3879     0.5056 </r>
       <r>   -29.1497     9.9828     1.5876 </r>
       <r>   -29.0413     4.6529     2.0920 </r>
       <r>   -28.9329    -0.4673     2.0413 </r>
       <r>   -28.8245    -0.4660     1.9908 </r>
       <r>   -28.7161     0.0424     1.9954 </r>
       <r>   -28.6077     0.0371     1.9994 </r>
       <r>   -28.4993     0.0050     2.0000 </r>
       <r>   -28.3910     0.0003     2.0000 </r>
       <r>   -28.2826     0.0000     2.0000 </r>
       <r>   -28.1742     0.0000     2.0000 </r>
       <r>   -28.0658     0.0000     2.0000 </r>
       <r>   -27.9574     0.0000     2.0000 </r>
       <r>   -27.8490     0.0000     2.0000 </r>
       <r>   -27.7406     0.0000     2.0000 </r>
       <r>   -27.6322     0.0000     2.0000 </r>
       <r>   -27.5238     0.0000     2.0000 </r>
       <r>   -27.4154     0.0000     2.0000 </r>
       <r>   -27.3070     0.0000     2.0000 </r>
       <r>   -27.1986     0.0000     2.0000 </r>
       <r>   -27.0903     0.0000     2.0000 </r>
       <r>   -26.9819     0.0000     2.0000 </r>
       <r>   -26.8735     0.0000     2.0000 </r>
       <r>   -26.7651     0.0000     2.0000 </r>
       <r>   -26.6567     0.0000     2.0000 </r>
       <r>   -26.5483     0.0000     2.0000 </r>
       <r>   -26.4399     0.0000     2.0000 </r>
       <r>   -26.3315     0.0000     2.0000 </r>
       <r>   -26.2231     0.0000     2.0000 </r>
       <r>   -26.1147     0.0000     2.0000 </r>
       <r>   -26.0063     0.0000     2.0000 </r>
       <r>   -25.8979     0.0000     2.0000 </r>
       <r>   -25.7895     0.0000     2.0000 </r>
       <r>   -25.6812     0.0000     2.0000 </r>
       <r>   -25.5728     0.0000     2.0000 </r>
       <r>   -25.4644     0.0000     2.0000 </r>
       <r>   -25.3560     0.0000     2.0000 </r>
       <r>   -25.2476     0.0000     2.0000 </r>
       <r>   -25.1392     0.0000     2.0000 </r>
       <r>   -25.0308     0.0000     2.0000 </r>
       <r>   -24.9224     0.0000     2.0000 </r>
       <r>   -24.8140     0.0000     2.0000 </r>
       <r>   -24.7056     0.0000     2.0000 </r>
       <r>   -24.5972     0.0000     2.0000 </r>
       <r>   -24.4888     0.0000     2.0000 </r>
       <r>   -24.3805     0.0000     2.0000 </r>
       <r>   -24.2721     0.0000     2.0000 </r>
       <r>   -24.1637     0.0000     2.0000 </r>
       <r>   -24.0553     0.0000     2.0000 </r>
       <r>   -23.9469     0.0000     2.0000 </r>
       <r>   -23.8385     0.0000     2.0000 </r>
       <r>   -23.7301     0.0000     2.0000 </r>
       <r>   -23.6217     0.0000     2.0000 </r>
       <r>   -23.5133     0.0000     2.0000 </r>
       <r>   -23.4049     0.0000     2.0000 </r>
       <r>   -23.2965     0.0000     2.0000 </r>
       <r>   -23.1881     0.0000     2.0000 </r>
       <r>   -23.0798     0.0000     2.0000 </r>
       <r>   -22.9714     0.0000     2.0000 </r>
       <r>   -22.8630     0.0000     2.0000 </r>
       <r>   -22.7546     0.0000     2.0000 </r>
       <r>   -22.6462     0.0000     2.0000 </r>
       <r>   -22.5378     0.0000     2.0000 </r>
       <r>   -22.4294     0.0000     2.0000 </r>
       <r>   -22.3210     0.0000     2.0000 </r>
       <r>   -22.2126     0.0000     2.0000 </r>
       <r>   -22.1042     0.0000     2.0000 </r>
       <r>   -21.9958     0.0000     2.0000 </r>
       <r>   -21.8874     0.0000     2.0000 </r>
       <r>   -21.7791     0.0000     2.0000 </r>
       <r>   -21.6707     0.0000     2.0000 </r>
       <r>   -21.5623     0.0000     2.0000 </r>
       <r>   -21.4539     0.0000     2.0000 </r>
       <r>   -21.3455     0.0000     2.0000 </r>
       <r>   -21.2371     0.0000     2.0000 </r>
       <r>   -21.1287     0.0000     2.0000 </r>
       <r>   -21.0203     0.0000     2.0000 </r>
       <r>   -20.9119     0.0000     2.0000 </r>
       <r>   -20.8035     0.0000     2.0000 </r>
       <r>   -20.6951     0.0000     2.0000 </r>
       <r>   -20.5867     0.0000     2.0000 </r>
       <r>   -20.4784     0.0000     2.0000 </r>
       <r>   -20.3700     0.0000     2.0000 </r>
       <r>   -20.2616     0.0000     2.0000 </r>
       <r>   -20.1532     0.0000     2.0000 </r>
       <r>   -20.0448     0.0000     2.0000 </r>
       <r>   -19.9364     0.0000     2.0000 </r>
       <r>   -19.8280     0.0000     2.0000 </r>
       <r>   -19.7196     0.0000     2.0000 </r>
       <r>   -19.6112     0.0000     2.0000 </r>
       <r>   -19.5028     0.0000     2.0000 </r>
       <r>   -19.3944     0.0000     2.0000 </r>
       <r>   -19.2860     0.0000     2.0000 </r>
       <r>   -19.1776     0.0000     2.0000 </r>
       <r>   -19.0693     0.0000     2.0000 </r>
       <r>   -18.9609     0.0000     2.0000 </r>
       <r>   -18.8525     0.0000     2.0000 </r>
       <r>   -18.7441     0.0000     2.0000 </r>
       <r>   -18.6357     0.0000     2.0000 </r>
       <r>   -18.5273     0.0000     2.0000 </r>
       <r>   -18.4189     0.0000     2.0000 </r>
       <r>   -18.3105     0.0000     2.0000 </r>
       <r>   -18.2021     0.0000     2.0000 </r>
       <r>   -18.0937     0.0000     2.0000 </r>
       <r>   -17.9853     0.0000     2.0000 </r>
       <r>   -17.8769     0.0000     2.0000 </r>
       <r>   -17.7686     0.0000     2.0000 </r>
       <r>   -17.6602     0.0000     2.0000 </r>
       <r>   -17.5518     0.0000     2.0000 </r>
       <r>   -17.4434     0.0000     2.0000 </r>
       <r>   -17.3350     0.0000     2.0000 </r>
       <r>   -17.2266     0.0000     2.0000 </r>
       <r>   -17.1182     0.0000     2.0000 </r>
       <r>   -17.0098     0.0000     2.0000 </r>
       <r>   -16.9014     0.0000     2.0000 </r>
       <r>   -16.7930     0.0000     2.0000 </r>
       <r>   -16.6846     0.0000     2.0000 </r>
       <r>   -16.5762     0.0000     2.0000 </r>
       <r>   -16.4679     0.0000     2.0000 </r>
       <r>   -16.3595     0.0000     2.0000 </r>
       <r>   -16.2511     0.0000     2.0000 </r>
       <r>   -16.1427     0.0000     2.0000 </r>
       <r>   -16.0343     0.0000     2.0000 </r>
       <r>   -15.9259     0.0000     2.0000 </r>
       <r>   -15.8175     0.0000     2.0000 </r>
       <r>   -15.7091     0.0000     2.0000 </r>
       <r>   -15.6007     0.0000     2.0000 </r>
       <r>   -15.4923     0.0000     2.0000 </r>
       <r>   -15.3839     0.0000     2.0000 </r>
       <r>   -15.2755     0.0000     2.0000 </r>
       <r>   -15.1672     0.0000     2.0000 </r>
       <r>   -15.0588     0.0000     2.0000 </r>
       <r>   -14.9504     0.0000     2.0000 </r>
       <r>   -14.8420     0.0000     2.0000 </r>
       <r>   -14.7336     0.0000     2.0000 </r>
       <r>   -14.6252     0.0000     2.0000 </r>
       <r>   -14.5168     0.0000     2.0000 </r>
       <r>   -14.4084     0.0006     2.0001 </r>
       <r>   -14.3000     0.0086     2.0010 </r>
       <r>   -14.1916     0.0494     2.0064 </r>
       <r>   -14.0832    -0.0053     2.0058 </r>
       <r>   -13.9748    -0.6472     1.9356 </r>
       <r>   -13.8665     0.1267     1.9494 </r>
       <r>   -13.7581     6.3549     2.6382 </r>
       <r>   -13.6497     9.8007     3.7005 </r>
       <r>   -13.5413     3.6990     4.1014 </r>
       <r>   -13.4329    -0.6647     4.0294 </r>
       <r>   -13.3245    -0.3618     3.9902 </r>
       <r>   -13.2161     0.0562     3.9963 </r>
       <r>   -13.1077     0.0306     3.9996 </r>
       <r>   -12.9993     0.0036     4.0000 </r>
       <r>   -12.8909     0.0002     4.0000 </r>
       <r>   -12.7825     0.0000     4.0000 </r>
       <r>   -12.6741     0.0000     4.0000 </r>
       <r>   -12.5657     0.0000     4.0000 </r>
       <r>   -12.4574     0.0000     4.0000 </r>
       <r>   -12.3490     0.0000     4.0000 </r>
       <r>   -12.2406     0.0003     4.0000 </r>
       <r>   -12.1322     0.0062     4.0007 </r>
       <r>   -12.0238     0.0556     4.0067 </r>
       <r>   -11.9154     0.1200     4.0197 </r>
       <r>   -11.8070    -0.6336     3.9511 </r>
       <r>   -11.6986    -1.4492     3.7940 </r>
       <r>   -11.5902     6.5643     4.5055 </r>
       <r>   -11.4818    19.3029     6.5978 </r>
       <r>   -11.3734    13.5625     8.0678 </r>
       <r>   -11.2650     0.6732     8.1408 </r>
       <r>   -11.1567    -1.3781     7.9914 </r>
       <r>   -11.0483    -0.0469     7.9863 </r>
       <r>   -10.9399     0.1049     7.9977 </r>
       <r>   -10.8315     0.0197     7.9998 </r>
       <r>   -10.7231     0.0014     8.0000 </r>
       <r>   -10.6147     0.0000     8.0000 </r>
       <r>   -10.5063     0.0000     8.0000 </r>
       <r>   -10.3979     0.0000     8.0000 </r>
       <r>   -10.2895     0.0000     8.0000 </r>
       <r>   -10.1811     0.0000     8.0000 </r>
       <r>   -10.0727     0.0000     8.0000 </r>
       <r>    -9.9643     0.0000     8.0000 </r>
       <r>    -9.8560     0.0000     8.0000 </r>
       <r>    -9.7476     0.0004     8.0000 </r>
       <r>    -9.6392     0.0071     8.0008 </r>
       <r>    -9.5308     0.0449     8.0057 </r>
       <r>    -9.4224     0.0162     8.0074 </r>
       <r>    -9.3140    -0.5827     7.9443 </r>
       <r>    -9.2056    -0.1314     7.9300 </r>
       <r>    -9.0972     5.7325     8.5514 </r>
       <r>    -8.9888     9.9419     9.6290 </r>
       <r>    -8.8804     4.3114    10.0963 </r>
       <r>    -8.7720    -0.5479    10.0369 </r>
       <r>    -8.6636    -0.4286     9.9905 </r>
       <r>    -8.5553     0.0482     9.9957 </r>
       <r>    -8.4469     0.0348     9.9995 </r>
       <r>    -8.3385     0.0045    10.0000 </r>
       <r>    -8.2301     0.0002    10.0000 </r>
       <r>    -8.1217     0.0000    10.0000 </r>
       <r>    -8.0133     0.0000    10.0000 </r>
       <r>    -7.9049     0.0000    10.0000 </r>
       <r>    -7.7965     0.0000    10.0000 </r>
       <r>    -7.6881     0.0000    10.0000 </r>
       <r>    -7.5797     0.0000    10.0000 </r>
       <r>    -7.4713     0.0000    10.0000 </r>
       <r>    -7.3629     0.0001    10.0000 </r>
       <r>    -7.2546     0.0023    10.0003 </r>
       <r>    -7.1462     0.0226    10.0027 </r>
       <r>    -7.0378     0.0638    10.0096 </r>
       <r>    -6.9294    -0.2310     9.9846 </r>
       <r>    -6.8210    -0.7968     9.8982 </r>
       <r>    -6.7126     2.4845    10.1675 </r>
       <r>    -6.6042     9.3202    11.1777 </r>
       <r>    -6.4958     7.7742    12.0204 </r>
       <r>    -6.3874    -0.2850    11.9895 </r>
       <r>    -6.2790    -2.5161    11.7168 </r>
       <r>    -6.1706    11.9079    13.0075 </r>
       <r>    -6.0622    28.7789    16.1269 </r>
       <r>    -5.9538    16.2495    17.8882 </r>
       <r>    -5.8455     9.5997    18.9287 </r>
       <r>    -5.7371    37.3267    22.9747 </r>
       <r>    -5.6287    92.1964    32.9680 </r>
       <r>    -5.5203   205.2183    55.2120 </r>
       <r>    -5.4119   305.6717    88.3443 </r>
       <r>    -5.3035   270.6562   117.6812 </r>
       <r>    -5.1951   203.7992   139.7713 </r>
       <r>    -5.0867   249.6915   166.8359 </r>
       <r>    -4.9783   349.8648   204.7583 </r>
       <r>    -4.8699   356.2782   243.3760 </r>
       <r>    -4.7615   294.3467   275.2807 </r>
       <r>    -4.6531   337.3324   311.8448 </r>
       <r>    -4.5448   422.8980   357.6835 </r>
       <r>    -4.4364   421.9049   403.4145 </r>
       <r>    -4.3280   468.1308   454.1561 </r>
       <r>    -4.2196   564.2336   515.3144 </r>
       <r>    -4.1112   443.3913   563.3743 </r>
       <r>    -4.0028   155.3990   580.2183 </r>
       <r>    -3.8944    14.8341   581.8262 </r>
       <r>    -3.7860    26.7471   584.7254 </r>
       <r>    -3.6776    25.8638   587.5288 </r>
       <r>    -3.5692     8.0901   588.4057 </r>
       <r>    -3.4608    21.8256   590.7714 </r>
       <r>    -3.3524    25.9631   593.5856 </r>
       <r>    -3.2441     2.3922   593.8449 </r>
       <r>    -3.1357     0.0640   593.8518 </r>
       <r>    -3.0273    42.4032   598.4480 </r>
       <r>    -2.9189    69.9978   606.0352 </r>
       <r>    -2.8105    36.5541   609.9973 </r>
       <r>    -2.7021     0.4420   610.0452 </r>
       <r>    -2.5937     6.1819   610.7153 </r>
       <r>    -2.4853    27.5280   613.6991 </r>
       <r>    -2.3769    22.6607   616.1553 </r>
       <r>    -2.2685     9.1763   617.1500 </r>
       <r>    -2.1601    15.4519   618.8248 </r>
       <r>    -2.0517    30.4479   622.1251 </r>
       <r>    -1.9434    40.7644   626.5437 </r>
       <r>    -1.8350    49.1272   631.8687 </r>
       <r>    -1.7266    46.8750   636.9495 </r>
       <r>    -1.6182    41.8210   641.4826 </r>
       <r>    -1.5098    45.4085   646.4045 </r>
       <r>    -1.4014    30.4731   649.7075 </r>
       <r>    -1.2930     4.6677   650.2135 </r>
       <r>    -1.1846     7.1381   650.9872 </r>
       <r>    -1.0762    26.3081   653.8388 </r>
       <r>    -0.9678    49.8428   659.2413 </r>
       <r>    -0.8594    59.9705   665.7416 </r>
       <r>    -0.7510    39.3114   670.0026 </r>
       <r>    -0.6427    16.0711   671.7446 </r>
       <r>    -0.5343     3.4276   672.1161 </r>
       <r>    -0.4259    -0.8939   672.0192 </r>
       <r>    -0.3175    -0.3614   671.9801 </r>
       <r>    -0.2091     0.1203   671.9931 </r>
       <r>    -0.1007     0.0558   671.9992 </r>
       <r>     0.0077     0.0072   672.0000 </r>
       <r>     0.1161     0.0004   672.0000 </r>
       <r>     0.2245     0.0000   672.0000 </r>
       <r>     0.3329     0.0000   672.0000 </r>
       <r>     0.4413     0.0000   672.0000 </r>
       <r>     0.5497     0.0000   672.0000 </r>
       <r>     0.6580     0.0000   672.0000 </r>
       <r>     0.7664     0.0000   672.0000 </r>
       <r>     0.8748     0.0000   672.0000 </r>
       <r>     0.9832     0.0000   672.0000 </r>
       <r>     1.0916     0.0000   672.0000 </r>
       <r>     1.2000     0.0000   672.0000 </r>
       <r>     1.3084     0.0000   672.0000 </r>
      </set>
     </set>
    </array>
   </total>
  </dos>
 </calculation>
 <structure name="finalpos" >
  <crystal>
   <varray name="basis" >
    <v>      30.00000000       0.00000000       0.00000000 </v>
    <v>       0.00000000      30.00000000       0.00000000 </v>
    <v>       0.00000000       0.00000000      30.00000000 </v>
   </varray>
   <i name="volume">  27000.00000000 </i>
   <varray name="rec_basis" >
    <v>       0.03333333       0.00000000       0.00000000 </v>
    <v>       0.00000000       0.03333333       0.00000000 </v>
    <v>       0.00000000       0.00000000       0.03333333 </v>
   </varray>
  </crystal>
  <varray name="positions" >
   <v>       0.44576020       0.32826710       0.41691983 </v>
   <v>       0.67173288       0.55423978       0.41691983 </v>
   <v>       0.55423980       0.32826710       0.41691983 </v>
   <v>       0.32826712       0.55423978       0.41691983 </v>
   <v>       0.50000000       0.38250690       0.34021317 </v>
   <v>       0.50000000       0.38250690       0.65978680 </v>
   <v>       0.50000000       0.27609440       0.50000000 </v>
   <v>       0.27609443       0.49999998       0.50000000 </v>
   <v>       0.72390557       0.49999998       0.50000000 </v>
   <v>       0.50000000       0.72390555       0.50000000 </v>
   <v>       0.61195280       0.38804720       0.34167483 </v>
   <v>       0.61195280       0.38804720       0.65832513 </v>
   <v>       0.38804722       0.61195278       0.34167483 </v>
   <v>       0.38804722       0.61195278       0.65832513 </v>
   <v>       0.38804720       0.38804720       0.34167483 </v>
   <v>       0.38804720       0.38804720       0.65832513 </v>
   <v>       0.61195278       0.61195278       0.34167483 </v>
   <v>       0.61195278       0.61195278       0.65832513 </v>
   <v>       0.44576020       0.32826710       0.58308023 </v>
   <v>       0.67173288       0.55423978       0.58308023 </v>
   <v>       0.55791699       0.44208301       0.41809300 </v>
   <v>       0.32826705       0.44576024       0.41691983 </v>
   <v>       0.55423973       0.67173293       0.41691983 </v>
   <v>       0.55423980       0.32826710       0.58308023 </v>
   <v>       0.32826712       0.55423978       0.58308023 </v>
   <v>       0.67173295       0.44576024       0.41691983 </v>
   <v>       0.44576027       0.67173293       0.41691983 </v>
   <v>       0.44208301       0.44208301       0.41809300 </v>
   <v>       0.50000000       0.38416601       0.50000000 </v>
   <v>       0.61749315       0.50000005       0.34021317 </v>
   <v>       0.61749315       0.50000005       0.65978680 </v>
   <v>       0.38250685       0.50000005       0.34021317 </v>
   <v>       0.38250685       0.50000005       0.65978680 </v>
   <v>       0.38317830       0.38317830       0.50000000 </v>
   <v>       0.61682172       0.61682172       0.50000000 </v>
   <v>       0.61682170       0.38317830       0.50000000 </v>
   <v>       0.38317828       0.61682172       0.50000000 </v>
   <v>       0.50000000       0.50000000       0.33478917 </v>
   <v>       0.50000000       0.50000000       0.66521087 </v>
   <v>       0.32826705       0.44576024       0.58308023 </v>
   <v>       0.55423973       0.67173293       0.58308023 </v>
   <v>       0.55791699       0.44208301       0.58190703 </v>
   <v>       0.44208298       0.55791702       0.41809300 </v>
   <v>       0.44208301       0.44208301       0.58190703 </v>
   <v>       0.67173295       0.44576024       0.58308023 </v>
   <v>       0.44576027       0.67173293       0.58308023 </v>
   <v>       0.55791702       0.55791702       0.41809300 </v>
   <v>       0.38416599       0.50000002       0.50000000 </v>
   <v>       0.61583401       0.50000002       0.50000000 </v>
   <v>       0.50000000       0.61749319       0.34021317 </v>
   <v>       0.50000000       0.61749319       0.65978680 </v>
   <v>       0.50000000       0.50000000       0.50000000 </v>
   <v>       0.44208298       0.55791702       0.58190703 </v>
   <v>       0.55791702       0.55791702       0.58190703 </v>
   <v>       0.50000000       0.61583404       0.50000000 </v>
   <v>       0.46419460       0.51159300       0.75559330 </v>
   <v>       0.45898350       0.51328027       0.79279217 </v>
  </varray>
  <varray name="selective"  type="logical" >
   <v type="logical" >  F  F  F </v>
   <v type="logical" >  F  F  F </v>
   <v type="logical" >  F  F  F </v>
   <v type="logical" >  F  F  F </v>
   <v type="logical" >  F  F  F </v>
   <v type="logical" >  F  F  F </v>
   <v type="logical" >  F  F  F </v>
   <v type="logical" >  F  F  F </v>
   <v type="logical" >  F  F  F </v>
   <v type="logical" >  F  F  F </v>
   <v type="logical" >  F  F  F </v>
   <v type="logical" >  F  F  F </v>
   <v type="logical" >  F  F  F </v>
   <v type="logical" >  F  F  F </v>
   <v type="logical" >  F  F  F </v>
   <v type="logical" >  F  F  F </v>
   <v type="logical" >  F  F  F </v>
   <v type="logical" >  F  F  F </v>
   <v type="logical" >  F  F  F </v>
   <v type="logical" >  F  F  F </v>
   <v type="logical" >  F  F  F </v>
   <v type="logical" >  F  F  F </v>
   <v type="logical" >  F  F  F </v>
   <v type="logical" >  F  F  F </v>
   <v type="logical" >  F  F  F </v>
   <v type="logical" >  F  F  F </v>
   <v type="logical" >  F  F  F </v>
   <v type="logical" >  F  F  F </v>
   <v type="logical" >  F  F  F </v>
   <v type="logical" >  F  F  F </v>
   <v type="logical" >  F  F  F </v>
   <v type="logical" >  F  F  F </v>
   <v type="logical" >  F  F  F </v>
   <v type="logical" >  F  F  F </v>
   <v type="logical" >  F  F  F </v>
   <v type="logical" >  F  F  F </v>
   <v type="logical" >  F  F  F </v>
   <v type="logical" >  F  F  F </v>
   <v type="logical" >  F  F  F </v>
   <v type="logical" >  F  F  F </v>
   <v type="logical" >  F  F  F </v>
   <v type="logical" >  F  F  F </v>
   <v type="logical" >  F  F  F </v>
   <v type="logical" >  F  F  F </v>
   <v type="logical" >  F  F  F </v>
   <v type="logical" >  F  F  F </v>
   <v type="logical" >  F  F  F </v>
   <v type="logical" >  F  F  F </v>
   <v type="logical" >  F  F  F </v>
   <v type="logical" >  F  F  F </v>
   <v type="logical" >  F  F  F </v>
   <v type="logical" >  F  F  F </v>
   <v type="logical" >  F  F  F </v>
   <v type="logical" >  F  F  F </v>
   <v type="logical" >  F  F  F </v>
   <v type="logical" >  F  F  F </v>
   <v type="logical" >  F  F  F </v>
  </varray>
  <nose>
   <v>      -3.00000000       0.00000000       0.00010000       0.00010000 </v>
  </nose>
 </structure>
</modeling>
