 vasp.5.4.4.18Apr17-6-g9f103f2a35 (build Sep 03 2018 23:53:05) complex          
  
 executed on             LinuxIFC date 2021.12.02  18:20:29
 running on    1 total cores
 distrk:  each k-point on    1 cores,    1 groups
 distr:  one band on NCORES_PER_BAND=   1 cores,    1 groups


--------------------------------------------------------------------------------------------------------


 INCAR:
 POTCAR:    PAW_PBE Pd 04Jan2005                  
 POTCAR:    PAW_PBE C 08Apr2002                   
 POTCAR:    PAW_PBE O 08Apr2002                   
 POTCAR:    PAW_PBE Pd 04Jan2005                  
   VRHFIN =Pd : s1 d9                                                           
   LEXCH  = PE                                                                  
   EATOM  =   809.7530 eV,   59.5152 Ry                                         
                                                                                
   TITEL  = PAW_PBE Pd 04Jan2005                                                
   LULTRA =        F    use ultrasoft PP ?                                      
   IUNSCR =        1    unscreen: 0-lin 1-nonlin 2-no                           
   RPACOR =    2.000    partial core radius                                     
   POMASS =  106.420; ZVAL   =   10.000    mass and valenz                      
   RCORE  =    2.600    outmost cutoff radius                                   
   RWIGS  =    2.710; RWIGS  =    1.434    wigner-seitz radius (au A)           
   ENMAX  =  250.925; ENMIN  =  188.194 eV                                      
   ICORE  =        3    local potential                                         
   LCOR   =        T    correct aug charges                                     
   LPAW   =        T    paw PP                                                  
   EAUG   =  416.230                                                            
   DEXC   =    0.000                                                            
   RMAX   =    2.653    core radius for proj-oper                               
   RAUG   =    1.300    factor for augmentation sphere                          
   RDEP   =    2.734    radius for radial grids                                 
   RDEPT  =    2.103    core radius for aug-charge                              
                                                                                
   Atomic configuration                                                         
   12 entries                                                                   
     n  l   j            E        occ.                                          
     1  0  0.50    -24164.6631   2.0000                                         
     2  0  0.50     -3530.9218   2.0000                                         
     2  1  1.50     -3165.6822   6.0000                                         
     3  0  0.50      -639.4577   2.0000                                         
     3  1  1.50      -519.4532   6.0000                                         
     3  2  2.50      -328.9757  10.0000                                         
     4  0  0.50       -88.7014   2.0000                                         
     4  1  1.50       -54.4540   6.0000                                         
     4  2  2.50        -6.6878   9.0000                                         
     5  0  0.50        -4.3543   1.0000                                         
     5  1  0.50        -1.3606   0.0000                                         
     4  3  2.50        -1.3606   0.0000                                         
   Description                                                                  
     l       E           TYP  RCUT    TYP  RCUT                                 
     2     -6.6878251     23  2.400                                             
     2     -8.0484077     23  2.400                                             
     0     -4.3542939     23  2.400                                             
     0      4.3406793     23  2.400                                             
     1     -4.0817478     23  2.600                                             
     1     15.8380318     23  2.600                                             
     3     -4.0817478     23  2.400                                             
  local pseudopotential read in
  partial core-charges read in
  partial kinetic energy density read in
  atomic valenz-charges read in
  non local Contribution for L=           2  read in
    real space projection operators read in
  non local Contribution for L=           2  read in
    real space projection operators read in
  non local Contribution for L=           0  read in
    real space projection operators read in
  non local Contribution for L=           0  read in
    real space projection operators read in
  non local Contribution for L=           1  read in
    real space projection operators read in
  non local Contribution for L=           1  read in
    real space projection operators read in
    PAW grid and wavefunctions read in
 
   number of l-projection  operators is LMAX  =           6
   number of lm-projection operators is LMMAX =          18
 
 POTCAR:    PAW_PBE C 08Apr2002                   
   VRHFIN =C: s2p2                                                              
   LEXCH  = PE                                                                  
   EATOM  =   147.1560 eV,   10.8157 Ry                                         
                                                                                
   TITEL  = PAW_PBE C 08Apr2002                                                 
   LULTRA =        F    use ultrasoft PP ?                                      
   IUNSCR =        1    unscreen: 0-lin 1-nonlin 2-no                           
   RPACOR =    1.200    partial core radius                                     
   POMASS =   12.011; ZVAL   =    4.000    mass and valenz                      
   RCORE  =    1.500    outmost cutoff radius                                   
   RWIGS  =    1.630; RWIGS  =    0.863    wigner-seitz radius (au A)           
   ENMAX  =  400.000; ENMIN  =  300.000 eV                                      
   ICORE  =        2    local potential                                         
   LCOR   =        T    correct aug charges                                     
   LPAW   =        T    paw PP                                                  
   EAUG   =  644.873                                                            
   DEXC   =    0.000                                                            
   RMAX   =    1.529    core radius for proj-oper                               
   RAUG   =    1.300    factor for augmentation sphere                          
   RDEP   =    1.501    radius for radial grids                                 
   RDEPT  =    1.300    core radius for aug-charge                              
                                                                                
   Atomic configuration                                                         
    4 entries                                                                   
     n  l   j            E        occ.                                          
     1  0  0.50      -273.3789   2.0000                                         
     2  0  0.50       -13.7508   2.0000                                         
     2  1  0.50        -5.2854   2.0000                                         
     3  2  1.50        -5.4423   0.0000                                         
   Description                                                                  
     l       E           TYP  RCUT    TYP  RCUT                                 
     0    -13.7508458     23  1.200                                             
     0     -8.2022199     23  1.200                                             
     1     -5.2854383     23  1.500                                             
     1     34.0145650     23  1.500                                             
     2     -5.4423304      7  1.500                                             
  local pseudopotential read in
  partial core-charges read in
  partial kinetic energy density read in
  atomic valenz-charges read in
  non local Contribution for L=           0  read in
    real space projection operators read in
  non local Contribution for L=           0  read in
    real space projection operators read in
  non local Contribution for L=           1  read in
    real space projection operators read in
  non local Contribution for L=           1  read in
    real space projection operators read in
    PAW grid and wavefunctions read in
 
   number of l-projection  operators is LMAX  =           4
   number of lm-projection operators is LMMAX =           8
 
 POTCAR:    PAW_PBE O 08Apr2002                   
   VRHFIN =O: s2p4                                                              
   LEXCH  = PE                                                                  
   EATOM  =   432.3788 eV,   31.7789 Ry                                         
                                                                                
   TITEL  = PAW_PBE O 08Apr2002                                                 
   LULTRA =        F    use ultrasoft PP ?                                      
   IUNSCR =        1    unscreen: 0-lin 1-nonlin 2-no                           
   RPACOR =    1.200    partial core radius                                     
   POMASS =   16.000; ZVAL   =    6.000    mass and valenz                      
   RCORE  =    1.520    outmost cutoff radius                                   
   RWIGS  =    1.550; RWIGS  =    0.820    wigner-seitz radius (au A)           
   ENMAX  =  400.000; ENMIN  =  300.000 eV                                      
   ICORE  =        2    local potential                                         
   LCOR   =        T    correct aug charges                                     
   LPAW   =        T    paw PP                                                  
   EAUG   =  605.392                                                            
   DEXC   =    0.000                                                            
   RMAX   =    1.553    core radius for proj-oper                               
   RAUG   =    1.300    factor for augmentation sphere                          
   RDEP   =    1.550    radius for radial grids                                 
   RDEPT  =    1.329    core radius for aug-charge                              
                                                                                
   Atomic configuration                                                         
    4 entries                                                                   
     n  l   j            E        occ.                                          
     1  0  0.50      -514.6923   2.0000                                         
     2  0  0.50       -23.9615   2.0000                                         
     2  1  0.50        -9.0305   4.0000                                         
     3  2  1.50        -9.5241   0.0000                                         
   Description                                                                  
     l       E           TYP  RCUT    TYP  RCUT                                 
     0    -23.9615318     23  1.200                                             
     0     -9.5240782     23  1.200                                             
     1     -9.0304911     23  1.520                                             
     1      8.1634956     23  1.520                                             
     2     -9.5240782      7  1.500                                             
  local pseudopotential read in
  partial core-charges read in
  partial kinetic energy density read in
  kinetic energy density of atom read in
  atomic valenz-charges read in
  non local Contribution for L=           0  read in
    real space projection operators read in
  non local Contribution for L=           0  read in
    real space projection operators read in
  non local Contribution for L=           1  read in
    real space projection operators read in
  non local Contribution for L=           1  read in
    real space projection operators read in
    PAW grid and wavefunctions read in
 
   number of l-projection  operators is LMAX  =           4
   number of lm-projection operators is LMMAX =           8
 
 Optimization of the real space projectors (new method)

 maximal supplied QI-value         = 14.36
 optimisation between [QCUT,QGAM] = [ 10.20, 20.39] = [ 29.12,116.47] Ry 
 Optimized for a Real-space Cutoff    1.51 Angstroem

   l    n(q)    QCUT    max X(q) W(low)/X(q) W(high)/X(q)  e(spline) 
   2      8    10.197    59.108    0.26E-03    0.14E-03    0.96E-07
   2      8    10.197    58.101    0.27E-03    0.14E-03    0.98E-07
   0      9    10.197   102.235    0.54E-04    0.60E-05    0.72E-07
   0      9    10.197    58.388    0.52E-04    0.60E-05    0.68E-07
   1      9    10.197    22.191    0.18E-03    0.25E-03    0.79E-07
   1      9    10.197    15.590    0.15E-03    0.21E-03    0.69E-07
 Optimization of the real space projectors (new method)

 maximal supplied QI-value         = 25.13
 optimisation between [QCUT,QGAM] = [ 10.05, 20.36] = [ 28.30,116.06] Ry 
 Optimized for a Real-space Cutoff    1.30 Angstroem

   l    n(q)    QCUT    max X(q) W(low)/X(q) W(high)/X(q)  e(spline) 
   0      8    10.053   115.676    0.49E-03    0.72E-03    0.18E-06
   0      8    10.053    87.132    0.49E-03    0.71E-03    0.18E-06
   1      7    10.053     4.429    0.32E-03    0.31E-03    0.18E-06
   1      7    10.053     2.733    0.23E-03    0.19E-03    0.20E-06
 Optimization of the real space projectors (new method)

 maximal supplied QI-value         = 24.76
 optimisation between [QCUT,QGAM] = [ 10.15, 20.30] = [ 28.85,115.39] Ry 
 Optimized for a Real-space Cutoff    1.38 Angstroem

   l    n(q)    QCUT    max X(q) W(low)/X(q) W(high)/X(q)  e(spline) 
   0      8    10.150    20.381    0.22E-03    0.32E-03    0.29E-06
   0      8    10.150    15.268    0.23E-03    0.35E-03    0.30E-06
   1      8    10.150     5.964    0.46E-03    0.53E-03    0.21E-06
   1      8    10.150     5.382    0.38E-03    0.45E-03    0.19E-06

 ----------------------------------------------------------------------------- 
|                                                                             |
|  ADVICE TO THIS USER RUNNING 'VASP/VAMP'   (HEAR YOUR MASTER'S VOICE ...):  |
|                                                                             |
|      You enforced a specific xc-type in the INCAR file,                     |
|      a different type was found on the POTCAR file                          |
|          I HOPE YOU KNOW, WHAT YOU ARE  DOING                               |
|                                                                             |
 ----------------------------------------------------------------------------- 

  PAW_PBE Pd 04Jan2005                  :
 energy of atom  1       EATOM= -809.7530
 kinetic energy error for atom=    0.0091 (will be added to EATOM!!)
  PAW_PBE C 08Apr2002                   :
 energy of atom  2       EATOM= -147.1560
 kinetic energy error for atom=    0.0288 (will be added to EATOM!!)
  PAW_PBE O 08Apr2002                   :
 energy of atom  3       EATOM= -432.3788
 kinetic energy error for atom=    0.1156 (will be added to EATOM!!)
 
 
 POSCAR: Pd55PES                                 
  positions in cartesian coordinates
  No initial velocities read in
 exchange correlation table for  LEXCH =        9
   RHO(1)=    0.500       N(1)  =     2000
   RHO(2)=  100.500       N(2)  =     4000
 


--------------------------------------------------------------------------------------------------------


 ion  position               nearest neighbor table
   1  0.446  0.328  0.417-   3 3.25   5 3.25   7 3.36  15 3.36  29 3.42  28 3.42
   2  0.672  0.554  0.417-  26 3.25  30 3.25  17 3.36   9 3.36  47 3.42  49 3.42
   3  0.554  0.328  0.417-   1 3.25   5 3.25   7 3.36  11 3.36  29 3.42  21 3.42
   4  0.328  0.554  0.417-  32 3.25  22 3.25  13 3.36   8 3.36  43 3.42  48 3.42
   5  0.500  0.383  0.340-   1 3.25   3 3.25  11 3.36  15 3.36  21 3.42  28 3.42
   6  0.500  0.383  0.660-  24 3.25  19 3.25  16 3.36  12 3.36  42 3.42  44 3.42
   7  0.500  0.276  0.500-  29 3.24   3 3.36   1 3.36  19 3.36  24 3.36
   8  0.276  0.500  0.500-  48 3.24  22 3.36  40 3.36   4 3.36  25 3.36
   9  0.724  0.500  0.500-  49 3.24  26 3.36  45 3.36   2 3.36  20 3.36
  10  0.500  0.724  0.500-  55 3.24  27 3.36  23 3.36  46 3.36  41 3.36
  11  0.612  0.388  0.342-  21 3.24   5 3.36   3 3.36  30 3.36  26 3.36
  12  0.612  0.388  0.658-  42 3.24  24 3.36  45 3.36   6 3.36  31 3.36
  13  0.388  0.612  0.342-  43 3.24  32 3.36  50 3.36   4 3.36  27 3.36
  14  0.388  0.612  0.658-  53 3.24  25 3.36  33 3.36  51 3.36  46 3.36
  15  0.388  0.388  0.342-  28 3.24   5 3.36   1 3.36  32 3.36  22 3.36
  16  0.388  0.388  0.658-  44 3.24  19 3.36  40 3.36   6 3.36  33 3.36
  17  0.612  0.612  0.342-  47 3.24  30 3.36  50 3.36   2 3.36  23 3.36
  18  0.612  0.612  0.658-  54 3.24  31 3.36  20 3.36  51 3.36  41 3.36
  19  0.446  0.328  0.583-   6 3.25  24 3.25  16 3.36   7 3.36  44 3.42  29 3.42
  20  0.672  0.554  0.583-  31 3.25  45 3.25  18 3.36   9 3.36  54 3.42  49 3.42
  21  0.558  0.442  0.418-  11 3.24   5 3.42   3 3.42  30 3.42  26 3.42
  22  0.328  0.446  0.417-   4 3.25  32 3.25   8 3.36  15 3.36  48 3.42  28 3.42
  23  0.554  0.672  0.417-  27 3.25  50 3.25  10 3.36  17 3.36  55 3.42  47 3.42
  24  0.554  0.328  0.583-   6 3.25  19 3.25  12 3.36   7 3.36  42 3.42  29 3.42
  25  0.328  0.554  0.583-  33 3.25  40 3.25  14 3.36   8 3.36  53 3.42  48 3.42
  26  0.672  0.446  0.417-   2 3.25  30 3.25   9 3.36  11 3.36  49 3.42  21 3.42
  27  0.446  0.672  0.417-  23 3.25  50 3.25  10 3.36  13 3.36  55 3.42  43 3.42
  28  0.442  0.442  0.418-  15 3.24   5 3.42   1 3.42  32 3.42  22 3.42
  29  0.500  0.384  0.500-   7 3.24   3 3.42   1 3.42  24 3.42  19 3.42
  30  0.617  0.500  0.340-   2 3.25  26 3.25  17 3.36  11 3.36  47 3.42  21 3.42
  31  0.617  0.500  0.660-  20 3.25  45 3.25  18 3.36  12 3.36  54 3.42  42 3.42
  32  0.383  0.500  0.340-   4 3.25  22 3.25  13 3.36  15 3.36  43 3.42  28 3.42
  33  0.383  0.500  0.660-  25 3.25  40 3.25  14 3.36  16 3.36  53 3.42  44 3.42
  34  0.383  0.383  0.500-
  35  0.617  0.617  0.500-
  36  0.617  0.383  0.500-
  37  0.383  0.617  0.500-
  38  0.500  0.500  0.335-
  39  0.500  0.500  0.665-
  40  0.328  0.446  0.583-  33 3.25  25 3.25  16 3.36   8 3.36  44 3.42  48 3.42
  41  0.554  0.672  0.583-  46 3.25  51 3.25  10 3.36  18 3.36  54 3.42  55 3.42
  42  0.558  0.442  0.582-  12 3.24   6 3.42  24 3.42  31 3.42  45 3.42
  43  0.442  0.558  0.418-  13 3.24   4 3.42  32 3.42  27 3.42  50 3.42
  44  0.442  0.442  0.582-  16 3.24   6 3.42  19 3.42  33 3.42  40 3.42
  45  0.672  0.446  0.583-  20 3.25  31 3.25   9 3.36  12 3.36  49 3.42  42 3.42
  46  0.446  0.672  0.583-  41 3.25  51 3.25  10 3.36  14 3.36  53 3.42  55 3.42
  47  0.558  0.558  0.418-  17 3.24   2 3.42  30 3.42  23 3.42  50 3.42
  48  0.384  0.500  0.500-   8 3.24   4 3.42  22 3.42  25 3.42  40 3.42
  49  0.616  0.500  0.500-   9 3.24   2 3.42  26 3.42  20 3.42  45 3.42
  50  0.500  0.617  0.340-  27 3.25  23 3.25  13 3.36  17 3.36  43 3.42  47 3.42
  51  0.500  0.617  0.660-  41 3.25  46 3.25  14 3.36  18 3.36  53 3.42  54 3.42
  52  0.500  0.500  0.500-
  53  0.442  0.558  0.582-  14 3.24  25 3.42  33 3.42  51 3.42  46 3.42
  54  0.558  0.558  0.582-  18 3.24  31 3.42  20 3.42  51 3.42  41 3.42
  55  0.500  0.616  0.500-  10 3.24  23 3.42  27 3.42  41 3.42  46 3.42
  56  0.492  0.527  0.754-  57 1.13
  57  0.491  0.531  0.791-  56 1.13
 
  LATTYP: Found a simple cubic cell.
 ALAT       =    30.0000000000
  
  Lattice vectors:
  
 A1 = (  30.0000000000,   0.0000000000,   0.0000000000)
 A2 = (   0.0000000000,  30.0000000000,   0.0000000000)
 A3 = (   0.0000000000,   0.0000000000,  30.0000000000)


Analysis of symmetry for initial positions (statically):
=====================================================================
 Subroutine PRICEL returns:
 Original cell was already a primitive cell.
 

 Routine SETGRP: Setting up the symmetry group for a 
 simple cubic supercell.


 Subroutine GETGRP returns: Found  1 space group operations
 (whereof  1 operations were pure point group operations)
 out of a pool of 48 trial point group operations.


The static configuration has the point symmetry C_1 .


Analysis of symmetry for dynamics (positions and initial velocities):
=====================================================================
 Subroutine PRICEL returns:
 Original cell was already a primitive cell.
 

 Routine SETGRP: Setting up the symmetry group for a 
 simple cubic supercell.


 Subroutine GETGRP returns: Found  1 space group operations
 (whereof  1 operations were pure point group operations)
 out of a pool of 48 trial point group operations.


The dynamic configuration has the point symmetry C_1 .


Analysis of constrained symmetry for selective dynamics:
=====================================================================
 Subroutine PRICEL returns:
 Original cell was already a primitive cell.
 

 Routine SETGRP: Setting up the symmetry group for a 
 simple cubic supercell.


 Subroutine GETGRP returns: Found  1 space group operations
 (whereof  1 operations were pure point group operations)
 out of a pool of 48 trial point group operations.


The constrained configuration has the point symmetry C_1 .


 Subroutine INISYM returns: Found  1 space group operations
 (whereof  1 operations are pure point group operations),
 and found     1 'primitive' translations

 
 
 KPOINTS: K-points                                

Automatic generation of k-mesh.
Space group operators:
 irot       det(A)        alpha          n_x          n_y          n_z        tau_x        tau_y        tau_z
    1     1.000000     0.000000     1.000000     0.000000     0.000000     0.000000     0.000000     0.000000
 
 Subroutine IBZKPT returns following result:
 ===========================================
 
 Found      1 irreducible k-points:
 
 Following reciprocal coordinates:
            Coordinates               Weight
  0.000000  0.000000  0.000000      1.000000
 
 Following cartesian coordinates:
            Coordinates               Weight
  0.000000  0.000000  0.000000      1.000000
 


--------------------------------------------------------------------------------------------------------




 Dimension of arrays:
   k-points           NKPTS =      1   k-points in BZ     NKDIM =      1   number of bands    NBANDS=    336
   number of dos      NEDOS =    301   number of ions     NIONS =     57
   non local maximal  LDIM  =      6   non local SUM 2l+1 LMDIM =     18
   total plane-waves  NPLWV = ******
   max r-space proj   IRMAX =   1847   max aug-charges    IRDMAX=   6262
   dimension x,y,z NGX =   150 NGY =  150 NGZ =  150
   dimension x,y,z NGXF=   300 NGYF=  300 NGZF=  300
   support grid    NGXF=   300 NGYF=  300 NGZF=  300
   ions per type =              55   1   1
   NGX,Y,Z   is equivalent  to a cutoff of   8.31,  8.31,  8.31 a.u.
   NGXF,Y,Z  is equivalent  to a cutoff of  16.62, 16.62, 16.62 a.u.

 SYSTEM =  6_Pd100_top_free_z(O)                   
 POSCAR =  Pd55PES                                 

 Startparameter for this run:
   NWRITE =      2    write-flag & timer
   PREC   = normal    normal or accurate (medium, high low for compatibility)
   ISTART =      0    job   : 0-new  1-cont  2-samecut
   ICHARG =      2    charge: 1-file 2-atom 10-const
   ISPIN  =      1    spin polarized calculation?
   LNONCOLLINEAR =      F non collinear calculations
   LSORBIT =      F    spin-orbit coupling
   INIWAV =      1    electr: 0-lowe 1-rand  2-diag
   LASPH  =      F    aspherical Exc in radial PAW
   METAGGA=      F    non-selfconsistent MetaGGA calc.

 Electronic Relaxation 1
   ENCUT  =  400.0 eV  29.40 Ry    5.42 a.u.  48.92 48.92 48.92*2*pi/ulx,y,z
   ENINI  =  400.0     initial cutoff
   ENAUG  =  644.9 eV  augmentation charge cutoff
   NELM   =    100;   NELMIN=  6; NELMDL= -5     # of ELM steps 
   EDIFF  = 0.1E-03   stopping-criterion for ELM
   LREAL  =      T    real-space projection
   NLSPLINE    = F    spline interpolate recip. space projectors
   LCOMPAT=      F    compatible to vasp.4.4
   GGA_COMPAT  = T    GGA compatible to vasp.4.4-vasp.4.6
   LMAXPAW     = -100 max onsite density
   LMAXMIX     =    2 max onsite mixed and CHGCAR
   VOSKOWN=      0    Vosko Wilk Nusair interpolation
   ROPT   =   -0.00050  -0.00050  -0.00050
 Ionic relaxation
   EDIFFG = -.5E-01   stopping-criterion for IOM
   NSW    =      0    number of steps for IOM
   NBLOCK =      1;   KBLOCK =      1    inner block; outer block 
   IBRION =     -1    ionic relax: 0-MD 1-quasi-New 2-CG
   NFREE  =      1    steps in history (QN), initial steepest desc. (CG)
   ISIF   =      2    stress and relaxation
   IWAVPR =     10    prediction:  0-non 1-charg 2-wave 3-comb
   ISYM   =      2    0-nonsym 1-usesym 2-fastsym
   LCORR  =      T    Harris-Foulkes like correction to forces

   POTIM  = 0.5000    time-step for ionic-motion
   TEIN   =    0.0    initial temperature
   TEBEG  =    0.0;   TEEND  =   0.0 temperature during run
   SMASS  =  -3.00    Nose mass-parameter (am)
   estimated Nose-frequenzy (Omega)   =  0.10E-29 period in steps =****** mass=  -0.206E-25a.u.
   SCALEE = 1.0000    scale energy and forces
   NPACO  =    256;   APACO  = 16.0  distance and # of slots for P.C.
   PSTRESS=    0.0 pullay stress

  Mass of Ions in am
   POMASS = 106.42 12.01 16.00
  Ionic Valenz
   ZVAL   =  10.00  4.00  6.00
  Atomic Wigner-Seitz radii
   RWIGS  =  -1.00 -1.00 -1.00
  virtual crystal weights 
   VCA    =   1.00  1.00  1.00
   NELECT =     560.0000    total number of electrons
   NUPDOWN=      -1.0000    fix difference up-down

 DOS related values:
   EMIN   =  10.00;   EMAX   =-10.00  energy-range for DOS
   EFERMI =   0.00
   ISMEAR =     2;   SIGMA  =   0.20  broadening in eV -4-tet -1-fermi 0-gaus

 Electronic relaxation 2 (details)
   IALGO  =     68    algorithm
   LDIAG  =      T    sub-space diagonalisation (order eigenvalues)
   LSUBROT=      F    optimize rotation matrix (better conditioning)
   TURBO    =      0    0=normal 1=particle mesh
   IRESTART =      0    0=no restart 2=restart with 2 vectors
   NREBOOT  =      0    no. of reboots
   NMIN     =      0    reboot dimension
   EREF     =   0.00    reference energy to select bands
   IMIX   =      4    mixing-type and parameters
     AMIX     =   0.40;   BMIX     =  1.00
     AMIX_MAG =   1.60;   BMIX_MAG =  1.00
     AMIN     =   0.10
     WC   =   100.;   INIMIX=   1;  MIXPRE=   1;  MAXMIX= -45

 Intra band minimization:
   WEIMIN = 0.0000     energy-eigenvalue tresh-hold
   EBREAK =  0.74E-07  absolut break condition
   DEPER  =   0.30     relativ break condition  

   TIME   =   0.40     timestep for ELM

  volume/ion in A,a.u.               =     473.68      3196.58
  Fermi-wavevector in a.u.,A,eV,Ry     =   0.449797  0.849992  2.752691  0.202317
  Thomas-Fermi vector in A             =   1.430086
 
 Write flags
   LWAVE        =      F    write WAVECAR
   LDOWNSAMPLE  =      F    k-point downsampling of WAVECAR
   LCHARG       =      F    write CHGCAR
   LVTOT        =      F    write LOCPOT, total local potential
   LVHAR        =      F    write LOCPOT, Hartree potential only
   LELF         =      F    write electronic localiz. function (ELF)
   LORBIT       =      0    0 simple, 1 ext, 2 COOP (PROOUT), +10 PAW based schemes


 Dipole corrections
   LMONO  =      F    monopole corrections only (constant potential shift)
   LDIPOL =      F    correct potential (dipole corrections)
   IDIPOL =      0    1-x, 2-y, 3-z, 4-all directions 
   EPSILON=  1.0000000 bulk dielectric constant

 Exchange correlation treatment:
   GGA     =    RP    GGA type
   LEXCH   =     9    internal setting for exchange type
   VOSKOWN=      0    Vosko Wilk Nusair interpolation
   LHFCALC =     F    Hartree Fock is set to
   LHFONE  =     F    Hartree Fock one center treatment
   AEXX    =    0.0000 exact exchange contribution

 Linear response parameters
   LEPSILON=     F    determine dielectric tensor
   LRPA    =     F    only Hartree local field effects (RPA)
   LNABLA  =     F    use nabla operator in PAW spheres
   LVEL    =     F    velocity operator in full k-point grid
   LINTERFAST=   F  fast interpolation
   KINTER  =     0    interpolate to denser k-point grid
   CSHIFT  =0.1000    complex shift for real part using Kramers Kronig
   OMEGAMAX=  -1.0    maximum frequency
   DEG_THRESHOLD= 0.2000000E-02 threshold for treating states as degnerate
   RTIME   =   -0.100 relaxation time in fs
  (WPLASMAI=    0.000 imaginary part of plasma frequency in eV, 0.658/RTIME)
   DFIELD  = 0.0000000 0.0000000 0.0000000 field for delta impulse in time
 
 Orbital magnetization related:
   ORBITALMAG=     F  switch on orbital magnetization
   LCHIMAG   =     F  perturbation theory with respect to B field
   DQ        =  0.001000  dq finite difference perturbation B field
   LLRAUG    =     F  two centre corrections for induced B field



--------------------------------------------------------------------------------------------------------


 Static calculation
 charge density and potential will be updated during run
 non-spin polarized calculation
 RMM-DIIS sequential band-by-band and
  variant of blocked Davidson during initial phase
 perform sub-space diagonalisation
    before iterative eigenvector-optimisation
 modified Broyden-mixing scheme, WC =      100.0
 initial mixing is a Kerker type mixing with AMIX =  0.4000 and BMIX =      1.0000
 Hartree-type preconditioning will be used
 using additional bands           56
 real space projection scheme for non local part
 use partial core corrections
 calculate Harris-corrections to forces 
   (improved forces if not selfconsistent)
 use gradient corrections 
 use of overlap-Matrix (Vanderbilt PP)
 Methfessel and Paxton  Order N= 2 SIGMA  =   0.20


--------------------------------------------------------------------------------------------------------


  energy-cutoff  :      400.00
  volume of cell :    27000.00
      direct lattice vectors                 reciprocal lattice vectors
    30.000000000  0.000000000  0.000000000     0.033333333  0.000000000  0.000000000
     0.000000000 30.000000000  0.000000000     0.000000000  0.033333333  0.000000000
     0.000000000  0.000000000 30.000000000     0.000000000  0.000000000  0.033333333

  length of vectors
    30.000000000 30.000000000 30.000000000     0.033333333  0.033333333  0.033333333


 
 k-points in units of 2pi/SCALE and weight: K-points                                
   0.00000000  0.00000000  0.00000000       1.000
 
 k-points in reciprocal lattice and weights: K-points                                
   0.00000000  0.00000000  0.00000000       1.000
 
 position of ions in fractional coordinates (direct lattice) 
   0.44576020  0.32826710  0.41691983
   0.67173288  0.55423978  0.41691983
   0.55423980  0.32826710  0.41691983
   0.32826712  0.55423978  0.41691983
   0.50000000  0.38250690  0.34021317
   0.50000000  0.38250690  0.65978680
   0.50000000  0.27609440  0.50000000
   0.27609443  0.49999998  0.50000000
   0.72390557  0.49999998  0.50000000
   0.50000000  0.72390555  0.50000000
   0.61195280  0.38804720  0.34167483
   0.61195280  0.38804720  0.65832513
   0.38804722  0.61195278  0.34167483
   0.38804722  0.61195278  0.65832513
   0.38804720  0.38804720  0.34167483
   0.38804720  0.38804720  0.65832513
   0.61195278  0.61195278  0.34167483
   0.61195278  0.61195278  0.65832513
   0.44576020  0.32826710  0.58308023
   0.67173288  0.55423978  0.58308023
   0.55791699  0.44208301  0.41809300
   0.32826705  0.44576024  0.41691983
   0.55423973  0.67173293  0.41691983
   0.55423980  0.32826710  0.58308023
   0.32826712  0.55423978  0.58308023
   0.67173295  0.44576024  0.41691983
   0.44576027  0.67173293  0.41691983
   0.44208301  0.44208301  0.41809300
   0.50000000  0.38416601  0.50000000
   0.61749315  0.50000005  0.34021317
   0.61749315  0.50000005  0.65978680
   0.38250685  0.50000005  0.34021317
   0.38250685  0.50000005  0.65978680
   0.38317830  0.38317830  0.50000000
   0.61682172  0.61682172  0.50000000
   0.61682170  0.38317830  0.50000000
   0.38317828  0.61682172  0.50000000
   0.50000000  0.50000000  0.33478917
   0.50000000  0.50000000  0.66521087
   0.32826705  0.44576024  0.58308023
   0.55423973  0.67173293  0.58308023
   0.55791699  0.44208301  0.58190703
   0.44208298  0.55791702  0.41809300
   0.44208301  0.44208301  0.58190703
   0.67173295  0.44576024  0.58308023
   0.44576027  0.67173293  0.58308023
   0.55791702  0.55791702  0.41809300
   0.38416599  0.50000002  0.50000000
   0.61583401  0.50000002  0.50000000
   0.50000000  0.61749319  0.34021317
   0.50000000  0.61749319  0.65978680
   0.50000000  0.50000000  0.50000000
   0.44208298  0.55791702  0.58190703
   0.55791702  0.55791702  0.58190703
   0.50000000  0.61583404  0.50000000
   0.49182250  0.52681230  0.75412243
   0.49061983  0.53075553  0.79149577
 
 position of ions in cartesian coordinates  (Angst):
  13.37280588  9.84801292 12.50759500
  20.15198637 16.62719342 12.50759500
  16.62719412  9.84801292 12.50759500
   9.84801363 16.62719342 12.50759500
  15.00000000 11.47520705 10.20639500
  15.00000000 11.47520705 19.79360400
  15.00000000  8.28283206 15.00000000
   8.28283277 14.99999929 15.00000000
  21.71716723 14.99999929 15.00000000
  15.00000000 21.71716652 14.99999999
  18.35858397 11.64141603 10.25024500
  18.35858397 11.64141603 19.74975399
  11.64141674 18.35858326 10.25024500
  11.64141674 18.35858326 19.74975400
  11.64141603 11.64141603 10.25024500
  11.64141603 11.64141603 19.74975400
  18.35858326 18.35858326 10.25024500
  18.35858326 18.35858326 19.74975400
  13.37280588  9.84801291 17.49240700
  20.15198638 16.62719341 17.49240700
  16.73750985 13.26249015 12.54279000
   9.84801151 13.37280729 12.50759500
  16.62719200 20.15198779 12.50759500
  16.62719412  9.84801292 17.49240700
   9.84801363 16.62719342 17.49240700
  20.15198849 13.37280729 12.50759500
  13.37280800 20.15198779 12.50759500
  13.26249015 13.26249015 12.54279000
  15.00000000 11.52498029 15.00000000
  18.52479437 15.00000140 10.20639500
  18.52479437 15.00000141 19.79360400
  11.47520562 15.00000141 10.20639501
  11.47520563 15.00000141 19.79360400
  11.49534898 11.49534898 15.00000000
  18.50465172 18.50465172 15.00000000
  18.50465102 11.49534898 15.00000000
  11.49534828 18.50465172 15.00000000
  15.00000000 15.00000000 10.04367500
  15.00000000 15.00000000 19.95632599
   9.84801151 13.37280729 17.49240700
  16.62719200 20.15198779 17.49240700
  16.73750985 13.26249015 17.45721100
  13.26248944 16.73751056 12.54279001
  13.26249015 13.26249015 17.45721100
  20.15198849 13.37280729 17.49240699
  13.37280800 20.15198779 17.49240700
  16.73751056 16.73751056 12.54279000
  11.52497959 15.00000071 15.00000000
  18.47502041 15.00000071 15.00000000
  14.99999999 18.52479579 10.20639500
  15.00000000 18.52479578 19.79360400
  15.00000000 15.00000000 15.00000000
  13.26248944 16.73751057 17.45721101
  16.73751056 16.73751057 17.45721100
  15.00000000 18.47502112 15.00000000
  14.75467500 15.80436900 22.62367300
  14.71859500 15.92266600 23.74487300
 


--------------------------------------------------------------------------------------------------------


 k-point  1 :   0.0000 0.0000 0.0000  plane waves:  490521

 maximum and minimum number of plane-waves per node :    490521   490521

 maximum number of plane-waves:    490521
 maximum index in each direction: 
   IXMAX=   48   IYMAX=   48   IZMAX=   48
   IXMIN=  -48   IYMIN=  -48   IZMIN=  -48


 serial   3D FFT for wavefunctions
 parallel 3D FFT for charge:
    minimum data exchange during FFTs selected (reduces bandwidth)


 total amount of memory used by VASP MPI-rank0  5486942. kBytes
=======================================================================

   base      :      30000. kBytes
   nonlr-proj:      17127. kBytes
   fftplans  :     924480. kBytes
   grid      :    1872000. kBytes
   one-center:        886. kBytes
   wavefun   :    2642449. kBytes
 
     INWAV:  cpu time    0.0001: real time    0.0005
 Broyden mixing: mesh for mixing (old mesh)
   NGX = 97   NGY = 97   NGZ = 97
  (NGX  =300   NGY  =300   NGZ  =300)
  gives a total of 912673 points

 initial charge density was supplied:
 charge density of overlapping atoms calculated
 number of electron     560.0000000 magnetization 
 keeping initial charge density in first step


--------------------------------------------------------------------------------------------------------


 Maximum index for non-local projection operator         1763
 Maximum index for augmentation-charges         5898 (set IRDMAX)


--------------------------------------------------------------------------------------------------------


 First call to EWALD:  gamma=   0.059
 Maximum number of real-space cells 3x 3x 3
 Maximum number of reciprocal cells 3x 3x 3

    FEWALD:  cpu time    0.0148: real time    0.0148


--------------------------------------- Iteration      1(   1)  ---------------------------------------


    POTLOK:  cpu time   14.3678: real time   14.3720
    SETDIJ:  cpu time    0.1199: real time    0.1199
     EDDAV:  cpu time  370.1104: real time  370.1921
       DOS:  cpu time    0.0013: real time    0.0013
    --------------------------------------------
      LOOP:  cpu time  384.5994: real time  384.6854

 eigenvalue-minimisations  :   688
 total energy-change (2. order) : 0.4381672E+04  (-0.1004786E+05)
 number of electron     560.0000000 magnetization 
 augmentation part      560.0000000 magnetization 

 Free energy of the ion-electron system (eV)
  ---------------------------------------------------
  alpha Z        PSCENC =        75.25431677
  Ewald energy   TEWEN  =    137818.02914104
  -Hartree energ DENC   =   -181186.34881315
  -exchange      EXHF   =         0.00000000
  -V(xc)+E(xc)   XCENC  =     -1704.07199858
  PAW double counting   =     44873.02882129   -41398.84523641
  entropy T*S    EENTRO =         0.03082940
  eigenvalues    EBANDS =       818.08953456
  atomic energy  EATOM  =     45086.50549395
  Solvation  Ediel_sol  =         0.00000000
  ---------------------------------------------------
  free energy    TOTEN  =      4381.67208886 eV

  energy without entropy =     4381.64125946  energy(sigma->0) =     4381.66438151


--------------------------------------------------------------------------------------------------------




--------------------------------------- Iteration      1(   2)  ---------------------------------------


     EDDAV:  cpu time  604.8443: real time  604.9038
       DOS:  cpu time    0.0013: real time    0.0013
    --------------------------------------------
      LOOP:  cpu time  604.8456: real time  604.9051

 eigenvalue-minimisations  :  1216
 total energy-change (2. order) :-0.2351868E+04  (-0.2112505E+04)
 number of electron     560.0000000 magnetization 
 augmentation part      560.0000000 magnetization 

 Free energy of the ion-electron system (eV)
  ---------------------------------------------------
  alpha Z        PSCENC =        75.25431677
  Ewald energy   TEWEN  =    137818.02914104
  -Hartree energ DENC   =   -181186.34881315
  -exchange      EXHF   =         0.00000000
  -V(xc)+E(xc)   XCENC  =     -1704.07199858
  PAW double counting   =     44873.02882129   -41398.84523641
  entropy T*S    EENTRO =        -0.04438387
  eigenvalues    EBANDS =     -1533.70328495
  atomic energy  EATOM  =     45086.50549395
  Solvation  Ediel_sol  =         0.00000000
  ---------------------------------------------------
  free energy    TOTEN  =      2029.80405608 eV

  energy without entropy =     2029.84843996  energy(sigma->0) =     2029.81515205


--------------------------------------------------------------------------------------------------------




--------------------------------------- Iteration      1(   3)  ---------------------------------------


     EDDAV:  cpu time  523.1524: real time  523.2435
       DOS:  cpu time    0.0011: real time    0.0011
    --------------------------------------------
      LOOP:  cpu time  523.1535: real time  523.2447

 eigenvalue-minimisations  :  1008
 total energy-change (2. order) :-0.1787839E+04  (-0.1678108E+04)
 number of electron     560.0000000 magnetization 
 augmentation part      560.0000000 magnetization 

 Free energy of the ion-electron system (eV)
  ---------------------------------------------------
  alpha Z        PSCENC =        75.25431677
  Ewald energy   TEWEN  =    137818.02914104
  -Hartree energ DENC   =   -181186.34881315
  -exchange      EXHF   =         0.00000000
  -V(xc)+E(xc)   XCENC  =     -1704.07199858
  PAW double counting   =     44873.02882129   -41398.84523641
  entropy T*S    EENTRO =        -0.02285237
  eigenvalues    EBANDS =     -3321.56401456
  atomic energy  EATOM  =     45086.50549395
  Solvation  Ediel_sol  =         0.00000000
  ---------------------------------------------------
  free energy    TOTEN  =       241.96485797 eV

  energy without entropy =      241.98771034  energy(sigma->0) =      241.97057106


--------------------------------------------------------------------------------------------------------




--------------------------------------- Iteration      1(   4)  ---------------------------------------


     EDDAV:  cpu time  449.1080: real time  449.1451
       DOS:  cpu time    0.0012: real time    0.0012
    --------------------------------------------
      LOOP:  cpu time  449.1091: real time  449.1463

 eigenvalue-minimisations  :   824
 total energy-change (2. order) :-0.3735576E+03  (-0.3144957E+03)
 number of electron     560.0000000 magnetization 
 augmentation part      560.0000000 magnetization 

 Free energy of the ion-electron system (eV)
  ---------------------------------------------------
  alpha Z        PSCENC =        75.25431677
  Ewald energy   TEWEN  =    137818.02914104
  -Hartree energ DENC   =   -181186.34881315
  -exchange      EXHF   =         0.00000000
  -V(xc)+E(xc)   XCENC  =     -1704.07199858
  PAW double counting   =     44873.02882129   -41398.84523641
  entropy T*S    EENTRO =        -0.07123496
  eigenvalues    EBANDS =     -3695.07325758
  atomic energy  EATOM  =     45086.50549395
  Solvation  Ediel_sol  =         0.00000000
  ---------------------------------------------------
  free energy    TOTEN  =      -131.59276764 eV

  energy without entropy =     -131.52153268  energy(sigma->0) =     -131.57495890


--------------------------------------------------------------------------------------------------------




--------------------------------------- Iteration      1(   5)  ---------------------------------------


     EDDAV:  cpu time  544.7692: real time  544.8144
       DOS:  cpu time    0.0014: real time    0.0014
    CHARGE:  cpu time   27.5541: real time   27.5566
    MIXING:  cpu time    0.4874: real time    0.4875
    --------------------------------------------
      LOOP:  cpu time  572.8121: real time  572.8599

 eigenvalue-minimisations  :  1048
 total energy-change (2. order) :-0.4669778E+02  (-0.3832583E+02)
 number of electron     559.9999854 magnetization 
 augmentation part      245.2526388 magnetization 

 Broyden mixing:
  rms(total) = 0.13918E+01    rms(broyden)= 0.13908E+01
  rms(prec ) = 0.14949E+01
  weight for this iteration     100.00

 Free energy of the ion-electron system (eV)
  ---------------------------------------------------
  alpha Z        PSCENC =        75.25431677
  Ewald energy   TEWEN  =    137818.02914104
  -Hartree energ DENC   =   -181186.34881315
  -exchange      EXHF   =         0.00000000
  -V(xc)+E(xc)   XCENC  =     -1704.07199858
  PAW double counting   =     44873.02882129   -41398.84523641
  entropy T*S    EENTRO =         0.51000040
  eigenvalues    EBANDS =     -3742.35226992
  atomic energy  EATOM  =     45086.50549395
  Solvation  Ediel_sol  =         0.00000000
  ---------------------------------------------------
  free energy    TOTEN  =      -178.29054462 eV

  energy without entropy =     -178.80054502  energy(sigma->0) =     -178.41804472


--------------------------------------------------------------------------------------------------------




--------------------------------------- Iteration      1(   6)  ---------------------------------------


    POTLOK:  cpu time   14.0789: real time   14.0840
    SETDIJ:  cpu time    0.1257: real time    0.1257
    EDDIAG:  cpu time   73.2328: real time   73.2363
  RMM-DIIS:  cpu time  199.4240: real time  199.4639
    ORTHCH:  cpu time   14.4257: real time   14.4254
       DOS:  cpu time    0.0015: real time    0.0015
    CHARGE:  cpu time   27.5060: real time   27.5054
    MIXING:  cpu time    0.4862: real time    0.4862
    --------------------------------------------
      LOOP:  cpu time  329.2808: real time  329.3285

 eigenvalue-minimisations  :   724
 total energy-change (2. order) : 0.5923833E+00  (-0.5182715E+01)
 number of electron     559.9999867 magnetization 
 augmentation part      240.6896998 magnetization 

 Broyden mixing:
  rms(total) = 0.18679E+01    rms(broyden)= 0.18677E+01
  rms(prec ) = 0.21444E+01
  weight for this iteration     100.00

 eigenvalues of (default mixing * dielectric matrix)
  average eigenvalue GAMMA=   0.3899
  0.3899

 Free energy of the ion-electron system (eV)
  ---------------------------------------------------
  alpha Z        PSCENC =        75.25431677
  Ewald energy   TEWEN  =    137818.02914104
  -Hartree energ DENC   =   -181596.52027354
  -exchange      EXHF   =         0.00000000
  -V(xc)+E(xc)   XCENC  =     -1697.76914454
  PAW double counting   =     45616.93021741   -42115.49461481
  entropy T*S    EENTRO =        -0.26000687
  eigenvalues    EBANDS =     -3364.37329070
  atomic energy  EATOM  =     45086.50549395
  Solvation  Ediel_sol  =         0.00000000
  ---------------------------------------------------
  free energy    TOTEN  =      -177.69816129 eV

  energy without entropy =     -177.43815442  energy(sigma->0) =     -177.63315957


--------------------------------------------------------------------------------------------------------




--------------------------------------- Iteration      1(   7)  ---------------------------------------


    POTLOK:  cpu time   14.1429: real time   14.1457
    SETDIJ:  cpu time    0.1203: real time    0.1203
    EDDIAG:  cpu time   73.7127: real time   73.7117
  RMM-DIIS:  cpu time  227.3878: real time  227.3856
    ORTHCH:  cpu time   14.2788: real time   14.2784
       DOS:  cpu time    0.0015: real time    0.0015
    CHARGE:  cpu time   27.4066: real time   27.4060
    MIXING:  cpu time    0.5288: real time    0.5288
    --------------------------------------------
      LOOP:  cpu time  357.5794: real time  357.5779

 eigenvalue-minimisations  :   827
 total energy-change (2. order) :-0.1250293E+01  (-0.1870149E+01)
 number of electron     559.9999822 magnetization 
 augmentation part      240.6556511 magnetization 

 Broyden mixing:
  rms(total) = 0.18255E+01    rms(broyden)= 0.18252E+01
  rms(prec ) = 0.20856E+01
  weight for this iteration     100.00

 eigenvalues of (default mixing * dielectric matrix)
  average eigenvalue GAMMA=   0.4088
  0.6465  0.1712

 Free energy of the ion-electron system (eV)
  ---------------------------------------------------
  alpha Z        PSCENC =        75.25431677
  Ewald energy   TEWEN  =    137818.02914104
  -Hartree energ DENC   =   -181699.16725453
  -exchange      EXHF   =         0.00000000
  -V(xc)+E(xc)   XCENC  =     -1697.96123350
  PAW double counting   =     45686.59541352   -42181.90457518
  entropy T*S    EENTRO =        -0.10592884
  eigenvalues    EBANDS =     -3266.19382775
  atomic energy  EATOM  =     45086.50549395
  Solvation  Ediel_sol  =         0.00000000
  ---------------------------------------------------
  free energy    TOTEN  =      -178.94845453 eV

  energy without entropy =     -178.84252569  energy(sigma->0) =     -178.92197232


--------------------------------------------------------------------------------------------------------




--------------------------------------- Iteration      1(   8)  ---------------------------------------


    POTLOK:  cpu time   14.5292: real time   14.5321
    SETDIJ:  cpu time    0.1308: real time    0.1308
    EDDIAG:  cpu time   72.1708: real time   72.1698
  RMM-DIIS:  cpu time  211.9354: real time  211.9333
    ORTHCH:  cpu time   14.1660: real time   14.1658
       DOS:  cpu time    0.0015: real time    0.0015
    CHARGE:  cpu time   27.7236: real time   27.7230
    MIXING:  cpu time    0.5138: real time    0.5138
    --------------------------------------------
      LOOP:  cpu time  341.1710: real time  341.1699

 eigenvalue-minimisations  :   763
 total energy-change (2. order) :-0.2880003E+01  (-0.7150710E+00)
 number of electron     559.9999845 magnetization 
 augmentation part      240.7505166 magnetization 

 Broyden mixing:
  rms(total) = 0.26535E+01    rms(broyden)= 0.26532E+01
  rms(prec ) = 0.31512E+01
  weight for this iteration     100.00

 eigenvalues of (default mixing * dielectric matrix)
  average eigenvalue GAMMA=   0.3576
  0.7752  0.1488  0.1488

 Free energy of the ion-electron system (eV)
  ---------------------------------------------------
  alpha Z        PSCENC =        75.25431677
  Ewald energy   TEWEN  =    137818.02914104
  -Hartree energ DENC   =   -181727.89869324
  -exchange      EXHF   =         0.00000000
  -V(xc)+E(xc)   XCENC  =     -1697.73678460
  PAW double counting   =     45769.45410914   -42260.52761113
  entropy T*S    EENTRO =        -0.15486252
  eigenvalues    EBANDS =     -3244.75356680
  atomic energy  EATOM  =     45086.50549395
  Solvation  Ediel_sol  =         0.00000000
  ---------------------------------------------------
  free energy    TOTEN  =      -181.82845738 eV

  energy without entropy =     -181.67359486  energy(sigma->0) =     -181.78974175


--------------------------------------------------------------------------------------------------------




--------------------------------------- Iteration      1(   9)  ---------------------------------------


    POTLOK:  cpu time   14.2832: real time   14.2835
    SETDIJ:  cpu time    0.1273: real time    0.1272
    EDDIAG:  cpu time   71.9257: real time   71.9264
  RMM-DIIS:  cpu time  208.0796: real time  208.0790
    ORTHCH:  cpu time   14.4667: real time   14.4664
       DOS:  cpu time    0.0014: real time    0.0014
    CHARGE:  cpu time   27.7297: real time   27.7291
    MIXING:  cpu time    0.5692: real time    0.5692
    --------------------------------------------
      LOOP:  cpu time  337.1828: real time  337.1823

 eigenvalue-minimisations  :   751
 total energy-change (2. order) : 0.1146262E+01  (-0.3541280E+00)
 number of electron     559.9999839 magnetization 
 augmentation part      241.1054161 magnetization 

 Broyden mixing:
  rms(total) = 0.28257E+01    rms(broyden)= 0.28254E+01
  rms(prec ) = 0.32937E+01
  weight for this iteration     100.00

 eigenvalues of (default mixing * dielectric matrix)
  average eigenvalue GAMMA=   0.3088
  0.8340  0.1627  0.1627  0.0758

 Free energy of the ion-electron system (eV)
  ---------------------------------------------------
  alpha Z        PSCENC =        75.25431677
  Ewald energy   TEWEN  =    137818.02914104
  -Hartree energ DENC   =   -181759.76090854
  -exchange      EXHF   =         0.00000000
  -V(xc)+E(xc)   XCENC  =     -1697.58795844
  PAW double counting   =     45817.53802491   -42306.35613842
  entropy T*S    EENTRO =        -0.13578996
  eigenvalues    EBANDS =     -3214.16837664
  atomic energy  EATOM  =     45086.50549395
  Solvation  Ediel_sol  =         0.00000000
  ---------------------------------------------------
  free energy    TOTEN  =      -180.68219533 eV

  energy without entropy =     -180.54640536  energy(sigma->0) =     -180.64824784


--------------------------------------------------------------------------------------------------------




--------------------------------------- Iteration      1(  10)  ---------------------------------------


    POTLOK:  cpu time   14.3341: real time   14.3347
    SETDIJ:  cpu time    0.1206: real time    0.1206
    EDDIAG:  cpu time   71.8005: real time   71.8008
  RMM-DIIS:  cpu time  203.2535: real time  203.2618
    ORTHCH:  cpu time   14.3539: real time   14.3537
       DOS:  cpu time    0.0015: real time    0.0015
    CHARGE:  cpu time   27.4613: real time   27.4609
    MIXING:  cpu time    0.6069: real time    0.6069
    --------------------------------------------
      LOOP:  cpu time  331.9323: real time  331.9409

 eigenvalue-minimisations  :   730
 total energy-change (2. order) : 0.2916150E+01  (-0.2129178E+00)
 number of electron     559.9999859 magnetization 
 augmentation part      241.3663628 magnetization 

 Broyden mixing:
  rms(total) = 0.18102E+01    rms(broyden)= 0.18099E+01
  rms(prec ) = 0.20546E+01
  weight for this iteration     100.00

 eigenvalues of (default mixing * dielectric matrix)
  average eigenvalue GAMMA=   0.2833
  0.8810  0.1834  0.1834  0.0844  0.0844

 Free energy of the ion-electron system (eV)
  ---------------------------------------------------
  alpha Z        PSCENC =        75.25431677
  Ewald energy   TEWEN  =    137818.02914104
  -Hartree energ DENC   =   -181784.70918343
  -exchange      EXHF   =         0.00000000
  -V(xc)+E(xc)   XCENC  =     -1697.50499952
  PAW double counting   =     45845.68658727   -42333.17411844
  entropy T*S    EENTRO =        -0.18305273
  eigenvalues    EBANDS =     -3187.67022985
  atomic energy  EATOM  =     45086.50549395
  Solvation  Ediel_sol  =         0.00000000
  ---------------------------------------------------
  free energy    TOTEN  =      -177.76604494 eV

  energy without entropy =     -177.58299221  energy(sigma->0) =     -177.72028176


--------------------------------------------------------------------------------------------------------




--------------------------------------- Iteration      1(  11)  ---------------------------------------


    POTLOK:  cpu time   14.1708: real time   14.1726
    SETDIJ:  cpu time    0.1284: real time    0.1284
    EDDIAG:  cpu time   71.2442: real time   71.2457
  RMM-DIIS:  cpu time  202.2810: real time  202.2805
    ORTHCH:  cpu time   14.4716: real time   14.4713
       DOS:  cpu time    0.0015: real time    0.0015
    CHARGE:  cpu time   27.2441: real time   27.2435
    MIXING:  cpu time    0.6157: real time    0.6157
    --------------------------------------------
      LOOP:  cpu time  330.1573: real time  330.1591

 eigenvalue-minimisations  :   731
 total energy-change (2. order) : 0.1786598E+01  (-0.1426005E+00)
 number of electron     559.9999851 magnetization 
 augmentation part      241.5093042 magnetization 

 Broyden mixing:
  rms(total) = 0.15879E+01    rms(broyden)= 0.15876E+01
  rms(prec ) = 0.18754E+01
  weight for this iteration     100.00

 eigenvalues of (default mixing * dielectric matrix)
  average eigenvalue GAMMA=   0.2627
  0.9167  0.2014  0.2014  0.1006  0.0781  0.0781

 Free energy of the ion-electron system (eV)
  ---------------------------------------------------
  alpha Z        PSCENC =        75.25431677
  Ewald energy   TEWEN  =    137818.02914104
  -Hartree energ DENC   =   -181805.65268056
  -exchange      EXHF   =         0.00000000
  -V(xc)+E(xc)   XCENC  =     -1697.34907821
  PAW double counting   =     45873.10055079   -42359.20761118
  entropy T*S    EENTRO =         0.02481645
  eigenvalues    EBANDS =     -3166.68439602
  atomic energy  EATOM  =     45086.50549395
  Solvation  Ediel_sol  =         0.00000000
  ---------------------------------------------------
  free energy    TOTEN  =      -175.97944697 eV

  energy without entropy =     -176.00426342  energy(sigma->0) =     -175.98565108


--------------------------------------------------------------------------------------------------------




--------------------------------------- Iteration      1(  12)  ---------------------------------------


    POTLOK:  cpu time   14.3174: real time   14.3180
    SETDIJ:  cpu time    0.1277: real time    0.1277
    EDDIAG:  cpu time   71.2968: real time   71.2958
  RMM-DIIS:  cpu time  202.0958: real time  202.0931
    ORTHCH:  cpu time   14.4868: real time   14.4865
       DOS:  cpu time    0.0015: real time    0.0015
    CHARGE:  cpu time   27.2590: real time   27.2585
    MIXING:  cpu time    0.7051: real time    0.7051
    --------------------------------------------
      LOOP:  cpu time  330.2901: real time  330.2862

 eigenvalue-minimisations  :   728
 total energy-change (2. order) : 0.5565318E+00  (-0.7926379E-01)
 number of electron     559.9999854 magnetization 
 augmentation part      241.6387733 magnetization 

 Broyden mixing:
  rms(total) = 0.11989E+01    rms(broyden)= 0.11986E+01
  rms(prec ) = 0.14261E+01
  weight for this iteration     100.00

 eigenvalues of (default mixing * dielectric matrix)
  average eigenvalue GAMMA=   0.2589
  0.9456  0.2530  0.2530  0.1106  0.1106  0.0698  0.0698

 Free energy of the ion-electron system (eV)
  ---------------------------------------------------
  alpha Z        PSCENC =        75.25431677
  Ewald energy   TEWEN  =    137818.02914104
  -Hartree energ DENC   =   -181816.85420568
  -exchange      EXHF   =         0.00000000
  -V(xc)+E(xc)   XCENC  =     -1697.19382306
  PAW double counting   =     45892.00872430   -42377.06722690
  entropy T*S    EENTRO =        -0.13468490
  eigenvalues    EBANDS =     -3155.97065073
  atomic energy  EATOM  =     45086.50549395
  Solvation  Ediel_sol  =         0.00000000
  ---------------------------------------------------
  free energy    TOTEN  =      -175.42291520 eV

  energy without entropy =     -175.28823031  energy(sigma->0) =     -175.38924398


--------------------------------------------------------------------------------------------------------




--------------------------------------- Iteration      1(  13)  ---------------------------------------


    POTLOK:  cpu time   14.3722: real time   14.3726
    SETDIJ:  cpu time    0.1229: real time    0.1229
    EDDIAG:  cpu time   71.0538: real time   71.0569
  RMM-DIIS:  cpu time  200.1408: real time  200.1387
    ORTHCH:  cpu time   14.1291: real time   14.1287
       DOS:  cpu time    0.0015: real time    0.0015
    CHARGE:  cpu time   27.2043: real time   27.2037
    MIXING:  cpu time    0.7323: real time    0.7323
    --------------------------------------------
      LOOP:  cpu time  327.7569: real time  327.7574

 eigenvalue-minimisations  :   722
 total energy-change (2. order) : 0.2699477E+00  (-0.7498501E-01)
 number of electron     559.9999838 magnetization 
 augmentation part      241.6942938 magnetization 

 Broyden mixing:
  rms(total) = 0.12829E+01    rms(broyden)= 0.12826E+01
  rms(prec ) = 0.15349E+01
  weight for this iteration     100.00

 eigenvalues of (default mixing * dielectric matrix)
  average eigenvalue GAMMA=   0.2670
  0.9736  0.3385  0.3385  0.1409  0.1409  0.0747  0.0747  0.0539

 Free energy of the ion-electron system (eV)
  ---------------------------------------------------
  alpha Z        PSCENC =        75.25431677
  Ewald energy   TEWEN  =    137818.02914104
  -Hartree energ DENC   =   -181833.59249535
  -exchange      EXHF   =         0.00000000
  -V(xc)+E(xc)   XCENC  =     -1696.93232870
  PAW double counting   =     45916.73569986   -42400.32764268
  entropy T*S    EENTRO =        -0.07438508
  eigenvalues    EBANDS =     -3140.75076726
  atomic energy  EATOM  =     45086.50549395
  Solvation  Ediel_sol  =         0.00000000
  ---------------------------------------------------
  free energy    TOTEN  =      -175.15296746 eV

  energy without entropy =     -175.07858238  energy(sigma->0) =     -175.13437119


--------------------------------------------------------------------------------------------------------




--------------------------------------- Iteration      1(  14)  ---------------------------------------


    POTLOK:  cpu time   14.2535: real time   14.2540
    SETDIJ:  cpu time    0.1258: real time    0.1258
    EDDIAG:  cpu time   70.5821: real time   70.5815
  RMM-DIIS:  cpu time  198.6040: real time  198.6021
    ORTHCH:  cpu time   14.1770: real time   14.1767
       DOS:  cpu time    0.0015: real time    0.0015
    CHARGE:  cpu time   27.1369: real time   27.1363
    MIXING:  cpu time    0.8054: real time    0.8054
    --------------------------------------------
      LOOP:  cpu time  325.6862: real time  325.6833

 eigenvalue-minimisations  :   718
 total energy-change (2. order) :-0.4916768E+00  (-0.7994093E-01)
 number of electron     559.9999830 magnetization 
 augmentation part      241.4817603 magnetization 

 Broyden mixing:
  rms(total) = 0.20887E+01    rms(broyden)= 0.20885E+01
  rms(prec ) = 0.24736E+01
  weight for this iteration     100.00

 eigenvalues of (default mixing * dielectric matrix)
  average eigenvalue GAMMA=   0.3014
  1.1776  0.7172  0.2107  0.2107  0.1063  0.0886  0.0886  0.0661  0.0464

 Free energy of the ion-electron system (eV)
  ---------------------------------------------------
  alpha Z        PSCENC =        75.25431677
  Ewald energy   TEWEN  =    137818.02914104
  -Hartree energ DENC   =   -181867.03040281
  -exchange      EXHF   =         0.00000000
  -V(xc)+E(xc)   XCENC  =     -1696.50794465
  PAW double counting   =     45954.61386857   -42435.94581752
  entropy T*S    EENTRO =         0.04665834
  eigenvalues    EBANDS =     -3110.60995793
  atomic energy  EATOM  =     45086.50549395
  Solvation  Ediel_sol  =         0.00000000
  ---------------------------------------------------
  free energy    TOTEN  =      -175.64464425 eV

  energy without entropy =     -175.69130259  energy(sigma->0) =     -175.65630884


--------------------------------------------------------------------------------------------------------




--------------------------------------- Iteration      1(  15)  ---------------------------------------


    POTLOK:  cpu time   14.2295: real time   14.2315
    SETDIJ:  cpu time    0.1311: real time    0.1311
    EDDIAG:  cpu time   71.0713: real time   71.0708
  RMM-DIIS:  cpu time  195.4394: real time  195.4392
    ORTHCH:  cpu time   14.5167: real time   14.5165
       DOS:  cpu time    0.0015: real time    0.0015
    CHARGE:  cpu time   27.8089: real time   27.8082
    MIXING:  cpu time    0.8816: real time    0.8816
    --------------------------------------------
      LOOP:  cpu time  324.0800: real time  324.0805

 eigenvalue-minimisations  :   710
 total energy-change (2. order) : 0.2918909E+00  (-0.1133058E+00)
 number of electron     559.9999834 magnetization 
 augmentation part      241.2199183 magnetization 

 Broyden mixing:
  rms(total) = 0.17595E+01    rms(broyden)= 0.17593E+01
  rms(prec ) = 0.20060E+01
  weight for this iteration     100.00

 eigenvalues of (default mixing * dielectric matrix)
  average eigenvalue GAMMA=   0.3295
  1.5473  0.8356  0.2073  0.2073  0.0899  0.0899  0.1046  0.1046  0.0607  0.0475

 Free energy of the ion-electron system (eV)
  ---------------------------------------------------
  alpha Z        PSCENC =        75.25431677
  Ewald energy   TEWEN  =    137818.02914104
  -Hartree energ DENC   =   -181916.70632648
  -exchange      EXHF   =         0.00000000
  -V(xc)+E(xc)   XCENC  =     -1695.77414769
  PAW double counting   =     46018.41149870   -42495.90808019
  entropy T*S    EENTRO =        -0.04616424
  eigenvalues    EBANDS =     -3065.11848522
  atomic energy  EATOM  =     45086.50549395
  Solvation  Ediel_sol  =         0.00000000
  ---------------------------------------------------
  free energy    TOTEN  =      -175.35275336 eV

  energy without entropy =     -175.30658912  energy(sigma->0) =     -175.34121230


--------------------------------------------------------------------------------------------------------




--------------------------------------- Iteration      1(  16)  ---------------------------------------


    POTLOK:  cpu time   14.5238: real time   14.5259
    SETDIJ:  cpu time    0.1284: real time    0.1284
    EDDIAG:  cpu time   71.4954: real time   71.4969
  RMM-DIIS:  cpu time  196.5724: real time  196.5711
    ORTHCH:  cpu time   14.4280: real time   14.4277
       DOS:  cpu time    0.0015: real time    0.0015
    CHARGE:  cpu time   27.9649: real time   27.9643
    MIXING:  cpu time    0.9298: real time    0.9298
    --------------------------------------------
      LOOP:  cpu time  326.0442: real time  326.0456

 eigenvalue-minimisations  :   716
 total energy-change (2. order) : 0.1699579E+00  (-0.9066993E-01)
 number of electron     559.9999869 magnetization 
 augmentation part      240.9514329 magnetization 

 Broyden mixing:
  rms(total) = 0.15920E+01    rms(broyden)= 0.15918E+01
  rms(prec ) = 0.18591E+01
  weight for this iteration     100.00

 eigenvalues of (default mixing * dielectric matrix)
  average eigenvalue GAMMA=   0.3274
  1.6898  0.8717  0.2262  0.2262  0.1214  0.1214  0.0869  0.0869  0.0648  0.0584
  0.0478

 Free energy of the ion-electron system (eV)
  ---------------------------------------------------
  alpha Z        PSCENC =        75.25431677
  Ewald energy   TEWEN  =    137818.02914104
  -Hartree energ DENC   =   -181962.28673847
  -exchange      EXHF   =         0.00000000
  -V(xc)+E(xc)   XCENC  =     -1695.17911900
  PAW double counting   =     46072.05253922   -42546.41110374
  entropy T*S    EENTRO =         0.01185330
  eigenvalues    EBANDS =     -3023.15917851
  atomic energy  EATOM  =     45086.50549395
  Solvation  Ediel_sol  =         0.00000000
  ---------------------------------------------------
  free energy    TOTEN  =      -175.18279545 eV

  energy without entropy =     -175.19464875  energy(sigma->0) =     -175.18575878


--------------------------------------------------------------------------------------------------------




--------------------------------------- Iteration      1(  17)  ---------------------------------------


    POTLOK:  cpu time   14.3825: real time   14.3855
    SETDIJ:  cpu time    0.1333: real time    0.1333
    EDDIAG:  cpu time   70.0153: real time   70.0162
  RMM-DIIS:  cpu time  198.0158: real time  198.0136
    ORTHCH:  cpu time   14.3602: real time   14.3599
       DOS:  cpu time    0.0015: real time    0.0015
    CHARGE:  cpu time   27.5658: real time   27.5652
    MIXING:  cpu time    0.9357: real time    0.9357
    --------------------------------------------
      LOOP:  cpu time  325.4102: real time  325.4110

 eigenvalue-minimisations  :   718
 total energy-change (2. order) : 0.6409464E+00  (-0.4732483E-01)
 number of electron     559.9999845 magnetization 
 augmentation part      240.9405877 magnetization 

 Broyden mixing:
  rms(total) = 0.10516E+01    rms(broyden)= 0.10512E+01
  rms(prec ) = 0.12328E+01
  weight for this iteration     100.00

 eigenvalues of (default mixing * dielectric matrix)
  average eigenvalue GAMMA=   0.3337
  1.7764  0.9720  0.2794  0.2794  0.1361  0.1361  0.0870  0.0870  0.0823  0.0664
  0.0571  0.0454

 Free energy of the ion-electron system (eV)
  ---------------------------------------------------
  alpha Z        PSCENC =        75.25431677
  Ewald energy   TEWEN  =    137818.02914104
  -Hartree energ DENC   =   -181978.68648651
  -exchange      EXHF   =         0.00000000
  -V(xc)+E(xc)   XCENC  =     -1695.00363283
  PAW double counting   =     46088.33802024   -42561.64542751
  entropy T*S    EENTRO =         0.01379112
  eigenvalues    EBANDS =     -3007.34706533
  atomic energy  EATOM  =     45086.50549395
  Solvation  Ediel_sol  =         0.00000000
  ---------------------------------------------------
  free energy    TOTEN  =      -174.54184906 eV

  energy without entropy =     -174.55564018  energy(sigma->0) =     -174.54529684


--------------------------------------------------------------------------------------------------------




--------------------------------------- Iteration      1(  18)  ---------------------------------------


    POTLOK:  cpu time   14.3697: real time   14.3701
    SETDIJ:  cpu time    0.1253: real time    0.1253
    EDDIAG:  cpu time   70.2371: real time   70.2403
  RMM-DIIS:  cpu time  198.5156: real time  198.5271
    ORTHCH:  cpu time   14.2466: real time   14.2463
       DOS:  cpu time    0.0016: real time    0.0015
    CHARGE:  cpu time   27.3306: real time   27.3300
    MIXING:  cpu time    1.0336: real time    1.0335
    --------------------------------------------
      LOOP:  cpu time  325.8600: real time  325.8742

 eigenvalue-minimisations  :   716
 total energy-change (2. order) :-0.2136510E+00  (-0.4584646E-01)
 number of electron     559.9999837 magnetization 
 augmentation part      240.9369153 magnetization 

 Broyden mixing:
  rms(total) = 0.13962E+01    rms(broyden)= 0.13960E+01
  rms(prec ) = 0.16858E+01
  weight for this iteration     100.00

 eigenvalues of (default mixing * dielectric matrix)
  average eigenvalue GAMMA=   0.3370
  1.8339  1.1084  0.3199  0.3199  0.1785  0.1048  0.1048  0.0885  0.0885  0.0784
  0.0597  0.0503  0.0450

 Free energy of the ion-electron system (eV)
  ---------------------------------------------------
  alpha Z        PSCENC =        75.25431677
  Ewald energy   TEWEN  =    137818.02914104
  -Hartree energ DENC   =   -181994.50401207
  -exchange      EXHF   =         0.00000000
  -V(xc)+E(xc)   XCENC  =     -1694.87403723
  PAW double counting   =     46096.18667662   -42568.66000191
  entropy T*S    EENTRO =        -0.00026369
  eigenvalues    EBANDS =     -2992.69281354
  atomic energy  EATOM  =     45086.50549395
  Solvation  Ediel_sol  =         0.00000000
  ---------------------------------------------------
  free energy    TOTEN  =      -174.75550005 eV

  energy without entropy =     -174.75523636  energy(sigma->0) =     -174.75543413


--------------------------------------------------------------------------------------------------------




--------------------------------------- Iteration      1(  19)  ---------------------------------------


    POTLOK:  cpu time   14.2813: real time   14.2843
    SETDIJ:  cpu time    0.1238: real time    0.1238
    EDDIAG:  cpu time   70.0754: real time   70.0744
  RMM-DIIS:  cpu time  196.5335: real time  196.5307
    ORTHCH:  cpu time   14.3968: real time   14.3965
       DOS:  cpu time    0.0016: real time    0.0016
    CHARGE:  cpu time   27.7003: real time   27.6997
    MIXING:  cpu time    1.0879: real time    1.0879
    --------------------------------------------
      LOOP:  cpu time  324.2005: real time  324.1988

 eigenvalue-minimisations  :   715
 total energy-change (2. order) : 0.1741806E+00  (-0.4436742E-01)
 number of electron     559.9999852 magnetization 
 augmentation part      240.9591329 magnetization 

 Broyden mixing:
  rms(total) = 0.99541E+00    rms(broyden)= 0.99515E+00
  rms(prec ) = 0.11555E+01
  weight for this iteration     100.00

 eigenvalues of (default mixing * dielectric matrix)
  average eigenvalue GAMMA=   0.3447
  1.9472  1.2740  0.3451  0.2561  0.2502  0.1491  0.1058  0.1058  0.0861  0.0861
  0.0647  0.0647  0.0475  0.0434

 Free energy of the ion-electron system (eV)
  ---------------------------------------------------
  alpha Z        PSCENC =        75.25431677
  Ewald energy   TEWEN  =    137818.02914104
  -Hartree energ DENC   =   -182010.16525740
  -exchange      EXHF   =         0.00000000
  -V(xc)+E(xc)   XCENC  =     -1694.76475655
  PAW double counting   =     46099.44520566   -42571.20996624
  entropy T*S    EENTRO =        -0.05139130
  eigenvalues    EBANDS =     -2977.62410536
  atomic energy  EATOM  =     45086.50549395
  Solvation  Ediel_sol  =         0.00000000
  ---------------------------------------------------
  free energy    TOTEN  =      -174.58131944 eV

  energy without entropy =     -174.52992814  energy(sigma->0) =     -174.56847161


--------------------------------------------------------------------------------------------------------




--------------------------------------- Iteration      1(  20)  ---------------------------------------


    POTLOK:  cpu time   14.3512: real time   14.3538
    SETDIJ:  cpu time    0.1213: real time    0.1213
    EDDIAG:  cpu time   70.4470: real time   70.4469
  RMM-DIIS:  cpu time  197.6917: real time  197.6906
    ORTHCH:  cpu time   14.3402: real time   14.3399
       DOS:  cpu time    0.0015: real time    0.0015
    CHARGE:  cpu time   28.1580: real time   28.1575
    MIXING:  cpu time    1.2733: real time    1.2733
    --------------------------------------------
      LOOP:  cpu time  326.3841: real time  326.3847

 eigenvalue-minimisations  :   716
 total energy-change (2. order) : 0.2718916E+00  (-0.3804220E-01)
 number of electron     559.9999860 magnetization 
 augmentation part      241.1320060 magnetization 

 Broyden mixing:
  rms(total) = 0.81567E+00    rms(broyden)= 0.81539E+00
  rms(prec ) = 0.95245E+00
  weight for this iteration     100.00

 eigenvalues of (default mixing * dielectric matrix)
  average eigenvalue GAMMA=   0.3402
  1.9892  1.3156  0.4597  0.2265  0.2265  0.1932  0.1066  0.1066  0.0858  0.0858
  0.0841  0.0710  0.0616  0.0477  0.0428

 Free energy of the ion-electron system (eV)
  ---------------------------------------------------
  alpha Z        PSCENC =        75.25431677
  Ewald energy   TEWEN  =    137818.02914104
  -Hartree energ DENC   =   -182026.64141686
  -exchange      EXHF   =         0.00000000
  -V(xc)+E(xc)   XCENC  =     -1694.64153638
  PAW double counting   =     46098.36317973   -42569.41356097
  entropy T*S    EENTRO =        -0.06021235
  eigenvalues    EBANDS =     -2961.70483277
  atomic energy  EATOM  =     45086.50549395
  Solvation  Ediel_sol  =         0.00000000
  ---------------------------------------------------
  free energy    TOTEN  =      -174.30942786 eV

  energy without entropy =     -174.24921551  energy(sigma->0) =     -174.29437477


--------------------------------------------------------------------------------------------------------




--------------------------------------- Iteration      1(  21)  ---------------------------------------


    POTLOK:  cpu time   14.0527: real time   14.0545
    SETDIJ:  cpu time    0.1216: real time    0.1216
    EDDIAG:  cpu time   69.6486: real time   69.6480
  RMM-DIIS:  cpu time  195.8622: real time  195.8600
    ORTHCH:  cpu time   14.3602: real time   14.3599
       DOS:  cpu time    0.0014: real time    0.0014
    CHARGE:  cpu time   27.7741: real time   27.7735
    MIXING:  cpu time    1.2001: real time    1.2000
    --------------------------------------------
      LOOP:  cpu time  323.0210: real time  323.0190

 eigenvalue-minimisations  :   708
 total energy-change (2. order) : 0.2281871E+00  (-0.1523802E-01)
 number of electron     559.9999862 magnetization 
 augmentation part      241.1667410 magnetization 

 Broyden mixing:
  rms(total) = 0.56050E+00    rms(broyden)= 0.56031E+00
  rms(prec ) = 0.64768E+00
  weight for this iteration     100.00

 eigenvalues of (default mixing * dielectric matrix)
  average eigenvalue GAMMA=   0.3447
  2.0424  1.3606  0.5837  0.2598  0.2598  0.1978  0.1098  0.1098  0.0882  0.0882
  0.1053  0.0924  0.0636  0.0636  0.0474  0.0425

 Free energy of the ion-electron system (eV)
  ---------------------------------------------------
  alpha Z        PSCENC =        75.25431677
  Ewald energy   TEWEN  =    137818.02914104
  -Hartree energ DENC   =   -182034.81583747
  -exchange      EXHF   =         0.00000000
  -V(xc)+E(xc)   XCENC  =     -1694.55558478
  PAW double counting   =     46098.30973239   -42569.02198688
  entropy T*S    EENTRO =        -0.09167326
  eigenvalues    EBANDS =     -2953.69484247
  atomic energy  EATOM  =     45086.50549395
  Solvation  Ediel_sol  =         0.00000000
  ---------------------------------------------------
  free energy    TOTEN  =      -174.08124072 eV

  energy without entropy =     -173.98956746  energy(sigma->0) =     -174.05832240


--------------------------------------------------------------------------------------------------------




--------------------------------------- Iteration      1(  22)  ---------------------------------------


    POTLOK:  cpu time   13.9497: real time   13.9503
    SETDIJ:  cpu time    0.1245: real time    0.1245
    EDDIAG:  cpu time   69.4770: real time   69.4773
  RMM-DIIS:  cpu time  197.5096: real time  197.5076
    ORTHCH:  cpu time   14.2359: real time   14.2356
       DOS:  cpu time    0.0015: real time    0.0015
    CHARGE:  cpu time   27.3080: real time   27.3074
    MIXING:  cpu time    1.3056: real time    1.3056
    --------------------------------------------
      LOOP:  cpu time  323.9117: real time  323.9097

 eigenvalue-minimisations  :   710
 total energy-change (2. order) : 0.8174384E-01  (-0.1162079E-01)
 number of electron     559.9999858 magnetization 
 augmentation part      241.1946044 magnetization 

 Broyden mixing:
  rms(total) = 0.53019E+00    rms(broyden)= 0.53008E+00
  rms(prec ) = 0.61719E+00
  weight for this iteration     100.00

 eigenvalues of (default mixing * dielectric matrix)
  average eigenvalue GAMMA=   0.3519
  2.0450  1.5119  0.7057  0.2883  0.2883  0.1666  0.1666  0.1342  0.1056  0.1056
  0.0873  0.0873  0.0686  0.0686  0.0625  0.0474  0.0425

 Free energy of the ion-electron system (eV)
  ---------------------------------------------------
  alpha Z        PSCENC =        75.25431677
  Ewald energy   TEWEN  =    137818.02914104
  -Hartree energ DENC   =   -182045.14691806
  -exchange      EXHF   =         0.00000000
  -V(xc)+E(xc)   XCENC  =     -1694.42898155
  PAW double counting   =     46096.88585066   -42567.17323846
  entropy T*S    EENTRO =        -0.08067087
  eigenvalues    EBANDS =     -2943.84449037
  atomic energy  EATOM  =     45086.50549395
  Solvation  Ediel_sol  =         0.00000000
  ---------------------------------------------------
  free energy    TOTEN  =      -173.99949688 eV

  energy without entropy =     -173.91882601  energy(sigma->0) =     -173.97932916


--------------------------------------------------------------------------------------------------------




--------------------------------------- Iteration      1(  23)  ---------------------------------------


    POTLOK:  cpu time   13.7794: real time   13.7817
    SETDIJ:  cpu time    0.1209: real time    0.1209
    EDDIAG:  cpu time   69.6706: real time   69.6774
  RMM-DIIS:  cpu time  196.2487: real time  196.2492
    ORTHCH:  cpu time   14.4433: real time   14.4431
       DOS:  cpu time    0.0014: real time    0.0014
    CHARGE:  cpu time   27.7128: real time   27.7125
    MIXING:  cpu time    1.3733: real time    1.3733
    --------------------------------------------
      LOOP:  cpu time  323.3504: real time  323.3595

 eigenvalue-minimisations  :   710
 total energy-change (2. order) : 0.6546793E-01  (-0.8384737E-02)
 number of electron     559.9999858 magnetization 
 augmentation part      241.1599430 magnetization 

 Broyden mixing:
  rms(total) = 0.43606E+00    rms(broyden)= 0.43594E+00
  rms(prec ) = 0.51058E+00
  weight for this iteration     100.00

 eigenvalues of (default mixing * dielectric matrix)
  average eigenvalue GAMMA=   0.3491
  2.0890  1.5226  0.7749  0.3035  0.3035  0.1857  0.1857  0.1654  0.1045  0.1045
[...]
 -0.006  -0.012   0.004   0.004   0.006  -0.006  -0.012   0.004
 -0.011  -0.021   0.006   0.007   0.009  -0.010  -0.020   0.006
 -0.015  -0.005   0.013   0.000   0.022  -0.014  -0.005   0.012
  0.000  -0.023  -0.006  -0.015  -0.000   0.000  -0.022  -0.006
 -0.022   0.000   0.009  -0.005  -0.016  -0.021   0.000   0.008
 -0.017  -0.006   0.015   0.000   0.027  -0.017  -0.006   0.015
  0.000  -0.027  -0.007  -0.018  -0.000   0.000  -0.027  -0.007
 -0.027   0.000   0.010  -0.006  -0.019  -0.026   0.000   0.010
 total augmentation occupancy for first ion, spin component:           1
  1.537  -0.029   0.005   0.017   0.024   0.076  -0.008  -0.002   0.036  -0.010   0.091  -0.031   0.012   0.002   0.002  -0.019
 -0.029   1.400   0.029   0.070  -0.001  -0.007   0.071   0.011  -0.014  -0.008   0.220  -0.066   0.019   0.002   0.003  -0.006
  0.005   0.029   1.543   0.001   0.002  -0.002   0.013   0.073  -0.012   0.017  -0.053   0.018  -0.003  -0.006  -0.005   0.016
  0.017   0.070   0.001   1.337   0.044   0.033  -0.013  -0.012   0.091  -0.023  -0.081   0.021  -0.001  -0.008  -0.003   0.001
  0.024  -0.001   0.002   0.044   1.440  -0.010  -0.008   0.016  -0.022   0.067  -0.096   0.031  -0.002  -0.010  -0.010   0.026
  0.076  -0.007  -0.002   0.033  -0.010   0.217   0.019  -0.002  -0.045   0.004  -0.048   0.002   0.017  -0.010   0.034  -0.004
 -0.008   0.071   0.013  -0.013  -0.008   0.019   0.262  -0.023  -0.003   0.006  -0.109   0.007  -0.001   0.051  -0.010  -0.000
 -0.002   0.011   0.073  -0.012   0.016  -0.002  -0.023   0.215   0.014  -0.020   0.028  -0.001  -0.012   0.009  -0.018   0.003
  0.036  -0.014  -0.012   0.091  -0.022  -0.045  -0.003   0.014   0.260   0.007   0.043  -0.004  -0.009   0.036   0.004   0.000
 -0.010  -0.008   0.017  -0.023   0.067   0.004   0.006  -0.020   0.007   0.258   0.046  -0.002  -0.038   0.002   0.049   0.007
  0.091   0.220  -0.053  -0.081  -0.096  -0.048  -0.109   0.028   0.043   0.046   0.951  -0.141   0.084   0.014   0.064  -0.013
 -0.031  -0.066   0.018   0.021   0.031   0.002   0.007  -0.001  -0.004  -0.002  -0.141   0.023  -0.014  -0.003  -0.010   0.003
  0.012   0.019  -0.003  -0.001  -0.002   0.017  -0.001  -0.012  -0.009  -0.038   0.084  -0.014   0.029  -0.008  -0.004  -0.003
  0.002   0.002  -0.006  -0.008  -0.010  -0.010   0.051   0.009   0.036   0.002   0.014  -0.003  -0.008   0.036   0.004   0.000
  0.002   0.003  -0.005  -0.003  -0.010   0.034  -0.010  -0.018   0.004   0.049   0.064  -0.010  -0.004   0.004   0.035  -0.000
 -0.019  -0.006   0.016   0.001   0.026  -0.004  -0.000   0.003   0.000   0.007  -0.013   0.003  -0.003   0.000  -0.000   0.001
  0.001  -0.028  -0.007  -0.018   0.001   0.001  -0.008  -0.002  -0.006  -0.000  -0.003   0.001   0.000  -0.003  -0.000   0.000
 -0.028   0.001   0.012  -0.005  -0.019  -0.006   0.001   0.003  -0.001  -0.007  -0.008   0.001  -0.000  -0.000  -0.003   0.000


------------------------ aborting loop because EDIFF is reached ----------------------------------------


    CHARGE:  cpu time   25.9051: real time   25.9046
    FORLOC:  cpu time    6.8788: real time    6.8787
    FORNL :  cpu time   67.1209: real time   67.1196
    STRESS:  cpu time  199.7188: real time  199.7147
    FORCOR:  cpu time   22.2163: real time   22.2169
    FORHAR:  cpu time    9.8747: real time    9.8745
    MIXING:  cpu time    3.9326: real time    3.9326
    OFIELD:  cpu time    0.0000: real time    0.0000

  FORCE on cell =-STRESS in cart. coord.  units (eV):
  Direction    XX          YY          ZZ          XY          YZ          ZX
  --------------------------------------------------------------------------------------
  Alpha Z    75.25432    75.25432    75.25432
  Ewald   43863.26503 43925.62862 50029.02979   -12.78584   412.91484  -127.06281
  Hartree 58784.57574 58840.14324 64570.27806   -11.32611   374.30547  -114.97199
  E(xc)   -2904.92344 -2904.84714 -2902.77111    -0.02521     0.32792    -0.10557
  Local  ************************************    23.84020  -782.87509   240.68204
  n-local  -881.60314  -882.01436  -894.85474     0.10711    -1.91225     0.59578
  augment  4104.24334  4104.20080  4102.86811     0.05028    -0.21892     0.07466
  Kinetic  7810.61864  7810.20783  7789.73559     0.19338    -2.85505     0.89905
  Fock        0.00000     0.00000     0.00000     0.00000     0.00000     0.00000
  -------------------------------------------------------------------------------------
  Total    -113.64783  -113.77484  -112.79013     0.05380    -0.31309     0.11116
  in kB      -6.74385    -6.75139    -6.69296     0.00319    -0.01858     0.00660
  external pressure =       -6.73 kB  Pullay stress =        0.00 kB


 VOLUME and BASIS-vectors are now :
 -----------------------------------------------------------------------------
  energy-cutoff  :      400.00
  volume of cell :    27000.00
      direct lattice vectors                 reciprocal lattice vectors
    30.000000000  0.000000000  0.000000000     0.033333333  0.000000000  0.000000000
     0.000000000 30.000000000  0.000000000     0.000000000  0.033333333  0.000000000
     0.000000000  0.000000000 30.000000000     0.000000000  0.000000000  0.033333333

  length of vectors
    30.000000000 30.000000000 30.000000000     0.033333333  0.033333333  0.033333333


 FORCES acting on ions
    electron-ion (+dipol)            ewald-force                    non-local-force                 convergence-correction
 -----------------------------------------------------------------------------------------------
   0.394E+03 0.974E+03 0.421E+03   -.392E+03 -.971E+03 -.420E+03   -.150E+01 -.182E+01 -.224E+00   -.343E-02 0.597E-02 -.273E-02
   -.974E+03 -.394E+03 0.421E+03   0.971E+03 0.392E+03 -.421E+03   0.182E+01 0.150E+01 -.219E+00   -.169E-02 0.452E-02 -.111E-02
   -.395E+03 0.974E+03 0.421E+03   0.393E+03 -.971E+03 -.420E+03   0.150E+01 -.182E+01 -.226E+00   -.437E-02 0.270E-02 -.336E-02
   0.974E+03 -.394E+03 0.422E+03   -.971E+03 0.392E+03 -.421E+03   -.182E+01 0.150E+01 -.217E+00   0.345E-02 -.978E-03 0.258E-02
   -.145E+00 0.588E+03 0.966E+03   0.150E+00 -.587E+03 -.963E+03   0.927E-04 -.307E+00 -.235E+01   -.506E-02 0.337E-02 -.129E-02
   -.211E+01 0.621E+03 -.936E+03   0.212E+01 -.620E+03 0.933E+03   0.419E-04 -.284E+00 0.235E+01   -.578E-02 0.262E-02 -.379E-02
   -.239E+00 0.114E+04 0.667E+01   0.243E+00 -.113E+04 -.668E+01   -.577E-03 -.311E+01 0.119E-02   -.292E-02 0.250E-03 0.229E-03
   0.114E+04 0.972E+00 0.833E+01   -.113E+04 -.975E+00 -.832E+01   -.310E+01 0.156E-02 -.326E-02   0.675E-02 0.113E-02 -.153E-02
   -.114E+04 0.878E+00 0.748E+01   0.113E+04 -.883E+00 -.748E+01   0.311E+01 0.172E-02 -.152E-02   0.904E-03 0.363E-02 -.782E-04
   -.332E+00 -.114E+04 0.948E+01   0.336E+00 0.113E+04 -.948E+01   -.291E-03 0.310E+01 -.590E-02   -.324E-02 -.223E-02 0.616E-03
   -.579E+03 0.580E+03 0.814E+03   0.577E+03 -.577E+03 -.811E+03   0.156E+01 -.156E+01 -.220E+01   -.680E-02 -.792E-03 -.242E-02
   -.595E+03 0.598E+03 -.795E+03   0.593E+03 -.596E+03 0.791E+03   0.156E+01 -.156E+01 0.220E+01   -.191E-02 -.546E-03 -.272E-03
   0.579E+03 -.579E+03 0.815E+03   -.577E+03 0.577E+03 -.811E+03   -.156E+01 0.155E+01 -.220E+01   -.456E-03 -.193E-02 0.314E-02
   0.607E+03 -.601E+03 -.779E+03   -.604E+03 0.599E+03 0.776E+03   -.155E+01 0.155E+01 0.219E+01   -.441E-03 -.198E-02 -.553E-02
   0.579E+03 0.580E+03 0.814E+03   -.577E+03 -.577E+03 -.811E+03   -.156E+01 -.156E+01 -.220E+01   0.924E-03 0.269E-02 0.371E-03
   0.595E+03 0.601E+03 -.792E+03   -.592E+03 -.598E+03 0.789E+03   -.156E+01 -.156E+01 0.220E+01   -.249E-02 0.369E-02 -.423E-02
   -.579E+03 -.579E+03 0.814E+03   0.577E+03 0.576E+03 -.811E+03   0.156E+01 0.155E+01 -.220E+01   -.300E-02 0.179E-02 -.406E-03
   -.606E+03 -.597E+03 -.784E+03   0.604E+03 0.595E+03 0.781E+03   0.155E+01 0.155E+01 0.219E+01   -.255E-05 0.329E-02 0.379E-05
   0.397E+03 0.983E+03 -.403E+03   -.394E+03 -.980E+03 0.403E+03   -.150E+01 -.182E+01 0.214E+00   -.427E-02 0.313E-02 -.371E-02
   -.985E+03 -.396E+03 -.400E+03   0.982E+03 0.393E+03 0.400E+03   0.183E+01 0.150E+01 0.216E+00   -.141E-02 0.538E-02 0.120E-02
   -.322E+03 0.323E+03 0.460E+03   0.323E+03 -.323E+03 -.461E+03   -.367E+00 0.367E+00 0.517E+00   -.981E-02 0.177E-02 -.157E-02
   0.974E+03 0.395E+03 0.421E+03   -.971E+03 -.393E+03 -.421E+03   -.182E+01 -.150E+01 -.223E+00   0.393E-02 0.299E-02 0.216E-02
   -.395E+03 -.973E+03 0.422E+03   0.393E+03 0.971E+03 -.422E+03   0.150E+01 0.182E+01 -.217E+00   -.424E-02 -.508E-03 -.339E-03
   -.398E+03 0.983E+03 -.404E+03   0.395E+03 -.980E+03 0.403E+03   0.150E+01 -.182E+01 0.214E+00   -.406E-02 -.110E-02 -.308E-02
   0.985E+03 -.396E+03 -.398E+03   -.982E+03 0.394E+03 0.398E+03   -.183E+01 0.150E+01 0.216E+00   0.468E-02 -.197E-02 -.465E-02
   -.974E+03 0.395E+03 0.421E+03   0.971E+03 -.393E+03 -.421E+03   0.182E+01 -.150E+01 -.226E+00   -.283E-02 0.796E-03 -.165E-02
   0.395E+03 -.974E+03 0.422E+03   -.392E+03 0.971E+03 -.422E+03   -.150E+01 0.182E+01 -.215E+00   -.274E-02 -.344E-02 0.566E-03
   0.322E+03 0.323E+03 0.460E+03   -.322E+03 -.323E+03 -.461E+03   0.366E+00 0.366E+00 0.519E+00   -.357E-02 0.280E-02 0.368E-04
   -.428E+00 0.645E+03 0.125E+02   0.436E+00 -.646E+03 -.125E+02   -.129E-03 0.735E+00 0.237E-02   -.662E-02 0.602E-02 -.316E-03
   -.588E+03 0.509E+00 0.966E+03   0.587E+03 -.510E+00 -.963E+03   0.308E+00 -.254E-03 -.235E+01   -.555E-02 0.169E-02 -.109E-02
   -.624E+03 0.869E+01 -.929E+03   0.623E+03 -.870E+01 0.926E+03   0.261E+00 0.240E-02 0.235E+01   -.285E-02 0.597E-02 -.400E-04
   0.587E+03 0.528E+00 0.967E+03   -.587E+03 -.527E+00 -.963E+03   -.308E+00 -.353E-03 -.235E+01   0.712E-04 0.941E-04 0.394E-02
   0.627E+03 0.109E+02 -.921E+03   -.626E+03 -.109E+02 0.917E+03   -.232E+00 0.712E-02 0.235E+01   -.440E-04 0.147E-02 -.589E-02
   0.764E+03 0.765E+03 0.102E+02   -.762E+03 -.763E+03 -.103E+02   -.114E+01 -.114E+01 0.132E-01   -.141E-02 0.635E-02 -.291E-03
   -.765E+03 -.764E+03 0.120E+02   0.763E+03 0.762E+03 -.120E+02   0.114E+01 0.114E+01 0.443E-02   -.301E-02 0.162E-02 -.563E-04
   -.764E+03 0.765E+03 0.961E+01   0.762E+03 -.763E+03 -.963E+01   0.114E+01 -.114E+01 0.161E-01   -.521E-02 -.400E-04 -.103E-02
   0.765E+03 -.764E+03 0.129E+02   -.763E+03 0.762E+03 -.129E+02   -.114E+01 0.114E+01 -.449E-03   0.517E-03 -.468E-02 -.265E-03
   -.170E+00 0.574E+00 0.107E+04   0.174E+00 -.568E+00 -.107E+04   0.752E-03 -.251E-02 -.162E+01   -.524E-02 -.158E-02 0.203E-02
   -.105E+02 0.343E+02 -.943E+03   0.105E+02 -.343E+02 0.941E+03   -.440E-01 0.146E+00 0.147E+01   -.650E-02 0.212E-02 -.451E-02
   0.983E+03 0.400E+03 -.400E+03   -.980E+03 -.398E+03 0.400E+03   -.182E+01 -.150E+01 0.210E+00   0.397E-02 0.357E-02 -.491E-02
   -.400E+03 -.984E+03 -.397E+03   0.398E+03 0.981E+03 0.396E+03   0.151E+01 0.182E+01 0.209E+00   -.324E-02 0.636E-03 -.785E-03
   -.330E+03 0.333E+03 -.425E+03   0.330E+03 -.333E+03 0.426E+03   -.310E+00 0.313E+00 -.571E+00   -.947E-02 0.411E-02 -.501E-02
   0.322E+03 -.321E+03 0.461E+03   -.322E+03 0.322E+03 -.462E+03   0.364E+00 -.364E+00 0.524E+00   -.507E-02 -.120E-02 0.209E-02
   0.328E+03 0.334E+03 -.424E+03   -.328E+03 -.334E+03 0.424E+03   0.322E+00 0.325E+00 -.550E+00   -.492E-02 0.618E-02 -.618E-02
   -.983E+03 0.399E+03 -.402E+03   0.980E+03 -.397E+03 0.402E+03   0.182E+01 -.150E+01 0.212E+00   -.765E-03 0.216E-02 -.973E-03
   0.398E+03 -.985E+03 -.396E+03   -.396E+03 0.982E+03 0.395E+03   -.151E+01 0.182E+01 0.212E+00   -.258E-02 -.222E-02 -.357E-02
   -.322E+03 -.321E+03 0.461E+03   0.323E+03 0.322E+03 -.462E+03   -.365E+00 -.365E+00 0.522E+00   -.701E-02 -.141E-03 0.214E-05
   0.644E+03 0.166E+01 0.147E+02   -.645E+03 -.166E+01 -.147E+02   0.733E+00 -.294E-04 -.108E-01   0.416E-03 0.120E-02 -.355E-04
   -.644E+03 0.154E+01 0.136E+02   0.645E+03 -.154E+01 -.136E+02   -.734E+00 0.247E-03 -.472E-02   -.794E-02 0.259E-02 -.838E-03
   -.163E+00 -.587E+03 0.967E+03   0.167E+00 0.586E+03 -.963E+03   0.208E-03 0.308E+00 -.235E+01   -.451E-02 -.990E-03 0.133E-02
   -.454E+01 -.632E+03 -.905E+03   0.455E+01 0.631E+03 0.902E+03   -.619E-02 0.169E+00 0.235E+01   -.274E-02 0.265E-03 -.430E-02
   -.623E+00 0.207E+01 0.186E+02   0.633E+00 -.207E+01 -.185E+02   -.468E-03 0.171E-02 -.463E-02   -.890E-02 0.649E-03 0.741E-04
   0.330E+03 -.326E+03 -.416E+03   -.330E+03 0.327E+03 0.416E+03   0.353E+00 -.352E+00 -.483E+00   -.504E-02 -.233E-02 -.557E-02
   -.332E+03 -.326E+03 -.419E+03   0.333E+03 0.326E+03 0.419E+03   -.346E+00 -.344E+00 -.502E+00   -.623E-02 0.980E-03 -.190E-02
   -.545E+00 -.643E+03 0.161E+02   0.552E+00 0.644E+03 -.161E+02   0.138E-03 -.731E+00 -.193E-01   -.723E-02 -.130E-02 0.466E-03
   0.431E+01 -.132E+02 -.176E+03   -.337E+01 0.102E+02 0.148E+03   -.781E+00 0.257E+01 0.252E+02   -.975E-03 0.339E-03 -.273E-03
   0.204E+02 -.666E+02 -.680E+03   -.224E+02 0.732E+02 0.743E+03   0.194E+01 -.635E+01 -.604E+02   -.967E-03 0.451E-03 -.477E-03
 -----------------------------------------------------------------------------------------------
   -.986E+00 0.374E+01 0.356E+02   0.647E-12 -.104E-11 -.125E-11   0.116E+01 -.380E+01 -.355E+02   -.163E+00 0.710E-01 -.692E-01
 
 
 POSITION                                       TOTAL-FORCE (eV/Angst)
 -----------------------------------------------------------------------------------
     13.37281      9.84801     12.50759         0.702287      1.106981      0.292786
     20.15199     16.62719     12.50759        -1.107264     -0.702485      0.291882
     16.62719      9.84801     12.50759        -0.702938      1.107265      0.293489
      9.84801     16.62719     12.50759         1.107264     -0.702541      0.291559
     15.00000     11.47521     10.20639        -0.000344      0.409942      1.281424
     15.00000     11.47521     19.79360        -0.000304      0.401572     -1.300209
     15.00000      8.28283     15.00000        -0.000174      1.515541     -0.000099
      8.28283     15.00000     15.00000         1.514617     -0.000202      0.000719
     21.71717     15.00000     15.00000        -1.515381     -0.000207      0.000334
     15.00000     21.71717     15.00000        -0.000320     -1.514451      0.001633
     18.35858     11.64142     10.25025        -0.755351      0.755363      1.073002
     18.35858     11.64142     19.74975        -0.756665      0.756186     -1.071327
     11.64142     18.35858     10.25025         0.755608     -0.755209      1.073088
     11.64142     18.35858     19.74975         0.752514     -0.755224     -1.075624
     11.64142     11.64142     10.25025         0.754844      0.755666      1.073279
     11.64142     11.64142     19.74975         0.756814      0.756051     -1.072295
     18.35858     18.35858     10.25025        -0.756071     -0.754892      1.073119
     18.35858     18.35858     19.74975        -0.754290     -0.757019     -1.074390
     13.37281      9.84801     17.49241         0.700824      1.106844     -0.291358
     20.15199     16.62719     17.49241        -1.106774     -0.700780     -0.292483
     16.73751     13.26249     12.54279         0.112295     -0.112627     -0.156352
      9.84801     13.37281     12.50759         1.107941      0.702009      0.292951
     16.62719     20.15199     12.50759        -0.702308     -1.108380      0.291315
     16.62719      9.84801     17.49241        -0.702048      1.106788     -0.290985
      9.84801     16.62719     17.49241         1.105825     -0.701215     -0.292696
     20.15199     13.37281     12.50759        -1.107994      0.702303      0.293711
     13.37281     20.15199     12.50759         0.702112     -1.108282      0.291111
     13.26249     13.26249     12.54279        -0.112853     -0.112823     -0.156289
     15.00000     11.52498     15.00000         0.000202     -0.224734      0.000724
     18.52479     15.00000     10.20639        -0.410721      0.000182      1.281092
     18.52479     15.00000     19.79360        -0.394004     -0.001391     -1.304266
     11.47521     15.00000     10.20640         0.410492      0.000218      1.281238
     11.47521     15.00000     19.79360         0.384347     -0.002586     -1.307974
     11.49535     11.49535     15.00000         0.823918      0.822419     -0.009049
     18.50465     18.50465     15.00000        -0.824327     -0.825570     -0.006136
     18.50465     11.49535     15.00000        -0.823840      0.822521     -0.009037
     11.49535     18.50465     15.00000         0.825426     -0.826346     -0.003924
     15.00000     15.00000     10.04368        -0.000775      0.001723      1.181756
     15.00000     15.00000     19.95633        -0.046747      0.150667     -0.409949
      9.84801     13.37281     17.49241         1.108474      0.703671     -0.289950
     16.62719     20.15199     17.49241        -0.704356     -1.107926     -0.290099
     16.73751     13.26249     17.45721         0.090402     -0.096149      0.170348
     13.26249     16.73751     12.54279        -0.113163      0.112632     -0.156399
     13.26249     13.26249     17.45721        -0.100026     -0.109671      0.160576
     20.15199     13.37281     17.49241        -1.107875      0.702955     -0.290406
     13.37281     20.15199     17.49241         0.702869     -1.106593     -0.291557
     16.73751     16.73751     12.54279         0.112741      0.112561     -0.156401
     11.52498     15.00000     15.00000        -0.224465     -0.001467     -0.001494
     18.47502     15.00000     15.00000         0.224394     -0.001680     -0.000697
     15.00000     18.52480     10.20639        -0.000393     -0.410735      1.281403
     15.00000     18.52480     19.79360         0.000224     -0.378161     -1.302442
     15.00000     15.00000     15.00000        -0.000340      0.000093      0.006282
     13.26249     16.73751     17.45721        -0.127949      0.122351      0.146939
     16.73751     16.73751     17.45721         0.125868      0.116330      0.149239
     15.00000     18.47502     15.00000        -0.000024      0.223834     -0.002555
     14.75467     15.80437     22.62367         0.154547     -0.485934     -3.273539
     14.71860     15.92267     23.74487        -0.076767      0.290617      2.604986
 -----------------------------------------------------------------------------------
    total drift:                                0.011200      0.009567     -0.002556


--------------------------------------------------------------------------------------------------------



  FREE ENERGIE OF THE ION-ELECTRON SYSTEM (eV)
  ---------------------------------------------------
  free  energy   TOTEN  =      -173.78707477 eV

  energy  without entropy=     -173.70135617  energy(sigma->0) =     -173.76564512
 


--------------------------------------------------------------------------------------------------------


    POTLOK:  cpu time   14.5082: real time   14.5080


--------------------------------------------------------------------------------------------------------


     LOOP+:  cpu time18871.6478: real time18872.0937
    4ORBIT:  cpu time    0.0000: real time    0.0000

 total amount of memory used by VASP MPI-rank0  5486942. kBytes
=======================================================================

   base      :      30000. kBytes
   nonlr-proj:      17127. kBytes
   fftplans  :     924480. kBytes
   grid      :    1872000. kBytes
   one-center:        886. kBytes
   wavefun   :    2642449. kBytes
 
  
  
 General timing and accounting informations for this job:
 ========================================================
  
                  Total CPU time used (sec):    18947.211
                            User time (sec):    17896.647
                          System time (sec):     1050.564
                         Elapsed time (sec):    18947.715
  
                   Maximum memory used (kb):     7178536.
                   Average memory used (kb):           0.
  
                          Minor page faults:    814388856
                          Major page faults:            0
                 Voluntary context switches:          465
