  57  57   0   0
  0.4736842E+03  0.3000000E-08  0.3000000E-08  0.3000000E-08  0.5000000E-15
  1.000000000000000E-004
  CAR 
 6_Pd100_top_free_z(O)                   
      1.40267782    -30.31372497  301     -4.15646799      1.00000000
    -30.314  0.0000E+00  0.0000E+00
    -30.208  0.0000E+00  0.0000E+00
    -30.102  0.0000E+00  0.0000E+00
    -29.997  0.2703E-27  0.2858E-28
    -29.891  0.1219E-23  0.1289E-24
    -29.785  0.3097E-20  0.3276E-21
    -29.679  0.4419E-17  0.4675E-18
    -29.574  0.3530E-14  0.3737E-15
    -29.468  0.1574E-11  0.1668E-12
    -29.362  0.3881E-09  0.4120E-10
    -29.257  0.5251E-07  0.5593E-08
    -29.151  0.3842E-05  0.4118E-06
    -29.045  0.1484E-03  0.1611E-04
    -28.939  0.2892E-02  0.3219E-03
    -28.834  0.2545E-01  0.3013E-02
    -28.728  0.6350E-01  0.9727E-02
    -28.622 -0.2437E+00 -0.1604E-01
    -28.516 -0.8067E+00 -0.1013E+00
    -28.411  0.2279E+01  0.1396E+00
    -28.305  0.9008E+01  0.1092E+01
    -28.199  0.8122E+01  0.1951E+01
    -28.094  0.1337E+01  0.2092E+01
    -27.988 -0.8124E+00  0.2006E+01
    -27.882 -0.1425E+00  0.1991E+01
    -27.776  0.6385E-01  0.1998E+01
    -27.671  0.1897E-01  0.2000E+01
    -27.565  0.1865E-02  0.2000E+01
    -27.459  0.8510E-04  0.2000E+01
    -27.354  0.1978E-05  0.2000E+01
    -27.248  0.2440E-07  0.2000E+01
    -27.142  0.1633E-09  0.2000E+01
    -27.036  0.5986E-12  0.2000E+01
    -26.931  0.2100E-14  0.2000E+01
    -26.825  0.0000E+00  0.2000E+01
    -26.719  0.0000E+00  0.2000E+01
    -26.613  0.0000E+00  0.2000E+01
    -26.508  0.0000E+00  0.2000E+01
    -26.402  0.0000E+00  0.2000E+01
    -26.296  0.0000E+00  0.2000E+01
    -26.191  0.0000E+00  0.2000E+01
    -26.085  0.0000E+00  0.2000E+01
    -25.979  0.0000E+00  0.2000E+01
    -25.873  0.0000E+00  0.2000E+01
    -25.768  0.0000E+00  0.2000E+01
    -25.662  0.0000E+00  0.2000E+01
    -25.556  0.0000E+00  0.2000E+01
    -25.451  0.0000E+00  0.2000E+01
    -25.345  0.0000E+00  0.2000E+01
    -25.239  0.0000E+00  0.2000E+01
    -25.133  0.0000E+00  0.2000E+01
    -25.028  0.0000E+00  0.2000E+01
    -24.922  0.0000E+00  0.2000E+01
    -24.816  0.0000E+00  0.2000E+01
    -24.710  0.0000E+00  0.2000E+01
    -24.605  0.0000E+00  0.2000E+01
    -24.499  0.0000E+00  0.2000E+01
    -24.393  0.0000E+00  0.2000E+01
    -24.288  0.0000E+00  0.2000E+01
    -24.182  0.0000E+00  0.2000E+01
    -24.076  0.0000E+00  0.2000E+01
    -23.970  0.0000E+00  0.2000E+01
    -23.865  0.0000E+00  0.2000E+01
    -23.759  0.0000E+00  0.2000E+01
    -23.653  0.0000E+00  0.2000E+01
    -23.548  0.0000E+00  0.2000E+01
    -23.442  0.0000E+00  0.2000E+01
    -23.336  0.0000E+00  0.2000E+01
    -23.230  0.0000E+00  0.2000E+01
    -23.125  0.0000E+00  0.2000E+01
    -23.019  0.0000E+00  0.2000E+01
    -22.913  0.0000E+00  0.2000E+01
    -22.808  0.0000E+00  0.2000E+01
    -22.702  0.0000E+00  0.2000E+01
    -22.596  0.0000E+00  0.2000E+01
    -22.490  0.0000E+00  0.2000E+01
    -22.385  0.0000E+00  0.2000E+01
    -22.279  0.0000E+00  0.2000E+01
    -22.173  0.0000E+00  0.2000E+01
    -22.067  0.0000E+00  0.2000E+01
    -21.962  0.0000E+00  0.2000E+01
    -21.856  0.0000E+00  0.2000E+01
    -21.750  0.0000E+00  0.2000E+01
    -21.645  0.0000E+00  0.2000E+01
    -21.539  0.0000E+00  0.2000E+01
    -21.433  0.0000E+00  0.2000E+01
    -21.327  0.0000E+00  0.2000E+01
    -21.222  0.0000E+00  0.2000E+01
    -21.116  0.0000E+00  0.2000E+01
    -21.010  0.0000E+00  0.2000E+01
    -20.905  0.0000E+00  0.2000E+01
    -20.799  0.0000E+00  0.2000E+01
    -20.693  0.0000E+00  0.2000E+01
    -20.587  0.0000E+00  0.2000E+01
    -20.482  0.0000E+00  0.2000E+01
    -20.376  0.0000E+00  0.2000E+01
    -20.270  0.0000E+00  0.2000E+01
    -20.164  0.0000E+00  0.2000E+01
    -20.059  0.0000E+00  0.2000E+01
    -19.953  0.0000E+00  0.2000E+01
    -19.847  0.0000E+00  0.2000E+01
    -19.742  0.0000E+00  0.2000E+01
    -19.636  0.0000E+00  0.2000E+01
    -19.530  0.0000E+00  0.2000E+01
    -19.424  0.0000E+00  0.2000E+01
    -19.319  0.0000E+00  0.2000E+01
    -19.213  0.0000E+00  0.2000E+01
    -19.107  0.0000E+00  0.2000E+01
    -19.002  0.0000E+00  0.2000E+01
    -18.896  0.0000E+00  0.2000E+01
    -18.790  0.0000E+00  0.2000E+01
    -18.684  0.0000E+00  0.2000E+01
    -18.579  0.0000E+00  0.2000E+01
    -18.473  0.0000E+00  0.2000E+01
    -18.367  0.0000E+00  0.2000E+01
    -18.261  0.0000E+00  0.2000E+01
    -18.156  0.0000E+00  0.2000E+01
    -18.050  0.0000E+00  0.2000E+01
    -17.944  0.0000E+00  0.2000E+01
    -17.839  0.0000E+00  0.2000E+01
    -17.733  0.0000E+00  0.2000E+01
    -17.627  0.0000E+00  0.2000E+01
    -17.521  0.0000E+00  0.2000E+01
    -17.416  0.0000E+00  0.2000E+01
    -17.310  0.0000E+00  0.2000E+01
    -17.204  0.0000E+00  0.2000E+01
    -17.099  0.0000E+00  0.2000E+01
    -16.993  0.0000E+00  0.2000E+01
    -16.887  0.0000E+00  0.2000E+01
    -16.781  0.0000E+00  0.2000E+01
    -16.676  0.0000E+00  0.2000E+01
    -16.570  0.0000E+00  0.2000E+01
    -16.464  0.0000E+00  0.2000E+01
    -16.359  0.0000E+00  0.2000E+01
    -16.253  0.0000E+00  0.2000E+01
    -16.147  0.0000E+00  0.2000E+01
    -16.041  0.0000E+00  0.2000E+01
    -15.936  0.0000E+00  0.2000E+01
    -15.830  0.0000E+00  0.2000E+01
    -15.724  0.0000E+00  0.2000E+01
    -15.618  0.0000E+00  0.2000E+01
    -15.513  0.0000E+00  0.2000E+01
    -15.407  0.0000E+00  0.2000E+01
    -15.301  0.0000E+00  0.2000E+01
    -15.196  0.0000E+00  0.2000E+01
    -15.090  0.0000E+00  0.2000E+01
    -14.984  0.0000E+00  0.2000E+01
    -14.878  0.7154E-26  0.2000E+01
    -14.773  0.2593E-22  0.2000E+01
    -14.667  0.5288E-19  0.2000E+01
    -14.561  0.6051E-16  0.2000E+01
    -14.456  0.3870E-13  0.2000E+01
    -14.350  0.1379E-10  0.2000E+01
    -14.244  0.2708E-08  0.2000E+01
    -14.138  0.2904E-06  0.2000E+01
    -14.033  0.1672E-04  0.2000E+01
    -13.927  0.5012E-03  0.2000E+01
    -13.821  0.7355E-02  0.2001E+01
    -13.715  0.4452E-01  0.2006E+01
    -13.610  0.2434E-01  0.2008E+01
    -13.504 -0.5378E+00  0.1951E+01
    -13.398 -0.3499E+00  0.1914E+01
    -13.293  0.4936E+01  0.2436E+01
    -13.187  0.1002E+02  0.3495E+01
    -13.081  0.5477E+01  0.4074E+01
    -12.975 -0.1711E+00  0.4056E+01
    -12.870 -0.5958E+00  0.3993E+01
    -12.764  0.7948E-02  0.3994E+01
    -12.658  0.4843E-01  0.3999E+01
    -12.553  0.8668E-02  0.4000E+01
    -12.447  0.6248E-03  0.4000E+01
    -12.341  0.2190E-04  0.4000E+01
    -12.235  0.3984E-06  0.4000E+01
    -12.130  0.9689E-08  0.4000E+01
    -12.024  0.5663E-06  0.4000E+01
    -11.918  0.2954E-04  0.4000E+01
    -11.812  0.7972E-03  0.4000E+01
    -11.707  0.1037E-01  0.4001E+01
    -11.601  0.5274E-01  0.4007E+01
    -11.495 -0.1365E-01  0.4005E+01
    -11.390 -0.6441E+00  0.3937E+01
    -11.284  0.1297E+00  0.3951E+01
    -11.178  0.6019E+01  0.4587E+01
    -11.072  0.9192E+01  0.5559E+01
    -10.967  0.4910E+01  0.6078E+01
    -10.861  0.6562E+01  0.6772E+01
    -10.755  0.9189E+01  0.7743E+01
    -10.650  0.3444E+01  0.8108E+01
    -10.544 -0.9387E+00  0.8008E+01
    -10.438 -0.1142E+01  0.7887E+01
    -10.332  0.2639E+01  0.8166E+01
    -10.227  0.9254E+01  0.9145E+01
    -10.121  0.7830E+01  0.9973E+01
    -10.015  0.1093E+01  0.1009E+02
     -9.910 -0.7992E+00  0.1000E+02
     -9.804 -0.1171E+00  0.9991E+01
     -9.698  0.6283E-01  0.9998E+01
     -9.592  0.1732E-01  0.1000E+02
     -9.487  0.1634E-02  0.1000E+02
     -9.381  0.7209E-04  0.1000E+02
     -9.275  0.1624E-05  0.1000E+02
     -9.169  0.1945E-07  0.1000E+02
     -9.064  0.1264E-09  0.1000E+02
     -8.958  0.4516E-12  0.1000E+02
     -8.852  0.0000E+00  0.1000E+02
     -8.747  0.0000E+00  0.1000E+02
     -8.641  0.0000E+00  0.1000E+02
     -8.535  0.0000E+00  0.1000E+02
     -8.429  0.0000E+00  0.1000E+02
     -8.324  0.9921E-27  0.1000E+02
     -8.218  0.4105E-23  0.1000E+02
     -8.112  0.9566E-20  0.1000E+02
     -8.007  0.1251E-16  0.1000E+02
     -7.901  0.9158E-14  0.1000E+02
     -7.795  0.3738E-11  0.1000E+02
     -7.689  0.8430E-09  0.1000E+02
     -7.584  0.1041E-06  0.1000E+02
     -7.478  0.6934E-05  0.1000E+02
     -7.372  0.2426E-03  0.1000E+02
     -7.266  0.4236E-02  0.1000E+02
     -7.161  0.3242E-01  0.1000E+02
     -7.055  0.5596E-01  0.1001E+02
     -6.949 -0.3526E+00  0.9973E+01
     -6.844 -0.7116E+00  0.9897E+01
     -6.738  0.3285E+01  0.1024E+02
     -6.632  0.9723E+01  0.1127E+02
     -6.526  0.7268E+01  0.1204E+02
     -6.421 -0.7426E+00  0.1196E+02
     -6.315 -0.1977E+01  0.1175E+02
     -6.209  0.1290E+02  0.1312E+02
     -6.104  0.2905E+02  0.1619E+02
     -5.998  0.2376E+02  0.1870E+02
     -5.892  0.2566E+02  0.2141E+02
     -5.786  0.5016E+02  0.2672E+02
     -5.681  0.9216E+02  0.3646E+02
     -5.575  0.1861E+03  0.5614E+02
     -5.469  0.2877E+03  0.8655E+02
     -5.363  0.2810E+03  0.1163E+03
     -5.258  0.2198E+03  0.1395E+03
     -5.152  0.2341E+03  0.1642E+03
     -5.046  0.3170E+03  0.1978E+03
     -4.941  0.3609E+03  0.2359E+03
     -4.835  0.3202E+03  0.2698E+03
     -4.729  0.3100E+03  0.3025E+03
     -4.623  0.3799E+03  0.3427E+03
     -4.518  0.4147E+03  0.3865E+03
     -4.412  0.4286E+03  0.4319E+03
     -4.306  0.5230E+03  0.4872E+03
     -4.201  0.5292E+03  0.5431E+03
     -4.095  0.2961E+03  0.5744E+03
     -3.989  0.6277E+02  0.5810E+03
     -3.883  0.9533E+01  0.5821E+03
     -3.778  0.2600E+02  0.5848E+03
     -3.672  0.2088E+02  0.5870E+03
     -3.566  0.1625E+02  0.5887E+03
     -3.461  0.2485E+02  0.5914E+03
     -3.355  0.1979E+02  0.5934E+03
     -3.249  0.1896E+01  0.5936E+03
     -3.143  0.1181E+02  0.5949E+03
     -3.038  0.5126E+02  0.6003E+03
     -2.932  0.5746E+02  0.6064E+03
     -2.826  0.2559E+02  0.6091E+03
     -2.720  0.5829E+01  0.6097E+03
     -2.615  0.7765E+01  0.6105E+03
     -2.509  0.1927E+02  0.6126E+03
     -2.403  0.2328E+02  0.6150E+03
     -2.298  0.1942E+02  0.6171E+03
     -2.192  0.2273E+02  0.6195E+03
     -2.086  0.3601E+02  0.6233E+03
     -1.980  0.3857E+02  0.6274E+03
     -1.875  0.3496E+02  0.6311E+03
     -1.769  0.3733E+02  0.6350E+03
     -1.663  0.3870E+02  0.6391E+03
     -1.558  0.3182E+02  0.6425E+03
     -1.452  0.2008E+02  0.6446E+03
     -1.346  0.2037E+02  0.6467E+03
     -1.240  0.2821E+02  0.6497E+03
     -1.135  0.2828E+02  0.6527E+03
     -1.029  0.3956E+02  0.6569E+03
     -0.923  0.6064E+02  0.6633E+03
     -0.817  0.4786E+02  0.6684E+03
     -0.712  0.1735E+02  0.6702E+03
     -0.606  0.7917E+01  0.6710E+03
     -0.500  0.7591E+01  0.6718E+03
     -0.395  0.2217E+01  0.6721E+03
     -0.289 -0.6423E+00  0.6720E+03
     -0.183 -0.1971E+00  0.6720E+03
     -0.077  0.6871E-01  0.6720E+03
      0.028  0.2573E-01  0.6720E+03
      0.134  0.2900E-02  0.6720E+03
      0.240  0.1486E-03  0.6720E+03
      0.345  0.3843E-05  0.6720E+03
      0.451  0.5251E-07  0.6720E+03
      0.557  0.3881E-09  0.6720E+03
      0.663  0.1575E-11  0.6720E+03
      0.768  0.4201E-14  0.6720E+03
      0.874  0.0000E+00  0.6720E+03
      0.980  0.0000E+00  0.6720E+03
      1.086  0.0000E+00  0.6720E+03
      1.191  0.0000E+00  0.6720E+03
      1.297  0.0000E+00  0.6720E+03
      1.403  0.0000E+00  0.6720E+03
