  57  57   0   0
  0.4736842E+03  0.3000000E-08  0.3000000E-08  0.3000000E-08  0.5000000E-15
  1.000000000000000E-004
  CAR 
 6_Pd100_top_free_z(O)                   
      1.37595488    -31.27618692  301     -4.12293634      1.00000000
    -31.276  0.0000E+00  0.0000E+00
    -31.167  0.0000E+00  0.0000E+00
    -31.059  0.0000E+00  0.0000E+00
    -30.950  0.5659E-27  0.6159E-28
    -30.841  0.3078E-23  0.3351E-24
    -30.732  0.9109E-20  0.9918E-21
    -30.623  0.1462E-16  0.1592E-17
    -30.514  0.1268E-13  0.1382E-14
    -30.405  0.5922E-11  0.6459E-12
    -30.297  0.1473E-08  0.1610E-09
    -30.188  0.1933E-06  0.2120E-07
    -30.079  0.1315E-04  0.1453E-05
    -29.970  0.4493E-03  0.5036E-04
    -29.861  0.7225E-02  0.8367E-03
    -29.752  0.4546E-01  0.5784E-02
    -29.644  0.1257E-01  0.7153E-02
    -29.535 -0.5975E+00 -0.5788E-01
    -29.426 -0.6257E-01 -0.6469E-01
    -29.317  0.5936E+01  0.5814E+00
    -29.208  0.9894E+01  0.1658E+01
    -29.099  0.4050E+01  0.2099E+01
    -28.991 -0.6062E+00  0.2033E+01
    -28.882 -0.3934E+00  0.1990E+01
    -28.773  0.5307E-01  0.1996E+01
    -28.664  0.3213E-01  0.2000E+01
    -28.555  0.3907E-02  0.2000E+01
    -28.446  0.1995E-03  0.2000E+01
    -28.337  0.4898E-05  0.2000E+01
    -28.229  0.6100E-07  0.2000E+01
    -28.120  0.3958E-09  0.2000E+01
    -28.011  0.1361E-11  0.2000E+01
    -27.902  0.2040E-14  0.2000E+01
    -27.793  0.0000E+00  0.2000E+01
    -27.684  0.0000E+00  0.2000E+01
    -27.576  0.0000E+00  0.2000E+01
    -27.467  0.0000E+00  0.2000E+01
    -27.358  0.0000E+00  0.2000E+01
    -27.249  0.0000E+00  0.2000E+01
    -27.140  0.0000E+00  0.2000E+01
    -27.031  0.0000E+00  0.2000E+01
    -26.923  0.0000E+00  0.2000E+01
    -26.814  0.0000E+00  0.2000E+01
    -26.705  0.0000E+00  0.2000E+01
    -26.596  0.0000E+00  0.2000E+01
    -26.487  0.0000E+00  0.2000E+01
    -26.378  0.0000E+00  0.2000E+01
    -26.270  0.0000E+00  0.2000E+01
    -26.161  0.0000E+00  0.2000E+01
    -26.052  0.0000E+00  0.2000E+01
    -25.943  0.0000E+00  0.2000E+01
    -25.834  0.0000E+00  0.2000E+01
    -25.725  0.0000E+00  0.2000E+01
    -25.616  0.0000E+00  0.2000E+01
    -25.508  0.0000E+00  0.2000E+01
    -25.399  0.0000E+00  0.2000E+01
    -25.290  0.0000E+00  0.2000E+01
    -25.181  0.0000E+00  0.2000E+01
    -25.072  0.0000E+00  0.2000E+01
    -24.963  0.0000E+00  0.2000E+01
    -24.855  0.0000E+00  0.2000E+01
    -24.746  0.0000E+00  0.2000E+01
    -24.637  0.0000E+00  0.2000E+01
    -24.528  0.0000E+00  0.2000E+01
    -24.419  0.0000E+00  0.2000E+01
    -24.310  0.0000E+00  0.2000E+01
    -24.202  0.0000E+00  0.2000E+01
    -24.093  0.0000E+00  0.2000E+01
    -23.984  0.0000E+00  0.2000E+01
    -23.875  0.0000E+00  0.2000E+01
    -23.766  0.0000E+00  0.2000E+01
    -23.657  0.0000E+00  0.2000E+01
    -23.549  0.0000E+00  0.2000E+01
    -23.440  0.0000E+00  0.2000E+01
    -23.331  0.0000E+00  0.2000E+01
    -23.222  0.0000E+00  0.2000E+01
    -23.113  0.0000E+00  0.2000E+01
    -23.004  0.0000E+00  0.2000E+01
    -22.895  0.0000E+00  0.2000E+01
    -22.787  0.0000E+00  0.2000E+01
    -22.678  0.0000E+00  0.2000E+01
    -22.569  0.0000E+00  0.2000E+01
    -22.460  0.0000E+00  0.2000E+01
    -22.351  0.0000E+00  0.2000E+01
    -22.242  0.0000E+00  0.2000E+01
    -22.134  0.0000E+00  0.2000E+01
    -22.025  0.0000E+00  0.2000E+01
    -21.916  0.0000E+00  0.2000E+01
    -21.807  0.0000E+00  0.2000E+01
    -21.698  0.0000E+00  0.2000E+01
    -21.589  0.0000E+00  0.2000E+01
    -21.481  0.0000E+00  0.2000E+01
    -21.372  0.0000E+00  0.2000E+01
    -21.263  0.0000E+00  0.2000E+01
    -21.154  0.0000E+00  0.2000E+01
    -21.045  0.0000E+00  0.2000E+01
    -20.936  0.0000E+00  0.2000E+01
    -20.828  0.0000E+00  0.2000E+01
    -20.719  0.0000E+00  0.2000E+01
    -20.610  0.0000E+00  0.2000E+01
    -20.501  0.0000E+00  0.2000E+01
    -20.392  0.0000E+00  0.2000E+01
    -20.283  0.0000E+00  0.2000E+01
    -20.174  0.0000E+00  0.2000E+01
    -20.066  0.0000E+00  0.2000E+01
    -19.957  0.0000E+00  0.2000E+01
    -19.848  0.0000E+00  0.2000E+01
    -19.739  0.0000E+00  0.2000E+01
    -19.630  0.0000E+00  0.2000E+01
    -19.521  0.0000E+00  0.2000E+01
    -19.413  0.0000E+00  0.2000E+01
    -19.304  0.0000E+00  0.2000E+01
    -19.195  0.0000E+00  0.2000E+01
    -19.086  0.0000E+00  0.2000E+01
    -18.977  0.0000E+00  0.2000E+01
    -18.868  0.0000E+00  0.2000E+01
    -18.760  0.0000E+00  0.2000E+01
    -18.651  0.0000E+00  0.2000E+01
    -18.542  0.0000E+00  0.2000E+01
    -18.433  0.0000E+00  0.2000E+01
    -18.324  0.0000E+00  0.2000E+01
    -18.215  0.0000E+00  0.2000E+01
    -18.106  0.0000E+00  0.2000E+01
    -17.998  0.0000E+00  0.2000E+01
    -17.889  0.0000E+00  0.2000E+01
    -17.780  0.0000E+00  0.2000E+01
    -17.671  0.0000E+00  0.2000E+01
    -17.562  0.0000E+00  0.2000E+01
    -17.453  0.0000E+00  0.2000E+01
    -17.345  0.0000E+00  0.2000E+01
    -17.236  0.0000E+00  0.2000E+01
    -17.127  0.0000E+00  0.2000E+01
    -17.018  0.0000E+00  0.2000E+01
    -16.909  0.0000E+00  0.2000E+01
    -16.800  0.0000E+00  0.2000E+01
    -16.692  0.0000E+00  0.2000E+01
    -16.583  0.0000E+00  0.2000E+01
    -16.474  0.0000E+00  0.2000E+01
    -16.365  0.0000E+00  0.2000E+01
    -16.256  0.0000E+00  0.2000E+01
    -16.147  0.0000E+00  0.2000E+01
    -16.039  0.0000E+00  0.2000E+01
    -15.930  0.0000E+00  0.2000E+01
    -15.821  0.0000E+00  0.2000E+01
    -15.712  0.0000E+00  0.2000E+01
    -15.603  0.0000E+00  0.2000E+01
    -15.494  0.4009E-28  0.2000E+01
    -15.385  0.2607E-24  0.2000E+01
    -15.277  0.9233E-21  0.2000E+01
    -15.168  0.1775E-17  0.2000E+01
    -15.059  0.1846E-14  0.2000E+01
    -14.950  0.1036E-11  0.2000E+01
    -14.841  0.3102E-09  0.2000E+01
    -14.732  0.4922E-07  0.2000E+01
    -14.624  0.4073E-05  0.2000E+01
    -14.515  0.1712E-03  0.2000E+01
    -14.406  0.3473E-02  0.2000E+01
    -14.297  0.2988E-01  0.2004E+01
    -14.188  0.5684E-01  0.2010E+01
    -14.079 -0.3573E+00  0.1971E+01
    -13.971 -0.6651E+00  0.1899E+01
    -13.862  0.3716E+01  0.2303E+01
    -13.753  0.9810E+01  0.3371E+01
    -13.644  0.6276E+01  0.4054E+01
    -13.535  0.8038E-01  0.4063E+01
    -13.426 -0.6328E+00  0.3994E+01
    -13.318  0.9062E-03  0.3994E+01
    -13.209  0.4794E-01  0.3999E+01
    -13.100  0.8034E-02  0.4000E+01
    -12.991  0.5184E-03  0.4000E+01
    -12.882  0.1567E-04  0.4000E+01
    -12.773  0.2375E-06  0.4000E+01
    -12.664  0.1966E-08  0.4000E+01
    -12.556  0.2002E-07  0.4000E+01
    -12.447  0.2055E-05  0.4000E+01
    -12.338  0.1083E-03  0.4000E+01
    -12.229  0.2815E-02  0.4000E+01
    -12.120  0.3291E-01  0.4004E+01
    -12.011  0.1249E+00  0.4017E+01
    -11.903 -0.2688E+00  0.3988E+01
    -11.794 -0.1616E+01  0.3812E+01
    -11.685  0.3132E+01  0.4153E+01
    -11.576  0.1700E+02  0.6004E+01
    -11.467  0.1696E+02  0.7850E+01
    -11.358  0.3095E+01  0.8187E+01
    -11.250 -0.1614E+01  0.8011E+01
    -11.141 -0.2652E+00  0.7983E+01
    -11.032  0.1247E+00  0.7996E+01
    -10.923  0.3270E-01  0.8000E+01
    -10.814  0.2788E-02  0.8000E+01
    -10.705  0.1070E-03  0.8000E+01
    -10.596  0.2026E-05  0.8000E+01
    -10.488  0.1969E-07  0.8000E+01
    -10.379  0.1036E-09  0.8000E+01
    -10.270  0.8548E-09  0.8000E+01
    -10.161  0.1200E-06  0.8000E+01
    -10.052  0.8748E-05  0.8000E+01
     -9.943  0.3218E-03  0.8000E+01
     -9.835  0.5625E-02  0.8001E+01
     -9.726  0.3975E-01  0.8005E+01
     -9.617  0.3401E-01  0.8009E+01
     -9.508 -0.5127E+00  0.7953E+01
     -9.399 -0.3377E+00  0.7916E+01
     -9.290  0.5144E+01  0.8476E+01
     -9.182  0.9990E+01  0.9563E+01
     -9.073  0.4833E+01  0.1009E+02
     -8.964 -0.4264E+00  0.1004E+02
     -8.855 -0.4788E+00  0.9991E+01
     -8.746  0.4056E-01  0.9995E+01
     -8.637  0.3755E-01  0.9999E+01
     -8.529  0.5085E-02  0.1000E+02
     -8.420  0.2816E-03  0.1000E+02
     -8.311  0.7439E-05  0.1000E+02
     -8.202  0.9928E-07  0.1000E+02
     -8.093  0.6889E-09  0.1000E+02
     -7.984  0.2526E-11  0.1000E+02
     -7.875  0.8770E-14  0.1000E+02
     -7.767  0.2409E-11  0.1000E+02
     -7.658  0.6602E-09  0.1000E+02
     -7.549  0.9564E-07  0.1000E+02
     -7.440  0.7205E-05  0.1000E+02
     -7.331  0.2743E-03  0.1000E+02
     -7.222  0.4984E-02  0.1000E+02
     -7.114  0.3712E-01  0.1000E+02
     -7.005  0.4173E-01  0.1001E+02
     -6.896 -0.4721E+00  0.9958E+01
     -6.787 -0.4410E+00  0.9910E+01
     -6.678  0.4797E+01  0.1043E+02
     -6.569  0.1013E+02  0.1153E+02
     -6.461  0.5200E+01  0.1210E+02
     -6.352 -0.2206E+01  0.1186E+02
     -6.243  0.8143E-01  0.1187E+02
     -6.134  0.1937E+02  0.1398E+02
     -6.025  0.2769E+02  0.1699E+02
     -5.916  0.1024E+02  0.1811E+02
     -5.808  0.1595E+02  0.1984E+02
     -5.699  0.5279E+02  0.2559E+02
     -5.590  0.1271E+03  0.3942E+02
     -5.481  0.2527E+03  0.6693E+02
     -5.372  0.3079E+03  0.1004E+03
     -5.263  0.2388E+03  0.1264E+03
     -5.154  0.2079E+03  0.1491E+03
     -5.046  0.2905E+03  0.1807E+03
     -4.937  0.3671E+03  0.2206E+03
     -4.828  0.3281E+03  0.2563E+03
     -4.719  0.2929E+03  0.2882E+03
     -4.610  0.3782E+03  0.3294E+03
     -4.501  0.4326E+03  0.3765E+03
     -4.393  0.4273E+03  0.4230E+03
     -4.284  0.5149E+03  0.4790E+03
     -4.175  0.5501E+03  0.5389E+03
     -4.066  0.3232E+03  0.5741E+03
     -3.957  0.6659E+02  0.5813E+03
     -3.848  0.1068E+02  0.5825E+03
     -3.740  0.3268E+02  0.5860E+03
     -3.631  0.1721E+02  0.5879E+03
     -3.522  0.1189E+02  0.5892E+03
     -3.413  0.2822E+02  0.5923E+03
     -3.304  0.1619E+02  0.5940E+03
     -3.195 -0.4463E+01  0.5936E+03
     -3.087  0.1552E+02  0.5952E+03
     -2.978  0.6285E+02  0.6021E+03
     -2.869  0.6136E+02  0.6088E+03
     -2.760  0.1534E+02  0.6104E+03
     -2.651 -0.5242E+01  0.6099E+03
     -2.542  0.1085E+02  0.6110E+03
     -2.433  0.3101E+02  0.6144E+03
     -2.325  0.2355E+02  0.6170E+03
     -2.216  0.1034E+02  0.6181E+03
     -2.107  0.2459E+02  0.6208E+03
     -1.998  0.4211E+02  0.6254E+03
     -1.889  0.4075E+02  0.6298E+03
     -1.780  0.3763E+02  0.6339E+03
     -1.672  0.4236E+02  0.6385E+03
     -1.563  0.4998E+02  0.6439E+03
     -1.454  0.4047E+02  0.6484E+03
     -1.345  0.1586E+02  0.6501E+03
     -1.236  0.1412E+02  0.6516E+03
     -1.127  0.2459E+02  0.6543E+03
     -1.019  0.2835E+02  0.6574E+03
     -0.910  0.4833E+02  0.6626E+03
     -0.801  0.4818E+02  0.6679E+03
     -0.692  0.2343E+02  0.6704E+03
     -0.583  0.1053E+02  0.6716E+03
     -0.474  0.4364E+01  0.6721E+03
     -0.365 -0.1625E+00  0.6720E+03
     -0.257 -0.4347E+00  0.6720E+03
     -0.148  0.5469E-01  0.6720E+03
     -0.039  0.4951E-01  0.6720E+03
      0.070  0.7407E-02  0.6720E+03
      0.179  0.4534E-03  0.6720E+03
      0.288  0.1320E-04  0.6720E+03
      0.396  0.1936E-06  0.6720E+03
      0.505  0.1474E-08  0.6720E+03
      0.614  0.5922E-11  0.6720E+03
      0.723  0.1224E-13  0.6720E+03
      0.832  0.0000E+00  0.6720E+03
      0.941  0.0000E+00  0.6720E+03
      1.049  0.0000E+00  0.6720E+03
      1.158  0.0000E+00  0.6720E+03
      1.267  0.0000E+00  0.6720E+03
      1.376  0.0000E+00  0.6720E+03
