 running on    1 total cores
 distrk:  each k-point on    1 cores,    1 groups
 distr:  one band on    1 cores,    1 groups
 using from now: INCAR     
 vasp.5.4.4.18Apr17-6-g9f103f2a35 (build Sep 03 2018 23:53:05) complex          
  
 POSCAR found type information on POSCAR  Pd C  O 
 POSCAR found :  3 types and      57 ions
 scaLAPACK will be used

 ----------------------------------------------------------------------------- 
|                                                                             |
|  ADVICE TO THIS USER RUNNING 'VASP/VAMP'   (HEAR YOUR MASTER'S VOICE ...):  |
|                                                                             |
|      You enforced a specific xc-type in the INCAR file,                     |
|      a different type was found on the POTCAR file                          |
|          I HOPE YOU KNOW, WHAT YOU ARE  DOING                               |
|                                                                             |
 ----------------------------------------------------------------------------- 

 LDA part: xc-table for Pade appr. of Perdew
 POSCAR, INCAR and KPOINTS ok, starting setup
 FFT: planning ...
 WAVECAR not read
 entering main loop
       N       E                     dE             d eps       ncg     rms          rms(c)
DAV:   1     0.438129896828E+04    0.43813E+04   -0.10048E+05   688   0.815E+02
DAV:   2     0.201176873231E+04   -0.23695E+04   -0.21315E+04  1232   0.105E+02
DAV:   3     0.233475231628E+03   -0.17783E+04   -0.16718E+04   992   0.916E+01
DAV:   4    -0.135389144569E+03   -0.36886E+03   -0.31350E+03   832   0.434E+01
DAV:   5    -0.178771331219E+03   -0.43382E+02   -0.35848E+02  1048   0.143E+01    0.139E+01
RMM:   6    -0.178250247034E+03    0.52108E+00   -0.49759E+01   717   0.848E+00    0.226E+01
RMM:   7    -0.180217209403E+03   -0.19670E+01   -0.17806E+01   849   0.429E+00    0.231E+01
RMM:   8    -0.182872139064E+03   -0.26549E+01   -0.62524E+00   800   0.312E+00    0.266E+01
RMM:   9    -0.182443736196E+03    0.42840E+00   -0.49341E+00   729   0.309E+00    0.257E+01
RMM:  10    -0.180237496455E+03    0.22062E+01   -0.30898E+00   729   0.263E+00    0.249E+01
RMM:  11    -0.177751173701E+03    0.24863E+01   -0.18587E+00   720   0.205E+00    0.197E+01
RMM:  12    -0.176263536093E+03    0.14876E+01   -0.10888E+00   725   0.155E+00    0.152E+01
RMM:  13    -0.175840890464E+03    0.42265E+00   -0.93250E-01   711   0.141E+00    0.142E+01
RMM:  14    -0.175817818766E+03    0.23072E-01   -0.80012E-01   720   0.132E+00    0.224E+01
RMM:  15    -0.175079870715E+03    0.73795E+00   -0.10307E+00   703   0.148E+00    0.124E+01
RMM:  16    -0.175227265023E+03   -0.14739E+00   -0.90282E-01   713   0.139E+00    0.151E+01
RMM:  17    -0.175057068533E+03    0.17020E+00   -0.69154E-01   717   0.122E+00    0.137E+01
RMM:  18    -0.174885375972E+03    0.17169E+00   -0.59814E-01   706   0.116E+00    0.131E+01
RMM:  19    -0.174679645380E+03    0.20573E+00   -0.42425E-01   704   0.101E+00    0.115E+01
RMM:  20    -0.174500211801E+03    0.17943E+00   -0.32476E-01   710   0.896E-01    0.112E+01
RMM:  21    -0.174380655770E+03    0.11956E+00   -0.25846E-01   716   0.777E-01    0.119E+01
RMM:  22    -0.174164164531E+03    0.21649E+00   -0.26515E-01   708   0.757E-01    0.773E+00
RMM:  23    -0.173969013101E+03    0.19515E+00   -0.21364E-01   709   0.697E-01    0.544E+00
RMM:  24    -0.173931920475E+03    0.37093E-01   -0.15100E-01   707   0.594E-01    0.553E+00
RMM:  25    -0.173904448143E+03    0.27472E-01   -0.10284E-01   706   0.499E-01    0.633E+00
RMM:  26    -0.173778593809E+03    0.12585E+00   -0.50271E-02   707   0.362E-01    0.294E+00
RMM:  27    -0.173761192567E+03    0.17401E-01   -0.51535E-02   708   0.350E-01    0.286E+00
RMM:  28    -0.173729287354E+03    0.31905E-01   -0.31135E-02   703   0.275E-01    0.194E+00
RMM:  29    -0.173713054031E+03    0.16233E-01   -0.21504E-02   705   0.240E-01    0.141E+00
RMM:  30    -0.173714104932E+03   -0.10509E-02   -0.18034E-02   706   0.205E-01    0.167E+00
RMM:  31    -0.173703120531E+03    0.10984E-01   -0.13823E-02   703   0.189E-01    0.134E+00
RMM:  32    -0.173697556052E+03    0.55645E-02   -0.65325E-03   704   0.142E-01    0.985E-01
RMM:  33    -0.173696930883E+03    0.62517E-03   -0.58573E-03   701   0.120E-01    0.104E+00
RMM:  34    -0.173692409689E+03    0.45212E-02   -0.41836E-03   703   0.101E-01    0.595E-01
RMM:  35    -0.173692390643E+03    0.19046E-04   -0.23357E-03   702   0.791E-02    0.503E-01
RMM:  36    -0.173694710754E+03   -0.23201E-02   -0.22334E-03   699   0.725E-02    0.597E-01
RMM:  37    -0.173694651356E+03    0.59397E-04   -0.12283E-03   698   0.602E-02    0.315E-01
RMM:  38    -0.173697558831E+03   -0.29075E-02   -0.10733E-03   700   0.513E-02    0.443E-01
RMM:  39    -0.173699929272E+03   -0.23704E-02   -0.90547E-04   697   0.470E-02    0.283E-01
RMM:  40    -0.173701008526E+03   -0.10793E-02   -0.38830E-04   495   0.328E-02    0.243E-01
RMM:  41    -0.173703809898E+03   -0.28014E-02   -0.46232E-04   542   0.332E-02    0.218E-01
RMM:  42    -0.173705357837E+03   -0.15479E-02   -0.27530E-04   437   0.274E-02    0.124E-01
RMM:  43    -0.173706733408E+03   -0.13756E-02   -0.20126E-04   419   0.218E-02    0.168E-01
RMM:  44    -0.173709687584E+03   -0.29542E-02   -0.32974E-04   460   0.253E-02    0.109E-01
RMM:  45    -0.173710670718E+03   -0.98313E-03   -0.15041E-04   416   0.175E-02    0.112E-01
RMM:  46    -0.173713637792E+03   -0.29671E-02   -0.36910E-04   474   0.224E-02    0.125E-01
RMM:  47    -0.173714749463E+03   -0.11117E-02   -0.18652E-04   427   0.171E-02    0.586E-02
RMM:  48    -0.173715885107E+03   -0.11356E-02   -0.13087E-04   416   0.142E-02    0.915E-02
RMM:  49    -0.173717041243E+03   -0.11561E-02   -0.12711E-04   424   0.129E-02    0.546E-02
RMM:  50    -0.173717351078E+03   -0.30984E-03   -0.48588E-05   409   0.824E-03    0.444E-02
RMM:  51    -0.173718204415E+03   -0.85334E-03   -0.46984E-05   412   0.797E-03    0.396E-02
RMM:  52    -0.173718519300E+03   -0.31488E-03   -0.26451E-05   383   0.620E-03    0.244E-02
RMM:  53    -0.173718980136E+03   -0.46084E-03   -0.18628E-05   327   0.535E-03    0.273E-02
RMM:  54    -0.173719299325E+03   -0.31919E-03   -0.91386E-06   229   0.452E-03    0.129E-02
RMM:  55    -0.173719513973E+03   -0.21465E-03   -0.52488E-06   189   0.421E-03    0.167E-02
RMM:  56    -0.173719840162E+03   -0.32619E-03   -0.58336E-06   192   0.409E-03    0.129E-02
RMM:  57    -0.173720072864E+03   -0.23270E-03   -0.60837E-06   188   0.398E-03    0.115E-02
RMM:  58    -0.173720310018E+03   -0.23715E-03   -0.75975E-06   182   0.383E-03    0.860E-03
RMM:  59    -0.173720476416E+03   -0.16640E-03   -0.42375E-06   146   0.371E-03    0.825E-03
RMM:  60    -0.173720646425E+03   -0.17001E-03   -0.11834E-05   208   0.409E-03    0.688E-03
RMM:  61    -0.173720693733E+03   -0.47308E-04   -0.51060E-07    89   0.322E-03
   1 F= -.17372069E+03 E0= -.17369781E+03  d E =-.915322E-01
================================= SLURM INFO ===================================
Command: run-cluster -n 1 -m 10000 -j 000438_vasp --same-node /opt/VASP/vasp
Exit code: 0
Job name: 000438_vasp
Job time: 0 days 5h:9m:11s
MPI task count: 1
Working dir: /home/pashkov/pyFitIt/pyfitit/data/adaptive_pd_co_new_2/sample/000438
Job was running on nodes: h13
Task per node: 1
       JobID     MaxRSS  MaxDiskRead MaxDiskWrite    Elapsed    JobName 
------------ ---------- ------------ ------------ ---------- ---------- 
107047                                              05:09:12 000438_va+ 
107047.batch                                        05:09:12      batch 
