 running on    1 total cores
 distrk:  each k-point on    1 cores,    1 groups
 distr:  one band on    1 cores,    1 groups
 using from now: INCAR     
 vasp.5.4.4.18Apr17-6-g9f103f2a35 (build Sep 03 2018 23:53:05) complex          
  
 POSCAR found type information on POSCAR  Pd C  O 
 POSCAR found :  3 types and      57 ions
 scaLAPACK will be used

 ----------------------------------------------------------------------------- 
|                                                                             |
|  ADVICE TO THIS USER RUNNING 'VASP/VAMP'   (HEAR YOUR MASTER'S VOICE ...):  |
|                                                                             |
|      You enforced a specific xc-type in the INCAR file,                     |
|      a different type was found on the POTCAR file                          |
|          I HOPE YOU KNOW, WHAT YOU ARE  DOING                               |
|                                                                             |
 ----------------------------------------------------------------------------- 

 LDA part: xc-table for Pade appr. of Perdew
 POSCAR, INCAR and KPOINTS ok, starting setup
 FFT: planning ...
 WAVECAR not read
 entering main loop
       N       E                     dE             d eps       ncg     rms          rms(c)
DAV:   1     0.438368869529E+04    0.43837E+04   -0.10047E+05   688   0.815E+02
DAV:   2     0.201418193113E+04   -0.23695E+04   -0.21325E+04  1232   0.105E+02
DAV:   3     0.226292216509E+03   -0.17879E+04   -0.16812E+04  1008   0.919E+01
DAV:   4    -0.135955560539E+03   -0.36225E+03   -0.30768E+03   832   0.434E+01
DAV:   5    -0.179048997890E+03   -0.43093E+02   -0.35908E+02  1064   0.143E+01    0.139E+01
RMM:   6    -0.177588204999E+03    0.14608E+01   -0.46910E+01   722   0.839E+00    0.182E+01
RMM:   7    -0.179789560226E+03   -0.22014E+01   -0.17207E+01   833   0.462E+00    0.192E+01
RMM:   8    -0.183572219116E+03   -0.37827E+01   -0.63442E+00   754   0.339E+00    0.276E+01
RMM:   9    -0.180092617124E+03    0.34796E+01   -0.38294E+00   728   0.286E+00    0.310E+01
RMM:  10    -0.177449871597E+03    0.26427E+01   -0.15895E+00   747   0.180E+00    0.163E+01
RMM:  11    -0.175624115520E+03    0.18258E+01   -0.14018E+00   721   0.177E+00    0.126E+01
RMM:  12    -0.175222711204E+03    0.40140E+00   -0.78946E-01   724   0.132E+00    0.130E+01
RMM:  13    -0.175852329050E+03   -0.62962E+00   -0.83725E-01   725   0.133E+00    0.210E+01
RMM:  14    -0.175862168975E+03   -0.98399E-02   -0.10408E+00   711   0.146E+00    0.184E+01
RMM:  15    -0.175544614487E+03    0.31755E+00   -0.10024E+00   717   0.143E+00    0.129E+01
RMM:  16    -0.175540313179E+03    0.43013E-02   -0.73552E-01   722   0.128E+00    0.219E+01
RMM:  17    -0.174840450800E+03    0.69986E+00   -0.52536E-01   715   0.108E+00    0.129E+01
RMM:  18    -0.174526528180E+03    0.31392E+00   -0.58520E-01   710   0.112E+00    0.985E+00
RMM:  19    -0.174676231820E+03   -0.14970E+00   -0.47230E-01   720   0.103E+00    0.119E+01
RMM:  20    -0.174280786860E+03    0.39544E+00   -0.33551E-01   720   0.900E-01    0.736E+00
RMM:  21    -0.174080773672E+03    0.20001E+00   -0.22811E-01   709   0.740E-01    0.544E+00
RMM:  22    -0.174081340090E+03   -0.56642E-03   -0.14026E-01   710   0.598E-01    0.586E+00
RMM:  23    -0.173961388051E+03    0.11995E+00   -0.73833E-02   711   0.439E-01    0.405E+00
RMM:  24    -0.173895766418E+03    0.65622E-01   -0.61231E-02   707   0.393E-01    0.319E+00
RMM:  25    -0.173884115896E+03    0.11651E-01   -0.37621E-02   707   0.310E-01    0.290E+00
RMM:  26    -0.173867955571E+03    0.16160E-01   -0.37308E-02   706   0.296E-01    0.277E+00
RMM:  27    -0.173830733566E+03    0.37222E-01   -0.26979E-02   709   0.271E-01    0.171E+00
RMM:  28    -0.173827624042E+03    0.31095E-02   -0.16199E-02   704   0.209E-01    0.175E+00
RMM:  29    -0.173821299740E+03    0.63243E-02   -0.10462E-02   704   0.172E-01    0.160E+00
RMM:  30    -0.173809205341E+03    0.12094E-01   -0.59053E-03   704   0.134E-01    0.780E-01
RMM:  31    -0.173809192998E+03    0.12343E-04   -0.71333E-03   700   0.129E-01    0.967E-01
RMM:  32    -0.173806081028E+03    0.31120E-02   -0.55934E-03   698   0.121E-01    0.800E-01
RMM:  33    -0.173803339407E+03    0.27416E-02   -0.31825E-03   700   0.931E-02    0.397E-01
RMM:  34    -0.173806516427E+03   -0.31770E-02   -0.27550E-03   697   0.809E-02    0.622E-01
RMM:  35    -0.173807311384E+03   -0.79496E-03   -0.20388E-03   694   0.709E-02    0.324E-01
RMM:  36    -0.173808633504E+03   -0.13221E-02   -0.89609E-04   693   0.471E-02    0.259E-01
RMM:  37    -0.173812246969E+03   -0.36135E-02   -0.83037E-04   670   0.436E-02    0.316E-01
RMM:  38    -0.173814149808E+03   -0.19028E-02   -0.46276E-04   540   0.343E-02    0.208E-01
RMM:  39    -0.173815933880E+03   -0.17841E-02   -0.31406E-04   452   0.283E-02    0.205E-01
RMM:  40    -0.173818989173E+03   -0.30553E-02   -0.38735E-04   479   0.305E-02    0.159E-01
RMM:  41    -0.173820432520E+03   -0.14433E-02   -0.23141E-04   426   0.234E-02    0.123E-01
RMM:  42    -0.173823609092E+03   -0.31766E-02   -0.41500E-04   496   0.260E-02    0.129E-01
RMM:  43    -0.173824743016E+03   -0.11339E-02   -0.17429E-04   428   0.181E-02    0.835E-02
RMM:  44    -0.173825877976E+03   -0.11350E-02   -0.98839E-05   419   0.135E-02    0.939E-02
RMM:  45    -0.173827533670E+03   -0.16557E-02   -0.99304E-05   411   0.136E-02    0.699E-02
RMM:  46    -0.173828596311E+03   -0.10626E-02   -0.97557E-05   415   0.125E-02    0.710E-02
RMM:  47    -0.173829675169E+03   -0.10789E-02   -0.10953E-04   419   0.119E-02    0.474E-02
RMM:  48    -0.173830064811E+03   -0.38964E-03   -0.47288E-05   410   0.818E-03    0.389E-02
RMM:  49    -0.173831035656E+03   -0.97084E-03   -0.53101E-05   407   0.840E-03    0.461E-02
RMM:  50    -0.173831510642E+03   -0.47499E-03   -0.36115E-05   402   0.682E-03    0.202E-02
RMM:  51    -0.173831757213E+03   -0.24657E-03   -0.14545E-05   266   0.474E-03    0.233E-02
RMM:  52    -0.173832110240E+03   -0.35303E-03   -0.82388E-06   186   0.427E-03    0.123E-02
RMM:  53    -0.173832232215E+03   -0.12198E-03   -0.31298E-06   141   0.393E-03    0.104E-02
RMM:  54    -0.173832548250E+03   -0.31603E-03   -0.80482E-06   211   0.427E-03    0.111E-02
RMM:  55    -0.173832696023E+03   -0.14777E-03   -0.36799E-06   139   0.360E-03    0.741E-03
RMM:  56    -0.173832911798E+03   -0.21578E-03   -0.70308E-06   177   0.391E-03    0.105E-02
RMM:  57    -0.173833108306E+03   -0.19651E-03   -0.84011E-06   180   0.399E-03    0.648E-03
RMM:  58    -0.173833225786E+03   -0.11748E-03   -0.76613E-06   164   0.381E-03    0.623E-03
RMM:  59    -0.173833295812E+03   -0.70026E-04   -0.61402E-06   152   0.350E-03
   1 F= -.17383330E+03 E0= -.17381275E+03  d E =-.821947E-01
================================= SLURM INFO ===================================
Command: run-cluster -n 1 -m 10000 -j 000187_vasp --same-node /opt/VASP/vasp
Exit code: 0
Job name: 000187_vasp
Job time: 0 days 4h:45m:59s
MPI task count: 1
Working dir: /home/pashkov/pyFitIt/pyfitit/data/adaptive_pd_co_new_2/sample/000187
Job was running on nodes: h15
Task per node: 1
       JobID     MaxRSS  MaxDiskRead MaxDiskWrite    Elapsed    JobName 
------------ ---------- ------------ ------------ ---------- ---------- 
106699                                              04:45:59 000187_va+ 
106699.batch                                        04:45:59      batch 
