   57   57    1    1
  0.4736842E+03  0.3000000E-08  0.3000000E-08  0.3000000E-08  0.5000000E-15
  1.000000000000000E-004
  CAR 
 6_Pd100_top_free_z(O)                   
    560      1    336
 
  0.0000000E+00  0.0000000E+00  0.0000000E+00  0.1000000E+01
    1      -28.145707   1.000000
    2      -13.722358   1.000000
    3      -11.718540   1.000000
    4      -11.346666   1.000000
    5      -10.697557   1.000000
    6       -6.765693   1.000000
    7       -6.644161   1.000000
    8       -6.595113   1.000000
    9       -6.164586   1.000000
   10       -6.134195   1.000000
   11       -6.129912   1.000000
   12       -6.102570   1.000000
   13       -5.965364   1.000000
   14       -5.836280   1.000000
   15       -5.817060   1.000000
   16       -5.810403   1.000000
   17       -5.762655   1.000000
   18       -5.748350   1.000000
   19       -5.730476   1.000000
   20       -5.690693   1.000000
   21       -5.683540   1.000000
   22       -5.675981   1.000000
   23       -5.647553   1.000000
   24       -5.633291   1.000000
   25       -5.609362   1.000000
   26       -5.595991   1.000000
   27       -5.593361   1.000000
   28       -5.578611   1.000000
   29       -5.570670   1.000000
   30       -5.553676   1.000000
   31       -5.548519   1.000000
   32       -5.547359   1.000000
   33       -5.533646   1.000000
   34       -5.524045   1.000000
   35       -5.522182   1.000000
   36       -5.517991   1.000000
   37       -5.515227   1.000000
   38       -5.509623   1.000000
   39       -5.506109   1.000000
   40       -5.498877   1.000000
   41       -5.489420   1.000000
   42       -5.473568   1.000000
   43       -5.473102   1.000000
   44       -5.466447   1.000000
   45       -5.463704   1.000000
   46       -5.462039   1.000000
   47       -5.458209   1.000000
   48       -5.449805   1.000000
   49       -5.441812   1.000000
   50       -5.435170   1.000000
   51       -5.427693   1.000000
   52       -5.425996   1.000000
   53       -5.413208   1.000000
   54       -5.404477   1.000000
   55       -5.403189   1.000000
   56       -5.402362   1.000000
   57       -5.396782   1.000000
   58       -5.382833   1.000000
   59       -5.368174   1.000000
   60       -5.356134   1.000000
   61       -5.329931   1.000000
   62       -5.325730   1.000000
   63       -5.319115   1.000000
   64       -5.316271   1.000000
   65       -5.308884   1.000000
   66       -5.303969   1.000000
   67       -5.299514   1.000000
   68       -5.296197   1.000000
   69       -5.282466   1.000000
   70       -5.282151   1.000000
   71       -5.264119   1.000000
   72       -5.250807   1.000000
   73       -5.223142   1.000000
   74       -5.203330   1.000000
   75       -5.201070   1.000000
   76       -5.197196   1.000000
   77       -5.194322   1.000000
   78       -5.187476   1.000000
   79       -5.173949   1.000000
   80       -5.170576   1.000000
   81       -5.165935   1.000000
   82       -5.162125   1.000000
   83       -5.160229   1.000000
   84       -5.143508   1.000000
   85       -5.138323   1.000000
   86       -5.136748   1.000000
   87       -5.122345   1.000000
   88       -5.112393   1.000000
   89       -5.107566   1.000000
   90       -5.104331   1.000000
   91       -5.085618   1.000000
   92       -5.074143   1.000000
   93       -5.071104   1.000000
   94       -5.066069   1.000000
   95       -5.055045   1.000000
   96       -5.050438   1.000000
   97       -5.049886   1.000000
   98       -5.046427   1.000000
   99       -5.039738   1.000000
  100       -5.038143   1.000000
  101       -5.034207   1.000000
  102       -5.022878   1.000000
  103       -5.021494   1.000000
  104       -5.010670   1.000000
  105       -5.005861   1.000000
  106       -5.002337   1.000000
  107       -5.001699   1.000000
  108       -4.997984   1.000000
  109       -4.990915   1.000000
  110       -4.985706   1.000000
  111       -4.983675   1.000000
  112       -4.977965   1.000000
  113       -4.976381   1.000000
  114       -4.969827   1.000000
  115       -4.965000   1.000000
  116       -4.961489   1.000000
  117       -4.953744   0.999999
  118       -4.947995   0.999999
  119       -4.944330   0.999999
  120       -4.936055   0.999999
  121       -4.931810   0.999999
  122       -4.922739   0.999998
  123       -4.914524   0.999997
  124       -4.907741   0.999997
  125       -4.903042   0.999996
  126       -4.900220   0.999996
  127       -4.897331   0.999996
  128       -4.889489   0.999994
  129       -4.884681   0.999993
  130       -4.859755   0.999986
  131       -4.852137   0.999982
  132       -4.847064   0.999979
  133       -4.840716   0.999974
  134       -4.839011   0.999973
  135       -4.833080   0.999968
  136       -4.831804   0.999967
  137       -4.826849   0.999962
  138       -4.816633   0.999949
  139       -4.807173   0.999934
  140       -4.796308   0.999912
  141       -4.792962   0.999904
  142       -4.782609   0.999874
  143       -4.772152   0.999836
  144       -4.769507   0.999825
  145       -4.763752   0.999798
  146       -4.745332   0.999687
  147       -4.740151   0.999648
  148       -4.738516   0.999635
  149       -4.730414   0.999563
  150       -4.717635   0.999424
  151       -4.711988   0.999352
  152       -4.705802   0.999265
  153       -4.697371   0.999131
  154       -4.695276   0.999095
  155       -4.685003   0.998901
  156       -4.679972   0.998795
  157       -4.678032   0.998752
  158       -4.674640   0.998674
  159       -4.670888   0.998584
  160       -4.665587   0.998450
  161       -4.665428   0.998446
  162       -4.656523   0.998201
  163       -4.650194   0.998013
  164       -4.649254   0.997984
  165       -4.647930   0.997942
  166       -4.647186   0.997919
  167       -4.644017   0.997818
  168       -4.641879   0.997748
  169       -4.638500   0.997635
  170       -4.636611   0.997571
  171       -4.626418   0.997211
  172       -4.618384   0.996915
  173       -4.615460   0.996805
  174       -4.609833   0.996594
  175       -4.602406   0.996315
  176       -4.596695   0.996106
  177       -4.596258   0.996090
  178       -4.593110   0.995978
  179       -4.591812   0.995932
  180       -4.585830   0.995730
  181       -4.583673   0.995661
  182       -4.573609   0.995374
  183       -4.567865   0.995244
  184       -4.566477   0.995217
  185       -4.564182   0.995176
  186       -4.559897   0.995116
  187       -4.557155   0.995089
  188       -4.555177   0.995075
  189       -4.549733   0.995067
  190       -4.547264   0.995078
  191       -4.541422   0.995147
  192       -4.533830   0.995336
  193       -4.516502   0.996282
  194       -4.512071   0.996660
  195       -4.507315   0.997136
  196       -4.505245   0.997367
  197       -4.496889   0.998455
  198       -4.494797   0.998769
  199       -4.492169   0.999187
  200       -4.486290   1.000224
  201       -4.482443   1.000981
  202       -4.476680   1.002234
  203       -4.469673   1.003957
  204       -4.467434   1.004554
  205       -4.459936   1.006721
  206       -4.456184   1.007902
  207       -4.448897   1.010376
  208       -4.447406   1.010911
  209       -4.447322   1.010942
  210       -4.443471   1.012370
  211       -4.428200   1.018611
  212       -4.423841   1.020541
  213       -4.422663   1.021072
  214       -4.421657   1.021529
  215       -4.415752   1.024258
  216       -4.409141   1.027391
  217       -4.406329   1.028740
  218       -4.403739   1.029986
  219       -4.398717   1.032404
  220       -4.393786   1.034760
  221       -4.387200   1.037841
  222       -4.380183   1.040978
  223       -4.373150   1.043891
  224       -4.365661   1.046638
  225       -4.360142   1.048362
  226       -4.354502   1.049802
  227       -4.345925   1.051243
  228       -4.337399   1.051601
  229       -4.335598   1.051519
  230       -4.333496   1.051349
  231       -4.332563   1.051247
  232       -4.330184   1.050910
  233       -4.327207   1.050327
  234       -4.323362   1.049296
  235       -4.322805   1.049119
  236       -4.322039   1.048865
  237       -4.321341   1.048622
  238       -4.319601   1.047966
  239       -4.314407   1.045572
  240       -4.309020   1.042361
  241       -4.307326   1.041190
  242       -4.306051   1.040256
  243       -4.293862   1.028916
  244       -4.288298   1.022194
  245       -4.286900   1.020345
  246       -4.284609   1.017172
  247       -4.279936   1.010138
  248       -4.278503   1.007826
  249       -4.272733   0.997775
  250       -4.268124   0.988871
  251       -4.265512   0.983471
  252       -4.264452   0.981207
  253       -4.260198   0.971689
  254       -4.259502   0.970066
  255       -4.259228   0.969423
  256       -4.251656   0.950481
  257       -4.249876   0.945704
  258       -4.248002   0.940542
  259       -4.245602   0.933737
  260       -4.243732   0.928276
  261       -4.242288   0.923969
  262       -4.239022   0.913927
  263       -4.236702   0.906545
  264       -4.235280   0.901922
  265       -4.234920   0.900739
  266       -4.225593   0.868385
  267       -4.224484   0.864325
  268       -4.221915   0.854747
  269       -4.220292   0.848576
  270       -4.218373   0.841159
  271       -4.216016   0.831874
  272       -4.208159   0.799571
  273       -4.204381   0.783332
  274       -4.191946   0.726937
  275       -4.186208   0.699555
  276       -4.177823   0.658241
  277       -4.177433   0.656284
  278       -4.172318   0.630412
  279       -4.171348   0.625456
  280       -4.169611   0.616550
  281       -4.155946   0.545334
  282       -4.140493   0.463699
  283       -4.138190   0.451560
  284       -4.130853   0.413137
  285       -4.128502   0.400924
  286       -4.123635   0.375858
  287       -4.114810   0.331317
  288       -4.113726   0.325938
  289       -4.030574   0.019442
  290       -3.962607  -0.051193
  291       -3.856168  -0.014281
  292       -3.833117  -0.006215
  293       -3.813247  -0.001180
  294       -3.574114   0.000541
  295       -3.518981   0.000150
  296       -3.497180   0.000085
  297       -3.292243   0.000000
  298       -3.067588   0.000000
  299       -3.065988   0.000000
  300       -3.047057   0.000000
  301       -3.026013   0.000000
  302       -3.022787   0.000000
  303       -2.951230   0.000000
  304       -2.947491   0.000000
  305       -2.608105   0.000000
  306       -2.592342   0.000000
  307       -2.522151   0.000000
  308       -2.417776   0.000000
  309       -2.256643   0.000000
  310       -2.115748   0.000000
  311       -2.115342   0.000000
  312       -2.109718   0.000000
  313       -1.967087   0.000000
  314       -1.954972   0.000000
  315       -1.922059   0.000000
  316       -1.885045   0.000000
  317       -1.765973   0.000000
  318       -1.713342   0.000000
  319       -1.652917   0.000000
  320       -1.645631   0.000000
  321       -1.557529   0.000000
  322       -1.556719   0.000000
  323       -1.423901   0.000000
  324       -1.303598   0.000000
  325       -1.244781   0.000000
  326       -1.201244   0.000000
  327       -1.019103   0.000000
  328       -0.984753   0.000000
  329       -0.977095   0.000000
  330       -0.962209   0.000000
  331       -0.941929   0.000000
  332       -0.932796   0.000000
  333       -0.911073   0.000000
  334       -0.848949   0.000000
  335       -0.806641   0.000000
  336       -0.652675   0.000000
