  57  57   0   0
  0.4736842E+03  0.3000000E-08  0.3000000E-08  0.3000000E-08  0.5000000E-15
  1.000000000000000E-004
  CAR 
 6_Pd100_top_free_z(O)                   
      1.30301632    -30.24991413  301     -4.14083990      1.00000000
    -30.250  0.0000E+00  0.0000E+00
    -30.145  0.0000E+00  0.0000E+00
    -30.040  0.0000E+00  0.0000E+00
    -29.934  0.2375E-27  0.2498E-28
    -29.829  0.1036E-23  0.1090E-24
    -29.724  0.2562E-20  0.2696E-21
    -29.619  0.3579E-17  0.3767E-18
    -29.514  0.2816E-14  0.2966E-15
    -29.409  0.1244E-11  0.1312E-12
    -29.303  0.3062E-09  0.3233E-10
    -29.198  0.4159E-07  0.4407E-08
    -29.093  0.3078E-05  0.3282E-06
    -28.988  0.1213E-03  0.1308E-04
    -28.883  0.2436E-02  0.2693E-03
    -28.777  0.2254E-01  0.2640E-02
    -28.672  0.6460E-01  0.9434E-02
    -28.567 -0.1916E+00 -0.1072E-01
    -28.462 -0.8219E+00 -0.9716E-01
    -28.357  0.1740E+01  0.8588E-01
    -28.252  0.8526E+01  0.9826E+00
    -28.146  0.8693E+01  0.1897E+01
    -28.041  0.1920E+01  0.2099E+01
    -27.936 -0.8198E+00  0.2013E+01
    -27.831 -0.2112E+00  0.1990E+01
    -27.726  0.6439E-01  0.1997E+01
    -27.621  0.2381E-01  0.2000E+01
    -27.515  0.2645E-02  0.2000E+01
    -27.410  0.1346E-03  0.2000E+01
    -27.305  0.3487E-05  0.2000E+01
    -27.200  0.4804E-07  0.2000E+01
    -27.095  0.3603E-09  0.2000E+01
    -26.989  0.1493E-11  0.2000E+01
    -26.884  0.4222E-14  0.2000E+01
    -26.779  0.0000E+00  0.2000E+01
    -26.674  0.0000E+00  0.2000E+01
    -26.569  0.0000E+00  0.2000E+01
    -26.464  0.0000E+00  0.2000E+01
    -26.358  0.0000E+00  0.2000E+01
    -26.253  0.0000E+00  0.2000E+01
    -26.148  0.0000E+00  0.2000E+01
    -26.043  0.0000E+00  0.2000E+01
    -25.938  0.0000E+00  0.2000E+01
    -25.833  0.0000E+00  0.2000E+01
    -25.727  0.0000E+00  0.2000E+01
    -25.622  0.0000E+00  0.2000E+01
    -25.517  0.0000E+00  0.2000E+01
    -25.412  0.0000E+00  0.2000E+01
    -25.307  0.0000E+00  0.2000E+01
    -25.201  0.0000E+00  0.2000E+01
    -25.096  0.0000E+00  0.2000E+01
    -24.991  0.0000E+00  0.2000E+01
    -24.886  0.0000E+00  0.2000E+01
    -24.781  0.0000E+00  0.2000E+01
    -24.676  0.0000E+00  0.2000E+01
    -24.570  0.0000E+00  0.2000E+01
    -24.465  0.0000E+00  0.2000E+01
    -24.360  0.0000E+00  0.2000E+01
    -24.255  0.0000E+00  0.2000E+01
    -24.150  0.0000E+00  0.2000E+01
    -24.045  0.0000E+00  0.2000E+01
    -23.939  0.0000E+00  0.2000E+01
    -23.834  0.0000E+00  0.2000E+01
    -23.729  0.0000E+00  0.2000E+01
    -23.624  0.0000E+00  0.2000E+01
    -23.519  0.0000E+00  0.2000E+01
    -23.413  0.0000E+00  0.2000E+01
    -23.308  0.0000E+00  0.2000E+01
    -23.203  0.0000E+00  0.2000E+01
    -23.098  0.0000E+00  0.2000E+01
    -22.993  0.0000E+00  0.2000E+01
    -22.888  0.0000E+00  0.2000E+01
    -22.782  0.0000E+00  0.2000E+01
    -22.677  0.0000E+00  0.2000E+01
    -22.572  0.0000E+00  0.2000E+01
    -22.467  0.0000E+00  0.2000E+01
    -22.362  0.0000E+00  0.2000E+01
    -22.257  0.0000E+00  0.2000E+01
    -22.151  0.0000E+00  0.2000E+01
    -22.046  0.0000E+00  0.2000E+01
    -21.941  0.0000E+00  0.2000E+01
    -21.836  0.0000E+00  0.2000E+01
    -21.731  0.0000E+00  0.2000E+01
    -21.625  0.0000E+00  0.2000E+01
    -21.520  0.0000E+00  0.2000E+01
    -21.415  0.0000E+00  0.2000E+01
    -21.310  0.0000E+00  0.2000E+01
    -21.205  0.0000E+00  0.2000E+01
    -21.100  0.0000E+00  0.2000E+01
    -20.994  0.0000E+00  0.2000E+01
    -20.889  0.0000E+00  0.2000E+01
    -20.784  0.0000E+00  0.2000E+01
    -20.679  0.0000E+00  0.2000E+01
    -20.574  0.0000E+00  0.2000E+01
    -20.469  0.0000E+00  0.2000E+01
    -20.363  0.0000E+00  0.2000E+01
    -20.258  0.0000E+00  0.2000E+01
    -20.153  0.0000E+00  0.2000E+01
    -20.048  0.0000E+00  0.2000E+01
    -19.943  0.0000E+00  0.2000E+01
    -19.837  0.0000E+00  0.2000E+01
    -19.732  0.0000E+00  0.2000E+01
    -19.627  0.0000E+00  0.2000E+01
    -19.522  0.0000E+00  0.2000E+01
    -19.417  0.0000E+00  0.2000E+01
    -19.312  0.0000E+00  0.2000E+01
    -19.206  0.0000E+00  0.2000E+01
    -19.101  0.0000E+00  0.2000E+01
    -18.996  0.0000E+00  0.2000E+01
    -18.891  0.0000E+00  0.2000E+01
    -18.786  0.0000E+00  0.2000E+01
    -18.681  0.0000E+00  0.2000E+01
    -18.575  0.0000E+00  0.2000E+01
    -18.470  0.0000E+00  0.2000E+01
    -18.365  0.0000E+00  0.2000E+01
    -18.260  0.0000E+00  0.2000E+01
    -18.155  0.0000E+00  0.2000E+01
    -18.049  0.0000E+00  0.2000E+01
    -17.944  0.0000E+00  0.2000E+01
    -17.839  0.0000E+00  0.2000E+01
    -17.734  0.0000E+00  0.2000E+01
    -17.629  0.0000E+00  0.2000E+01
    -17.524  0.0000E+00  0.2000E+01
    -17.418  0.0000E+00  0.2000E+01
    -17.313  0.0000E+00  0.2000E+01
    -17.208  0.0000E+00  0.2000E+01
    -17.103  0.0000E+00  0.2000E+01
    -16.998  0.0000E+00  0.2000E+01
    -16.893  0.0000E+00  0.2000E+01
    -16.787  0.0000E+00  0.2000E+01
    -16.682  0.0000E+00  0.2000E+01
    -16.577  0.0000E+00  0.2000E+01
    -16.472  0.0000E+00  0.2000E+01
    -16.367  0.0000E+00  0.2000E+01
    -16.261  0.0000E+00  0.2000E+01
    -16.156  0.0000E+00  0.2000E+01
    -16.051  0.0000E+00  0.2000E+01
    -15.946  0.0000E+00  0.2000E+01
    -15.841  0.0000E+00  0.2000E+01
    -15.736  0.0000E+00  0.2000E+01
    -15.630  0.0000E+00  0.2000E+01
    -15.525  0.0000E+00  0.2000E+01
    -15.420  0.0000E+00  0.2000E+01
    -15.315  0.0000E+00  0.2000E+01
    -15.210  0.0000E+00  0.2000E+01
    -15.105  0.1343E-26  0.2000E+01
    -14.999  0.5227E-23  0.2000E+01
    -14.894  0.1152E-19  0.2000E+01
    -14.789  0.1435E-16  0.2000E+01
    -14.684  0.1005E-13  0.2000E+01
    -14.579  0.3952E-11  0.2000E+01
    -14.473  0.8633E-09  0.2000E+01
    -14.368  0.1039E-06  0.2000E+01
    -14.263  0.6790E-05  0.2000E+01
    -14.158  0.2346E-03  0.2000E+01
    -14.053  0.4078E-02  0.2000E+01
    -13.948  0.3145E-01  0.2004E+01
    -13.842  0.5796E-01  0.2010E+01
    -13.737 -0.3297E+00  0.1975E+01
    -13.632 -0.7456E+00  0.1897E+01
    -13.527  0.2990E+01  0.2211E+01
    -13.422  0.9449E+01  0.3205E+01
    -13.317  0.7493E+01  0.3993E+01
    -13.211  0.8691E+00  0.4084E+01
    -13.106 -0.7843E+00  0.4002E+01
    -13.001 -0.9885E-01  0.3992E+01
    -12.896  0.6203E-01  0.3998E+01
    -12.791  0.1645E-01  0.4000E+01
    -12.685  0.1539E-02  0.4000E+01
    -12.580  0.7150E-04  0.4000E+01
    -12.475  0.1361E-03  0.4000E+01
    -12.370  0.2643E-02  0.4000E+01
    -12.265  0.2380E-01  0.4003E+01
    -12.160  0.6439E-01  0.4010E+01
    -12.054 -0.2111E+00  0.3987E+01
    -11.949 -0.8199E+00  0.3901E+01
    -11.844  0.1919E+01  0.4103E+01
    -11.739  0.8692E+01  0.5017E+01
    -11.634  0.8527E+01  0.5914E+01
    -11.529  0.1746E+01  0.6098E+01
    -11.423 -0.7902E+00  0.6015E+01
    -11.318 -0.1340E+00  0.6000E+01
    -11.213 -0.2674E+00  0.5972E+01
    -11.108 -0.7134E+00  0.5897E+01
    -11.003  0.3059E+01  0.6219E+01
    -10.897  0.9497E+01  0.7218E+01
    -10.792  0.6977E+01  0.7952E+01
    -10.687  0.3727E+00  0.7991E+01
    -10.582  0.3655E+01  0.8375E+01
    -10.477  0.9862E+01  0.9412E+01
    -10.372  0.6114E+01  0.1006E+02
    -10.266  0.8660E-01  0.1006E+02
    -10.161 -0.6610E+00  0.9995E+01
    -10.056 -0.1791E-01  0.9993E+01
     -9.951  0.5352E-01  0.9999E+01
     -9.846  0.1084E-01  0.1000E+02
     -9.741  0.8593E-03  0.1000E+02
     -9.635  0.3299E-04  0.1000E+02
     -9.530  0.6586E-06  0.1000E+02
     -9.425  0.7071E-08  0.1000E+02
     -9.320  0.4161E-10  0.1000E+02
     -9.215  0.1351E-12  0.1000E+02
     -9.109  0.0000E+00  0.1000E+02
     -9.004  0.0000E+00  0.1000E+02
     -8.899  0.0000E+00  0.1000E+02
     -8.794  0.0000E+00  0.1000E+02
     -8.689  0.0000E+00  0.1000E+02
     -8.584  0.0000E+00  0.1000E+02
     -8.478  0.0000E+00  0.1000E+02
     -8.373  0.5036E-28  0.1000E+02
     -8.268  0.2528E-24  0.1000E+02
     -8.163  0.6982E-21  0.1000E+02
     -8.058  0.1093E-17  0.1000E+02
     -7.953  0.9664E-15  0.1000E+02
     -7.847  0.4824E-12  0.1000E+02
     -7.742  0.1347E-09  0.1000E+02
     -7.637  0.2092E-07  0.1000E+02
     -7.532  0.1789E-05  0.1000E+02
     -7.427  0.8261E-04  0.1000E+02
     -7.321  0.1993E-02  0.1000E+02
     -7.216  0.2332E-01  0.1000E+02
     -7.111  0.1053E+00  0.1001E+02
     -7.006 -0.6581E-01  0.1001E+02
     -6.901 -0.1293E+01  0.9871E+01
     -6.796  0.4320E+00  0.9916E+01
     -6.690  0.1220E+02  0.1120E+02
     -6.585  0.1952E+02  0.1325E+02
     -6.480  0.7823E+01  0.1408E+02
     -6.375 -0.1741E+01  0.1389E+02
     -6.270  0.9358E+01  0.1488E+02
     -6.165  0.3119E+02  0.1816E+02
     -6.059  0.3360E+02  0.2169E+02
     -5.954  0.1694E+02  0.2347E+02
     -5.849  0.2304E+02  0.2590E+02
     -5.744  0.6227E+02  0.3244E+02
     -5.639  0.1227E+03  0.4535E+02
     -5.533  0.2152E+03  0.6798E+02
     -5.428  0.2860E+03  0.9806E+02
     -5.323  0.2588E+03  0.1253E+03
     -5.218  0.2113E+03  0.1475E+03
     -5.113  0.2529E+03  0.1741E+03
     -5.008  0.3387E+03  0.2097E+03
     -4.902  0.3469E+03  0.2462E+03
     -4.797  0.2918E+03  0.2769E+03
     -4.692  0.3145E+03  0.3100E+03
     -4.587  0.3981E+03  0.3519E+03
     -4.482  0.4196E+03  0.3960E+03
     -4.377  0.4451E+03  0.4428E+03
     -4.271  0.5373E+03  0.4993E+03
     -4.166  0.4934E+03  0.5512E+03
     -4.061  0.2370E+03  0.5761E+03
     -3.956  0.4176E+02  0.5805E+03
     -3.851  0.2103E+02  0.5827E+03
     -3.745  0.3294E+02  0.5862E+03
     -3.640  0.1675E+02  0.5880E+03
     -3.535  0.1169E+02  0.5892E+03
     -3.430  0.1821E+02  0.5911E+03
     -3.325  0.1120E+02  0.5923E+03
     -3.220  0.5095E+01  0.5928E+03
     -3.114  0.2441E+02  0.5954E+03
     -3.009  0.5919E+02  0.6016E+03
     -2.904  0.5437E+02  0.6073E+03
     -2.799  0.2009E+02  0.6094E+03
     -2.694  0.3217E+01  0.6098E+03
     -2.589  0.9457E+01  0.6108E+03
     -2.483  0.2495E+02  0.6134E+03
     -2.378  0.1988E+02  0.6155E+03
     -2.273  0.6853E+01  0.6162E+03
     -2.168  0.1956E+02  0.6183E+03
     -2.063  0.3862E+02  0.6223E+03
     -1.957  0.4331E+02  0.6269E+03
     -1.852  0.4193E+02  0.6313E+03
     -1.747  0.3611E+02  0.6351E+03
     -1.642  0.3472E+02  0.6388E+03
     -1.537  0.3768E+02  0.6427E+03
     -1.432  0.3128E+02  0.6460E+03
     -1.326  0.2012E+02  0.6481E+03
     -1.221  0.1091E+02  0.6493E+03
     -1.116  0.1329E+02  0.6507E+03
     -1.011  0.4268E+02  0.6552E+03
     -0.906  0.7104E+02  0.6626E+03
     -0.801  0.5803E+02  0.6687E+03
     -0.695  0.2524E+02  0.6714E+03
     -0.590  0.6412E+01  0.6721E+03
     -0.485 -0.1231E-01  0.6721E+03
     -0.380 -0.6939E+00  0.6720E+03
     -0.275  0.6744E-02  0.6720E+03
     -0.169  0.1057E+00  0.6720E+03
     -0.064  0.2628E-01  0.6720E+03
      0.041  0.2609E-02  0.6720E+03
      0.146  0.1255E-03  0.6720E+03
      0.251  0.3135E-05  0.6720E+03
      0.356  0.4201E-07  0.6720E+03
      0.462  0.3079E-09  0.6720E+03
      0.567  0.1250E-11  0.6720E+03
      0.672  0.2111E-14  0.6720E+03
      0.777  0.0000E+00  0.6720E+03
      0.882  0.0000E+00  0.6720E+03
      0.987  0.0000E+00  0.6720E+03
      1.093  0.0000E+00  0.6720E+03
      1.198  0.0000E+00  0.6720E+03
      1.303  0.0000E+00  0.6720E+03
