   57   57    1    1
  0.4736842E+03  0.3000000E-08  0.3000000E-08  0.3000000E-08  0.5000000E-15
  1.000000000000000E-004
  CAR 
 6_Pd100_top_free_z(O)                   
    560      1    336
 
  0.0000000E+00  0.0000000E+00  0.0000000E+00  0.1000000E+01
    1      -28.125397   1.000000
    2      -13.412715   1.000000
    3      -11.285148   1.000000
    4      -10.801280   1.000000
    5      -10.341964   1.000000
    6       -6.674029   1.000000
    7       -6.622732   1.000000
    8       -6.439984   1.000000
    9       -6.202914   1.000000
   10       -6.138277   1.000000
   11       -6.133849   1.000000
   12       -5.942177   1.000000
   13       -5.853830   1.000000
   14       -5.843322   1.000000
   15       -5.814889   1.000000
   16       -5.756994   1.000000
   17       -5.753694   1.000000
   18       -5.707674   1.000000
   19       -5.698814   1.000000
   20       -5.690323   1.000000
   21       -5.683640   1.000000
   22       -5.642852   1.000000
   23       -5.624225   1.000000
   24       -5.610182   1.000000
   25       -5.606164   1.000000
   26       -5.597499   1.000000
   27       -5.583505   1.000000
   28       -5.579002   1.000000
   29       -5.556679   1.000000
   30       -5.554095   1.000000
   31       -5.548064   1.000000
   32       -5.534316   1.000000
   33       -5.525877   1.000000
   34       -5.525781   1.000000
   35       -5.520530   1.000000
   36       -5.519914   1.000000
   37       -5.515146   1.000000
   38       -5.501471   1.000000
   39       -5.496839   1.000000
   40       -5.485506   1.000000
   41       -5.480929   1.000000
   42       -5.477865   1.000000
   43       -5.474040   1.000000
   44       -5.472665   1.000000
   45       -5.470616   1.000000
   46       -5.463125   1.000000
   47       -5.444576   1.000000
   48       -5.437281   1.000000
   49       -5.435730   1.000000
   50       -5.432487   1.000000
   51       -5.429245   1.000000
   52       -5.422989   1.000000
   53       -5.412191   1.000000
   54       -5.412076   1.000000
   55       -5.403485   1.000000
   56       -5.398313   1.000000
   57       -5.384616   1.000000
   58       -5.363688   1.000000
   59       -5.351907   1.000000
   60       -5.337605   1.000000
   61       -5.333610   1.000000
   62       -5.331760   1.000000
   63       -5.325216   1.000000
   64       -5.322721   1.000000
   65       -5.309170   1.000000
   66       -5.306745   1.000000
   67       -5.302968   1.000000
   68       -5.296924   1.000000
   69       -5.260230   1.000000
   70       -5.249848   1.000000
   71       -5.237944   1.000000
   72       -5.219526   1.000000
   73       -5.208718   1.000000
   74       -5.206645   1.000000
   75       -5.202618   1.000000
   76       -5.187870   1.000000
   77       -5.187258   1.000000
   78       -5.183608   1.000000
   79       -5.174999   1.000000
   80       -5.173856   1.000000
   81       -5.170481   1.000000
   82       -5.147238   1.000000
   83       -5.136476   1.000000
   84       -5.135054   1.000000
   85       -5.132147   1.000000
   86       -5.124197   1.000000
   87       -5.117118   1.000000
   88       -5.107594   1.000000
   89       -5.096439   1.000000
   90       -5.088184   1.000000
   91       -5.082024   1.000000
   92       -5.065356   1.000000
   93       -5.061535   1.000000
   94       -5.060864   1.000000
   95       -5.059313   1.000000
   96       -5.056238   1.000000
   97       -5.052919   1.000000
   98       -5.047005   1.000000
   99       -5.044417   1.000000
  100       -5.036324   1.000000
  101       -5.031014   1.000000
  102       -5.028023   1.000000
  103       -5.017572   1.000000
  104       -5.010995   1.000000
  105       -5.009953   1.000000
  106       -5.007305   1.000000
  107       -5.003106   1.000000
  108       -4.997459   1.000000
  109       -4.996508   1.000000
  110       -4.987207   1.000000
  111       -4.984097   1.000000
  112       -4.978706   1.000000
  113       -4.971613   1.000000
  114       -4.968251   1.000000
  115       -4.964885   0.999999
  116       -4.963616   0.999999
  117       -4.952052   0.999999
  118       -4.947049   0.999999
  119       -4.939428   0.999999
  120       -4.930430   0.999998
  121       -4.920480   0.999997
  122       -4.919324   0.999997
  123       -4.917141   0.999997
  124       -4.914209   0.999997
  125       -4.908264   0.999996
  126       -4.906827   0.999996
  127       -4.891528   0.999993
  128       -4.881943   0.999991
  129       -4.872302   0.999988
  130       -4.859502   0.999982
  131       -4.849367   0.999975
  132       -4.846124   0.999973
  133       -4.843600   0.999971
  134       -4.843077   0.999971
  135       -4.840351   0.999968
  136       -4.836132   0.999964
  137       -4.819354   0.999942
  138       -4.805017   0.999915
  139       -4.804319   0.999914
  140       -4.790666   0.999877
  141       -4.786104   0.999861
  142       -4.775681   0.999820
  143       -4.770998   0.999798
  144       -4.763061   0.999756
  145       -4.749298   0.999663
  146       -4.743948   0.999620
  147       -4.736832   0.999555
  148       -4.735546   0.999542
  149       -4.725149   0.999428
  150       -4.709983   0.999219
  151       -4.700115   0.999053
  152       -4.698020   0.999015
  153       -4.693460   0.998927
  154       -4.691138   0.998879
  155       -4.689114   0.998837
  156       -4.680732   0.998649
  157       -4.679719   0.998624
  158       -4.678804   0.998602
  159       -4.676156   0.998537
  160       -4.670520   0.998391
  161       -4.665640   0.998256
  162       -4.657303   0.998010
  163       -4.654627   0.997927
  164       -4.653684   0.997897
  165       -4.652671   0.997865
  166       -4.651125   0.997815
  167       -4.650496   0.997795
  168       -4.647825   0.997707
  169       -4.640792   0.997467
  170       -4.637626   0.997356
  171       -4.621652   0.996768
  172       -4.618127   0.996636
  173       -4.614573   0.996502
  174       -4.609953   0.996329
  175       -4.604183   0.996117
  176       -4.602230   0.996047
  177       -4.600072   0.995970
  178       -4.598208   0.995905
  179       -4.596665   0.995852
  180       -4.594504   0.995779
  181       -4.584175   0.995464
  182       -4.574720   0.995237
  183       -4.573778   0.995219
  184       -4.567211   0.995118
  185       -4.562371   0.995076
  186       -4.560536   0.995068
  187       -4.558679   0.995065
  188       -4.555845   0.995071
  189       -4.555627   0.995072
  190       -4.548246   0.995153
  191       -4.537081   0.995483
  192       -4.530702   0.995803
  193       -4.520208   0.996573
  194       -4.516752   0.996900
  195       -4.509193   0.997757
  196       -4.507006   0.998043
  197       -4.505168   0.998297
  198       -4.497015   0.999582
  199       -4.491410   1.000622
  200       -4.481047   1.002899
  201       -4.479981   1.003160
  202       -4.472156   1.005236
  203       -4.468599   1.006272
  204       -4.463114   1.007983
  205       -4.462207   1.008279
  206       -4.460104   1.008980
  207       -4.455566   1.010558
  208       -4.451751   1.011955
  209       -4.446072   1.014148
  210       -4.445219   1.014488
  211       -4.436237   1.018239
  212       -4.429371   1.021286
  213       -4.422764   1.024337
  214       -4.421774   1.024802
  215       -4.416142   1.027477
  216       -4.413876   1.028564
  217       -4.410796   1.030045
  218       -4.409867   1.030493
  219       -4.404720   1.032968
  220       -4.402083   1.034229
  221       -4.393568   1.038214
  222       -4.381446   1.043448
  223       -4.375046   1.045874
  224       -4.370464   1.047416
  225       -4.359438   1.050272
  226       -4.352957   1.051259
  227       -4.343902   1.051577
  228       -4.342878   1.051525
  229       -4.341865   1.051455
  230       -4.339410   1.051206
  231       -4.338911   1.051142
  232       -4.338597   1.051099
  233       -4.334902   1.050441
  234       -4.331252   1.049510
  235       -4.328629   1.048660
  236       -4.327786   1.048353
  237       -4.327279   1.048161
  238       -4.326109   1.047693
  239       -4.323044   1.046311
  240       -4.317856   1.043430
  241       -4.314824   1.041416
  242       -4.307159   1.035166
  243       -4.302687   1.030711
  244       -4.299964   1.027692
  245       -4.295434   1.022138
  246       -4.293636   1.019744
  247       -4.289849   1.014344
  248       -4.289395   1.013663
  249       -4.284374   1.005651
  250       -4.280299   0.998485
  251       -4.273417   0.984995
  252       -4.270414   0.978551
  253       -4.268985   0.975365
  254       -4.264173   0.964061
  255       -4.261780   0.958106
  256       -4.259915   0.953312
  257       -4.255035   0.940130
  258       -4.253841   0.936767
  259       -4.250442   0.926882
  260       -4.249187   0.923120
  261       -4.247917   0.919251
  262       -4.245224   0.910842
  263       -4.241824   0.899828
  264       -4.240903   0.896767
  265       -4.240211   0.894447
  266       -4.230803   0.861139
  267       -4.230422   0.859724
  268       -4.227215   0.847587
  269       -4.226648   0.845404
  270       -4.222941   0.830856
  271       -4.219949   0.818768
  272       -4.213978   0.793769
  273       -4.208065   0.767918
  274       -4.197341   0.718501
  275       -4.190557   0.685764
  276       -4.189924   0.682660
  277       -4.181919   0.642709
  278       -4.178931   0.627513
  279       -4.178150   0.623520
  280       -4.174200   0.603190
  281       -4.169174   0.577064
  282       -4.163043   0.544896
  283       -4.145807   0.453860
  284       -4.133462   0.389451
  285       -4.132758   0.385826
  286       -4.132491   0.384453
  287       -4.122983   0.336259
  288       -4.115482   0.299397
  289       -4.050065   0.049030
  290       -3.972155  -0.050837
  291       -3.910962  -0.036102
  292       -3.835175  -0.004746
  293       -3.821085  -0.001319
  294       -3.753990   0.004926
  295       -3.509429   0.000098
  296       -3.495379   0.000067
  297       -3.375864   0.000002
  298       -3.068029   0.000000
  299       -3.066430   0.000000
  300       -3.043024   0.000000
  301       -3.037391   0.000000
  302       -3.032117   0.000000
  303       -2.982121   0.000000
  304       -2.941191   0.000000
  305       -2.874104   0.000000
  306       -2.536847   0.000000
  307       -2.527397   0.000000
  308       -2.429562   0.000000
  309       -2.262708   0.000000
  310       -2.147865   0.000000
  311       -2.122421   0.000000
  312       -2.119191   0.000000
  313       -1.985802   0.000000
  314       -1.978912   0.000000
  315       -1.956039   0.000000
  316       -1.871199   0.000000
  317       -1.843447   0.000000
  318       -1.745156   0.000000
  319       -1.661519   0.000000
  320       -1.645666   0.000000
  321       -1.609306   0.000000
  322       -1.564461   0.000000
  323       -1.461461   0.000000
  324       -1.358423   0.000000
  325       -1.256466   0.000000
  326       -1.123367   0.000000
  327       -1.053643   0.000000
  328       -1.014739   0.000000
  329       -0.991833   0.000000
  330       -0.968075   0.000000
  331       -0.958825   0.000000
  332       -0.938274   0.000000
  333       -0.907732   0.000000
  334       -0.870915   0.000000
  335       -0.810865   0.000000
  336       -0.738659   0.000000
