  57  57   0   0
  0.4736842E+03  0.3000000E-08  0.3000000E-08  0.3000000E-08  0.5000000E-15
  1.000000000000000E-004
  CAR 
 6_Pd100_top_free_z(O)                   
      1.35976135    -31.32608158  301     -4.12182467      1.00000000
    -31.326  0.0000E+00  0.0000E+00
    -31.217  0.0000E+00  0.0000E+00
    -31.108  0.0000E+00  0.0000E+00
    -30.999  0.5811E-27  0.6331E-28
    -30.890  0.3182E-23  0.3468E-24
    -30.781  0.9468E-20  0.1032E-20
    -30.672  0.1526E-16  0.1664E-17
    -30.563  0.1327E-13  0.1448E-14
    -30.454  0.6207E-11  0.6777E-12
    -30.346  0.1544E-08  0.1689E-09
    -30.237  0.2024E-06  0.2222E-07
    -30.128  0.1373E-04  0.1518E-05
    -30.019  0.4669E-03  0.5239E-04
    -29.910  0.7451E-02  0.8642E-03
    -29.801  0.4622E-01  0.5900E-02
    -29.692  0.8825E-02  0.6862E-02
    -29.583 -0.6101E+00 -0.5961E-01
    -29.474 -0.9942E-02 -0.6069E-01
    -29.365  0.6072E+01  0.6008E+00
    -29.256  0.9861E+01  0.1675E+01
    -29.147  0.3901E+01  0.2100E+01
    -29.038 -0.6346E+00  0.2031E+01
    -28.929 -0.3757E+00  0.1990E+01
    -28.820  0.5508E-01  0.1996E+01
    -28.711  0.3092E-01  0.2000E+01
    -28.602  0.3661E-02  0.2000E+01
    -28.493  0.1827E-03  0.2000E+01
    -28.384  0.4388E-05  0.2000E+01
    -28.275  0.5342E-07  0.2000E+01
    -28.166  0.3386E-09  0.2000E+01
    -28.057  0.1135E-11  0.2000E+01
    -27.949  0.2038E-14  0.2000E+01
    -27.840  0.0000E+00  0.2000E+01
    -27.731  0.0000E+00  0.2000E+01
    -27.622  0.0000E+00  0.2000E+01
    -27.513  0.0000E+00  0.2000E+01
    -27.404  0.0000E+00  0.2000E+01
    -27.295  0.0000E+00  0.2000E+01
    -27.186  0.0000E+00  0.2000E+01
    -27.077  0.0000E+00  0.2000E+01
    -26.968  0.0000E+00  0.2000E+01
    -26.859  0.0000E+00  0.2000E+01
    -26.750  0.0000E+00  0.2000E+01
    -26.641  0.0000E+00  0.2000E+01
    -26.532  0.0000E+00  0.2000E+01
    -26.423  0.0000E+00  0.2000E+01
    -26.314  0.0000E+00  0.2000E+01
    -26.205  0.0000E+00  0.2000E+01
    -26.096  0.0000E+00  0.2000E+01
    -25.987  0.0000E+00  0.2000E+01
    -25.878  0.0000E+00  0.2000E+01
    -25.769  0.0000E+00  0.2000E+01
    -25.661  0.0000E+00  0.2000E+01
    -25.552  0.0000E+00  0.2000E+01
    -25.443  0.0000E+00  0.2000E+01
    -25.334  0.0000E+00  0.2000E+01
    -25.225  0.0000E+00  0.2000E+01
    -25.116  0.0000E+00  0.2000E+01
    -25.007  0.0000E+00  0.2000E+01
    -24.898  0.0000E+00  0.2000E+01
    -24.789  0.0000E+00  0.2000E+01
    -24.680  0.0000E+00  0.2000E+01
    -24.571  0.0000E+00  0.2000E+01
    -24.462  0.0000E+00  0.2000E+01
    -24.353  0.0000E+00  0.2000E+01
    -24.244  0.0000E+00  0.2000E+01
    -24.135  0.0000E+00  0.2000E+01
    -24.026  0.0000E+00  0.2000E+01
    -23.917  0.0000E+00  0.2000E+01
    -23.808  0.0000E+00  0.2000E+01
    -23.699  0.0000E+00  0.2000E+01
    -23.590  0.0000E+00  0.2000E+01
    -23.481  0.0000E+00  0.2000E+01
    -23.373  0.0000E+00  0.2000E+01
    -23.264  0.0000E+00  0.2000E+01
    -23.155  0.0000E+00  0.2000E+01
    -23.046  0.0000E+00  0.2000E+01
    -22.937  0.0000E+00  0.2000E+01
    -22.828  0.0000E+00  0.2000E+01
    -22.719  0.0000E+00  0.2000E+01
    -22.610  0.0000E+00  0.2000E+01
    -22.501  0.0000E+00  0.2000E+01
    -22.392  0.0000E+00  0.2000E+01
    -22.283  0.0000E+00  0.2000E+01
    -22.174  0.0000E+00  0.2000E+01
    -22.065  0.0000E+00  0.2000E+01
    -21.956  0.0000E+00  0.2000E+01
    -21.847  0.0000E+00  0.2000E+01
    -21.738  0.0000E+00  0.2000E+01
    -21.629  0.0000E+00  0.2000E+01
    -21.520  0.0000E+00  0.2000E+01
    -21.411  0.0000E+00  0.2000E+01
    -21.302  0.0000E+00  0.2000E+01
    -21.193  0.0000E+00  0.2000E+01
    -21.085  0.0000E+00  0.2000E+01
    -20.976  0.0000E+00  0.2000E+01
    -20.867  0.0000E+00  0.2000E+01
    -20.758  0.0000E+00  0.2000E+01
    -20.649  0.0000E+00  0.2000E+01
    -20.540  0.0000E+00  0.2000E+01
    -20.431  0.0000E+00  0.2000E+01
    -20.322  0.0000E+00  0.2000E+01
    -20.213  0.0000E+00  0.2000E+01
    -20.104  0.0000E+00  0.2000E+01
    -19.995  0.0000E+00  0.2000E+01
    -19.886  0.0000E+00  0.2000E+01
    -19.777  0.0000E+00  0.2000E+01
    -19.668  0.0000E+00  0.2000E+01
    -19.559  0.0000E+00  0.2000E+01
    -19.450  0.0000E+00  0.2000E+01
    -19.341  0.0000E+00  0.2000E+01
    -19.232  0.0000E+00  0.2000E+01
    -19.123  0.0000E+00  0.2000E+01
    -19.014  0.0000E+00  0.2000E+01
    -18.905  0.0000E+00  0.2000E+01
    -18.797  0.0000E+00  0.2000E+01
    -18.688  0.0000E+00  0.2000E+01
    -18.579  0.0000E+00  0.2000E+01
    -18.470  0.0000E+00  0.2000E+01
    -18.361  0.0000E+00  0.2000E+01
    -18.252  0.0000E+00  0.2000E+01
    -18.143  0.0000E+00  0.2000E+01
    -18.034  0.0000E+00  0.2000E+01
    -17.925  0.0000E+00  0.2000E+01
    -17.816  0.0000E+00  0.2000E+01
    -17.707  0.0000E+00  0.2000E+01
    -17.598  0.0000E+00  0.2000E+01
    -17.489  0.0000E+00  0.2000E+01
    -17.380  0.0000E+00  0.2000E+01
    -17.271  0.0000E+00  0.2000E+01
    -17.162  0.0000E+00  0.2000E+01
    -17.053  0.0000E+00  0.2000E+01
    -16.944  0.0000E+00  0.2000E+01
    -16.835  0.0000E+00  0.2000E+01
    -16.726  0.0000E+00  0.2000E+01
    -16.617  0.0000E+00  0.2000E+01
    -16.508  0.0000E+00  0.2000E+01
    -16.400  0.0000E+00  0.2000E+01
    -16.291  0.0000E+00  0.2000E+01
    -16.182  0.0000E+00  0.2000E+01
    -16.073  0.0000E+00  0.2000E+01
    -15.964  0.0000E+00  0.2000E+01
    -15.855  0.0000E+00  0.2000E+01
    -15.746  0.0000E+00  0.2000E+01
    -15.637  0.0000E+00  0.2000E+01
    -15.528  0.1054E-27  0.2000E+01
    -15.419  0.6482E-24  0.2000E+01
    -15.310  0.2167E-20  0.2000E+01
    -15.201  0.3925E-17  0.2000E+01
    -15.092  0.3840E-14  0.2000E+01
    -14.983  0.2023E-11  0.2000E+01
    -14.874  0.5677E-09  0.2000E+01
    -14.765  0.8416E-07  0.2000E+01
    -14.656  0.6483E-05  0.2000E+01
    -14.547  0.2523E-03  0.2000E+01
    -14.438  0.4688E-02  0.2001E+01
    -14.329  0.3587E-01  0.2004E+01
    -14.220  0.4479E-01  0.2009E+01
    -14.112 -0.4544E+00  0.1960E+01
    -14.003 -0.4816E+00  0.1907E+01
    -13.894  0.4625E+01  0.2411E+01
    -13.785  0.9978E+01  0.3498E+01
    -13.676  0.5338E+01  0.4080E+01
    -13.567 -0.2790E+00  0.4050E+01
    -13.458 -0.5320E+00  0.3992E+01
    -13.349  0.2994E-01  0.3995E+01
    -13.240  0.4092E-01  0.3999E+01
    -13.131  0.5913E-02  0.4000E+01
    -13.022  0.3428E-03  0.4000E+01
    -12.913  0.9411E-05  0.4000E+01
    -12.804  0.1300E-06  0.4000E+01
    -12.695  0.1142E-08  0.4000E+01
    -12.586  0.3807E-07  0.4000E+01
    -12.477  0.3603E-05  0.4000E+01
    -12.368  0.1741E-03  0.4000E+01
    -12.259  0.4110E-02  0.4000E+01
    -12.150  0.4266E-01  0.4005E+01
    -12.041  0.1278E+00  0.4019E+01
    -11.932 -0.4347E+00  0.3972E+01
    -11.824 -0.1602E+01  0.3797E+01
    -11.715  0.4812E+01  0.4321E+01
    -11.606  0.1839E+02  0.6325E+01
    -11.497  0.1522E+02  0.7984E+01
    -11.388  0.1644E+01  0.8163E+01
    -11.279 -0.1510E+01  0.7998E+01
    -11.170 -0.1261E+00  0.7985E+01
    -11.061  0.1144E+00  0.7997E+01
    -10.952  0.2416E-01  0.8000E+01
    -10.843  0.1810E-02  0.8000E+01
    -10.734  0.6217E-04  0.8000E+01
    -10.625  0.1060E-05  0.8000E+01
    -10.516  0.9296E-08  0.8000E+01
    -10.407  0.5496E-10  0.8000E+01
    -10.298  0.2804E-08  0.8000E+01
    -10.189  0.3410E-06  0.8000E+01
    -10.080  0.2140E-04  0.8000E+01
     -9.971  0.6696E-03  0.8000E+01
     -9.862  0.9716E-02  0.8001E+01
     -9.753  0.5240E-01  0.8007E+01
     -9.644 -0.2528E-01  0.8004E+01
     -9.536 -0.6952E+00  0.7928E+01
     -9.427  0.3969E+00  0.7972E+01
     -9.318  0.6923E+01  0.8726E+01
     -9.209  0.9570E+01  0.9769E+01
     -9.100  0.3072E+01  0.1010E+02
     -8.991 -0.7510E+00  0.1002E+02
     -8.882 -0.2868E+00  0.9990E+01
     -8.773  0.6187E-01  0.9997E+01
     -8.664  0.2549E-01  0.1000E+02
     -8.555  0.2696E-02  0.1000E+02
     -8.446  0.1231E-03  0.1000E+02
     -8.337  0.2728E-05  0.1000E+02
     -8.228  0.3076E-07  0.1000E+02
     -8.119  0.1810E-09  0.1000E+02
     -8.010  0.5645E-12  0.1000E+02
     -7.901  0.9206E-15  0.1000E+02
     -7.792  0.5544E-12  0.1000E+02
     -7.683  0.1782E-09  0.1000E+02
     -7.574  0.3034E-07  0.1000E+02
     -7.465  0.2695E-05  0.1000E+02
     -7.356  0.1219E-03  0.1000E+02
     -7.248  0.2675E-02  0.1000E+02
     -7.139  0.2537E-01  0.1000E+02
     -7.030  0.6197E-01  0.1001E+02
     -6.921 -0.2847E+00  0.9979E+01
     -6.812 -0.7523E+00  0.9897E+01
     -6.703  0.3066E+01  0.1023E+02
     -6.594  0.9668E+01  0.1128E+02
     -6.485  0.7079E+01  0.1206E+02
     -6.376 -0.9340E+00  0.1195E+02
     -6.267 -0.1968E+01  0.1174E+02
     -6.158  0.1420E+02  0.1329E+02
     -6.049  0.2890E+02  0.1644E+02
     -5.940  0.1402E+02  0.1796E+02
     -5.831  0.1116E+02  0.1918E+02
     -5.722  0.4266E+02  0.2383E+02
     -5.613  0.1050E+03  0.3527E+02
     -5.504  0.2245E+03  0.5973E+02
     -5.395  0.3085E+03  0.9335E+02
     -5.286  0.2576E+03  0.1214E+03
     -5.177  0.2043E+03  0.1437E+03
     -5.068  0.2668E+03  0.1727E+03
     -4.960  0.3592E+03  0.2119E+03
     -4.851  0.3443E+03  0.2494E+03
     -4.742  0.2897E+03  0.2809E+03
     -4.633  0.3547E+03  0.3196E+03
     -4.524  0.4309E+03  0.3665E+03
     -4.415  0.4239E+03  0.4127E+03
     -4.306  0.4889E+03  0.4660E+03
     -4.197  0.5632E+03  0.5273E+03
     -4.088  0.3872E+03  0.5695E+03
     -3.979  0.1052E+03  0.5810E+03
     -3.870  0.8852E+01  0.5820E+03
     -3.761  0.3105E+02  0.5853E+03
     -3.652  0.2200E+02  0.5877E+03
     -3.543  0.9449E+01  0.5888E+03
     -3.434  0.2603E+02  0.5916E+03
     -3.325  0.2127E+02  0.5939E+03
     -3.216 -0.2346E+01  0.5937E+03
     -3.107  0.7316E+01  0.5945E+03
     -2.998  0.5464E+02  0.6004E+03
     -2.889  0.6745E+02  0.6078E+03
     -2.780  0.2442E+02  0.6104E+03
     -2.671 -0.4648E+01  0.6099E+03
     -2.563  0.6413E+01  0.6106E+03
     -2.454  0.2922E+02  0.6138E+03
     -2.345  0.2645E+02  0.6167E+03
     -2.236  0.9748E+01  0.6178E+03
     -2.127  0.1798E+02  0.6197E+03
     -2.018  0.4045E+02  0.6241E+03
     -1.909  0.4313E+02  0.6288E+03
     -1.800  0.3949E+02  0.6331E+03
     -1.691  0.4493E+02  0.6380E+03
     -1.582  0.5051E+02  0.6435E+03
     -1.473  0.4238E+02  0.6481E+03
     -1.364  0.1707E+02  0.6500E+03
     -1.255  0.1105E+02  0.6512E+03
     -1.146  0.2369E+02  0.6538E+03
     -1.037  0.2704E+02  0.6567E+03
     -0.928  0.4593E+02  0.6617E+03
     -0.819  0.5022E+02  0.6672E+03
     -0.710  0.2613E+02  0.6700E+03
     -0.601  0.1329E+02  0.6715E+03
     -0.492  0.5419E+01  0.6721E+03
     -0.383 -0.4136E+00  0.6720E+03
     -0.275 -0.5242E+00  0.6720E+03
     -0.166  0.7606E-01  0.6720E+03
     -0.057  0.5725E-01  0.6720E+03
      0.052  0.8199E-02  0.6720E+03
      0.161  0.4910E-03  0.6720E+03
      0.270  0.1412E-04  0.6720E+03
      0.379  0.2057E-06  0.6720E+03
      0.488  0.1559E-08  0.6720E+03
      0.597  0.6236E-11  0.6720E+03
      0.706  0.1427E-13  0.6720E+03
      0.815  0.0000E+00  0.6720E+03
      0.924  0.0000E+00  0.6720E+03
      1.033  0.0000E+00  0.6720E+03
      1.142  0.0000E+00  0.6720E+03
      1.251  0.0000E+00  0.6720E+03
      1.360  0.0000E+00  0.6720E+03
