 vasp.5.4.4.18Apr17-6-g9f103f2a35 (build Sep 03 2018 23:53:05) complex          
  
 executed on             LinuxIFC date 2021.11.26  23:34:04
 running on    1 total cores
 distrk:  each k-point on    1 cores,    1 groups
 distr:  one band on NCORES_PER_BAND=   1 cores,    1 groups


--------------------------------------------------------------------------------------------------------


 INCAR:
 POTCAR:    PAW_PBE Pd 04Jan2005                  
 POTCAR:    PAW_PBE C 08Apr2002                   
 POTCAR:    PAW_PBE O 08Apr2002                   
 POTCAR:    PAW_PBE Pd 04Jan2005                  
   VRHFIN =Pd : s1 d9                                                           
   LEXCH  = PE                                                                  
   EATOM  =   809.7530 eV,   59.5152 Ry                                         
                                                                                
   TITEL  = PAW_PBE Pd 04Jan2005                                                
   LULTRA =        F    use ultrasoft PP ?                                      
   IUNSCR =        1    unscreen: 0-lin 1-nonlin 2-no                           
   RPACOR =    2.000    partial core radius                                     
   POMASS =  106.420; ZVAL   =   10.000    mass and valenz                      
   RCORE  =    2.600    outmost cutoff radius                                   
   RWIGS  =    2.710; RWIGS  =    1.434    wigner-seitz radius (au A)           
   ENMAX  =  250.925; ENMIN  =  188.194 eV                                      
   ICORE  =        3    local potential                                         
   LCOR   =        T    correct aug charges                                     
   LPAW   =        T    paw PP                                                  
   EAUG   =  416.230                                                            
   DEXC   =    0.000                                                            
   RMAX   =    2.653    core radius for proj-oper                               
   RAUG   =    1.300    factor for augmentation sphere                          
   RDEP   =    2.734    radius for radial grids                                 
   RDEPT  =    2.103    core radius for aug-charge                              
                                                                                
   Atomic configuration                                                         
   12 entries                                                                   
     n  l   j            E        occ.                                          
     1  0  0.50    -24164.6631   2.0000                                         
     2  0  0.50     -3530.9218   2.0000                                         
     2  1  1.50     -3165.6822   6.0000                                         
     3  0  0.50      -639.4577   2.0000                                         
     3  1  1.50      -519.4532   6.0000                                         
     3  2  2.50      -328.9757  10.0000                                         
     4  0  0.50       -88.7014   2.0000                                         
     4  1  1.50       -54.4540   6.0000                                         
     4  2  2.50        -6.6878   9.0000                                         
     5  0  0.50        -4.3543   1.0000                                         
     5  1  0.50        -1.3606   0.0000                                         
     4  3  2.50        -1.3606   0.0000                                         
   Description                                                                  
     l       E           TYP  RCUT    TYP  RCUT                                 
     2     -6.6878251     23  2.400                                             
     2     -8.0484077     23  2.400                                             
     0     -4.3542939     23  2.400                                             
     0      4.3406793     23  2.400                                             
     1     -4.0817478     23  2.600                                             
     1     15.8380318     23  2.600                                             
     3     -4.0817478     23  2.400                                             
  local pseudopotential read in
  partial core-charges read in
  partial kinetic energy density read in
  atomic valenz-charges read in
  non local Contribution for L=           2  read in
    real space projection operators read in
  non local Contribution for L=           2  read in
    real space projection operators read in
  non local Contribution for L=           0  read in
    real space projection operators read in
  non local Contribution for L=           0  read in
    real space projection operators read in
  non local Contribution for L=           1  read in
    real space projection operators read in
  non local Contribution for L=           1  read in
    real space projection operators read in
    PAW grid and wavefunctions read in
 
   number of l-projection  operators is LMAX  =           6
   number of lm-projection operators is LMMAX =          18
 
 POTCAR:    PAW_PBE C 08Apr2002                   
   VRHFIN =C: s2p2                                                              
   LEXCH  = PE                                                                  
   EATOM  =   147.1560 eV,   10.8157 Ry                                         
                                                                                
   TITEL  = PAW_PBE C 08Apr2002                                                 
   LULTRA =        F    use ultrasoft PP ?                                      
   IUNSCR =        1    unscreen: 0-lin 1-nonlin 2-no                           
   RPACOR =    1.200    partial core radius                                     
   POMASS =   12.011; ZVAL   =    4.000    mass and valenz                      
   RCORE  =    1.500    outmost cutoff radius                                   
   RWIGS  =    1.630; RWIGS  =    0.863    wigner-seitz radius (au A)           
   ENMAX  =  400.000; ENMIN  =  300.000 eV                                      
   ICORE  =        2    local potential                                         
   LCOR   =        T    correct aug charges                                     
   LPAW   =        T    paw PP                                                  
   EAUG   =  644.873                                                            
   DEXC   =    0.000                                                            
   RMAX   =    1.529    core radius for proj-oper                               
   RAUG   =    1.300    factor for augmentation sphere                          
   RDEP   =    1.501    radius for radial grids                                 
   RDEPT  =    1.300    core radius for aug-charge                              
                                                                                
   Atomic configuration                                                         
    4 entries                                                                   
     n  l   j            E        occ.                                          
     1  0  0.50      -273.3789   2.0000                                         
     2  0  0.50       -13.7508   2.0000                                         
     2  1  0.50        -5.2854   2.0000                                         
     3  2  1.50        -5.4423   0.0000                                         
   Description                                                                  
     l       E           TYP  RCUT    TYP  RCUT                                 
     0    -13.7508458     23  1.200                                             
     0     -8.2022199     23  1.200                                             
     1     -5.2854383     23  1.500                                             
     1     34.0145650     23  1.500                                             
     2     -5.4423304      7  1.500                                             
  local pseudopotential read in
  partial core-charges read in
  partial kinetic energy density read in
  atomic valenz-charges read in
  non local Contribution for L=           0  read in
    real space projection operators read in
  non local Contribution for L=           0  read in
    real space projection operators read in
  non local Contribution for L=           1  read in
    real space projection operators read in
  non local Contribution for L=           1  read in
    real space projection operators read in
    PAW grid and wavefunctions read in
 
   number of l-projection  operators is LMAX  =           4
   number of lm-projection operators is LMMAX =           8
 
 POTCAR:    PAW_PBE O 08Apr2002                   
   VRHFIN =O: s2p4                                                              
   LEXCH  = PE                                                                  
   EATOM  =   432.3788 eV,   31.7789 Ry                                         
                                                                                
   TITEL  = PAW_PBE O 08Apr2002                                                 
   LULTRA =        F    use ultrasoft PP ?                                      
   IUNSCR =        1    unscreen: 0-lin 1-nonlin 2-no                           
   RPACOR =    1.200    partial core radius                                     
   POMASS =   16.000; ZVAL   =    6.000    mass and valenz                      
   RCORE  =    1.520    outmost cutoff radius                                   
   RWIGS  =    1.550; RWIGS  =    0.820    wigner-seitz radius (au A)           
   ENMAX  =  400.000; ENMIN  =  300.000 eV                                      
   ICORE  =        2    local potential                                         
   LCOR   =        T    correct aug charges                                     
   LPAW   =        T    paw PP                                                  
   EAUG   =  605.392                                                            
   DEXC   =    0.000                                                            
   RMAX   =    1.553    core radius for proj-oper                               
   RAUG   =    1.300    factor for augmentation sphere                          
   RDEP   =    1.550    radius for radial grids                                 
   RDEPT  =    1.329    core radius for aug-charge                              
                                                                                
   Atomic configuration                                                         
    4 entries                                                                   
     n  l   j            E        occ.                                          
     1  0  0.50      -514.6923   2.0000                                         
     2  0  0.50       -23.9615   2.0000                                         
     2  1  0.50        -9.0305   4.0000                                         
     3  2  1.50        -9.5241   0.0000                                         
   Description                                                                  
     l       E           TYP  RCUT    TYP  RCUT                                 
     0    -23.9615318     23  1.200                                             
     0     -9.5240782     23  1.200                                             
     1     -9.0304911     23  1.520                                             
     1      8.1634956     23  1.520                                             
     2     -9.5240782      7  1.500                                             
  local pseudopotential read in
  partial core-charges read in
  partial kinetic energy density read in
  kinetic energy density of atom read in
  atomic valenz-charges read in
  non local Contribution for L=           0  read in
    real space projection operators read in
  non local Contribution for L=           0  read in
    real space projection operators read in
  non local Contribution for L=           1  read in
    real space projection operators read in
  non local Contribution for L=           1  read in
    real space projection operators read in
    PAW grid and wavefunctions read in
 
   number of l-projection  operators is LMAX  =           4
   number of lm-projection operators is LMMAX =           8
 
 Optimization of the real space projectors (new method)

 maximal supplied QI-value         = 14.36
 optimisation between [QCUT,QGAM] = [ 10.20, 20.39] = [ 29.12,116.47] Ry 
 Optimized for a Real-space Cutoff    1.51 Angstroem

   l    n(q)    QCUT    max X(q) W(low)/X(q) W(high)/X(q)  e(spline) 
   2      8    10.197    59.108    0.26E-03    0.14E-03    0.96E-07
   2      8    10.197    58.101    0.27E-03    0.14E-03    0.98E-07
   0      9    10.197   102.235    0.54E-04    0.60E-05    0.72E-07
   0      9    10.197    58.388    0.52E-04    0.60E-05    0.68E-07
   1      9    10.197    22.191    0.18E-03    0.25E-03    0.79E-07
   1      9    10.197    15.590    0.15E-03    0.21E-03    0.69E-07
 Optimization of the real space projectors (new method)

 maximal supplied QI-value         = 25.13
 optimisation between [QCUT,QGAM] = [ 10.05, 20.36] = [ 28.30,116.06] Ry 
 Optimized for a Real-space Cutoff    1.30 Angstroem

   l    n(q)    QCUT    max X(q) W(low)/X(q) W(high)/X(q)  e(spline) 
   0      8    10.053   115.676    0.49E-03    0.72E-03    0.18E-06
   0      8    10.053    87.132    0.49E-03    0.71E-03    0.18E-06
   1      7    10.053     4.429    0.32E-03    0.31E-03    0.18E-06
   1      7    10.053     2.733    0.23E-03    0.19E-03    0.20E-06
 Optimization of the real space projectors (new method)

 maximal supplied QI-value         = 24.76
 optimisation between [QCUT,QGAM] = [ 10.15, 20.30] = [ 28.85,115.39] Ry 
 Optimized for a Real-space Cutoff    1.38 Angstroem

   l    n(q)    QCUT    max X(q) W(low)/X(q) W(high)/X(q)  e(spline) 
   0      8    10.150    20.381    0.22E-03    0.32E-03    0.29E-06
   0      8    10.150    15.268    0.23E-03    0.35E-03    0.30E-06
   1      8    10.150     5.964    0.46E-03    0.53E-03    0.21E-06
   1      8    10.150     5.382    0.38E-03    0.45E-03    0.19E-06

 ----------------------------------------------------------------------------- 
|                                                                             |
|  ADVICE TO THIS USER RUNNING 'VASP/VAMP'   (HEAR YOUR MASTER'S VOICE ...):  |
|                                                                             |
|      You enforced a specific xc-type in the INCAR file,                     |
|      a different type was found on the POTCAR file                          |
|          I HOPE YOU KNOW, WHAT YOU ARE  DOING                               |
|                                                                             |
 ----------------------------------------------------------------------------- 

  PAW_PBE Pd 04Jan2005                  :
 energy of atom  1       EATOM= -809.7530
 kinetic energy error for atom=    0.0091 (will be added to EATOM!!)
  PAW_PBE C 08Apr2002                   :
 energy of atom  2       EATOM= -147.1560
 kinetic energy error for atom=    0.0288 (will be added to EATOM!!)
  PAW_PBE O 08Apr2002                   :
 energy of atom  3       EATOM= -432.3788
 kinetic energy error for atom=    0.1156 (will be added to EATOM!!)
 
 
 POSCAR: Pd55PES                                 
  positions in cartesian coordinates
  No initial velocities read in
 exchange correlation table for  LEXCH =        9
   RHO(1)=    0.500       N(1)  =     2000
   RHO(2)=  100.500       N(2)  =     4000
 


--------------------------------------------------------------------------------------------------------


 ion  position               nearest neighbor table
   1  0.446  0.328  0.417-   3 3.25   5 3.25   7 3.36  15 3.36  29 3.42  28 3.42
   2  0.672  0.554  0.417-  26 3.25  30 3.25  17 3.36   9 3.36  47 3.42  49 3.42
   3  0.554  0.328  0.417-   1 3.25   5 3.25   7 3.36  11 3.36  29 3.42  21 3.42
   4  0.328  0.554  0.417-  32 3.25  22 3.25  13 3.36   8 3.36  43 3.42  48 3.42
   5  0.500  0.383  0.340-   1 3.25   3 3.25  11 3.36  15 3.36  21 3.42  28 3.42
   6  0.500  0.383  0.660-  24 3.25  19 3.25  16 3.36  12 3.36  42 3.42  44 3.42
   7  0.500  0.276  0.500-  29 3.24   3 3.36   1 3.36  19 3.36  24 3.36
   8  0.276  0.500  0.500-  48 3.24  22 3.36  40 3.36   4 3.36  25 3.36
   9  0.724  0.500  0.500-  49 3.24  26 3.36  45 3.36   2 3.36  20 3.36
  10  0.500  0.724  0.500-  55 3.24  27 3.36  23 3.36  46 3.36  41 3.36
  11  0.612  0.388  0.342-  56 2.61  57 2.69  21 3.24   5 3.36   3 3.36  30 3.36  26 3.36
  12  0.612  0.388  0.658-  42 3.24  24 3.36  45 3.36   6 3.36  31 3.36
  13  0.388  0.612  0.342-  43 3.24  32 3.36  50 3.36   4 3.36  27 3.36
  14  0.388  0.612  0.658-  53 3.24  25 3.36  33 3.36  51 3.36  46 3.36
  15  0.388  0.388  0.342-  28 3.24   5 3.36   1 3.36  32 3.36  22 3.36
  16  0.388  0.388  0.658-  44 3.24  19 3.36  40 3.36   6 3.36  33 3.36
  17  0.612  0.612  0.342-  47 3.24  30 3.36  50 3.36   2 3.36  23 3.36
  18  0.612  0.612  0.658-  54 3.24  31 3.36  20 3.36  51 3.36  41 3.36
  19  0.446  0.328  0.583-   6 3.25  24 3.25  16 3.36   7 3.36  44 3.42  29 3.42
  20  0.672  0.554  0.583-  31 3.25  45 3.25  18 3.36   9 3.36  54 3.42  49 3.42
  21  0.558  0.442  0.418-  11 3.24   5 3.42   3 3.42  30 3.42  26 3.42
  22  0.328  0.446  0.417-   4 3.25  32 3.25   8 3.36  15 3.36  48 3.42  28 3.42
  23  0.554  0.672  0.417-  27 3.25  50 3.25  10 3.36  17 3.36  55 3.42  47 3.42
  24  0.554  0.328  0.583-   6 3.25  19 3.25  12 3.36   7 3.36  42 3.42  29 3.42
  25  0.328  0.554  0.583-  33 3.25  40 3.25  14 3.36   8 3.36  53 3.42  48 3.42
  26  0.672  0.446  0.417-   2 3.25  30 3.25   9 3.36  11 3.36  49 3.42  21 3.42
  27  0.446  0.672  0.417-  23 3.25  50 3.25  10 3.36  13 3.36  55 3.42  43 3.42
  28  0.442  0.442  0.418-  15 3.24   5 3.42   1 3.42  32 3.42  22 3.42
  29  0.500  0.384  0.500-   7 3.24   3 3.42   1 3.42  24 3.42  19 3.42
  30  0.617  0.500  0.340-  56 1.68  57 2.09   2 3.25  26 3.25  17 3.36  11 3.36  47 3.42  21 3.42

  31  0.617  0.500  0.660-  20 3.25  45 3.25  18 3.36  12 3.36  54 3.42  42 3.42
  32  0.383  0.500  0.340-   4 3.25  22 3.25  13 3.36  15 3.36  43 3.42  28 3.42
  33  0.383  0.500  0.660-  25 3.25  40 3.25  14 3.36  16 3.36  53 3.42  44 3.42
  34  0.383  0.383  0.500-
  35  0.617  0.617  0.500-
  36  0.617  0.383  0.500-
  37  0.383  0.617  0.500-
  38  0.500  0.500  0.335-  56 2.53
  39  0.500  0.500  0.665-
  40  0.328  0.446  0.583-  33 3.25  25 3.25  16 3.36   8 3.36  44 3.42  48 3.42
  41  0.554  0.672  0.583-  46 3.25  51 3.25  10 3.36  18 3.36  54 3.42  55 3.42
  42  0.558  0.442  0.582-  12 3.24   6 3.42  24 3.42  31 3.42  45 3.42
  43  0.442  0.558  0.418-  13 3.24   4 3.42  32 3.42  27 3.42  50 3.42
  44  0.442  0.442  0.582-  16 3.24   6 3.42  19 3.42  33 3.42  40 3.42
  45  0.672  0.446  0.583-  20 3.25  31 3.25   9 3.36  12 3.36  49 3.42  42 3.42
  46  0.446  0.672  0.583-  41 3.25  51 3.25  10 3.36  14 3.36  53 3.42  55 3.42
  47  0.558  0.558  0.418-  17 3.24   2 3.42  30 3.42  23 3.42  50 3.42
  48  0.384  0.500  0.500-   8 3.24   4 3.42  22 3.42  25 3.42  40 3.42
  49  0.616  0.500  0.500-   9 3.24   2 3.42  26 3.42  20 3.42  45 3.42
  50  0.500  0.617  0.340-  27 3.25  23 3.25  13 3.36  17 3.36  43 3.42  47 3.42
  51  0.500  0.617  0.660-  41 3.25  46 3.25  14 3.36  18 3.36  53 3.42  54 3.42
  52  0.500  0.500  0.500-
  53  0.442  0.558  0.582-  14 3.24  25 3.42  33 3.42  51 3.42  46 3.42
  54  0.558  0.558  0.582-  18 3.24  31 3.42  20 3.42  51 3.42  41 3.42
  55  0.500  0.616  0.500-  10 3.24  23 3.42  27 3.42  41 3.42  46 3.42
  56  0.576  0.466  0.325-  57 1.13  30 1.68  38 2.53  11 2.61
  57  0.591  0.459  0.291-  56 1.13  30 2.09  11 2.69
 
  LATTYP: Found a simple cubic cell.
 ALAT       =    30.0000000000
  
  Lattice vectors:
  
 A1 = (  30.0000000000,   0.0000000000,   0.0000000000)
 A2 = (   0.0000000000,  30.0000000000,   0.0000000000)
 A3 = (   0.0000000000,   0.0000000000,  30.0000000000)


Analysis of symmetry for initial positions (statically):
=====================================================================
 Subroutine PRICEL returns:
 Original cell was already a primitive cell.
 

 Routine SETGRP: Setting up the symmetry group for a 
 simple cubic supercell.


 Subroutine GETGRP returns: Found  1 space group operations
 (whereof  1 operations were pure point group operations)
 out of a pool of 48 trial point group operations.


The static configuration has the point symmetry C_1 .


Analysis of symmetry for dynamics (positions and initial velocities):
=====================================================================
 Subroutine PRICEL returns:
 Original cell was already a primitive cell.
 

 Routine SETGRP: Setting up the symmetry group for a 
 simple cubic supercell.


 Subroutine GETGRP returns: Found  1 space group operations
 (whereof  1 operations were pure point group operations)
 out of a pool of 48 trial point group operations.


The dynamic configuration has the point symmetry C_1 .


Analysis of constrained symmetry for selective dynamics:
=====================================================================
 Subroutine PRICEL returns:
 Original cell was already a primitive cell.
 

 Routine SETGRP: Setting up the symmetry group for a 
 simple cubic supercell.


 Subroutine GETGRP returns: Found  1 space group operations
 (whereof  1 operations were pure point group operations)
 out of a pool of 48 trial point group operations.


The constrained configuration has the point symmetry C_1 .


 Subroutine INISYM returns: Found  1 space group operations
 (whereof  1 operations are pure point group operations),
 and found     1 'primitive' translations

 
 
 KPOINTS: K-points                                

Automatic generation of k-mesh.
Space group operators:
 irot       det(A)        alpha          n_x          n_y          n_z        tau_x        tau_y        tau_z
    1     1.000000     0.000000     1.000000     0.000000     0.000000     0.000000     0.000000     0.000000
 
 Subroutine IBZKPT returns following result:
 ===========================================
 
 Found      1 irreducible k-points:
 
 Following reciprocal coordinates:
            Coordinates               Weight
  0.000000  0.000000  0.000000      1.000000
 
 Following cartesian coordinates:
            Coordinates               Weight
  0.000000  0.000000  0.000000      1.000000
 


--------------------------------------------------------------------------------------------------------




 Dimension of arrays:
   k-points           NKPTS =      1   k-points in BZ     NKDIM =      1   number of bands    NBANDS=    336
   number of dos      NEDOS =    301   number of ions     NIONS =     57
   non local maximal  LDIM  =      6   non local SUM 2l+1 LMDIM =     18
   total plane-waves  NPLWV = ******
   max r-space proj   IRMAX =   1847   max aug-charges    IRDMAX=   6262
   dimension x,y,z NGX =   150 NGY =  150 NGZ =  150
   dimension x,y,z NGXF=   300 NGYF=  300 NGZF=  300
   support grid    NGXF=   300 NGYF=  300 NGZF=  300
   ions per type =              55   1   1
   NGX,Y,Z   is equivalent  to a cutoff of   8.31,  8.31,  8.31 a.u.
   NGXF,Y,Z  is equivalent  to a cutoff of  16.62, 16.62, 16.62 a.u.

 SYSTEM =  6_Pd100_top_free_z(O)                   
 POSCAR =  Pd55PES                                 

 Startparameter for this run:
   NWRITE =      2    write-flag & timer
   PREC   = normal    normal or accurate (medium, high low for compatibility)
   ISTART =      0    job   : 0-new  1-cont  2-samecut
   ICHARG =      2    charge: 1-file 2-atom 10-const
   ISPIN  =      1    spin polarized calculation?
   LNONCOLLINEAR =      F non collinear calculations
   LSORBIT =      F    spin-orbit coupling
   INIWAV =      1    electr: 0-lowe 1-rand  2-diag
   LASPH  =      F    aspherical Exc in radial PAW
   METAGGA=      F    non-selfconsistent MetaGGA calc.

 Electronic Relaxation 1
   ENCUT  =  400.0 eV  29.40 Ry    5.42 a.u.  48.92 48.92 48.92*2*pi/ulx,y,z
   ENINI  =  400.0     initial cutoff
   ENAUG  =  644.9 eV  augmentation charge cutoff
   NELM   =    100;   NELMIN=  6; NELMDL= -5     # of ELM steps 
   EDIFF  = 0.1E-03   stopping-criterion for ELM
   LREAL  =      T    real-space projection
   NLSPLINE    = F    spline interpolate recip. space projectors
   LCOMPAT=      F    compatible to vasp.4.4
   GGA_COMPAT  = T    GGA compatible to vasp.4.4-vasp.4.6
   LMAXPAW     = -100 max onsite density
   LMAXMIX     =    2 max onsite mixed and CHGCAR
   VOSKOWN=      0    Vosko Wilk Nusair interpolation
   ROPT   =   -0.00050  -0.00050  -0.00050
 Ionic relaxation
   EDIFFG = -.5E-01   stopping-criterion for IOM
   NSW    =      0    number of steps for IOM
   NBLOCK =      1;   KBLOCK =      1    inner block; outer block 
   IBRION =     -1    ionic relax: 0-MD 1-quasi-New 2-CG
   NFREE  =      1    steps in history (QN), initial steepest desc. (CG)
   ISIF   =      2    stress and relaxation
   IWAVPR =     10    prediction:  0-non 1-charg 2-wave 3-comb
   ISYM   =      2    0-nonsym 1-usesym 2-fastsym
   LCORR  =      T    Harris-Foulkes like correction to forces

   POTIM  = 0.5000    time-step for ionic-motion
   TEIN   =    0.0    initial temperature
   TEBEG  =    0.0;   TEEND  =   0.0 temperature during run
   SMASS  =  -3.00    Nose mass-parameter (am)
   estimated Nose-frequenzy (Omega)   =  0.10E-29 period in steps =****** mass=  -0.206E-25a.u.
   SCALEE = 1.0000    scale energy and forces
   NPACO  =    256;   APACO  = 16.0  distance and # of slots for P.C.
   PSTRESS=    0.0 pullay stress

  Mass of Ions in am
   POMASS = 106.42 12.01 16.00
  Ionic Valenz
   ZVAL   =  10.00  4.00  6.00
  Atomic Wigner-Seitz radii
   RWIGS  =  -1.00 -1.00 -1.00
  virtual crystal weights 
   VCA    =   1.00  1.00  1.00
   NELECT =     560.0000    total number of electrons
   NUPDOWN=      -1.0000    fix difference up-down

 DOS related values:
   EMIN   =  10.00;   EMAX   =-10.00  energy-range for DOS
   EFERMI =   0.00
   ISMEAR =     2;   SIGMA  =   0.20  broadening in eV -4-tet -1-fermi 0-gaus

 Electronic relaxation 2 (details)
   IALGO  =     68    algorithm
   LDIAG  =      T    sub-space diagonalisation (order eigenvalues)
   LSUBROT=      F    optimize rotation matrix (better conditioning)
   TURBO    =      0    0=normal 1=particle mesh
   IRESTART =      0    0=no restart 2=restart with 2 vectors
   NREBOOT  =      0    no. of reboots
   NMIN     =      0    reboot dimension
   EREF     =   0.00    reference energy to select bands
   IMIX   =      4    mixing-type and parameters
     AMIX     =   0.40;   BMIX     =  1.00
     AMIX_MAG =   1.60;   BMIX_MAG =  1.00
     AMIN     =   0.10
     WC   =   100.;   INIMIX=   1;  MIXPRE=   1;  MAXMIX= -45

 Intra band minimization:
   WEIMIN = 0.0000     energy-eigenvalue tresh-hold
   EBREAK =  0.74E-07  absolut break condition
   DEPER  =   0.30     relativ break condition  

   TIME   =   0.40     timestep for ELM

  volume/ion in A,a.u.               =     473.68      3196.58
  Fermi-wavevector in a.u.,A,eV,Ry     =   0.449797  0.849992  2.752691  0.202317
  Thomas-Fermi vector in A             =   1.430086
 
 Write flags
   LWAVE        =      F    write WAVECAR
   LDOWNSAMPLE  =      F    k-point downsampling of WAVECAR
   LCHARG       =      F    write CHGCAR
   LVTOT        =      F    write LOCPOT, total local potential
   LVHAR        =      F    write LOCPOT, Hartree potential only
   LELF         =      F    write electronic localiz. function (ELF)
   LORBIT       =      0    0 simple, 1 ext, 2 COOP (PROOUT), +10 PAW based schemes


 Dipole corrections
   LMONO  =      F    monopole corrections only (constant potential shift)
   LDIPOL =      F    correct potential (dipole corrections)
   IDIPOL =      0    1-x, 2-y, 3-z, 4-all directions 
   EPSILON=  1.0000000 bulk dielectric constant

 Exchange correlation treatment:
   GGA     =    RP    GGA type
   LEXCH   =     9    internal setting for exchange type
   VOSKOWN=      0    Vosko Wilk Nusair interpolation
   LHFCALC =     F    Hartree Fock is set to
   LHFONE  =     F    Hartree Fock one center treatment
   AEXX    =    0.0000 exact exchange contribution

 Linear response parameters
   LEPSILON=     F    determine dielectric tensor
   LRPA    =     F    only Hartree local field effects (RPA)
   LNABLA  =     F    use nabla operator in PAW spheres
   LVEL    =     F    velocity operator in full k-point grid
   LINTERFAST=   F  fast interpolation
   KINTER  =     0    interpolate to denser k-point grid
   CSHIFT  =0.1000    complex shift for real part using Kramers Kronig
   OMEGAMAX=  -1.0    maximum frequency
   DEG_THRESHOLD= 0.2000000E-02 threshold for treating states as degnerate
   RTIME   =   -0.100 relaxation time in fs
  (WPLASMAI=    0.000 imaginary part of plasma frequency in eV, 0.658/RTIME)
   DFIELD  = 0.0000000 0.0000000 0.0000000 field for delta impulse in time
 
 Orbital magnetization related:
   ORBITALMAG=     F  switch on orbital magnetization
   LCHIMAG   =     F  perturbation theory with respect to B field
   DQ        =  0.001000  dq finite difference perturbation B field
   LLRAUG    =     F  two centre corrections for induced B field



--------------------------------------------------------------------------------------------------------


 Static calculation
 charge density and potential will be updated during run
 non-spin polarized calculation
 RMM-DIIS sequential band-by-band and
  variant of blocked Davidson during initial phase
 perform sub-space diagonalisation
    before iterative eigenvector-optimisation
 modified Broyden-mixing scheme, WC =      100.0
 initial mixing is a Kerker type mixing with AMIX =  0.4000 and BMIX =      1.0000
 Hartree-type preconditioning will be used
 using additional bands           56
 real space projection scheme for non local part
 use partial core corrections
 calculate Harris-corrections to forces 
   (improved forces if not selfconsistent)
 use gradient corrections 
 use of overlap-Matrix (Vanderbilt PP)
 Methfessel and Paxton  Order N= 2 SIGMA  =   0.20


--------------------------------------------------------------------------------------------------------


  energy-cutoff  :      400.00
  volume of cell :    27000.00
      direct lattice vectors                 reciprocal lattice vectors
    30.000000000  0.000000000  0.000000000     0.033333333  0.000000000  0.000000000
     0.000000000 30.000000000  0.000000000     0.000000000  0.033333333  0.000000000
     0.000000000  0.000000000 30.000000000     0.000000000  0.000000000  0.033333333

  length of vectors
    30.000000000 30.000000000 30.000000000     0.033333333  0.033333333  0.033333333


 
 k-points in units of 2pi/SCALE and weight: K-points                                
   0.00000000  0.00000000  0.00000000       1.000
 
 k-points in reciprocal lattice and weights: K-points                                
   0.00000000  0.00000000  0.00000000       1.000
 
 position of ions in fractional coordinates (direct lattice) 
   0.44576020  0.32826710  0.41691983
   0.67173288  0.55423978  0.41691983
   0.55423980  0.32826710  0.41691983
   0.32826712  0.55423978  0.41691983
   0.50000000  0.38250690  0.34021317
   0.50000000  0.38250690  0.65978680
   0.50000000  0.27609440  0.50000000
   0.27609443  0.49999998  0.50000000
   0.72390557  0.49999998  0.50000000
   0.50000000  0.72390555  0.50000000
   0.61195280  0.38804720  0.34167483
   0.61195280  0.38804720  0.65832513
   0.38804722  0.61195278  0.34167483
   0.38804722  0.61195278  0.65832513
   0.38804720  0.38804720  0.34167483
   0.38804720  0.38804720  0.65832513
   0.61195278  0.61195278  0.34167483
   0.61195278  0.61195278  0.65832513
   0.44576020  0.32826710  0.58308023
   0.67173288  0.55423978  0.58308023
   0.55791699  0.44208301  0.41809300
   0.32826705  0.44576024  0.41691983
   0.55423973  0.67173293  0.41691983
   0.55423980  0.32826710  0.58308023
   0.32826712  0.55423978  0.58308023
   0.67173295  0.44576024  0.41691983
   0.44576027  0.67173293  0.41691983
   0.44208301  0.44208301  0.41809300
   0.50000000  0.38416601  0.50000000
   0.61749315  0.50000005  0.34021317
   0.61749315  0.50000005  0.65978680
   0.38250685  0.50000005  0.34021317
   0.38250685  0.50000005  0.65978680
   0.38317830  0.38317830  0.50000000
   0.61682172  0.61682172  0.50000000
   0.61682170  0.38317830  0.50000000
   0.38317828  0.61682172  0.50000000
   0.50000000  0.50000000  0.33478917
   0.50000000  0.50000000  0.66521087
   0.32826705  0.44576024  0.58308023
   0.55423973  0.67173293  0.58308023
   0.55791699  0.44208301  0.58190703
   0.44208298  0.55791702  0.41809300
   0.44208301  0.44208301  0.58190703
   0.67173295  0.44576024  0.58308023
   0.44576027  0.67173293  0.58308023
   0.55791702  0.55791702  0.41809300
   0.38416599  0.50000002  0.50000000
   0.61583401  0.50000002  0.50000000
   0.50000000  0.61749319  0.34021317
   0.50000000  0.61749319  0.65978680
   0.50000000  0.50000000  0.50000000
   0.44208298  0.55791702  0.58190703
   0.55791702  0.55791702  0.58190703
   0.50000000  0.61583404  0.50000000
   0.57618717  0.46553903  0.32468423
   0.59093537  0.45886813  0.29074680
 
 position of ions in cartesian coordinates  (Angst):
  13.37280588  9.84801292 12.50759500
  20.15198637 16.62719342 12.50759500
  16.62719412  9.84801292 12.50759500
   9.84801363 16.62719342 12.50759500
  15.00000000 11.47520705 10.20639500
  15.00000000 11.47520705 19.79360400
  15.00000000  8.28283206 15.00000000
   8.28283277 14.99999929 15.00000000
  21.71716723 14.99999929 15.00000000
  15.00000000 21.71716652 14.99999999
  18.35858397 11.64141603 10.25024500
  18.35858397 11.64141603 19.74975399
  11.64141674 18.35858326 10.25024500
  11.64141674 18.35858326 19.74975400
  11.64141603 11.64141603 10.25024500
  11.64141603 11.64141603 19.74975400
  18.35858326 18.35858326 10.25024500
  18.35858326 18.35858326 19.74975400
  13.37280588  9.84801291 17.49240700
  20.15198638 16.62719341 17.49240700
  16.73750985 13.26249015 12.54279000
   9.84801151 13.37280729 12.50759500
  16.62719200 20.15198779 12.50759500
  16.62719412  9.84801292 17.49240700
   9.84801363 16.62719342 17.49240700
  20.15198849 13.37280729 12.50759500
  13.37280800 20.15198779 12.50759500
  13.26249015 13.26249015 12.54279000
  15.00000000 11.52498029 15.00000000
  18.52479437 15.00000140 10.20639500
  18.52479437 15.00000141 19.79360400
  11.47520562 15.00000141 10.20639501
  11.47520563 15.00000141 19.79360400
  11.49534898 11.49534898 15.00000000
  18.50465172 18.50465172 15.00000000
  18.50465102 11.49534898 15.00000000
  11.49534828 18.50465172 15.00000000
  15.00000000 15.00000000 10.04367500
  15.00000000 15.00000000 19.95632599
   9.84801151 13.37280729 17.49240700
  16.62719200 20.15198779 17.49240700
  16.73750985 13.26249015 17.45721100
  13.26248944 16.73751056 12.54279001
  13.26249015 13.26249015 17.45721100
  20.15198849 13.37280729 17.49240699
  13.37280800 20.15198779 17.49240700
  16.73751056 16.73751056 12.54279000
  11.52497959 15.00000071 15.00000000
  18.47502041 15.00000071 15.00000000
  14.99999999 18.52479579 10.20639500
  15.00000000 18.52479578 19.79360400
  15.00000000 15.00000000 15.00000000
  13.26248944 16.73751057 17.45721101
  16.73751056 16.73751057 17.45721100
  15.00000000 18.47502112 15.00000000
  17.28561500 13.96617100  9.74052700
  17.72806100 13.76604400  8.72240400
 


--------------------------------------------------------------------------------------------------------


 k-point  1 :   0.0000 0.0000 0.0000  plane waves:  490521

 maximum and minimum number of plane-waves per node :    490521   490521

 maximum number of plane-waves:    490521
 maximum index in each direction: 
   IXMAX=   48   IYMAX=   48   IZMAX=   48
   IXMIN=  -48   IYMIN=  -48   IZMIN=  -48


 serial   3D FFT for wavefunctions
 parallel 3D FFT for charge:
    minimum data exchange during FFTs selected (reduces bandwidth)


 total amount of memory used by VASP MPI-rank0  5486941. kBytes
=======================================================================

   base      :      30000. kBytes
   nonlr-proj:      17126. kBytes
   fftplans  :     924480. kBytes
   grid      :    1872000. kBytes
   one-center:        886. kBytes
   wavefun   :    2642449. kBytes
 
     INWAV:  cpu time    0.0001: real time    0.0003
 Broyden mixing: mesh for mixing (old mesh)
   NGX = 97   NGY = 97   NGZ = 97
  (NGX  =300   NGY  =300   NGZ  =300)
  gives a total of 912673 points

 initial charge density was supplied:
 charge density of overlapping atoms calculated
 number of electron     560.0000000 magnetization 
 keeping initial charge density in first step


--------------------------------------------------------------------------------------------------------


 Maximum index for non-local projection operator         1763
 Maximum index for augmentation-charges         5898 (set IRDMAX)


--------------------------------------------------------------------------------------------------------


 First call to EWALD:  gamma=   0.059
 Maximum number of real-space cells 3x 3x 3
 Maximum number of reciprocal cells 3x 3x 3

    FEWALD:  cpu time    0.0150: real time    0.0150


--------------------------------------- Iteration      1(   1)  ---------------------------------------


    POTLOK:  cpu time   14.1697: real time   14.1749
    SETDIJ:  cpu time    0.1171: real time    0.1171
     EDDAV:  cpu time  359.1884: real time  359.2615
       DOS:  cpu time    0.0013: real time    0.0013
    --------------------------------------------
      LOOP:  cpu time  373.4765: real time  373.5547

 eigenvalue-minimisations  :   688
 total energy-change (2. order) : 0.4403936E+04  (-0.1005720E+05)
 number of electron     560.0000000 magnetization 
 augmentation part      560.0000000 magnetization 

 Free energy of the ion-electron system (eV)
  ---------------------------------------------------
  alpha Z        PSCENC =        75.25431677
  Ewald energy   TEWEN  =    140037.94472966
  -Hartree energ DENC   =   -183381.55434221
  -exchange      EXHF   =         0.00000000
  -V(xc)+E(xc)   XCENC  =     -1701.26729688
  PAW double counting   =     44873.02882129   -41398.84523641
  entropy T*S    EENTRO =         0.03609888
  eigenvalues    EBANDS =       812.83352303
  atomic energy  EATOM  =     45086.50549395
  Solvation  Ediel_sol  =         0.00000000
  ---------------------------------------------------
  free energy    TOTEN  =      4403.93610808 eV

  energy without entropy =     4403.90000920  energy(sigma->0) =     4403.92708336


--------------------------------------------------------------------------------------------------------




--------------------------------------- Iteration      1(   2)  ---------------------------------------


     EDDAV:  cpu time  584.1390: real time  584.1580
       DOS:  cpu time    0.0013: real time    0.0013
    --------------------------------------------
      LOOP:  cpu time  584.1403: real time  584.1593

 eigenvalue-minimisations  :  1224
 total energy-change (2. order) :-0.2393711E+04  (-0.2154078E+04)
 number of electron     560.0000000 magnetization 
 augmentation part      560.0000000 magnetization 

 Free energy of the ion-electron system (eV)
  ---------------------------------------------------
  alpha Z        PSCENC =        75.25431677
  Ewald energy   TEWEN  =    140037.94472966
  -Hartree energ DENC   =   -183381.55434221
  -exchange      EXHF   =         0.00000000
  -V(xc)+E(xc)   XCENC  =     -1701.26729688
  PAW double counting   =     44873.02882129   -41398.84523641
  entropy T*S    EENTRO =        -0.03008679
  eigenvalues    EBANDS =     -1580.81174901
  atomic energy  EATOM  =     45086.50549395
  Solvation  Ediel_sol  =         0.00000000
  ---------------------------------------------------
  free energy    TOTEN  =      2010.22465037 eV

  energy without entropy =     2010.25473716  energy(sigma->0) =     2010.23217207


--------------------------------------------------------------------------------------------------------




--------------------------------------- Iteration      1(   3)  ---------------------------------------


     EDDAV:  cpu time  495.1385: real time  495.1505
       DOS:  cpu time    0.0012: real time    0.0012
    --------------------------------------------
      LOOP:  cpu time  495.1396: real time  495.1517

 eigenvalue-minimisations  :   992
 total energy-change (2. order) :-0.1768782E+04  (-0.1666234E+04)
 number of electron     560.0000000 magnetization 
 augmentation part      560.0000000 magnetization 

 Free energy of the ion-electron system (eV)
  ---------------------------------------------------
  alpha Z        PSCENC =        75.25431677
  Ewald energy   TEWEN  =    140037.94472966
  -Hartree energ DENC   =   -183381.55434221
  -exchange      EXHF   =         0.00000000
  -V(xc)+E(xc)   XCENC  =     -1701.26729688
  PAW double counting   =     44873.02882129   -41398.84523641
  entropy T*S    EENTRO =        -0.01903635
  eigenvalues    EBANDS =     -3349.60459412
  atomic energy  EATOM  =     45086.50549395
  Solvation  Ediel_sol  =         0.00000000
  ---------------------------------------------------
  free energy    TOTEN  =       241.44285569 eV

  energy without entropy =      241.46189205  energy(sigma->0) =      241.44761478


--------------------------------------------------------------------------------------------------------




--------------------------------------- Iteration      1(   4)  ---------------------------------------


     EDDAV:  cpu time  440.1216: real time  440.1361
       DOS:  cpu time    0.0011: real time    0.0011
    --------------------------------------------
      LOOP:  cpu time  440.1227: real time  440.1372

 eigenvalue-minimisations  :   848
 total energy-change (2. order) :-0.3747596E+03  (-0.3176725E+03)
 number of electron     560.0000000 magnetization 
 augmentation part      560.0000000 magnetization 

 Free energy of the ion-electron system (eV)
  ---------------------------------------------------
  alpha Z        PSCENC =        75.25431677
  Ewald energy   TEWEN  =    140037.94472966
  -Hartree energ DENC   =   -183381.55434221
  -exchange      EXHF   =         0.00000000
  -V(xc)+E(xc)   XCENC  =     -1701.26729688
  PAW double counting   =     44873.02882129   -41398.84523641
  entropy T*S    EENTRO =         0.01801321
  eigenvalues    EBANDS =     -3724.40128616
  atomic energy  EATOM  =     45086.50549395
  Solvation  Ediel_sol  =         0.00000000
  ---------------------------------------------------
  free energy    TOTEN  =      -133.31678678 eV

  energy without entropy =     -133.33480000  energy(sigma->0) =     -133.32129009


--------------------------------------------------------------------------------------------------------




--------------------------------------- Iteration      1(   5)  ---------------------------------------


     EDDAV:  cpu time  524.0974: real time  524.1120
       DOS:  cpu time    0.0014: real time    0.0014
    CHARGE:  cpu time   26.2542: real time   26.2545
    MIXING:  cpu time    0.4359: real time    0.4359
    --------------------------------------------
      LOOP:  cpu time  550.7889: real time  550.8039

 eigenvalue-minimisations  :  1048
 total energy-change (2. order) :-0.4547809E+02  (-0.3768088E+02)
 number of electron     559.9999859 magnetization 
 augmentation part      245.0744242 magnetization 

 Broyden mixing:
  rms(total) = 0.20721E+01    rms(broyden)= 0.20715E+01
  rms(prec ) = 0.21556E+01
  weight for this iteration     100.00

 Free energy of the ion-electron system (eV)
  ---------------------------------------------------
  alpha Z        PSCENC =        75.25431677
  Ewald energy   TEWEN  =    140037.94472966
  -Hartree energ DENC   =   -183381.55434221
  -exchange      EXHF   =         0.00000000
  -V(xc)+E(xc)   XCENC  =     -1701.26729688
  PAW double counting   =     44873.02882129   -41398.84523641
  entropy T*S    EENTRO =         0.49541078
  eigenvalues    EBANDS =     -3770.35677246
  atomic energy  EATOM  =     45086.50549395
  Solvation  Ediel_sol  =         0.00000000
  ---------------------------------------------------
  free energy    TOTEN  =      -178.79487551 eV

  energy without entropy =     -179.29028629  energy(sigma->0) =     -178.91872821


--------------------------------------------------------------------------------------------------------




--------------------------------------- Iteration      1(   6)  ---------------------------------------


    POTLOK:  cpu time   13.7162: real time   13.7182
    SETDIJ:  cpu time    0.1260: real time    0.1260
    EDDIAG:  cpu time   70.6704: real time   70.6733
  RMM-DIIS:  cpu time  193.2821: real time  193.2859
    ORTHCH:  cpu time   13.7100: real time   13.7100
       DOS:  cpu time    0.0015: real time    0.0015
    CHARGE:  cpu time   26.1648: real time   26.1684
    MIXING:  cpu time    0.4788: real time    0.4788
    --------------------------------------------
      LOOP:  cpu time  318.1499: real time  318.1620

 eigenvalue-minimisations  :   731
 total energy-change (2. order) : 0.9745355E+00  (-0.6395442E+01)
 number of electron     559.9999885 magnetization 
 augmentation part      240.8350253 magnetization 

 Broyden mixing:
  rms(total) = 0.22831E+01    rms(broyden)= 0.22829E+01
  rms(prec ) = 0.25966E+01
  weight for this iteration     100.00

 eigenvalues of (default mixing * dielectric matrix)
  average eigenvalue GAMMA=   0.4691
  0.4691

 Free energy of the ion-electron system (eV)
  ---------------------------------------------------
  alpha Z        PSCENC =        75.25431677
  Ewald energy   TEWEN  =    140037.94472966
  -Hartree energ DENC   =   -183792.59892110
  -exchange      EXHF   =         0.00000000
  -V(xc)+E(xc)   XCENC  =     -1694.76016401
  PAW double counting   =     45718.89341424   -42218.64229480
  entropy T*S    EENTRO =        -0.22395048
  eigenvalues    EBANDS =     -3390.19296427
  atomic energy  EATOM  =     45086.50549395
  Solvation  Ediel_sol  =         0.00000000
  ---------------------------------------------------
  free energy    TOTEN  =      -177.82034003 eV

  energy without entropy =     -177.59638955  energy(sigma->0) =     -177.76435241


--------------------------------------------------------------------------------------------------------




--------------------------------------- Iteration      1(   7)  ---------------------------------------


    POTLOK:  cpu time   13.6490: real time   13.6501
    SETDIJ:  cpu time    0.1220: real time    0.1220
    EDDIAG:  cpu time   70.4296: real time   70.4343
  RMM-DIIS:  cpu time  219.4056: real time  219.4136
    ORTHCH:  cpu time   13.9466: real time   13.9466
       DOS:  cpu time    0.0014: real time    0.0014
    CHARGE:  cpu time   26.3327: real time   26.3327
    MIXING:  cpu time    0.4788: real time    0.4788
    --------------------------------------------
      LOOP:  cpu time  344.3657: real time  344.3795

 eigenvalue-minimisations  :   831
 total energy-change (2. order) :-0.6211364E+01  (-0.2603678E+01)
 number of electron     559.9999834 magnetization 
 augmentation part      239.7367319 magnetization 

 Broyden mixing:
  rms(total) = 0.27499E+01    rms(broyden)= 0.27497E+01
  rms(prec ) = 0.33316E+01
  weight for this iteration     100.00

 eigenvalues of (default mixing * dielectric matrix)
  average eigenvalue GAMMA=   0.4411
  0.7043  0.1779

 Free energy of the ion-electron system (eV)
  ---------------------------------------------------
  alpha Z        PSCENC =        75.25431677
  Ewald energy   TEWEN  =    140037.94472966
  -Hartree energ DENC   =   -183913.75185142
  -exchange      EXHF   =         0.00000000
  -V(xc)+E(xc)   XCENC  =     -1695.01034564
  PAW double counting   =     45843.76412735   -42339.88857270
  entropy T*S    EENTRO =        -0.21398525
  eigenvalues    EBANDS =     -3278.63561718
  atomic energy  EATOM  =     45086.50549395
  Solvation  Ediel_sol  =         0.00000000
  ---------------------------------------------------
  free energy    TOTEN  =      -184.03170445 eV

  energy without entropy =     -183.81771920  energy(sigma->0) =     -183.97820814


--------------------------------------------------------------------------------------------------------




--------------------------------------- Iteration      1(   8)  ---------------------------------------


    POTLOK:  cpu time   13.7261: real time   13.7276
    SETDIJ:  cpu time    0.1234: real time    0.1234
    EDDIAG:  cpu time   70.5743: real time   70.5751
  RMM-DIIS:  cpu time  205.2613: real time  205.2680
    ORTHCH:  cpu time   14.0377: real time   14.0379
       DOS:  cpu time    0.0014: real time    0.0014
    CHARGE:  cpu time   26.4873: real time   26.4878
    MIXING:  cpu time    0.5141: real time    0.5141
    --------------------------------------------
      LOOP:  cpu time  330.7257: real time  330.7354

 eigenvalue-minimisations  :   776
 total energy-change (2. order) :-0.3578513E+01  (-0.1251210E+01)
 number of electron     559.9999847 magnetization 
 augmentation part      239.4952995 magnetization 

 Broyden mixing:
  rms(total) = 0.33777E+01    rms(broyden)= 0.33774E+01
  rms(prec ) = 0.39306E+01
  weight for this iteration     100.00

 eigenvalues of (default mixing * dielectric matrix)
  average eigenvalue GAMMA=   0.4143
  0.9275  0.1639  0.1515

 Free energy of the ion-electron system (eV)
  ---------------------------------------------------
  alpha Z        PSCENC =        75.25431677
  Ewald energy   TEWEN  =    140037.94472966
  -Hartree energ DENC   =   -183943.61858972
  -exchange      EXHF   =         0.00000000
  -V(xc)+E(xc)   XCENC  =     -1695.15208485
  PAW double counting   =     45940.10301517   -42433.78625912
  entropy T*S    EENTRO =         0.04645564
  eigenvalues    EBANDS =     -3254.90729529
  atomic energy  EATOM  =     45086.50549395
  Solvation  Ediel_sol  =         0.00000000
  ---------------------------------------------------
  free energy    TOTEN  =      -187.61021778 eV

  energy without entropy =     -187.65667342  energy(sigma->0) =     -187.62183169


--------------------------------------------------------------------------------------------------------




--------------------------------------- Iteration      1(   9)  ---------------------------------------


    POTLOK:  cpu time   13.7635: real time   13.7665
    SETDIJ:  cpu time    0.1229: real time    0.1229
    EDDIAG:  cpu time   70.9186: real time   70.9212
  RMM-DIIS:  cpu time  193.9057: real time  193.9097
    ORTHCH:  cpu time   13.9220: real time   13.9220
       DOS:  cpu time    0.0014: real time    0.0014
    CHARGE:  cpu time   26.2757: real time   26.2759
    MIXING:  cpu time    0.5526: real time    0.5526
    --------------------------------------------
      LOOP:  cpu time  319.4623: real time  319.4723

 eigenvalue-minimisations  :   735
 total energy-change (2. order) : 0.2540950E+01  (-0.1041673E+01)
 number of electron     559.9999824 magnetization 
 augmentation part      240.6423368 magnetization 

 Broyden mixing:
  rms(total) = 0.27725E+01    rms(broyden)= 0.27721E+01
  rms(prec ) = 0.31606E+01
  weight for this iteration     100.00

 eigenvalues of (default mixing * dielectric matrix)
  average eigenvalue GAMMA=   0.3890
  1.0675  0.1762  0.1762  0.1359

 Free energy of the ion-electron system (eV)
  ---------------------------------------------------
  alpha Z        PSCENC =        75.25431677
  Ewald energy   TEWEN  =    140037.94472966
  -Hartree energ DENC   =   -183943.29893956
  -exchange      EXHF   =         0.00000000
  -V(xc)+E(xc)   XCENC  =     -1695.24308415
  PAW double counting   =     46027.12398413   -42518.81208965
  entropy T*S    EENTRO =        -0.23175448
  eigenvalues    EBANDS =     -3254.31192493
  atomic energy  EATOM  =     45086.50549395
  Solvation  Ediel_sol  =         0.00000000
  ---------------------------------------------------
  free energy    TOTEN  =      -185.06926826 eV

  energy without entropy =     -184.83751378  energy(sigma->0) =     -185.01132964


--------------------------------------------------------------------------------------------------------




--------------------------------------- Iteration      1(  10)  ---------------------------------------


    POTLOK:  cpu time   13.6749: real time   13.6799
    SETDIJ:  cpu time    0.1241: real time    0.1241
    EDDIAG:  cpu time   70.5986: real time   70.5995
  RMM-DIIS:  cpu time  192.2145: real time  192.2197
    ORTHCH:  cpu time   13.9340: real time   13.9340
       DOS:  cpu time    0.0014: real time    0.0014
    CHARGE:  cpu time   26.3780: real time   26.3781
    MIXING:  cpu time    0.6397: real time    0.6397
    --------------------------------------------
      LOOP:  cpu time  317.5652: real time  317.5765

 eigenvalue-minimisations  :   731
 total energy-change (2. order) : 0.3779221E+01  (-0.6102345E+00)
 number of electron     559.9999844 magnetization 
 augmentation part      241.4981876 magnetization 

 Broyden mixing:
  rms(total) = 0.29612E+01    rms(broyden)= 0.29608E+01
  rms(prec ) = 0.34166E+01
  weight for this iteration     100.00

 eigenvalues of (default mixing * dielectric matrix)
  average eigenvalue GAMMA=   0.3569
  1.1634  0.1899  0.1675  0.1675  0.0961

 Free energy of the ion-electron system (eV)
  ---------------------------------------------------
  alpha Z        PSCENC =        75.25431677
  Ewald energy   TEWEN  =    140037.94472966
  -Hartree energ DENC   =   -183982.94949491
  -exchange      EXHF   =         0.00000000
  -V(xc)+E(xc)   XCENC  =     -1695.20027276
  PAW double counting   =     46097.16414786   -42587.23830431
  entropy T*S    EENTRO =        -0.06273144
  eigenvalues    EBANDS =     -3212.70793198
  atomic energy  EATOM  =     45086.50549395
  Solvation  Ediel_sol  =         0.00000000
  ---------------------------------------------------
  free energy    TOTEN  =      -181.29004717 eV

  energy without entropy =     -181.22731572  energy(sigma->0) =     -181.27436431


--------------------------------------------------------------------------------------------------------




--------------------------------------- Iteration      1(  11)  ---------------------------------------


    POTLOK:  cpu time   13.6204: real time   13.6234
    SETDIJ:  cpu time    0.1243: real time    0.1243
    EDDIAG:  cpu time   70.9280: real time   70.9372
  RMM-DIIS:  cpu time  191.2577: real time  191.2600
    ORTHCH:  cpu time   13.9691: real time   13.9692
       DOS:  cpu time    0.0015: real time    0.0015
    CHARGE:  cpu time   26.2292: real time   26.2294
    MIXING:  cpu time    0.6283: real time    0.6283
    --------------------------------------------
      LOOP:  cpu time  316.7585: real time  316.7733

 eigenvalue-minimisations  :   723
 total energy-change (2. order) : 0.3262038E+01  (-0.3914349E+00)
 number of electron     559.9999883 magnetization 
 augmentation part      241.7910918 magnetization 

 Broyden mixing:
  rms(total) = 0.19342E+01    rms(broyden)= 0.19339E+01
  rms(prec ) = 0.22034E+01
  weight for this iteration     100.00

 eigenvalues of (default mixing * dielectric matrix)
  average eigenvalue GAMMA=   0.3485
  1.2708  0.2216  0.2216  0.1471  0.1471  0.0831

 Free energy of the ion-electron system (eV)
  ---------------------------------------------------
  alpha Z        PSCENC =        75.25431677
  Ewald energy   TEWEN  =    140037.94472966
  -Hartree energ DENC   =   -184004.13247712
  -exchange      EXHF   =         0.00000000
  -V(xc)+E(xc)   XCENC  =     -1695.05347316
  PAW double counting   =     46144.03421616   -42632.73168941
  entropy T*S    EENTRO =        -0.05902122
  eigenvalues    EBANDS =     -3189.79010435
  atomic energy  EATOM  =     45086.50549395
  Solvation  Ediel_sol  =         0.00000000
  ---------------------------------------------------
  free energy    TOTEN  =      -178.02800872 eV

  energy without entropy =     -177.96898750  energy(sigma->0) =     -178.01325342


--------------------------------------------------------------------------------------------------------




--------------------------------------- Iteration      1(  12)  ---------------------------------------


    POTLOK:  cpu time   13.7718: real time   13.7755
    SETDIJ:  cpu time    0.1257: real time    0.1257
    EDDIAG:  cpu time   70.7623: real time   70.7633
  RMM-DIIS:  cpu time  187.5760: real time  187.5831
    ORTHCH:  cpu time   13.9384: real time   13.9383
       DOS:  cpu time    0.0014: real time    0.0014
    CHARGE:  cpu time   26.2085: real time   26.2086
    MIXING:  cpu time    0.6905: real time    0.6905
    --------------------------------------------
      LOOP:  cpu time  313.0746: real time  313.0864

 eigenvalue-minimisations  :   710
 total energy-change (2. order) : 0.8453940E+00  (-0.3275405E+00)
 number of electron     559.9999851 magnetization 
 augmentation part      241.9480752 magnetization 

 Broyden mixing:
  rms(total) = 0.23788E+01    rms(broyden)= 0.23785E+01
  rms(prec ) = 0.28953E+01
  weight for this iteration     100.00

 eigenvalues of (default mixing * dielectric matrix)
  average eigenvalue GAMMA=   0.3302
  1.3279  0.2650  0.2650  0.1425  0.1425  0.0842  0.0842

 Free energy of the ion-electron system (eV)
  ---------------------------------------------------
  alpha Z        PSCENC =        75.25431677
  Ewald energy   TEWEN  =    140037.94472966
  -Hartree energ DENC   =   -184027.12710996
  -exchange      EXHF   =         0.00000000
  -V(xc)+E(xc)   XCENC  =     -1694.72927989
  PAW double counting   =     46196.23284650   -42683.14651890
  entropy T*S    EENTRO =         0.01810308
  eigenvalues    EBANDS =     -3168.13519597
  atomic energy  EATOM  =     45086.50549395
  Solvation  Ediel_sol  =         0.00000000
  ---------------------------------------------------
  free energy    TOTEN  =      -177.18261476 eV

  energy without entropy =     -177.20071784  energy(sigma->0) =     -177.18714053


--------------------------------------------------------------------------------------------------------




--------------------------------------- Iteration      1(  13)  ---------------------------------------


    POTLOK:  cpu time   13.8419: real time   13.8446
    SETDIJ:  cpu time    0.1255: real time    0.1255
    EDDIAG:  cpu time   70.9751: real time   70.9756
  RMM-DIIS:  cpu time  191.1316: real time  191.1352
    ORTHCH:  cpu time   14.0032: real time   14.0032
       DOS:  cpu time    0.0015: real time    0.0015
    CHARGE:  cpu time   26.3499: real time   26.3500
    MIXING:  cpu time    0.7157: real time    0.7157
    --------------------------------------------
      LOOP:  cpu time  317.1443: real time  317.1513

 eigenvalue-minimisations  :   724
 total energy-change (2. order) : 0.9126494E-01  (-0.1434603E+00)
 number of electron     559.9999862 magnetization 
 augmentation part      241.9398797 magnetization 

 Broyden mixing:
  rms(total) = 0.27623E+01    rms(broyden)= 0.27621E+01
  rms(prec ) = 0.32591E+01
  weight for this iteration     100.00

 eigenvalues of (default mixing * dielectric matrix)
  average eigenvalue GAMMA=   0.3492
  1.5031  0.3642  0.3642  0.1940  0.1152  0.1014  0.1014  0.0505

 Free energy of the ion-electron system (eV)
  ---------------------------------------------------
  alpha Z        PSCENC =        75.25431677
  Ewald energy   TEWEN  =    140037.94472966
  -Hartree energ DENC   =   -184044.25469958
  -exchange      EXHF   =         0.00000000
  -V(xc)+E(xc)   XCENC  =     -1694.47348080
  PAW double counting   =     46226.55511199   -42712.27545627
  entropy T*S    EENTRO =         0.12224528
  eigenvalues    EBANDS =     -3152.46961084
  atomic energy  EATOM  =     45086.50549395
  Solvation  Ediel_sol  =         0.00000000
  ---------------------------------------------------
  free energy    TOTEN  =      -177.09134982 eV

  energy without entropy =     -177.21359510  energy(sigma->0) =     -177.12191114


--------------------------------------------------------------------------------------------------------




--------------------------------------- Iteration      1(  14)  ---------------------------------------


    POTLOK:  cpu time   13.8119: real time   13.8155
    SETDIJ:  cpu time    0.1304: real time    0.1304
    EDDIAG:  cpu time   70.1853: real time   70.1873
  RMM-DIIS:  cpu time  187.7576: real time  187.7626
    ORTHCH:  cpu time   13.8751: real time   13.8752
       DOS:  cpu time    0.0015: real time    0.0015
    CHARGE:  cpu time   26.2280: real time   26.2282
    MIXING:  cpu time    0.7843: real time    0.7843
    --------------------------------------------
      LOOP:  cpu time  312.7740: real time  312.7849

 eigenvalue-minimisations  :   712
 total energy-change (2. order) :-0.1140248E+01  (-0.2478974E+00)
 number of electron     559.9999806 magnetization 
 augmentation part      241.4251219 magnetization 

 Broyden mixing:
  rms(total) = 0.36063E+01    rms(broyden)= 0.36061E+01
  rms(prec ) = 0.41408E+01
  weight for this iteration     100.00

 eigenvalues of (default mixing * dielectric matrix)
  average eigenvalue GAMMA=   0.3319
  1.5776  0.3912  0.3912  0.1949  0.1059  0.1059  0.1082  0.0671  0.0450

 Free energy of the ion-electron system (eV)
  ---------------------------------------------------
  alpha Z        PSCENC =        75.25431677
  Ewald energy   TEWEN  =    140037.94472966
  -Hartree energ DENC   =   -184094.96134493
  -exchange      EXHF   =         0.00000000
  -V(xc)+E(xc)   XCENC  =     -1693.65778307
  PAW double counting   =     46315.14302845   -42797.35190630
  entropy T*S    EENTRO =         0.20999211
  eigenvalues    EBANDS =     -3107.31812497
  atomic energy  EATOM  =     45086.50549395
  Solvation  Ediel_sol  =         0.00000000
  ---------------------------------------------------
  free energy    TOTEN  =      -178.23159831 eV

  energy without entropy =     -178.44159043  energy(sigma->0) =     -178.28409634


--------------------------------------------------------------------------------------------------------




--------------------------------------- Iteration      1(  15)  ---------------------------------------


    POTLOK:  cpu time   13.9129: real time   13.9156
    SETDIJ:  cpu time    0.1278: real time    0.1278
    EDDIAG:  cpu time   70.0407: real time   70.0416
  RMM-DIIS:  cpu time  190.2682: real time  190.2699
    ORTHCH:  cpu time   13.9347: real time   13.9347
       DOS:  cpu time    0.0015: real time    0.0015
    CHARGE:  cpu time   26.4770: real time   26.4771
    MIXING:  cpu time    0.8432: real time    0.8432
    --------------------------------------------
      LOOP:  cpu time  315.6059: real time  315.6115

 eigenvalue-minimisations  :   719
 total energy-change (2. order) : 0.1843133E+01  (-0.1553790E+00)
 number of electron     559.9999832 magnetization 
 augmentation part      241.1495208 magnetization 

 Broyden mixing:
  rms(total) = 0.25694E+01    rms(broyden)= 0.25692E+01
  rms(prec ) = 0.29388E+01
  weight for this iteration     100.00

 eigenvalues of (default mixing * dielectric matrix)
  average eigenvalue GAMMA=   0.3161
  1.6554  0.3981  0.3981  0.1695  0.1402  0.1100  0.1100  0.0766  0.0513  0.0513

 Free energy of the ion-electron system (eV)
  ---------------------------------------------------
  alpha Z        PSCENC =        75.25431677
  Ewald energy   TEWEN  =    140037.94472966
  -Hartree energ DENC   =   -184123.12544395
  -exchange      EXHF   =         0.00000000
  -V(xc)+E(xc)   XCENC  =     -1693.28358497
  PAW double counting   =     46355.49350334   -42836.07361938
  entropy T*S    EENTRO =         0.03292102
  eigenvalues    EBANDS =     -3079.13678211
  atomic energy  EATOM  =     45086.50549395
  Solvation  Ediel_sol  =         0.00000000
  ---------------------------------------------------
  free energy    TOTEN  =      -176.38846567 eV

  energy without entropy =     -176.42138669  energy(sigma->0) =     -176.39669592


--------------------------------------------------------------------------------------------------------




--------------------------------------- Iteration      1(  16)  ---------------------------------------


    POTLOK:  cpu time   13.9546: real time   13.9579
    SETDIJ:  cpu time    0.1331: real time    0.1331
    EDDIAG:  cpu time   70.1501: real time   70.1529
  RMM-DIIS:  cpu time  185.4577: real time  185.4602
    ORTHCH:  cpu time   13.9897: real time   13.9897
       DOS:  cpu time    0.0015: real time    0.0015
    CHARGE:  cpu time   26.5294: real time   26.5296
    MIXING:  cpu time    0.8980: real time    0.8980
    --------------------------------------------
      LOOP:  cpu time  311.1140: real time  311.1228

 eigenvalue-minimisations  :   701
 total energy-change (2. order) : 0.1162080E+01  (-0.1379499E+00)
 number of electron     559.9999833 magnetization 
 augmentation part      241.1505992 magnetization 

 Broyden mixing:
  rms(total) = 0.17861E+01    rms(broyden)= 0.17859E+01
  rms(prec ) = 0.20543E+01
  weight for this iteration     100.00

 eigenvalues of (default mixing * dielectric matrix)
  average eigenvalue GAMMA=   0.3015
  1.6964  0.3888  0.3888  0.1828  0.1828  0.1056  0.1056  0.0822  0.0757  0.0605
  0.0470

 Free energy of the ion-electron system (eV)
  ---------------------------------------------------
  alpha Z        PSCENC =        75.25431677
  Ewald energy   TEWEN  =    140037.94472966
  -Hartree energ DENC   =   -184139.61183104
  -exchange      EXHF   =         0.00000000
  -V(xc)+E(xc)   XCENC  =     -1692.99702554
  PAW double counting   =     46386.84065772   -42866.20237286
  entropy T*S    EENTRO =        -0.06828902
  eigenvalues    EBANDS =     -3062.89206502
  atomic energy  EATOM  =     45086.50549395
  Solvation  Ediel_sol  =         0.00000000
  ---------------------------------------------------
  free energy    TOTEN  =      -175.22638538 eV

  energy without entropy =     -175.15809636  energy(sigma->0) =     -175.20931313


--------------------------------------------------------------------------------------------------------




--------------------------------------- Iteration      1(  17)  ---------------------------------------


    POTLOK:  cpu time   14.0105: real time   14.0144
    SETDIJ:  cpu time    0.1286: real time    0.1286
    EDDIAG:  cpu time   70.5771: real time   70.5785
  RMM-DIIS:  cpu time  187.8454: real time  187.8478
    ORTHCH:  cpu time   13.9597: real time   13.9599
       DOS:  cpu time    0.0015: real time    0.0015
    CHARGE:  cpu time   26.5448: real time   26.5449
    MIXING:  cpu time    0.9500: real time    0.9500
    --------------------------------------------
      LOOP:  cpu time  314.0175: real time  314.0255

 eigenvalue-minimisations  :   708
 total energy-change (2. order) : 0.7028941E+00  (-0.8660108E-01)
 number of electron     559.9999867 magnetization 
 augmentation part      241.0702288 magnetization 

 Broyden mixing:
  rms(total) = 0.12713E+01    rms(broyden)= 0.12712E+01
  rms(prec ) = 0.14848E+01
  weight for this iteration     100.00

 eigenvalues of (default mixing * dielectric matrix)
  average eigenvalue GAMMA=   0.3141
  1.7815  0.5609  0.3000  0.3000  0.2402  0.1109  0.1109  0.1122  0.0733  0.0733
  0.0619  0.0447

 Free energy of the ion-electron system (eV)
  ---------------------------------------------------
  alpha Z        PSCENC =        75.25431677
  Ewald energy   TEWEN  =    140037.94472966
  -Hartree energ DENC   =   -184154.45539647
  -exchange      EXHF   =         0.00000000
  -V(xc)+E(xc)   XCENC  =     -1692.82284630
  PAW double counting   =     46405.76777275   -42884.30184555
  entropy T*S    EENTRO =        -0.01583060
  eigenvalues    EBANDS =     -3048.39988546
  atomic energy  EATOM  =     45086.50549395
  Solvation  Ediel_sol  =         0.00000000
  ---------------------------------------------------
  free energy    TOTEN  =      -174.52349125 eV

  energy without entropy =     -174.50766065  energy(sigma->0) =     -174.51953360


--------------------------------------------------------------------------------------------------------




--------------------------------------- Iteration      1(  18)  ---------------------------------------


    POTLOK:  cpu time   13.9455: real time   13.9495
    SETDIJ:  cpu time    0.1298: real time    0.1298
    EDDIAG:  cpu time   70.2856: real time   70.2862
  RMM-DIIS:  cpu time  184.3899: real time  184.3920
    ORTHCH:  cpu time   13.9547: real time   13.9548
       DOS:  cpu time    0.0015: real time    0.0015
    CHARGE:  cpu time   26.5517: real time   26.5518
    MIXING:  cpu time    1.0131: real time    1.0131
    --------------------------------------------
      LOOP:  cpu time  310.2719: real time  310.2788

 eigenvalue-minimisations  :   699
 total energy-change (2. order) : 0.1387895E+00  (-0.8635046E-01)
 number of electron     559.9999859 magnetization 
 augmentation part      241.2041847 magnetization 

 Broyden mixing:
  rms(total) = 0.16504E+01    rms(broyden)= 0.16502E+01
  rms(prec ) = 0.18892E+01
  weight for this iteration     100.00

 eigenvalues of (default mixing * dielectric matrix)
  average eigenvalue GAMMA=   0.3141
  1.8595  0.6427  0.3433  0.3433  0.2214  0.1137  0.1137  0.0989  0.0989  0.0719
  0.0719  0.0601  0.0444

 Free energy of the ion-electron system (eV)
  ---------------------------------------------------
  alpha Z        PSCENC =        75.25431677
  Ewald energy   TEWEN  =    140037.94472966
  -Hartree energ DENC   =   -184162.45751465
  -exchange      EXHF   =         0.00000000
  -V(xc)+E(xc)   XCENC  =     -1692.67470426
  PAW double counting   =     46422.24740728   -42899.96614295
  entropy T*S    EENTRO =         0.04620255
  eigenvalues    EBANDS =     -3041.28449007
  atomic energy  EATOM  =     45086.50549395
  Solvation  Ediel_sol  =         0.00000000
  ---------------------------------------------------
  free energy    TOTEN  =      -174.38470173 eV

  energy without entropy =     -174.43090428  energy(sigma->0) =     -174.39625237


--------------------------------------------------------------------------------------------------------




--------------------------------------- Iteration      1(  19)  ---------------------------------------


    POTLOK:  cpu time   13.8833: real time   13.8864
    SETDIJ:  cpu time    0.1257: real time    0.1257
    EDDIAG:  cpu time   70.2769: real time   70.2782
  RMM-DIIS:  cpu time  184.6709: real time  184.6750
    ORTHCH:  cpu time   13.9180: real time   13.9180
       DOS:  cpu time    0.0015: real time    0.0015
    CHARGE:  cpu time   26.4658: real time   26.4665
    MIXING:  cpu time    1.0593: real time    1.0593
    --------------------------------------------
      LOOP:  cpu time  310.4015: real time  310.4108

 eigenvalue-minimisations  :   699
 total energy-change (2. order) : 0.4293735E+00  (-0.7090334E-01)
 number of electron     559.9999876 magnetization 
 augmentation part      241.3329759 magnetization 

 Broyden mixing:
  rms(total) = 0.10030E+01    rms(broyden)= 0.10028E+01
  rms(prec ) = 0.11479E+01
  weight for this iteration     100.00

 eigenvalues of (default mixing * dielectric matrix)
  average eigenvalue GAMMA=   0.3175
  1.9101  0.7520  0.3805  0.3805  0.1776  0.1776  0.1175  0.1175  0.0909  0.0909
  0.0823  0.0616  0.0616  0.0440

 Free energy of the ion-electron system (eV)
  ---------------------------------------------------
  alpha Z        PSCENC =        75.25431677
  Ewald energy   TEWEN  =    140037.94472966
  -Hartree energ DENC   =   -184169.59393456
  -exchange      EXHF   =         0.00000000
  -V(xc)+E(xc)   XCENC  =     -1692.50763176
  PAW double counting   =     46437.61274728   -42914.52547129
  entropy T*S    EENTRO =        -0.01333423
  eigenvalues    EBANDS =     -3034.63224406
  atomic energy  EATOM  =     45086.50549395
  Solvation  Ediel_sol  =         0.00000000
  ---------------------------------------------------
  free energy    TOTEN  =      -173.95532825 eV

  energy without entropy =     -173.94199402  energy(sigma->0) =     -173.95199469


--------------------------------------------------------------------------------------------------------




--------------------------------------- Iteration      1(  20)  ---------------------------------------


    POTLOK:  cpu time   13.8617: real time   13.8649
    SETDIJ:  cpu time    0.1239: real time    0.1239
    EDDIAG:  cpu time   70.0743: real time   70.0755
  RMM-DIIS:  cpu time  187.1938: real time  187.2060
    ORTHCH:  cpu time   14.0227: real time   14.0226
       DOS:  cpu time    0.0015: real time    0.0015
    CHARGE:  cpu time   26.7559: real time   26.7558
    MIXING:  cpu time    1.1070: real time    1.1070
    --------------------------------------------
      LOOP:  cpu time  313.1408: real time  313.1572

 eigenvalue-minimisations  :   705
 total energy-change (2. order) :-0.5374150E-01  (-0.4213377E-01)
 number of electron     559.9999878 magnetization 
 augmentation part      241.3033055 magnetization 

 Broyden mixing:
  rms(total) = 0.12160E+01    rms(broyden)= 0.12158E+01
  rms(prec ) = 0.14190E+01
  weight for this iteration     100.00

 eigenvalues of (default mixing * dielectric matrix)
  average eigenvalue GAMMA=   0.3175
  1.9649  0.8088  0.3969  0.3969  0.2239  0.2239  0.1152  0.1152  0.0999  0.0999
  0.0761  0.0682  0.0644  0.0644  0.0440

 Free energy of the ion-electron system (eV)
  ---------------------------------------------------
  alpha Z        PSCENC =        75.25431677
  Ewald energy   TEWEN  =    140037.94472966
  -Hartree energ DENC   =   -184184.35410847
  -exchange      EXHF   =         0.00000000
  -V(xc)+E(xc)   XCENC  =     -1692.35051075
  PAW double counting   =     46447.78026773   -42923.91547255
  entropy T*S    EENTRO =         0.03798469
  eigenvalues    EBANDS =     -3020.91177077
  atomic energy  EATOM  =     45086.50549395
  Solvation  Ediel_sol  =         0.00000000
  ---------------------------------------------------
  free energy    TOTEN  =      -174.00906975 eV

  energy without entropy =     -174.04705443  energy(sigma->0) =     -174.01856592


--------------------------------------------------------------------------------------------------------




--------------------------------------- Iteration      1(  21)  ---------------------------------------


    POTLOK:  cpu time   14.0751: real time   14.0799
    SETDIJ:  cpu time    0.1247: real time    0.1247
    EDDIAG:  cpu time   70.5777: real time   70.5817
  RMM-DIIS:  cpu time  188.2379: real time  188.2633
    ORTHCH:  cpu time   13.8970: real time   13.8971
       DOS:  cpu time    0.0015: real time    0.0015
    CHARGE:  cpu time   26.8593: real time   26.8594
    MIXING:  cpu time    1.1773: real time    1.1773
    --------------------------------------------
      LOOP:  cpu time  314.9504: real time  314.9848

 eigenvalue-minimisations  :   710
 total energy-change (2. order) : 0.6931109E-01  (-0.2867906E-01)
 number of electron     559.9999885 magnetization 
 augmentation part      241.2651687 magnetization 

 Broyden mixing:
  rms(total) = 0.10963E+01    rms(broyden)= 0.10962E+01
  rms(prec ) = 0.12944E+01
  weight for this iteration     100.00

 eigenvalues of (default mixing * dielectric matrix)
  average eigenvalue GAMMA=   0.3180
  2.0250  0.8407  0.4272  0.4272  0.2664  0.2664  0.1155  0.1155  0.1026  0.1026
  0.0867  0.0867  0.0633  0.0633  0.0440  0.0551

 Free energy of the ion-electron system (eV)
  ---------------------------------------------------
  alpha Z        PSCENC =        75.25431677
  Ewald energy   TEWEN  =    140037.94472966
  -Hartree energ DENC   =   -184196.62612048
  -exchange      EXHF   =         0.00000000
  -V(xc)+E(xc)   XCENC  =     -1692.19723437
  PAW double counting   =     46455.67436971   -42931.16602176
  entropy T*S    EENTRO =         0.06330856
  eigenvalues    EBANDS =     -3009.39260070
  atomic energy  EATOM  =     45086.50549395
  Solvation  Ediel_sol  =         0.00000000
  ---------------------------------------------------
  free energy    TOTEN  =      -173.93975866 eV

  energy without entropy =     -174.00306722  energy(sigma->0) =     -173.95558580


--------------------------------------------------------------------------------------------------------




--------------------------------------- Iteration      1(  22)  ---------------------------------------


    POTLOK:  cpu time   13.8982: real time   13.9014
    SETDIJ:  cpu time    0.1233: real time    0.1233
    EDDIAG:  cpu time   70.0401: real time   70.0410
  RMM-DIIS:  cpu time  185.9952: real time  185.9990
    ORTHCH:  cpu time   13.8720: real time   13.8720
       DOS:  cpu time    0.0015: real time    0.0015
    CHARGE:  cpu time   26.8989: real time   26.8989
    MIXING:  cpu time    1.2880: real time    1.2880
    --------------------------------------------
      LOOP:  cpu time  312.1174: real time  312.1251

 eigenvalue-minimisations  :   706
 total energy-change (2. order) : 0.1718748E+00  (-0.2584898E-01)
 number of electron     559.9999872 magnetization 
 augmentation part      241.3013789 magnetization 

 Broyden mixing:
  rms(total) = 0.10107E+01    rms(broyden)= 0.10105E+01
  rms(prec ) = 0.11946E+01
  weight for this iteration     100.00

 eigenvalues of (default mixing * dielectric matrix)
  average eigenvalue GAMMA=   0.3130
  2.0646  0.8852  0.4259  0.4259  0.2969  0.2969  0.1161  0.1161  0.1219  0.1006
  0.1006  0.0770  0.0770  0.0610  0.0610  0.0440  0.0501

 Free energy of the ion-electron system (eV)
  ---------------------------------------------------
  alpha Z        PSCENC =        75.25431677
  Ewald energy   TEWEN  =    140037.94472966
  -Hartree energ DENC   =   -184207.70716347
  -exchange      EXHF   =         0.00000000
  -V(xc)+E(xc)   XCENC  =     -1692.06282903
  PAW double counting   =     46460.75289260   -42935.64310187
  entropy T*S    EENTRO =         0.05966568
  eigenvalues    EBANDS =     -2998.87188818
  atomic energy  EATOM  =     45086.50549395
  Solvation  Ediel_sol  =         0.00000000
  ---------------------------------------------------
  free energy    TOTEN  =      -173.76788388 eV

  energy without entropy =     -173.82754956  energy(sigma->0) =     -173.78280030


--------------------------------------------------------------------------------------------------------




--------------------------------------- Iteration      1(  23)  ---------------------------------------


    POTLOK:  cpu time   13.9034: real time   13.9061
    SETDIJ:  cpu time    0.1249: real time    0.1249
    EDDIAG:  cpu time   69.6694: real time   69.6727
  RMM-DIIS:  cpu time  185.3308: real time  185.3351
    ORTHCH:  cpu time   13.8918: real time   13.8919
       DOS:  cpu time    0.0016: real time    0.0016
    CHARGE:  cpu time   26.8494: real time   26.8503
    MIXING:  cpu time    1.3361: real time    1.3361
    --------------------------------------------
      LOOP:  cpu time  311.1075: real time  311.1185

 eigenvalue-minimisations  :   704
 total energy-change (2. order) : 0.4066476E+00  (-0.1944257E-01)
 number of electron     559.9999868 magnetization 
 augmentation part      241.3096552 magnetization 

 Broyden mixing:
  rms(total) = 0.56523E+00    rms(broyden)= 0.56501E+00
  rms(prec ) = 0.65712E+00
  weight for this iteration     100.00

 eigenvalues of (default mixing * dielectric matrix)
  average eigenvalue GAMMA=   0.3067
[...]
 -0.007  -0.011   0.004   0.004   0.005  -0.007  -0.011   0.004
 -0.012  -0.019   0.006   0.007   0.009  -0.011  -0.018   0.006
 -0.015  -0.005   0.012   0.000   0.022  -0.014  -0.005   0.012
  0.000  -0.023  -0.006  -0.015  -0.000   0.000  -0.022  -0.006
 -0.022   0.000   0.009  -0.005  -0.016  -0.021   0.000   0.008
 -0.017  -0.006   0.015   0.000   0.027  -0.017  -0.006   0.015
  0.000  -0.027  -0.007  -0.018   0.000   0.000  -0.026  -0.007
 -0.027   0.000   0.010  -0.006  -0.019  -0.026   0.000   0.010
 total augmentation occupancy for first ion, spin component:           1
  1.534  -0.030   0.001   0.020   0.018   0.079  -0.009  -0.000   0.032  -0.009   0.103  -0.035   0.012  -0.001   0.004  -0.019
 -0.030   1.398   0.033   0.065   0.002  -0.009   0.072   0.010  -0.012  -0.008   0.208  -0.062   0.019   0.003   0.002  -0.006
  0.001   0.033   1.542   0.004   0.003  -0.000   0.012   0.074  -0.014   0.017  -0.056   0.018  -0.003  -0.008  -0.005   0.016
  0.020   0.065   0.004   1.337   0.049   0.030  -0.011  -0.014   0.094  -0.023  -0.088   0.022  -0.002  -0.005  -0.005   0.001
  0.018   0.002   0.003   0.049   1.439  -0.009  -0.008   0.016  -0.023   0.067  -0.097   0.030  -0.002  -0.011  -0.010   0.026
  0.079  -0.009  -0.000   0.030  -0.009   0.216   0.019  -0.003  -0.044   0.003  -0.048   0.001   0.017  -0.009   0.034  -0.004
 -0.009   0.072   0.012  -0.011  -0.008   0.019   0.262  -0.023  -0.004   0.006  -0.110   0.008  -0.001   0.051  -0.010  -0.000
 -0.000   0.010   0.074  -0.014   0.016  -0.003  -0.023   0.215   0.015  -0.020   0.029  -0.001  -0.012   0.009  -0.018   0.003
  0.032  -0.012  -0.014   0.094  -0.023  -0.044  -0.004   0.015   0.259   0.007   0.042  -0.004  -0.009   0.035   0.004   0.000
 -0.009  -0.008   0.017  -0.023   0.067   0.003   0.006  -0.020   0.007   0.258   0.048  -0.003  -0.038   0.002   0.049   0.007
  0.103   0.208  -0.056  -0.088  -0.097  -0.048  -0.110   0.029   0.042   0.048   0.954  -0.141   0.084   0.013   0.064  -0.013
 -0.035  -0.062   0.018   0.022   0.030   0.001   0.008  -0.001  -0.004  -0.003  -0.141   0.023  -0.014  -0.003  -0.010   0.003
  0.012   0.019  -0.003  -0.002  -0.002   0.017  -0.001  -0.012  -0.009  -0.038   0.084  -0.014   0.029  -0.008  -0.004  -0.003
 -0.001   0.003  -0.008  -0.005  -0.011  -0.009   0.051   0.009   0.035   0.002   0.013  -0.003  -0.008   0.035   0.005   0.000
  0.004   0.002  -0.005  -0.005  -0.010   0.034  -0.010  -0.018   0.004   0.049   0.064  -0.010  -0.004   0.005   0.034  -0.000
 -0.019  -0.006   0.016   0.001   0.026  -0.004  -0.000   0.003   0.000   0.007  -0.013   0.003  -0.003   0.000  -0.000   0.001
  0.001  -0.028  -0.007  -0.018   0.001   0.001  -0.008  -0.001  -0.006  -0.000  -0.003   0.001   0.000  -0.003  -0.000   0.000
 -0.028   0.001   0.012  -0.005  -0.019  -0.006   0.001   0.003  -0.001  -0.007  -0.008   0.001  -0.000  -0.000  -0.003   0.000


------------------------ aborting loop because EDIFF is reached ----------------------------------------


    CHARGE:  cpu time   25.3129: real time   25.3137
    FORLOC:  cpu time    6.7280: real time    6.7282
    FORNL :  cpu time   64.9478: real time   64.9561
    STRESS:  cpu time  204.6553: real time  204.6718
    FORCOR:  cpu time   22.4687: real time   22.4720
    FORHAR:  cpu time    9.5576: real time    9.5589
    MIXING:  cpu time    3.8144: real time    3.8145
    OFIELD:  cpu time    0.0000: real time    0.0000

  FORCE on cell =-STRESS in cart. coord.  units (eV):
  Direction    XX          YY          ZZ          XY          YZ          ZX
  --------------------------------------------------------------------------------------
  Alpha Z    75.25432    75.25432    75.25432
  Ewald   45839.66500 45474.48363 48723.69013   -77.20296   617.87113 -1074.22127
  Hartree 60656.41857 60306.79593 63431.94665  -125.74433   526.26012 -1030.22366
  E(xc)   -2906.64617 -2907.38002 -2906.38091    -0.13004     0.24714    -0.30290
  Local  ************************************   210.22583 -1134.52220  2096.60976
  n-local  -875.17820  -879.35371  -890.20955     6.59074     0.70453     4.89975
  augment  4098.70720  4105.06332  4105.94771    -3.12382    -0.70201    -0.57671
  Kinetic  7808.93463  7821.13001  7812.74246    -3.42627    -3.51108     4.40629
  Fock        0.00000     0.00000     0.00000     0.00000     0.00000     0.00000
  -------------------------------------------------------------------------------------
  Total    -106.10102  -105.60116   -99.91552     7.18914     6.34763     0.59127
  in kB      -6.29602    -6.26636    -5.92898     0.42660     0.37667     0.03509
  external pressure =       -6.16 kB  Pullay stress =        0.00 kB


 VOLUME and BASIS-vectors are now :
 -----------------------------------------------------------------------------
  energy-cutoff  :      400.00
  volume of cell :    27000.00
      direct lattice vectors                 reciprocal lattice vectors
    30.000000000  0.000000000  0.000000000     0.033333333  0.000000000  0.000000000
     0.000000000 30.000000000  0.000000000     0.000000000  0.033333333  0.000000000
     0.000000000  0.000000000 30.000000000     0.000000000  0.000000000  0.033333333

  length of vectors
    30.000000000 30.000000000 30.000000000     0.033333333  0.033333333  0.033333333


 FORCES acting on ions
    electron-ion (+dipol)            ewald-force                    non-local-force                 convergence-correction
 -----------------------------------------------------------------------------------------------
   0.413E+03 0.989E+03 0.400E+03   -.411E+03 -.986E+03 -.400E+03   -.152E+01 -.183E+01 -.192E+00   0.267E-02 -.353E-03 -.113E-02
   -.999E+03 -.423E+03 0.380E+03   0.995E+03 0.421E+03 -.380E+03   0.199E+01 0.166E+01 -.415E-01   -.388E-02 -.153E-02 -.126E-02
   -.385E+03 0.101E+04 0.385E+03   0.383E+03 -.100E+04 -.384E+03   0.147E+01 -.182E+01 -.272E+00   0.207E-02 0.166E-02 -.117E-02
   0.984E+03 -.399E+03 0.409E+03   -.981E+03 0.397E+03 -.409E+03   -.183E+01 0.150E+01 -.208E+00   0.122E-02 -.541E-03 -.127E-02
   0.733E+02 0.655E+03 0.935E+03   -.736E+02 -.655E+03 -.931E+03   0.216E+00 -.113E+00 -.231E+01   0.357E-02 -.263E-03 0.149E-02
   0.239E+01 0.588E+03 -.971E+03   -.239E+01 -.587E+03 0.968E+03   0.112E-02 -.317E+00 0.234E+01   0.179E-02 -.263E-02 -.166E-03
   0.561E+01 0.114E+04 -.126E+02   -.559E+01 -.114E+04 0.126E+02   -.146E-01 -.310E+01 0.304E-01   0.261E-02 0.533E-03 -.538E-03
   0.114E+04 -.113E+01 -.541E+01   -.114E+04 0.112E+01 0.542E+01   -.311E+01 0.700E-02 -.299E-02   0.232E-03 -.164E-02 -.129E-02
   -.115E+04 -.413E+01 -.204E+02   0.114E+04 0.406E+01 0.203E+02   0.311E+01 0.390E-01 0.495E-01   -.377E-02 -.152E-02 -.313E-02
   0.318E+01 -.114E+04 -.706E+01   -.317E+01 0.114E+04 0.706E+01   -.400E-02 0.311E+01 -.161E-02   0.160E-02 0.617E-03 -.261E-02
   -.640E+03 0.746E+03 0.728E+03   0.638E+03 -.744E+03 -.724E+03   0.147E+01 -.981E+00 -.224E+01   -.115E-06 0.129E-02 0.234E-02
   -.578E+03 0.580E+03 -.820E+03   0.576E+03 -.577E+03 0.817E+03   0.156E+01 -.156E+01 0.220E+01   0.686E-03 -.107E-02 -.217E-02
   0.596E+03 -.592E+03 0.808E+03   -.594E+03 0.590E+03 -.805E+03   -.157E+01 0.157E+01 -.220E+01   0.289E-02 0.134E-02 -.117E-02
   0.581E+03 -.580E+03 -.816E+03   -.578E+03 0.578E+03 0.813E+03   -.155E+01 0.155E+01 0.221E+01   -.428E-03 0.888E-03 0.194E-02
   0.608E+03 0.589E+03 0.806E+03   -.606E+03 -.587E+03 -.803E+03   -.157E+01 -.154E+01 -.221E+01   0.225E-02 -.157E-02 -.210E-03
   0.581E+03 0.579E+03 -.817E+03   -.579E+03 -.577E+03 0.814E+03   -.156E+01 -.155E+01 0.221E+01   0.497E-03 -.240E-02 0.143E-02
   -.588E+03 -.637E+03 0.797E+03   0.586E+03 0.635E+03 -.794E+03   0.151E+01 0.157E+01 -.233E+01   0.610E-03 -.191E-02 0.104E-02
   -.578E+03 -.581E+03 -.818E+03   0.576E+03 0.579E+03 0.815E+03   0.156E+01 0.156E+01 0.220E+01   0.185E-02 -.712E-03 -.317E-04
   0.399E+03 0.975E+03 -.425E+03   -.396E+03 -.972E+03 0.425E+03   -.149E+01 -.183E+01 0.204E+00   0.231E-02 -.158E-02 0.135E-03
   -.975E+03 -.398E+03 -.429E+03   0.972E+03 0.396E+03 0.428E+03   0.182E+01 0.148E+01 0.202E+00   -.138E-02 -.288E-02 -.338E-02
   -.295E+03 0.343E+03 0.338E+03   0.295E+03 -.344E+03 -.338E+03   -.189E+00 0.639E+00 -.351E+00   0.398E-02 0.203E-02 0.262E-03
   0.987E+03 0.395E+03 0.408E+03   -.984E+03 -.392E+03 -.408E+03   -.182E+01 -.149E+01 -.228E+00   0.177E-02 -.205E-02 -.222E-03
   -.390E+03 -.993E+03 0.403E+03   0.388E+03 0.990E+03 -.403E+03   0.149E+01 0.183E+01 -.233E+00   0.219E-02 -.345E-02 -.255E-02
   -.392E+03 0.977E+03 -.428E+03   0.390E+03 -.974E+03 0.428E+03   0.149E+01 -.181E+01 0.211E+00   0.250E-02 -.145E-02 -.840E-03
   0.976E+03 -.396E+03 -.421E+03   -.973E+03 0.394E+03 0.421E+03   -.184E+01 0.150E+01 0.231E+00   0.439E-03 -.675E-03 0.420E-04
   -.102E+04 0.402E+03 0.357E+03   0.101E+04 -.400E+03 -.356E+03   0.170E+01 -.155E+01 -.443E+00   -.271E-02 0.185E-02 0.729E-03
   0.403E+03 -.985E+03 0.408E+03   -.401E+03 0.982E+03 -.407E+03   -.151E+01 0.183E+01 -.200E+00   0.376E-02 0.894E-03 -.157E-02
   0.357E+03 0.326E+03 0.424E+03   -.358E+03 -.326E+03 -.424E+03   0.406E+00 0.353E+00 0.495E+00   0.420E-02 0.829E-04 0.690E-03
   0.113E+02 0.648E+03 -.257E+02   -.113E+02 -.649E+03 0.256E+02   -.471E-01 0.690E+00 0.594E-01   0.390E-02 -.508E-05 -.253E-02
   -.812E+03 -.242E+03 0.766E+03   0.811E+03 0.243E+03 -.763E+03   0.708E+01 0.564E+01 0.153E+01   0.390E-03 0.200E-02 0.331E-02
   -.587E+03 -.124E+01 -.972E+03   0.586E+03 0.124E+01 0.969E+03   0.326E+00 0.503E-03 0.234E+01   0.116E-02 -.125E-02 -.745E-03
   0.619E+03 -.643E+01 0.958E+03   -.619E+03 0.647E+01 -.954E+03   -.379E+00 -.273E-01 -.242E+01   0.227E-02 -.936E-03 -.112E-02
   0.589E+03 -.829E+00 -.969E+03   -.589E+03 0.807E+00 0.965E+03   -.294E+00 0.138E-01 0.237E+01   0.947E-03 -.223E-02 0.213E-02
   0.771E+03 0.764E+03 -.114E+02   -.769E+03 -.762E+03 0.114E+02   -.114E+01 -.115E+01 0.126E-01   0.962E-03 -.110E-02 -.158E-02
   -.763E+03 -.774E+03 -.183E+02   0.761E+03 0.772E+03 0.183E+02   0.116E+01 0.114E+01 0.348E-01   0.511E-04 -.358E-02 -.461E-02
   -.765E+03 0.772E+03 -.310E+02   0.763E+03 -.770E+03 0.309E+02   0.119E+01 -.118E+01 0.692E-01   0.107E-02 0.176E-02 -.209E-02
   0.768E+03 -.766E+03 -.832E+01   -.766E+03 0.764E+03 0.836E+01   -.113E+01 0.114E+01 -.267E-01   0.268E-02 0.220E-03 -.238E-02
   0.150E+03 -.681E+02 0.102E+04   -.148E+03 0.671E+02 -.102E+04   -.752E+00 0.460E+00 -.111E+01   0.512E-02 0.332E-03 0.144E-02
   0.247E+01 -.113E+01 -.108E+04   -.243E+01 0.111E+01 0.107E+04   -.276E-01 0.140E-01 0.162E+01   0.260E-02 -.156E-02 0.199E-03
   0.976E+03 0.394E+03 -.422E+03   -.973E+03 -.392E+03 0.422E+03   -.183E+01 -.150E+01 0.214E+00   0.102E-02 -.311E-02 -.205E-03
   -.393E+03 -.977E+03 -.424E+03   0.390E+03 0.974E+03 0.424E+03   0.150E+01 0.183E+01 0.208E+00   0.250E-02 0.239E-03 -.300E-02
   -.319E+03 0.322E+03 -.471E+03   0.319E+03 -.322E+03 0.471E+03   -.360E+00 0.355E+00 -.542E+00   0.376E-02 0.560E-04 -.368E-02
   0.346E+03 -.338E+03 0.432E+03   -.346E+03 0.338E+03 -.433E+03   0.333E+00 -.325E+00 0.609E+00   0.632E-02 -.137E-02 0.334E-03
   0.327E+03 0.321E+03 -.465E+03   -.328E+03 -.322E+03 0.466E+03   0.378E+00 0.370E+00 -.529E+00   0.183E-02 -.556E-03 -.211E-02
   -.975E+03 0.395E+03 -.431E+03   0.972E+03 -.392E+03 0.431E+03   0.181E+01 -.148E+01 0.217E+00   -.343E-03 -.889E-03 -.347E-02
   0.397E+03 -.975E+03 -.422E+03   -.395E+03 0.973E+03 0.422E+03   -.149E+01 0.184E+01 0.236E+00   0.163E-02 0.240E-02 -.204E-02
   -.308E+03 -.366E+03 0.400E+03   0.309E+03 0.367E+03 -.401E+03   -.426E+00 -.538E+00 0.377E+00   0.453E-02 -.160E-02 -.909E-03
   0.651E+03 -.254E+01 -.127E+02   -.652E+03 0.255E+01 0.127E+02   0.724E+00 0.420E-03 -.106E-01   0.501E-02 -.222E-02 -.221E-02
   -.644E+03 -.741E+01 -.372E+02   0.645E+03 0.738E+01 0.371E+02   -.712E+00 0.301E-01 0.698E-01   -.258E-03 -.720E-03 -.494E-02
   0.221E+02 -.626E+03 0.955E+03   -.221E+02 0.626E+03 -.951E+03   0.309E-01 0.322E+00 -.239E+01   0.584E-02 -.711E-03 0.676E-03
   0.199E+01 -.589E+03 -.970E+03   -.197E+01 0.588E+03 0.966E+03   -.152E-01 0.303E+00 0.237E+01   0.254E-02 -.737E-03 -.104E-03
   0.132E+02 -.599E+01 -.300E+02   -.132E+02 0.597E+01 0.300E+02   -.196E-01 0.618E-02 0.305E-01   0.509E-02 0.818E-03 -.383E-02
   0.326E+03 -.324E+03 -.463E+03   -.327E+03 0.325E+03 0.464E+03   0.373E+00 -.374E+00 -.492E+00   0.398E-02 -.264E-02 -.353E-02
   -.319E+03 -.326E+03 -.468E+03   0.319E+03 0.327E+03 0.468E+03   -.353E+00 -.373E+00 -.538E+00   0.237E-02 -.283E-02 -.512E-02
   0.705E+01 -.650E+03 -.160E+02   -.707E+01 0.651E+03 0.160E+02   0.428E-02 -.722E+00 -.294E-02   0.463E-02 -.249E-02 -.392E-02
   0.397E+02 0.869E+02 0.254E+03   -.559E+02 -.863E+02 -.235E+03   0.711E+01 -.273E+01 -.128E+02   0.116E-02 0.159E-03 0.122E-02
   -.256E+03 0.165E+03 0.916E+03   0.276E+03 -.181E+03 -.980E+03   -.184E+02 0.121E+02 0.535E+02   0.916E-03 0.274E-03 0.217E-02
 -----------------------------------------------------------------------------------------------
   0.507E+01 -.165E+02 -.440E+02   -.171E-12 0.111E-11 -.568E-12   -.518E+01 0.165E+02 0.440E+02   0.107E+00 -.393E-01 -.573E-01
 
 
 POSITION                                       TOTAL-FORCE (eV/Angst)
 -----------------------------------------------------------------------------------
     13.37281      9.84801     12.50759         0.702341      1.107937      0.277815
     20.15199     16.62719     12.50759        -1.094662     -0.667819      0.338843
     16.62719      9.84801     12.50759        -0.729742      1.075993      0.326199
      9.84801     16.62719     12.50759         1.118105     -0.698810      0.287005
     15.00000     11.47521     10.20639        -0.097352      0.362596      1.300661
     15.00000     11.47521     19.79360        -0.000144      0.415428     -1.277093
     15.00000      8.28283     15.00000         0.011138      1.501986     -0.007289
      8.28283     15.00000     15.00000         1.511787     -0.004363      0.000568
     21.71717     15.00000     15.00000        -1.514433     -0.025496     -0.031138
     15.00000     21.71717     15.00000         0.003516     -1.515121     -0.001071
     18.35858     11.64142     10.25025        -0.827044      0.586838      1.111988
     18.35858     11.64142     19.74975        -0.755671      0.755742     -1.071469
     11.64142     18.35858     10.25025         0.760888     -0.757352      1.070392
     11.64142     18.35858     19.74975         0.751611     -0.746958     -1.076160
     11.64142     11.64142     10.25025         0.754431      0.748107      1.074145
     11.64142     11.64142     19.74975         0.756339      0.749191     -1.071940
     18.35858     18.35858     10.25025        -0.740287     -0.636073      1.095241
     18.35858     18.35858     19.74975        -0.753687     -0.755040     -1.071997
     13.37281      9.84801     17.49241         0.696951      1.109671     -0.278853
     20.15199     16.62719     17.49241        -1.113828     -0.697747     -0.284426
     16.73751     13.26249     12.54279         0.058194     -0.131916     -0.144825
      9.84801     13.37281     12.50759         1.107384      0.698208      0.292656
     16.62719     20.15199     12.50759        -0.688014     -1.111009      0.288579
     16.62719      9.84801     17.49241        -0.703880      1.114563     -0.294435
      9.84801     16.62719     17.49241         1.105584     -0.698475     -0.295231
     20.15199     13.37281     12.50759        -0.979152      0.712103      0.452013
     13.37281     20.15199     12.50759         0.700184     -1.114080      0.285158
     13.26249     13.26249     12.54279        -0.146036     -0.120454     -0.131359
     15.00000     11.52498     15.00000         0.010967     -0.223119     -0.008566
     18.52479     15.00000     10.20639         5.743622      6.102576      5.249050
     18.52479     15.00000     19.79360        -0.418483      0.000248     -1.278104
     11.47521     15.00000     10.20640         0.385300      0.009272      1.280683
     11.47521     15.00000     19.79360         0.405223     -0.010226     -1.279919
     11.49535     11.49535     15.00000         0.828512      0.832660     -0.004043
     18.50465     18.50465     15.00000        -0.837003     -0.831499     -0.008319
     18.50465     11.49535     15.00000        -0.845124      0.831986      0.004844
     11.49535     18.50465     15.00000         0.820694     -0.823714      0.011722
     15.00000     15.00000     10.04368         0.780320     -0.518564      1.055161
     15.00000     15.00000     19.95633         0.012899     -0.008084     -1.179670
      9.84801     13.37281     17.49241         1.106490      0.699912     -0.289407
     16.62719     20.15199     17.49241        -0.702267     -1.107770     -0.288102
     16.73751     13.26249     17.45721         0.112005     -0.111256      0.155059
     13.26249     16.73751     12.54279        -0.124156      0.121574     -0.145316
     13.26249     13.26249     17.45721        -0.109568     -0.111115      0.154757
     20.15199     13.37281     17.49241        -1.113030      0.699871     -0.294621
     13.37281     20.15199     17.49241         0.698946     -1.105175     -0.297461
     16.73751     16.73751     12.54279         0.114536      0.203523     -0.073032
     11.52498     15.00000     15.00000        -0.218222      0.007332      0.000329
     18.47502     15.00000     15.00000         0.229506     -0.001313     -0.004274
     15.00000     18.52480     10.20639        -0.020799     -0.376579      1.294904
     15.00000     18.52480     19.79360         0.011899     -0.410479     -1.279477
     15.00000     15.00000     15.00000         0.007658     -0.008489      0.004593
     13.26249     16.73751     17.45721        -0.113028      0.114921      0.148098
     16.73751     16.73751     17.45721         0.106875      0.112982      0.162285
     15.00000     18.47502     15.00000        -0.008878      0.230904      0.013389
     17.28561     13.96617      9.74053        -9.083419     -2.100897      6.808761
     17.72806     13.76604      8.72240         2.324005     -3.477133    -11.077299
 -----------------------------------------------------------------------------------
    total drift:                               -0.003733      0.004428      0.000950


--------------------------------------------------------------------------------------------------------



  FREE ENERGIE OF THE ION-ELECTRON SYSTEM (eV)
  ---------------------------------------------------
  free  energy   TOTEN  =      -173.10427102 eV

  energy  without entropy=     -173.08002999  energy(sigma->0) =     -173.09821076
 


--------------------------------------------------------------------------------------------------------


    POTLOK:  cpu time   14.0713: real time   14.0717


--------------------------------------------------------------------------------------------------------


     LOOP+:  cpu time19540.1345: real time19541.0042
    4ORBIT:  cpu time    0.0000: real time    0.0000

 total amount of memory used by VASP MPI-rank0  5486941. kBytes
=======================================================================

   base      :      30000. kBytes
   nonlr-proj:      17126. kBytes
   fftplans  :     924480. kBytes
   grid      :    1872000. kBytes
   one-center:        886. kBytes
   wavefun   :    2642449. kBytes
 
  
  
 General timing and accounting informations for this job:
 ========================================================
  
                  Total CPU time used (sec):    19614.455
                            User time (sec):    18534.561
                          System time (sec):     1079.895
                         Elapsed time (sec):    19616.302
  
                   Maximum memory used (kb):     7179080.
                   Average memory used (kb):           0.
  
                          Minor page faults:    873494298
                          Major page faults:            0
                 Voluntary context switches:          637
