  57  57   0   0
  0.4736842E+03  0.3000000E-08  0.3000000E-08  0.3000000E-08  0.5000000E-15
  1.000000000000000E-004
  CAR 
 6_Pd100_top_free_z(O)                   
      1.32626555    -30.81733085  301     -4.12342313      1.00000000
    -30.817  0.0000E+00  0.0000E+00
    -30.710  0.0000E+00  0.0000E+00
    -30.603  0.0000E+00  0.0000E+00
    -30.496  0.3789E-27  0.4060E-28
    -30.389  0.1862E-23  0.1996E-24
    -30.282  0.5076E-20  0.5440E-21
    -30.174  0.7648E-17  0.8199E-18
    -30.067  0.6347E-14  0.6809E-15
    -29.960  0.2894E-11  0.3107E-12
    -29.853  0.7172E-09  0.7716E-10
    -29.746  0.9583E-07  0.1035E-07
    -29.639  0.6794E-05  0.7383E-06
    -29.532  0.2487E-03  0.2739E-04
    -29.424  0.4457E-02  0.5049E-03
    -29.317  0.3405E-01  0.4153E-02
    -29.210  0.5140E-01  0.9660E-02
    -29.103 -0.3989E+00 -0.3308E-01
    -28.996 -0.6248E+00 -0.1000E+00
    -28.889  0.3871E+01  0.3148E+00
    -28.782  0.9840E+01  0.1369E+01
    -28.674  0.6350E+01  0.2049E+01
    -28.567  0.1556E+00  0.2066E+01
    -28.460 -0.6642E+00  0.1995E+01
    -28.353 -0.1460E-01  0.1993E+01
    -28.246  0.5179E-01  0.1999E+01
    -28.139  0.9749E-02  0.2000E+01
    -28.032  0.7057E-03  0.2000E+01
    -27.924  0.2425E-04  0.2000E+01
    -27.817  0.4244E-06  0.2000E+01
    -27.710  0.3913E-08  0.2000E+01
    -27.603  0.1936E-10  0.2000E+01
    -27.496  0.5181E-13  0.2000E+01
    -27.389  0.0000E+00  0.2000E+01
    -27.282  0.0000E+00  0.2000E+01
    -27.174  0.0000E+00  0.2000E+01
    -27.067  0.0000E+00  0.2000E+01
    -26.960  0.0000E+00  0.2000E+01
    -26.853  0.0000E+00  0.2000E+01
    -26.746  0.0000E+00  0.2000E+01
    -26.639  0.0000E+00  0.2000E+01
    -26.532  0.0000E+00  0.2000E+01
    -26.424  0.0000E+00  0.2000E+01
    -26.317  0.0000E+00  0.2000E+01
    -26.210  0.0000E+00  0.2000E+01
    -26.103  0.0000E+00  0.2000E+01
    -25.996  0.0000E+00  0.2000E+01
    -25.889  0.0000E+00  0.2000E+01
    -25.782  0.0000E+00  0.2000E+01
    -25.674  0.0000E+00  0.2000E+01
    -25.567  0.0000E+00  0.2000E+01
    -25.460  0.0000E+00  0.2000E+01
    -25.353  0.0000E+00  0.2000E+01
    -25.246  0.0000E+00  0.2000E+01
    -25.139  0.0000E+00  0.2000E+01
    -25.031  0.0000E+00  0.2000E+01
    -24.924  0.0000E+00  0.2000E+01
    -24.817  0.0000E+00  0.2000E+01
    -24.710  0.0000E+00  0.2000E+01
    -24.603  0.0000E+00  0.2000E+01
    -24.496  0.0000E+00  0.2000E+01
    -24.389  0.0000E+00  0.2000E+01
    -24.281  0.0000E+00  0.2000E+01
    -24.174  0.0000E+00  0.2000E+01
    -24.067  0.0000E+00  0.2000E+01
    -23.960  0.0000E+00  0.2000E+01
    -23.853  0.0000E+00  0.2000E+01
    -23.746  0.0000E+00  0.2000E+01
    -23.639  0.0000E+00  0.2000E+01
    -23.531  0.0000E+00  0.2000E+01
    -23.424  0.0000E+00  0.2000E+01
    -23.317  0.0000E+00  0.2000E+01
    -23.210  0.0000E+00  0.2000E+01
    -23.103  0.0000E+00  0.2000E+01
    -22.996  0.0000E+00  0.2000E+01
    -22.889  0.0000E+00  0.2000E+01
    -22.781  0.0000E+00  0.2000E+01
    -22.674  0.0000E+00  0.2000E+01
    -22.567  0.0000E+00  0.2000E+01
    -22.460  0.0000E+00  0.2000E+01
    -22.353  0.0000E+00  0.2000E+01
    -22.246  0.0000E+00  0.2000E+01
    -22.139  0.0000E+00  0.2000E+01
    -22.031  0.0000E+00  0.2000E+01
    -21.924  0.0000E+00  0.2000E+01
    -21.817  0.0000E+00  0.2000E+01
    -21.710  0.0000E+00  0.2000E+01
    -21.603  0.0000E+00  0.2000E+01
    -21.496  0.0000E+00  0.2000E+01
    -21.389  0.0000E+00  0.2000E+01
    -21.281  0.0000E+00  0.2000E+01
    -21.174  0.0000E+00  0.2000E+01
    -21.067  0.0000E+00  0.2000E+01
    -20.960  0.0000E+00  0.2000E+01
    -20.853  0.0000E+00  0.2000E+01
    -20.746  0.0000E+00  0.2000E+01
    -20.639  0.0000E+00  0.2000E+01
    -20.531  0.0000E+00  0.2000E+01
    -20.424  0.0000E+00  0.2000E+01
    -20.317  0.0000E+00  0.2000E+01
    -20.210  0.0000E+00  0.2000E+01
    -20.103  0.0000E+00  0.2000E+01
    -19.996  0.0000E+00  0.2000E+01
    -19.889  0.0000E+00  0.2000E+01
    -19.781  0.0000E+00  0.2000E+01
    -19.674  0.0000E+00  0.2000E+01
    -19.567  0.0000E+00  0.2000E+01
    -19.460  0.0000E+00  0.2000E+01
    -19.353  0.0000E+00  0.2000E+01
    -19.246  0.0000E+00  0.2000E+01
    -19.138  0.0000E+00  0.2000E+01
    -19.031  0.0000E+00  0.2000E+01
    -18.924  0.0000E+00  0.2000E+01
    -18.817  0.0000E+00  0.2000E+01
    -18.710  0.0000E+00  0.2000E+01
    -18.603  0.0000E+00  0.2000E+01
    -18.496  0.0000E+00  0.2000E+01
    -18.388  0.0000E+00  0.2000E+01
    -18.281  0.0000E+00  0.2000E+01
    -18.174  0.0000E+00  0.2000E+01
    -18.067  0.0000E+00  0.2000E+01
    -17.960  0.0000E+00  0.2000E+01
    -17.853  0.0000E+00  0.2000E+01
    -17.746  0.0000E+00  0.2000E+01
    -17.638  0.0000E+00  0.2000E+01
    -17.531  0.0000E+00  0.2000E+01
    -17.424  0.0000E+00  0.2000E+01
    -17.317  0.0000E+00  0.2000E+01
    -17.210  0.0000E+00  0.2000E+01
    -17.103  0.0000E+00  0.2000E+01
    -16.996  0.0000E+00  0.2000E+01
    -16.888  0.0000E+00  0.2000E+01
    -16.781  0.0000E+00  0.2000E+01
    -16.674  0.0000E+00  0.2000E+01
    -16.567  0.0000E+00  0.2000E+01
    -16.460  0.0000E+00  0.2000E+01
    -16.353  0.0000E+00  0.2000E+01
    -16.246  0.0000E+00  0.2000E+01
    -16.138  0.0000E+00  0.2000E+01
    -16.031  0.0000E+00  0.2000E+01
    -15.924  0.0000E+00  0.2000E+01
    -15.817  0.0000E+00  0.2000E+01
    -15.710  0.7104E-26  0.2000E+01
    -15.603  0.2863E-22  0.2000E+01
    -15.496  0.6391E-19  0.2000E+01
    -15.388  0.7880E-16  0.2000E+01
    -15.281  0.5344E-13  0.2000E+01
    -15.174  0.1987E-10  0.2000E+01
    -15.067  0.4004E-08  0.2000E+01
    -14.960  0.4330E-06  0.2000E+01
    -14.853  0.2467E-04  0.2000E+01
    -14.746  0.7156E-03  0.2000E+01
    -14.638  0.9849E-02  0.2001E+01
    -14.531  0.5203E-01  0.2007E+01
    -14.424 -0.1604E-01  0.2005E+01
    -14.317 -0.6675E+00  0.1933E+01
    -14.210  0.1715E+00  0.1952E+01
    -14.103  0.6383E+01  0.2636E+01
    -13.996  0.9830E+01  0.3689E+01
    -13.888  0.3838E+01  0.4100E+01
    -13.781 -0.6309E+00  0.4033E+01
    -13.674 -0.3952E+00  0.3990E+01
    -13.567  0.5186E-01  0.3996E+01
    -13.460  0.3381E-01  0.4000E+01
    -13.353  0.4406E-02  0.4000E+01
    -13.245  0.2464E-03  0.4000E+01
    -13.138  0.7291E-04  0.4000E+01
    -13.031  0.1583E-02  0.4000E+01
    -12.924  0.1735E-01  0.4002E+01
    -12.817  0.6297E-01  0.4009E+01
    -12.710 -0.1318E+00  0.3995E+01
    -12.603 -0.8077E+00  0.3908E+01
    -12.495  0.1372E+01  0.4055E+01
    -12.388  0.8233E+01  0.4937E+01
    -12.281  0.8893E+01  0.5890E+01
    -12.174  0.2006E+01  0.6105E+01
    -12.067 -0.1452E+01  0.5949E+01
    -11.960 -0.1629E+00  0.5932E+01
    -11.853  0.6143E+01  0.6590E+01
    -11.745  0.9928E+01  0.7654E+01
    -11.638  0.4141E+01  0.8098E+01
    -11.531 -0.5694E+00  0.8037E+01
    -11.424 -0.4068E+00  0.7993E+01
    -11.317  0.1116E+00  0.8005E+01
    -11.210 -0.1654E+00  0.7987E+01
    -11.103 -0.8096E+00  0.7901E+01
    -10.995  0.2046E+01  0.8120E+01
    -10.888  0.8872E+01  0.9070E+01
    -10.781  0.8189E+01  0.9948E+01
    -10.674  0.1340E+01  0.1009E+02
    -10.567 -0.8063E+00  0.1001E+02
    -10.460 -0.1286E+00  0.9991E+01
    -10.353  0.6283E-01  0.9998E+01
    -10.245  0.1715E-01  0.1000E+02
    -10.138  0.1557E-02  0.1000E+02
    -10.031  0.6487E-04  0.1000E+02
     -9.924  0.1358E-05  0.1000E+02
     -9.817  0.1487E-07  0.1000E+02
     -9.710  0.8699E-10  0.1000E+02
     -9.603  0.2756E-12  0.1000E+02
     -9.495  0.0000E+00  0.1000E+02
     -9.388  0.0000E+00  0.1000E+02
     -9.281  0.0000E+00  0.1000E+02
     -9.174  0.0000E+00  0.1000E+02
     -9.067  0.0000E+00  0.1000E+02
     -8.960  0.0000E+00  0.1000E+02
     -8.853  0.1033E-26  0.1000E+02
     -8.745  0.4745E-23  0.1000E+02
     -8.638  0.1209E-19  0.1000E+02
     -8.531  0.1701E-16  0.1000E+02
     -8.424  0.1318E-13  0.1000E+02
     -8.317  0.5609E-11  0.1000E+02
     -8.210  0.1296E-08  0.1000E+02
     -8.103  0.1612E-06  0.1000E+02
     -7.995  0.1062E-04  0.1000E+02
     -7.888  0.3594E-03  0.1000E+02
     -7.781  0.5899E-02  0.1000E+02
     -7.674  0.4012E-01  0.1000E+02
     -7.567  0.3768E-01  0.1001E+02
     -7.460 -0.4765E+00  0.9958E+01
     -7.353 -0.3721E+00  0.9918E+01
     -7.245  0.4616E+01  0.1041E+02
     -7.138  0.9218E+01  0.1140E+02
     -7.031  0.6636E+01  0.1211E+02
     -6.924  0.7597E+01  0.1293E+02
     -6.817  0.7764E+01  0.1376E+02
     -6.710  0.3327E+01  0.1411E+02
     -6.602  0.7055E+01  0.1487E+02
     -6.495  0.8908E+01  0.1582E+02
     -6.388  0.8722E+00  0.1592E+02
     -6.281  0.5668E+00  0.1598E+02
     -6.174  0.1849E+02  0.1796E+02
     -6.067  0.3579E+02  0.2179E+02
     -5.960  0.3428E+02  0.2547E+02
     -5.852  0.2877E+02  0.2855E+02
     -5.745  0.4440E+02  0.3331E+02
     -5.638  0.9261E+02  0.4323E+02
     -5.531  0.1911E+03  0.6370E+02
     -5.424  0.2847E+03  0.9420E+02
     -5.317  0.2720E+03  0.1233E+03
     -5.210  0.2168E+03  0.1466E+03
     -5.102  0.2429E+03  0.1726E+03
     -4.995  0.3302E+03  0.2080E+03
     -4.888  0.3511E+03  0.2456E+03
     -4.781  0.2936E+03  0.2771E+03
     -4.674  0.3103E+03  0.3103E+03
     -4.567  0.3986E+03  0.3530E+03
     -4.460  0.4240E+03  0.3984E+03
     -4.352  0.4508E+03  0.4467E+03
     -4.245  0.5380E+03  0.5044E+03
     -4.138  0.4735E+03  0.5551E+03
     -4.031  0.2072E+03  0.5773E+03
     -3.924  0.3095E+02  0.5806E+03
     -3.817  0.2250E+02  0.5830E+03
     -3.710  0.3060E+02  0.5863E+03
     -3.602  0.1599E+02  0.5880E+03
     -3.495  0.1511E+02  0.5897E+03
     -3.388  0.1712E+02  0.5915E+03
     -3.281  0.6201E+01  0.5921E+03
     -3.174  0.7240E+01  0.5929E+03
     -3.067  0.3704E+02  0.5969E+03
     -2.960  0.6341E+02  0.6037E+03
     -2.852  0.4322E+02  0.6083E+03
     -2.745  0.1202E+02  0.6096E+03
     -2.638  0.3355E+01  0.6100E+03
     -2.531  0.1371E+02  0.6114E+03
     -2.424  0.2464E+02  0.6141E+03
     -2.317  0.2028E+02  0.6162E+03
     -2.210  0.1647E+02  0.6180E+03
     -2.102  0.2219E+02  0.6204E+03
     -1.995  0.3125E+02  0.6237E+03
     -1.888  0.4267E+02  0.6283E+03
     -1.781  0.4615E+02  0.6333E+03
     -1.674  0.3777E+02  0.6373E+03
     -1.567  0.3360E+02  0.6409E+03
     -1.460  0.2901E+02  0.6440E+03
     -1.352  0.2236E+02  0.6464E+03
     -1.245  0.2337E+02  0.6489E+03
     -1.138  0.2341E+02  0.6514E+03
     -1.031  0.3082E+02  0.6547E+03
     -0.924  0.5176E+02  0.6603E+03
     -0.817  0.5633E+02  0.6663E+03
     -0.709  0.3764E+02  0.6703E+03
     -0.602  0.1521E+02  0.6720E+03
     -0.495  0.1554E+01  0.6721E+03
     -0.388 -0.1230E+01  0.6720E+03
     -0.281 -0.1745E+00  0.6720E+03
     -0.174  0.1411E+00  0.6720E+03
     -0.067  0.4504E-01  0.6720E+03
      0.041  0.5070E-02  0.6720E+03
      0.148  0.2660E-03  0.6720E+03
      0.255  0.7048E-05  0.6720E+03
      0.362  0.9784E-07  0.6720E+03
      0.469  0.7258E-09  0.6720E+03
      0.576  0.2914E-11  0.6720E+03
      0.683  0.6217E-14  0.6720E+03
      0.791  0.0000E+00  0.6720E+03
      0.898  0.0000E+00  0.6720E+03
      1.005  0.0000E+00  0.6720E+03
      1.112  0.0000E+00  0.6720E+03
      1.219  0.0000E+00  0.6720E+03
      1.326  0.0000E+00  0.6720E+03
