  57  57   0   0
  0.4736842E+03  0.3000000E-08  0.3000000E-08  0.3000000E-08  0.5000000E-15
  1.000000000000000E-004
  CAR 
 6_Pd100_top_free_z(O)                   
      1.43832777    -30.44993061  301     -4.16483872      1.00000000
    -30.450  0.0000E+00  0.0000E+00
    -30.344  0.0000E+00  0.0000E+00
    -30.237  0.0000E+00  0.0000E+00
    -30.131  0.3097E-27  0.3292E-28
    -30.025  0.1446E-23  0.1537E-24
    -29.918  0.3779E-20  0.4018E-21
    -29.812  0.5513E-17  0.5864E-18
    -29.706  0.4472E-14  0.4760E-15
    -29.600  0.2013E-11  0.2144E-12
    -29.493  0.4974E-09  0.5309E-10
    -29.387  0.6698E-07  0.7172E-08
    -29.281  0.4841E-05  0.5217E-06
    -29.174  0.1831E-03  0.1998E-04
    -29.068  0.3451E-02  0.3869E-03
    -28.962  0.2875E-01  0.3443E-02
    -28.856  0.6043E-01  0.9867E-02
    -28.749 -0.3033E+00 -0.2237E-01
    -28.643 -0.7607E+00 -0.1032E+00
    -28.537  0.2892E+01  0.2042E+00
    -28.430  0.9422E+01  0.1206E+01
    -28.324  0.7449E+01  0.1997E+01
    -28.218  0.8003E+00  0.2083E+01
    -28.111 -0.7704E+00  0.2001E+01
    -28.005 -0.8217E-01  0.1992E+01
    -27.899  0.6031E-01  0.1998E+01
    -27.793  0.1469E-01  0.2000E+01
    -27.686  0.1274E-02  0.2000E+01
    -27.580  0.5186E-04  0.2000E+01
    -27.474  0.1076E-05  0.2000E+01
    -27.367  0.1181E-07  0.2000E+01
    -27.261  0.7000E-10  0.2000E+01
    -27.155  0.2277E-12  0.2000E+01
    -27.049  0.0000E+00  0.2000E+01
    -26.942  0.0000E+00  0.2000E+01
    -26.836  0.0000E+00  0.2000E+01
    -26.730  0.0000E+00  0.2000E+01
    -26.623  0.0000E+00  0.2000E+01
    -26.517  0.0000E+00  0.2000E+01
    -26.411  0.0000E+00  0.2000E+01
    -26.304  0.0000E+00  0.2000E+01
    -26.198  0.0000E+00  0.2000E+01
    -26.092  0.0000E+00  0.2000E+01
    -25.986  0.0000E+00  0.2000E+01
    -25.879  0.0000E+00  0.2000E+01
    -25.773  0.0000E+00  0.2000E+01
    -25.667  0.0000E+00  0.2000E+01
    -25.560  0.0000E+00  0.2000E+01
    -25.454  0.0000E+00  0.2000E+01
    -25.348  0.0000E+00  0.2000E+01
    -25.242  0.0000E+00  0.2000E+01
    -25.135  0.0000E+00  0.2000E+01
    -25.029  0.0000E+00  0.2000E+01
    -24.923  0.0000E+00  0.2000E+01
    -24.816  0.0000E+00  0.2000E+01
    -24.710  0.0000E+00  0.2000E+01
    -24.604  0.0000E+00  0.2000E+01
    -24.497  0.0000E+00  0.2000E+01
    -24.391  0.0000E+00  0.2000E+01
    -24.285  0.0000E+00  0.2000E+01
    -24.179  0.0000E+00  0.2000E+01
    -24.072  0.0000E+00  0.2000E+01
    -23.966  0.0000E+00  0.2000E+01
    -23.860  0.0000E+00  0.2000E+01
    -23.753  0.0000E+00  0.2000E+01
    -23.647  0.0000E+00  0.2000E+01
    -23.541  0.0000E+00  0.2000E+01
    -23.435  0.0000E+00  0.2000E+01
    -23.328  0.0000E+00  0.2000E+01
    -23.222  0.0000E+00  0.2000E+01
    -23.116  0.0000E+00  0.2000E+01
    -23.009  0.0000E+00  0.2000E+01
    -22.903  0.0000E+00  0.2000E+01
    -22.797  0.0000E+00  0.2000E+01
    -22.690  0.0000E+00  0.2000E+01
    -22.584  0.0000E+00  0.2000E+01
    -22.478  0.0000E+00  0.2000E+01
    -22.372  0.0000E+00  0.2000E+01
    -22.265  0.0000E+00  0.2000E+01
    -22.159  0.0000E+00  0.2000E+01
    -22.053  0.0000E+00  0.2000E+01
    -21.946  0.0000E+00  0.2000E+01
    -21.840  0.0000E+00  0.2000E+01
    -21.734  0.0000E+00  0.2000E+01
    -21.628  0.0000E+00  0.2000E+01
    -21.521  0.0000E+00  0.2000E+01
    -21.415  0.0000E+00  0.2000E+01
    -21.309  0.0000E+00  0.2000E+01
    -21.202  0.0000E+00  0.2000E+01
    -21.096  0.0000E+00  0.2000E+01
    -20.990  0.0000E+00  0.2000E+01
    -20.883  0.0000E+00  0.2000E+01
    -20.777  0.0000E+00  0.2000E+01
    -20.671  0.0000E+00  0.2000E+01
    -20.565  0.0000E+00  0.2000E+01
    -20.458  0.0000E+00  0.2000E+01
    -20.352  0.0000E+00  0.2000E+01
    -20.246  0.0000E+00  0.2000E+01
    -20.139  0.0000E+00  0.2000E+01
    -20.033  0.0000E+00  0.2000E+01
    -19.927  0.0000E+00  0.2000E+01
    -19.821  0.0000E+00  0.2000E+01
    -19.714  0.0000E+00  0.2000E+01
    -19.608  0.0000E+00  0.2000E+01
    -19.502  0.0000E+00  0.2000E+01
    -19.395  0.0000E+00  0.2000E+01
    -19.289  0.0000E+00  0.2000E+01
    -19.183  0.0000E+00  0.2000E+01
    -19.076  0.0000E+00  0.2000E+01
    -18.970  0.0000E+00  0.2000E+01
    -18.864  0.0000E+00  0.2000E+01
    -18.758  0.0000E+00  0.2000E+01
    -18.651  0.0000E+00  0.2000E+01
    -18.545  0.0000E+00  0.2000E+01
    -18.439  0.0000E+00  0.2000E+01
    -18.332  0.0000E+00  0.2000E+01
    -18.226  0.0000E+00  0.2000E+01
    -18.120  0.0000E+00  0.2000E+01
    -18.014  0.0000E+00  0.2000E+01
    -17.907  0.0000E+00  0.2000E+01
    -17.801  0.0000E+00  0.2000E+01
    -17.695  0.0000E+00  0.2000E+01
    -17.588  0.0000E+00  0.2000E+01
    -17.482  0.0000E+00  0.2000E+01
    -17.376  0.0000E+00  0.2000E+01
    -17.269  0.0000E+00  0.2000E+01
    -17.163  0.0000E+00  0.2000E+01
    -17.057  0.0000E+00  0.2000E+01
    -16.951  0.0000E+00  0.2000E+01
    -16.844  0.0000E+00  0.2000E+01
    -16.738  0.0000E+00  0.2000E+01
    -16.632  0.0000E+00  0.2000E+01
    -16.525  0.0000E+00  0.2000E+01
    -16.419  0.0000E+00  0.2000E+01
    -16.313  0.0000E+00  0.2000E+01
    -16.207  0.0000E+00  0.2000E+01
    -16.100  0.0000E+00  0.2000E+01
    -15.994  0.0000E+00  0.2000E+01
    -15.888  0.0000E+00  0.2000E+01
    -15.781  0.0000E+00  0.2000E+01
    -15.675  0.0000E+00  0.2000E+01
    -15.569  0.0000E+00  0.2000E+01
    -15.462  0.0000E+00  0.2000E+01
    -15.356  0.0000E+00  0.2000E+01
    -15.250  0.0000E+00  0.2000E+01
    -15.144  0.8486E-26  0.2000E+01
    -15.037  0.3172E-22  0.2000E+01
    -14.931  0.6630E-19  0.2000E+01
    -14.825  0.7725E-16  0.2000E+01
    -14.718  0.4998E-13  0.2000E+01
    -14.612  0.1790E-10  0.2000E+01
    -14.506  0.3509E-08  0.2000E+01
    -14.400  0.3730E-06  0.2000E+01
    -14.293  0.2111E-04  0.2000E+01
    -14.187  0.6160E-03  0.2000E+01
    -14.081  0.8675E-02  0.2001E+01
    -13.974  0.4869E-01  0.2006E+01
    -13.868  0.5007E-02  0.2007E+01
    -13.762 -0.6079E+00  0.1942E+01
    -13.655 -0.1096E+00  0.1930E+01
    -13.549  0.5675E+01  0.2534E+01
    -13.443  0.9991E+01  0.3596E+01
    -13.337  0.4658E+01  0.4091E+01
    -13.230 -0.4372E+00  0.4044E+01
    -13.124 -0.4986E+00  0.3991E+01
    -13.018  0.3403E-01  0.3995E+01
    -12.911  0.4135E-01  0.3999E+01
    -12.805  0.6346E-02  0.4000E+01
    -12.699  0.4054E-03  0.4000E+01
    -12.593  0.1266E-04  0.4000E+01
    -12.486  0.2050E-06  0.4000E+01
    -12.380  0.1775E-08  0.4000E+01
    -12.274  0.2592E-09  0.4000E+01
    -12.167  0.3660E-07  0.4000E+01
    -12.061  0.2872E-05  0.4000E+01
    -11.955  0.1184E-03  0.4000E+01
    -11.848  0.2456E-02  0.4000E+01
    -11.742  0.2309E-01  0.4003E+01
    -11.636  0.6524E-01  0.4010E+01
    -11.530 -0.2006E+00  0.3988E+01
    -11.423 -0.7538E+00  0.3908E+01
    -11.317  0.2052E+01  0.4126E+01
    -11.211  0.8186E+01  0.4997E+01
    -11.104  0.8273E+01  0.5876E+01
    -10.998  0.7626E+01  0.6686E+01
    -10.892  0.1273E+02  0.8040E+01
    -10.786  0.1320E+02  0.9443E+01
    -10.679  0.5898E+01  0.1007E+02
    -10.573 -0.9945E-01  0.1006E+02
    -10.467 -0.6356E+00  0.9992E+01
    -10.360  0.4327E-02  0.9992E+01
    -10.254  0.5888E-01  0.9999E+01
    -10.148  0.1137E-01  0.1000E+02
    -10.041  0.8712E-03  0.1000E+02
     -9.935  0.3213E-04  0.1000E+02
     -9.829  0.6097E-06  0.1000E+02
     -9.723  0.6151E-08  0.1000E+02
     -9.616  0.3360E-10  0.1000E+02
     -9.510  0.1003E-12  0.1000E+02
     -9.404  0.0000E+00  0.1000E+02
     -9.297  0.0000E+00  0.1000E+02
     -9.191  0.0000E+00  0.1000E+02
     -9.085  0.0000E+00  0.1000E+02
     -8.979  0.0000E+00  0.1000E+02
     -8.872  0.0000E+00  0.1000E+02
     -8.766  0.0000E+00  0.1000E+02
     -8.660  0.0000E+00  0.1000E+02
     -8.553  0.0000E+00  0.1000E+02
     -8.447  0.0000E+00  0.1000E+02
     -8.341  0.9197E-27  0.1000E+02
     -8.234  0.4016E-23  0.1000E+02
     -8.128  0.9783E-20  0.1000E+02
     -8.022  0.1331E-16  0.1000E+02
     -7.916  0.1008E-13  0.1000E+02
     -7.809  0.4244E-11  0.1000E+02
     -7.703  0.9840E-09  0.1000E+02
     -7.597  0.1248E-06  0.1000E+02
     -7.490  0.8547E-05  0.1000E+02
     -7.384  0.3097E-03  0.1000E+02
     -7.278  0.5703E-02  0.1000E+02
     -7.172  0.4842E-01  0.1001E+02
     -7.065  0.1282E+00  0.1002E+02
     -6.959 -0.3635E+00  0.9981E+01
     -6.853 -0.1538E+01  0.9817E+01
     -6.746  0.3224E+01  0.1016E+02
     -6.640  0.1848E+02  0.1212E+02
     -6.534  0.2521E+02  0.1480E+02
     -6.427  0.1088E+02  0.1596E+02
     -6.321  0.4686E+00  0.1601E+02
     -6.215  0.1421E+02  0.1752E+02
     -6.109  0.2655E+02  0.2034E+02
     -6.002  0.1731E+02  0.2218E+02
     -5.896  0.2290E+02  0.2462E+02
     -5.790  0.5173E+02  0.3012E+02
     -5.683  0.9063E+02  0.3975E+02
     -5.577  0.1788E+03  0.5876E+02
     -5.471  0.2797E+03  0.8849E+02
     -5.365  0.2729E+03  0.1175E+03
     -5.258  0.2092E+03  0.1397E+03
     -5.152  0.2334E+03  0.1645E+03
     -5.046  0.3277E+03  0.1994E+03
     -4.939  0.3560E+03  0.2372E+03
     -4.833  0.2958E+03  0.2687E+03
     -4.727  0.3057E+03  0.3012E+03
     -4.620  0.4035E+03  0.3440E+03
     -4.514  0.4306E+03  0.3898E+03
     -4.408  0.4399E+03  0.4366E+03
     -4.302  0.5366E+03  0.4936E+03
     -4.195  0.5178E+03  0.5487E+03
     -4.089  0.2639E+03  0.5767E+03
     -3.983  0.4130E+02  0.5811E+03
     -3.876  0.8866E+01  0.5820E+03
     -3.770  0.3247E+02  0.5855E+03
     -3.664  0.2110E+02  0.5877E+03
     -3.557  0.1358E+02  0.5892E+03
     -3.451  0.2352E+02  0.5917E+03
     -3.345  0.1734E+02  0.5935E+03
     -3.239  0.1106E+01  0.5936E+03
     -3.132  0.1594E+02  0.5953E+03
     -3.026  0.5436E+02  0.6011E+03
     -2.920  0.5559E+02  0.6070E+03
     -2.813  0.2357E+02  0.6095E+03
     -2.707  0.3001E+01  0.6098E+03
     -2.601  0.9750E+01  0.6109E+03
     -2.495  0.2805E+02  0.6139E+03
     -2.388  0.2412E+02  0.6164E+03
     -2.282  0.9649E+01  0.6174E+03
     -2.176  0.1445E+02  0.6190E+03
     -2.069  0.3547E+02  0.6228E+03
     -1.963  0.4417E+02  0.6275E+03
     -1.857  0.3508E+02  0.6312E+03
     -1.750  0.3336E+02  0.6347E+03
     -1.644  0.4599E+02  0.6396E+03
     -1.538  0.4214E+02  0.6441E+03
     -1.432  0.2107E+02  0.6463E+03
     -1.325  0.1390E+02  0.6478E+03
     -1.219  0.2044E+02  0.6500E+03
     -1.113  0.2639E+02  0.6528E+03
     -1.006  0.4806E+02  0.6579E+03
     -0.900  0.6899E+02  0.6652E+03
     -0.794  0.4235E+02  0.6697E+03
     -0.688  0.6344E+01  0.6704E+03
     -0.581  0.3871E+01  0.6708E+03
     -0.475  0.8780E+01  0.6718E+03
     -0.369  0.3200E+01  0.6721E+03
     -0.262 -0.6515E+00  0.6720E+03
     -0.156 -0.2899E+00  0.6720E+03
     -0.050  0.6121E-01  0.6720E+03
      0.057  0.2878E-01  0.6720E+03
      0.163  0.3452E-02  0.6720E+03
      0.269  0.1831E-03  0.6720E+03
      0.375  0.4841E-05  0.6720E+03
      0.482  0.6698E-07  0.6720E+03
      0.588  0.4974E-09  0.6720E+03
      0.694  0.2014E-11  0.6720E+03
      0.801  0.4178E-14  0.6720E+03
      0.907  0.0000E+00  0.6720E+03
      1.013  0.0000E+00  0.6720E+03
      1.119  0.0000E+00  0.6720E+03
      1.226  0.0000E+00  0.6720E+03
      1.332  0.0000E+00  0.6720E+03
      1.438  0.0000E+00  0.6720E+03
