       N       E                     dE             d eps       ncg     rms          rms(c)
DAV:   1     0.439163259575E+04    0.43916E+04   -0.10054E+05   688   0.815E+02
DAV:   2     0.200878854862E+04   -0.23828E+04   -0.21434E+04  1224   0.105E+02
DAV:   3     0.230886569043E+03   -0.17779E+04   -0.16752E+04  1008   0.917E+01
DAV:   4    -0.135550724965E+03   -0.36644E+03   -0.31281E+03   832   0.434E+01
DAV:   5    -0.180762652034E+03   -0.45212E+02   -0.36985E+02  1048   0.146E+01    0.154E+01
RMM:   6    -0.181185506686E+03   -0.42285E+00   -0.60731E+01   733   0.934E+00    0.242E+01
RMM:   7    -0.184214311314E+03   -0.30288E+01   -0.20027E+01   858   0.482E+00    0.233E+01
RMM:   8    -0.185638827541E+03   -0.14245E+01   -0.70655E+00   780   0.361E+00    0.269E+01
RMM:   9    -0.183757730018E+03    0.18811E+01   -0.52813E+00   731   0.325E+00    0.292E+01
RMM:  10    -0.181202154091E+03    0.25556E+01   -0.29363E+00   747   0.248E+00    0.269E+01
RMM:  11    -0.179061754594E+03    0.21404E+01   -0.20397E+00   731   0.200E+00    0.165E+01
RMM:  12    -0.177864797842E+03    0.11970E+01   -0.20640E+00   718   0.213E+00    0.149E+01
RMM:  13    -0.177731275939E+03    0.13352E+00   -0.17156E+00   718   0.196E+00    0.182E+01
RMM:  14    -0.177171872766E+03    0.55940E+00   -0.14799E+00   705   0.179E+00    0.151E+01
RMM:  15    -0.176795890038E+03    0.37598E+00   -0.11333E+00   713   0.158E+00    0.128E+01
RMM:  16    -0.177183765011E+03   -0.38787E+00   -0.52552E-01   723   0.108E+00    0.174E+01
RMM:  17    -0.176795921562E+03    0.38784E+00   -0.45957E-01   714   0.103E+00    0.139E+01
RMM:  18    -0.176421300008E+03    0.37462E+00   -0.44005E-01   708   0.101E+00    0.105E+01
RMM:  19    -0.175937863583E+03    0.48344E+00   -0.34732E-01   696   0.899E-01    0.671E+00
RMM:  20    -0.175825661500E+03    0.11220E+00   -0.24861E-01   704   0.751E-01    0.556E+00
RMM:  21    -0.175856120609E+03   -0.30459E-01   -0.19731E-01   704   0.675E-01    0.643E+00
RMM:  22    -0.175775025253E+03    0.81095E-01   -0.16995E-01   706   0.656E-01    0.609E+00
RMM:  23    -0.175695138184E+03    0.79887E-01   -0.11466E-01   698   0.538E-01    0.503E+00
RMM:  24    -0.175721273946E+03   -0.26136E-01   -0.11863E-01   694   0.537E-01    0.543E+00
RMM:  25    -0.175633921723E+03    0.87352E-01   -0.93537E-02   695   0.491E-01    0.413E+00
RMM:  26    -0.175624445312E+03    0.94764E-02   -0.58219E-02   693   0.403E-01    0.421E+00
RMM:  27    -0.175584029707E+03    0.40416E-01   -0.40246E-02   695   0.327E-01    0.286E+00
RMM:  28    -0.175551886000E+03    0.32144E-01   -0.21918E-02   693   0.258E-01    0.176E+00
RMM:  29    -0.175544134822E+03    0.77512E-02   -0.13295E-02   695   0.190E-01    0.150E+00
RMM:  30    -0.175533791826E+03    0.10343E-01   -0.87832E-03   693   0.148E-01    0.987E-01
RMM:  31    -0.175530777373E+03    0.30145E-02   -0.58306E-03   695   0.123E-01    0.918E-01
RMM:  32    -0.175530238748E+03    0.53862E-03   -0.53072E-03   690   0.112E-01    0.969E-01
RMM:  33    -0.175526925553E+03    0.33132E-02   -0.31365E-03   691   0.970E-02    0.651E-01
RMM:  34    -0.175527166562E+03   -0.24101E-03   -0.23500E-03   689   0.786E-02    0.615E-01
RMM:  35    -0.175528066995E+03   -0.90043E-03   -0.21478E-03   689   0.734E-02    0.573E-01
RMM:  36    -0.175528877561E+03   -0.81057E-03   -0.12644E-03   686   0.594E-02    0.551E-01
RMM:  37    -0.175530216263E+03   -0.13387E-02   -0.11691E-03   687   0.537E-02    0.424E-01
RMM:  38    -0.175530972678E+03   -0.75642E-03   -0.68983E-04   653   0.424E-02    0.286E-01
RMM:  39    -0.175533520806E+03   -0.25481E-02   -0.83735E-04   675   0.425E-02    0.290E-01
RMM:  40    -0.175536734480E+03   -0.32137E-02   -0.77379E-04   666   0.403E-02    0.250E-01
RMM:  41    -0.175538355221E+03   -0.16207E-02   -0.37416E-04   479   0.288E-02    0.196E-01
RMM:  42    -0.175541009842E+03   -0.26546E-02   -0.45668E-04   527   0.291E-02    0.173E-01
RMM:  43    -0.175542798348E+03   -0.17885E-02   -0.28785E-04   434   0.242E-02    0.158E-01
RMM:  44    -0.175544249050E+03   -0.14507E-02   -0.19814E-04   411   0.202E-02    0.113E-01
RMM:  45    -0.175546480346E+03   -0.22313E-02   -0.28332E-04   442   0.218E-02    0.119E-01
RMM:  46    -0.175547865548E+03   -0.13852E-02   -0.17976E-04   413   0.173E-02    0.107E-01
RMM:  47    -0.175549560875E+03   -0.16953E-02   -0.20223E-04   420   0.173E-02    0.965E-02
RMM:  48    -0.175550295117E+03   -0.73424E-03   -0.10752E-04   412   0.127E-02    0.557E-02
RMM:  49    -0.175551336438E+03   -0.10413E-02   -0.96067E-05   411   0.113E-02    0.488E-02
RMM:  50    -0.175551777671E+03   -0.44123E-03   -0.50892E-05   405   0.830E-03    0.325E-02
RMM:  51    -0.175552258362E+03   -0.48069E-03   -0.29631E-05   390   0.648E-03    0.351E-02
RMM:  52    -0.175553057029E+03   -0.79867E-03   -0.27172E-05   388   0.619E-03    0.203E-02
RMM:  53    -0.175553437029E+03   -0.38000E-03   -0.11141E-05   235   0.448E-03    0.198E-02
RMM:  54    -0.175554044722E+03   -0.60769E-03   -0.18589E-05   320   0.509E-03    0.177E-02
RMM:  55    -0.175554269581E+03   -0.22486E-03   -0.43033E-06   161   0.387E-03    0.144E-02
RMM:  56    -0.175554623756E+03   -0.35418E-03   -0.13446E-05   243   0.438E-03    0.134E-02
RMM:  57    -0.175554784305E+03   -0.16055E-03   -0.31249E-06   131   0.367E-03    0.724E-03
RMM:  58    -0.175554999438E+03   -0.21513E-03   -0.14824E-05   235   0.438E-03    0.101E-02
RMM:  59    -0.175555118412E+03   -0.11897E-03   -0.60383E-06   150   0.363E-03    0.695E-03
RMM:  60    -0.175555248846E+03   -0.13043E-03   -0.82906E-06   170   0.379E-03    0.614E-03
RMM:  61    -0.175555269957E+03   -0.21111E-04   -0.51537E-07    75   0.318E-03
   1 F= -.17555527E+03 E0= -.17553066E+03  d E =-.984595E-01
