   57   57    1    1
  0.4736842E+03  0.3000000E-08  0.3000000E-08  0.3000000E-08  0.5000000E-15
  1.000000000000000E-004
  CAR 
 6_Pd100_top_free_z(O)                   
    560      1    336
 
  0.0000000E+00  0.0000000E+00  0.0000000E+00  0.1000000E+01
    1      -29.133601   1.000000
    2      -13.672009   1.000000
    3      -11.449054   1.000000
    4      -11.442750   1.000000
    5       -9.505333   1.000000
    6       -6.628761   1.000000
    7       -6.110714   1.000000
    8       -6.110424   1.000000
    9       -6.101832   1.000000
   10       -5.800264   1.000000
   11       -5.795542   1.000000
   12       -5.793111   1.000000
   13       -5.728634   1.000000
   14       -5.675601   1.000000
   15       -5.670909   1.000000
   16       -5.668347   1.000000
   17       -5.666179   1.000000
   18       -5.609920   1.000000
   19       -5.605600   1.000000
   20       -5.593128   1.000000
   21       -5.588544   1.000000
   22       -5.587140   1.000000
   23       -5.578777   1.000000
   24       -5.543266   1.000000
   25       -5.532684   1.000000
   26       -5.531411   1.000000
   27       -5.530128   1.000000
   28       -5.526706   1.000000
   29       -5.507792   1.000000
   30       -5.503200   1.000000
   31       -5.501584   1.000000
   32       -5.497530   1.000000
   33       -5.496602   1.000000
   34       -5.496308   1.000000
   35       -5.496015   1.000000
   36       -5.470036   1.000000
   37       -5.462869   1.000000
   38       -5.455948   1.000000
   39       -5.454852   1.000000
   40       -5.451630   1.000000
   41       -5.451237   1.000000
   42       -5.450599   1.000000
   43       -5.449420   1.000000
   44       -5.418546   1.000000
   45       -5.418122   1.000000
   46       -5.413596   1.000000
   47       -5.411783   1.000000
   48       -5.410886   1.000000
   49       -5.407297   1.000000
   50       -5.405703   1.000000
   51       -5.403829   1.000000
   52       -5.389538   1.000000
   53       -5.389070   1.000000
   54       -5.386755   1.000000
   55       -5.375920   1.000000
   56       -5.328003   1.000000
   57       -5.312221   1.000000
   58       -5.309058   1.000000
   59       -5.308528   1.000000
   60       -5.306847   1.000000
   61       -5.301583   1.000000
   62       -5.300142   1.000000
   63       -5.297133   1.000000
   64       -5.284358   1.000000
   65       -5.283568   1.000000
   66       -5.272162   1.000000
   67       -5.272073   1.000000
   68       -5.199899   1.000000
   69       -5.193000   1.000000
   70       -5.187646   1.000000
   71       -5.187501   1.000000
   72       -5.176708   1.000000
   73       -5.166634   1.000000
   74       -5.165149   1.000000
   75       -5.163123   1.000000
   76       -5.161732   1.000000
   77       -5.161382   1.000000
   78       -5.147160   1.000000
   79       -5.145233   1.000000
   80       -5.133353   1.000000
   81       -5.116355   1.000000
   82       -5.110720   1.000000
   83       -5.107395   1.000000
   84       -5.099068   1.000000
   85       -5.091467   1.000000
   86       -5.087915   1.000000
   87       -5.086162   1.000000
   88       -5.050462   1.000000
   89       -5.048205   1.000000
   90       -5.038818   1.000000
   91       -5.038686   1.000000
   92       -5.036977   1.000000
   93       -5.036141   1.000000
   94       -5.035002   1.000000
   95       -5.031944   1.000000
   96       -5.018297   1.000000
   97       -5.015343   1.000000
   98       -5.012128   1.000000
   99       -5.009655   1.000000
  100       -5.002522   1.000000
  101       -4.995243   1.000000
  102       -4.989297   1.000000
  103       -4.987891   1.000000
  104       -4.980870   1.000000
  105       -4.978856   1.000000
  106       -4.974815   1.000000
  107       -4.973165   1.000000
  108       -4.965484   1.000000
  109       -4.964621   1.000000
  110       -4.955011   1.000000
  111       -4.954156   1.000000
  112       -4.944380   0.999999
  113       -4.941058   0.999999
  114       -4.939342   0.999999
  115       -4.939192   0.999999
  116       -4.936338   0.999999
  117       -4.921162   0.999999
  118       -4.909240   0.999998
  119       -4.902240   0.999998
  120       -4.900297   0.999998
  121       -4.889032   0.999997
  122       -4.887642   0.999996
  123       -4.885464   0.999996
  124       -4.884142   0.999996
  125       -4.882876   0.999996
  126       -4.882753   0.999996
  127       -4.842153   0.999985
  128       -4.829976   0.999978
  129       -4.828151   0.999977
  130       -4.824761   0.999974
  131       -4.823598   0.999974
  132       -4.823343   0.999973
  133       -4.814485   0.999966
  134       -4.812604   0.999964
  135       -4.811717   0.999963
  136       -4.789468   0.999931
  137       -4.776187   0.999902
  138       -4.775881   0.999901
  139       -4.774757   0.999898
  140       -4.753413   0.999824
  141       -4.752689   0.999821
  142       -4.747100   0.999795
  143       -4.729042   0.999686
  144       -4.721911   0.999630
  145       -4.719715   0.999611
  146       -4.717613   0.999593
  147       -4.706014   0.999476
  148       -4.688778   0.999250
  149       -4.681228   0.999129
  150       -4.672258   0.998966
  151       -4.669188   0.998906
  152       -4.667119   0.998863
  153       -4.658525   0.998673
  154       -4.658249   0.998666
  155       -4.655438   0.998599
  156       -4.654813   0.998584
  157       -4.653846   0.998560
  158       -4.653768   0.998558
  159       -4.648263   0.998417
  160       -4.637313   0.998108
  161       -4.636787   0.998093
  162       -4.632537   0.997963
  163       -4.629667   0.997872
  164       -4.629095   0.997854
  165       -4.627988   0.997818
  166       -4.627579   0.997805
  167       -4.625280   0.997730
  168       -4.624062   0.997689
  169       -4.613108   0.997310
  170       -4.611667   0.997258
  171       -4.586194   0.996309
  172       -4.583707   0.996217
  173       -4.580079   0.996085
  174       -4.579067   0.996049
  175       -4.578619   0.996033
  176       -4.576470   0.995957
  177       -4.574794   0.995899
  178       -4.569785   0.995730
  179       -4.564871   0.995577
  180       -4.557588   0.995375
  181       -4.555788   0.995331
  182       -4.542588   0.995102
  183       -4.540028   0.995081
  184       -4.536758   0.995066
  185       -4.535135   0.995065
  186       -4.534481   0.995066
  187       -4.533318   0.995068
  188       -4.531897   0.995074
  189       -4.529999   0.995088
  190       -4.529766   0.995090
  191       -4.493377   0.996915
  192       -4.490919   0.997173
  193       -4.490328   0.997239
  194       -4.488856   0.997406
  195       -4.486731   0.997661
  196       -4.479142   0.998709
  197       -4.465461   1.001174
  198       -4.464642   1.001347
  199       -4.461228   1.002098
  200       -4.456765   1.003157
  201       -4.453414   1.004012
  202       -4.444798   1.006444
  203       -4.442077   1.007283
  204       -4.440469   1.007794
  205       -4.434602   1.009759
  206       -4.433343   1.010201
  207       -4.428957   1.011793
  208       -4.426884   1.012574
  209       -4.422954   1.014104
  210       -4.422369   1.014337
  211       -4.405866   1.021412
  212       -4.398859   1.024655
  213       -4.393180   1.027350
  214       -4.390882   1.028451
  215       -4.388266   1.029709
  216       -4.388176   1.029753
  217       -4.386321   1.030646
  218       -4.384195   1.031670
  219       -4.379441   1.033949
  220       -4.365082   1.040566
  221       -4.349449   1.046693
  222       -4.348797   1.046910
  223       -4.333054   1.050825
  224       -4.325342   1.051580
  225       -4.321126   1.051594
  226       -4.319535   1.051518
  227       -4.319371   1.051508
  228       -4.317394   1.051344
  229       -4.316582   1.051255
  230       -4.316025   1.051187
  231       -4.314959   1.051039
  232       -4.311870   1.050483
  233       -4.310691   1.050219
  234       -4.306727   1.049110
  235       -4.304740   1.048421
  236       -4.303601   1.047984
  237       -4.302931   1.047713
  238       -4.300990   1.046867
  239       -4.300792   1.046776
  240       -4.299851   1.046328
  241       -4.287345   1.038160
  242       -4.280877   1.032191
  243       -4.272803   1.022909
  244       -4.267444   1.015559
  245       -4.266557   1.014249
  246       -4.265470   1.012605
  247       -4.265286   1.012322
  248       -4.264550   1.011180
  249       -4.260665   1.004838
  250       -4.247987   0.980305
  251       -4.245444   0.974659
  252       -4.241139   0.964534
  253       -4.237652   0.955812
  254       -4.234890   0.948568
  255       -4.231930   0.940477
  256       -4.230607   0.936750
  257       -4.230063   0.935198
  258       -4.229197   0.932704
  259       -4.225446   0.921565
  260       -4.225251   0.920970
  261       -4.223872   0.916730
  262       -4.220927   0.907427
  263       -4.218942   0.900968
  264       -4.218555   0.899693
  265       -4.216283   0.892083
  266       -4.207978   0.862635
  267       -4.205633   0.853864
  268       -4.202084   0.840218
  269       -4.201798   0.839099
  270       -4.199361   0.829453
  271       -4.197318   0.821208
  272       -4.193993   0.807495
  273       -4.175831   0.726625
  274       -4.173601   0.716071
  275       -4.165604   0.677282
  276       -4.162961   0.664171
  277       -4.158237   0.640412
  278       -4.158006   0.639240
  279       -4.154150   0.619563
  280       -4.151514   0.605996
  281       -4.151196   0.604351
  282       -4.139155   0.541417
  283       -4.110671   0.391707
  284       -4.109397   0.385149
  285       -4.108545   0.380770
  286       -4.108068   0.378324
  287       -4.094991   0.312716
  288       -4.094098   0.308353
  289       -4.091873   0.297559
  290       -3.949804  -0.050676
  291       -3.876843  -0.030903
  292       -3.805820  -0.003146
  293       -3.796829  -0.001103
  294       -3.768853   0.003125
  295       -3.477109   0.000077
  296       -3.469133   0.000062
  297       -3.430190   0.000020
  298       -3.038584   0.000000
  299       -3.037403   0.000000
  300       -3.017174   0.000000
  301       -3.004719   0.000000
  302       -2.999932   0.000000
  303       -2.953744   0.000000
  304       -2.918485   0.000000
  305       -2.908012   0.000000
  306       -2.502957   0.000000
  307       -2.501905   0.000000
  308       -2.421208   0.000000
  309       -2.349054   0.000000
  310       -2.126092   0.000000
  311       -2.102086   0.000000
  312       -2.097686   0.000000
  313       -1.991393   0.000000
  314       -1.965301   0.000000
  315       -1.918528   0.000000
  316       -1.847721   0.000000
  317       -1.835358   0.000000
  318       -1.724637   0.000000
  319       -1.689200   0.000000
  320       -1.621523   0.000000
  321       -1.606098   0.000000
  322       -1.580109   0.000000
  323       -1.539848   0.000000
  324       -1.451855   0.000000
  325       -1.425839   0.000000
  326       -1.208199   0.000000
  327       -1.179011   0.000000
  328       -1.156330   0.000000
  329       -0.974993   0.000000
  330       -0.968233   0.000000
  331       -0.956405   0.000000
  332       -0.913995   0.000000
  333       -0.898572   0.000000
  334       -0.806230   0.000000
  335       -0.652845   0.000000
  336       -0.484008   0.000000
