 running on    1 total cores
 distrk:  each k-point on    1 cores,    1 groups
 distr:  one band on    1 cores,    1 groups
 using from now: INCAR     
 vasp.5.4.4.18Apr17-6-g9f103f2a35 (build Sep 03 2018 23:53:05) complex          
  
 POSCAR found type information on POSCAR  Pd C  O 
 POSCAR found :  3 types and      57 ions
 scaLAPACK will be used

 ----------------------------------------------------------------------------- 
|                                                                             |
|  ADVICE TO THIS USER RUNNING 'VASP/VAMP'   (HEAR YOUR MASTER'S VOICE ...):  |
|                                                                             |
|      You enforced a specific xc-type in the INCAR file,                     |
|      a different type was found on the POTCAR file                          |
|          I HOPE YOU KNOW, WHAT YOU ARE  DOING                               |
|                                                                             |
 ----------------------------------------------------------------------------- 

 LDA part: xc-table for Pade appr. of Perdew
 POSCAR, INCAR and KPOINTS ok, starting setup
 FFT: planning ...
 WAVECAR not read
 entering main loop
       N       E                     dE             d eps       ncg     rms          rms(c)
DAV:   1     0.438252749009E+04    0.43825E+04   -0.10047E+05   688   0.815E+02
DAV:   2     0.201324668367E+04   -0.23693E+04   -0.21313E+04  1232   0.105E+02
DAV:   3     0.235719674706E+03   -0.17775E+04   -0.16728E+04   992   0.918E+01
DAV:   4    -0.133686306106E+03   -0.36941E+03   -0.31097E+03   824   0.436E+01
DAV:   5    -0.178464784810E+03   -0.44778E+02   -0.37140E+02  1048   0.145E+01    0.139E+01
RMM:   6    -0.178960352828E+03   -0.49557E+00   -0.55040E+01   721   0.866E+00    0.263E+01
RMM:   7    -0.180563343024E+03   -0.16030E+01   -0.18107E+01   875   0.408E+00    0.223E+01
RMM:   8    -0.182172934610E+03   -0.16096E+01   -0.67344E+00   769   0.333E+00    0.233E+01
RMM:   9    -0.180931458681E+03    0.12415E+01   -0.53363E+00   730   0.318E+00    0.240E+01
RMM:  10    -0.179239184069E+03    0.16923E+01   -0.31155E+00   725   0.254E+00    0.239E+01
RMM:  11    -0.177694825395E+03    0.15444E+01   -0.15264E+00   731   0.182E+00    0.176E+01
RMM:  12    -0.176381208239E+03    0.13136E+01   -0.12490E+00   721   0.168E+00    0.144E+01
RMM:  13    -0.175737362080E+03    0.64385E+00   -0.83608E-01   719   0.138E+00    0.138E+01
RMM:  14    -0.175528417950E+03    0.20894E+00   -0.96502E-01   723   0.146E+00    0.127E+01
RMM:  15    -0.176359121739E+03   -0.83070E+00   -0.11068E+00   716   0.155E+00    0.221E+01
RMM:  16    -0.175028423908E+03    0.13307E+01   -0.87859E-01   718   0.142E+00    0.132E+01
RMM:  17    -0.174329938624E+03    0.69849E+00   -0.58791E-01   710   0.116E+00    0.854E+00
RMM:  18    -0.174310559734E+03    0.19379E-01   -0.41692E-01   714   0.961E-01    0.845E+00
RMM:  19    -0.174487009067E+03   -0.17645E+00   -0.35747E-01   712   0.897E-01    0.116E+01
RMM:  20    -0.174195391640E+03    0.29162E+00   -0.19725E-01   718   0.709E-01    0.848E+00
RMM:  21    -0.174015966741E+03    0.17942E+00   -0.15257E-01   717   0.625E-01    0.686E+00
RMM:  22    -0.173952672920E+03    0.63294E-01   -0.17195E-01   713   0.634E-01    0.514E+00
RMM:  23    -0.173981355351E+03   -0.28682E-01   -0.18411E-01   713   0.669E-01    0.617E+00
RMM:  24    -0.173936150159E+03    0.45205E-01   -0.13980E-01   714   0.583E-01    0.625E+00
RMM:  25    -0.173886545735E+03    0.49604E-01   -0.97065E-02   711   0.498E-01    0.575E+00
RMM:  26    -0.173769988081E+03    0.11656E+00   -0.59869E-02   705   0.407E-01    0.300E+00
RMM:  27    -0.173745729972E+03    0.24258E-01   -0.30520E-02   711   0.290E-01    0.250E+00
RMM:  28    -0.173747882146E+03   -0.21522E-02   -0.25504E-02   709   0.253E-01    0.270E+00
RMM:  29    -0.173721299497E+03    0.26583E-01   -0.17223E-02   710   0.225E-01    0.184E+00
RMM:  30    -0.173708889770E+03    0.12410E-01   -0.10333E-02   708   0.170E-01    0.127E+00
RMM:  31    -0.173705451064E+03    0.34387E-02   -0.78770E-03   706   0.142E-01    0.112E+00
RMM:  32    -0.173700078784E+03    0.53723E-02   -0.55018E-03   707   0.119E-01    0.844E-01
RMM:  33    -0.173698264330E+03    0.18145E-02   -0.42665E-03   709   0.105E-01    0.724E-01
RMM:  34    -0.173698051085E+03    0.21324E-03   -0.32039E-03   702   0.940E-02    0.653E-01
RMM:  35    -0.173698597185E+03   -0.54610E-03   -0.32616E-03   701   0.906E-02    0.569E-01
RMM:  36    -0.173698932991E+03   -0.33581E-03   -0.17566E-03   702   0.686E-02    0.376E-01
RMM:  37    -0.173701873677E+03   -0.29407E-02   -0.15525E-03   696   0.616E-02    0.425E-01
RMM:  38    -0.173703294821E+03   -0.14211E-02   -0.89494E-04   698   0.463E-02    0.325E-01
RMM:  39    -0.173705836080E+03   -0.25413E-02   -0.70317E-04   666   0.404E-02    0.320E-01
RMM:  40    -0.173707729747E+03   -0.18937E-02   -0.51973E-04   571   0.346E-02    0.187E-01
RMM:  41    -0.173710178434E+03   -0.24487E-02   -0.42680E-04   506   0.304E-02    0.255E-01
RMM:  42    -0.173713401620E+03   -0.32232E-02   -0.57670E-04   563   0.326E-02    0.140E-01
RMM:  43    -0.173714538138E+03   -0.11365E-02   -0.21526E-04   437   0.213E-02    0.103E-01
RMM:  44    -0.173716885992E+03   -0.23479E-02   -0.20665E-04   430   0.197E-02    0.110E-01
RMM:  45    -0.173717844184E+03   -0.95819E-03   -0.11630E-04   422   0.152E-02    0.804E-02
RMM:  46    -0.173719523957E+03   -0.16798E-02   -0.16416E-04   421   0.162E-02    0.108E-01
RMM:  47    -0.173721087727E+03   -0.15638E-02   -0.17545E-04   426   0.163E-02    0.812E-02
RMM:  48    -0.173721681335E+03   -0.59361E-03   -0.78956E-05   420   0.113E-02    0.544E-02
RMM:  49    -0.173722830436E+03   -0.11491E-02   -0.83020E-05   409   0.103E-02    0.415E-02
RMM:  50    -0.173723202678E+03   -0.37224E-03   -0.41011E-05   412   0.725E-03    0.334E-02
RMM:  51    -0.173723685841E+03   -0.48316E-03   -0.24269E-05   372   0.595E-03    0.350E-02
RMM:  52    -0.173724179628E+03   -0.49379E-03   -0.17906E-05   309   0.534E-03    0.167E-02
RMM:  53    -0.173724466671E+03   -0.28704E-03   -0.82871E-06   220   0.442E-03    0.199E-02
RMM:  54    -0.173724877722E+03   -0.41105E-03   -0.14559E-05   284   0.463E-03    0.154E-02
RMM:  55    -0.173725055055E+03   -0.17733E-03   -0.27686E-06   133   0.350E-03    0.887E-03
RMM:  56    -0.173725370888E+03   -0.31583E-03   -0.98137E-06   215   0.423E-03    0.106E-02
RMM:  57    -0.173725545216E+03   -0.17433E-03   -0.65963E-06   172   0.382E-03    0.651E-03
RMM:  58    -0.173725722940E+03   -0.17772E-03   -0.11834E-05   213   0.407E-03    0.869E-03
RMM:  59    -0.173725851218E+03   -0.12828E-03   -0.52608E-06   151   0.374E-03    0.464E-03
RMM:  60    -0.173725910923E+03   -0.59706E-04   -0.39200E-06   126   0.364E-03
   1 F= -.17372591E+03 E0= -.17370367E+03  d E =-.889629E-01
================================= SLURM INFO ===================================
Command: run-cluster -n 1 -m 10000 -j 0457_vasp --same-node /opt/VASP/vasp
Exit code: 0
Job name: 0457_vasp
Job time: 0 days 5h:2m:56s
MPI task count: 1
Working dir: /home/pashkov/pyFitIt/pyfitit/data/random_pd_co_new/sample/0457
Job was running on nodes: h18
Task per node: 1
       JobID     MaxRSS  MaxDiskRead MaxDiskWrite    Elapsed    JobName 
------------ ---------- ------------ ------------ ---------- ---------- 
106135                                              05:02:56  0457_vasp 
106135.batch                                        05:02:56      batch 
