 vasp.5.4.4.18Apr17-6-g9f103f2a35 (build Sep 03 2018 23:53:05) complex          
  
 executed on             LinuxIFC date 2021.12.01  15:37:00
 running on    1 total cores
 distrk:  each k-point on    1 cores,    1 groups
 distr:  one band on NCORES_PER_BAND=   1 cores,    1 groups


--------------------------------------------------------------------------------------------------------


 INCAR:
 POTCAR:    PAW_PBE Pd 04Jan2005                  
 POTCAR:    PAW_PBE C 08Apr2002                   
 POTCAR:    PAW_PBE O 08Apr2002                   
 POTCAR:    PAW_PBE Pd 04Jan2005                  
   VRHFIN =Pd : s1 d9                                                           
   LEXCH  = PE                                                                  
   EATOM  =   809.7530 eV,   59.5152 Ry                                         
                                                                                
   TITEL  = PAW_PBE Pd 04Jan2005                                                
   LULTRA =        F    use ultrasoft PP ?                                      
   IUNSCR =        1    unscreen: 0-lin 1-nonlin 2-no                           
   RPACOR =    2.000    partial core radius                                     
   POMASS =  106.420; ZVAL   =   10.000    mass and valenz                      
   RCORE  =    2.600    outmost cutoff radius                                   
   RWIGS  =    2.710; RWIGS  =    1.434    wigner-seitz radius (au A)           
   ENMAX  =  250.925; ENMIN  =  188.194 eV                                      
   ICORE  =        3    local potential                                         
   LCOR   =        T    correct aug charges                                     
   LPAW   =        T    paw PP                                                  
   EAUG   =  416.230                                                            
   DEXC   =    0.000                                                            
   RMAX   =    2.653    core radius for proj-oper                               
   RAUG   =    1.300    factor for augmentation sphere                          
   RDEP   =    2.734    radius for radial grids                                 
   RDEPT  =    2.103    core radius for aug-charge                              
                                                                                
   Atomic configuration                                                         
   12 entries                                                                   
     n  l   j            E        occ.                                          
     1  0  0.50    -24164.6631   2.0000                                         
     2  0  0.50     -3530.9218   2.0000                                         
     2  1  1.50     -3165.6822   6.0000                                         
     3  0  0.50      -639.4577   2.0000                                         
     3  1  1.50      -519.4532   6.0000                                         
     3  2  2.50      -328.9757  10.0000                                         
     4  0  0.50       -88.7014   2.0000                                         
     4  1  1.50       -54.4540   6.0000                                         
     4  2  2.50        -6.6878   9.0000                                         
     5  0  0.50        -4.3543   1.0000                                         
     5  1  0.50        -1.3606   0.0000                                         
     4  3  2.50        -1.3606   0.0000                                         
   Description                                                                  
     l       E           TYP  RCUT    TYP  RCUT                                 
     2     -6.6878251     23  2.400                                             
     2     -8.0484077     23  2.400                                             
     0     -4.3542939     23  2.400                                             
     0      4.3406793     23  2.400                                             
     1     -4.0817478     23  2.600                                             
     1     15.8380318     23  2.600                                             
     3     -4.0817478     23  2.400                                             
  local pseudopotential read in
  partial core-charges read in
  partial kinetic energy density read in
  atomic valenz-charges read in
  non local Contribution for L=           2  read in
    real space projection operators read in
  non local Contribution for L=           2  read in
    real space projection operators read in
  non local Contribution for L=           0  read in
    real space projection operators read in
  non local Contribution for L=           0  read in
    real space projection operators read in
  non local Contribution for L=           1  read in
    real space projection operators read in
  non local Contribution for L=           1  read in
    real space projection operators read in
    PAW grid and wavefunctions read in
 
   number of l-projection  operators is LMAX  =           6
   number of lm-projection operators is LMMAX =          18
 
 POTCAR:    PAW_PBE C 08Apr2002                   
   VRHFIN =C: s2p2                                                              
   LEXCH  = PE                                                                  
   EATOM  =   147.1560 eV,   10.8157 Ry                                         
                                                                                
   TITEL  = PAW_PBE C 08Apr2002                                                 
   LULTRA =        F    use ultrasoft PP ?                                      
   IUNSCR =        1    unscreen: 0-lin 1-nonlin 2-no                           
   RPACOR =    1.200    partial core radius                                     
   POMASS =   12.011; ZVAL   =    4.000    mass and valenz                      
   RCORE  =    1.500    outmost cutoff radius                                   
   RWIGS  =    1.630; RWIGS  =    0.863    wigner-seitz radius (au A)           
   ENMAX  =  400.000; ENMIN  =  300.000 eV                                      
   ICORE  =        2    local potential                                         
   LCOR   =        T    correct aug charges                                     
   LPAW   =        T    paw PP                                                  
   EAUG   =  644.873                                                            
   DEXC   =    0.000                                                            
   RMAX   =    1.529    core radius for proj-oper                               
   RAUG   =    1.300    factor for augmentation sphere                          
   RDEP   =    1.501    radius for radial grids                                 
   RDEPT  =    1.300    core radius for aug-charge                              
                                                                                
   Atomic configuration                                                         
    4 entries                                                                   
     n  l   j            E        occ.                                          
     1  0  0.50      -273.3789   2.0000                                         
     2  0  0.50       -13.7508   2.0000                                         
     2  1  0.50        -5.2854   2.0000                                         
     3  2  1.50        -5.4423   0.0000                                         
   Description                                                                  
     l       E           TYP  RCUT    TYP  RCUT                                 
     0    -13.7508458     23  1.200                                             
     0     -8.2022199     23  1.200                                             
     1     -5.2854383     23  1.500                                             
     1     34.0145650     23  1.500                                             
     2     -5.4423304      7  1.500                                             
  local pseudopotential read in
  partial core-charges read in
  partial kinetic energy density read in
  atomic valenz-charges read in
  non local Contribution for L=           0  read in
    real space projection operators read in
  non local Contribution for L=           0  read in
    real space projection operators read in
  non local Contribution for L=           1  read in
    real space projection operators read in
  non local Contribution for L=           1  read in
    real space projection operators read in
    PAW grid and wavefunctions read in
 
   number of l-projection  operators is LMAX  =           4
   number of lm-projection operators is LMMAX =           8
 
 POTCAR:    PAW_PBE O 08Apr2002                   
   VRHFIN =O: s2p4                                                              
   LEXCH  = PE                                                                  
   EATOM  =   432.3788 eV,   31.7789 Ry                                         
                                                                                
   TITEL  = PAW_PBE O 08Apr2002                                                 
   LULTRA =        F    use ultrasoft PP ?                                      
   IUNSCR =        1    unscreen: 0-lin 1-nonlin 2-no                           
   RPACOR =    1.200    partial core radius                                     
   POMASS =   16.000; ZVAL   =    6.000    mass and valenz                      
   RCORE  =    1.520    outmost cutoff radius                                   
   RWIGS  =    1.550; RWIGS  =    0.820    wigner-seitz radius (au A)           
   ENMAX  =  400.000; ENMIN  =  300.000 eV                                      
   ICORE  =        2    local potential                                         
   LCOR   =        T    correct aug charges                                     
   LPAW   =        T    paw PP                                                  
   EAUG   =  605.392                                                            
   DEXC   =    0.000                                                            
   RMAX   =    1.553    core radius for proj-oper                               
   RAUG   =    1.300    factor for augmentation sphere                          
   RDEP   =    1.550    radius for radial grids                                 
   RDEPT  =    1.329    core radius for aug-charge                              
                                                                                
   Atomic configuration                                                         
    4 entries                                                                   
     n  l   j            E        occ.                                          
     1  0  0.50      -514.6923   2.0000                                         
     2  0  0.50       -23.9615   2.0000                                         
     2  1  0.50        -9.0305   4.0000                                         
     3  2  1.50        -9.5241   0.0000                                         
   Description                                                                  
     l       E           TYP  RCUT    TYP  RCUT                                 
     0    -23.9615318     23  1.200                                             
     0     -9.5240782     23  1.200                                             
     1     -9.0304911     23  1.520                                             
     1      8.1634956     23  1.520                                             
     2     -9.5240782      7  1.500                                             
  local pseudopotential read in
  partial core-charges read in
  partial kinetic energy density read in
  kinetic energy density of atom read in
  atomic valenz-charges read in
  non local Contribution for L=           0  read in
    real space projection operators read in
  non local Contribution for L=           0  read in
    real space projection operators read in
  non local Contribution for L=           1  read in
    real space projection operators read in
  non local Contribution for L=           1  read in
    real space projection operators read in
    PAW grid and wavefunctions read in
 
   number of l-projection  operators is LMAX  =           4
   number of lm-projection operators is LMMAX =           8
 
 Optimization of the real space projectors (new method)

 maximal supplied QI-value         = 14.36
 optimisation between [QCUT,QGAM] = [ 10.20, 20.39] = [ 29.12,116.47] Ry 
 Optimized for a Real-space Cutoff    1.51 Angstroem

   l    n(q)    QCUT    max X(q) W(low)/X(q) W(high)/X(q)  e(spline) 
   2      8    10.197    59.108    0.26E-03    0.14E-03    0.96E-07
   2      8    10.197    58.101    0.27E-03    0.14E-03    0.98E-07
   0      9    10.197   102.235    0.54E-04    0.60E-05    0.72E-07
   0      9    10.197    58.388    0.52E-04    0.60E-05    0.68E-07
   1      9    10.197    22.191    0.18E-03    0.25E-03    0.79E-07
   1      9    10.197    15.590    0.15E-03    0.21E-03    0.69E-07
 Optimization of the real space projectors (new method)

 maximal supplied QI-value         = 25.13
 optimisation between [QCUT,QGAM] = [ 10.05, 20.36] = [ 28.30,116.06] Ry 
 Optimized for a Real-space Cutoff    1.30 Angstroem

   l    n(q)    QCUT    max X(q) W(low)/X(q) W(high)/X(q)  e(spline) 
   0      8    10.053   115.676    0.49E-03    0.72E-03    0.18E-06
   0      8    10.053    87.132    0.49E-03    0.71E-03    0.18E-06
   1      7    10.053     4.429    0.32E-03    0.31E-03    0.18E-06
   1      7    10.053     2.733    0.23E-03    0.19E-03    0.20E-06
 Optimization of the real space projectors (new method)

 maximal supplied QI-value         = 24.76
 optimisation between [QCUT,QGAM] = [ 10.15, 20.30] = [ 28.85,115.39] Ry 
 Optimized for a Real-space Cutoff    1.38 Angstroem

   l    n(q)    QCUT    max X(q) W(low)/X(q) W(high)/X(q)  e(spline) 
   0      8    10.150    20.381    0.22E-03    0.32E-03    0.29E-06
   0      8    10.150    15.268    0.23E-03    0.35E-03    0.30E-06
   1      8    10.150     5.964    0.46E-03    0.53E-03    0.21E-06
   1      8    10.150     5.382    0.38E-03    0.45E-03    0.19E-06

 ----------------------------------------------------------------------------- 
|                                                                             |
|  ADVICE TO THIS USER RUNNING 'VASP/VAMP'   (HEAR YOUR MASTER'S VOICE ...):  |
|                                                                             |
|      You enforced a specific xc-type in the INCAR file,                     |
|      a different type was found on the POTCAR file                          |
|          I HOPE YOU KNOW, WHAT YOU ARE  DOING                               |
|                                                                             |
 ----------------------------------------------------------------------------- 

  PAW_PBE Pd 04Jan2005                  :
 energy of atom  1       EATOM= -809.7530
 kinetic energy error for atom=    0.0091 (will be added to EATOM!!)
  PAW_PBE C 08Apr2002                   :
 energy of atom  2       EATOM= -147.1560
 kinetic energy error for atom=    0.0288 (will be added to EATOM!!)
  PAW_PBE O 08Apr2002                   :
 energy of atom  3       EATOM= -432.3788
 kinetic energy error for atom=    0.1156 (will be added to EATOM!!)
 
 
 POSCAR: Pd55PES                                 
  positions in cartesian coordinates
  No initial velocities read in
 exchange correlation table for  LEXCH =        9
   RHO(1)=    0.500       N(1)  =     2000
   RHO(2)=  100.500       N(2)  =     4000
 


--------------------------------------------------------------------------------------------------------


 ion  position               nearest neighbor table
   1  0.446  0.328  0.417-   3 3.25   5 3.25   7 3.36  15 3.36  29 3.42  28 3.42
   2  0.672  0.554  0.417-  26 3.25  30 3.25  17 3.36   9 3.36  47 3.42  49 3.42
   3  0.554  0.328  0.417-   1 3.25   5 3.25   7 3.36  11 3.36  29 3.42  21 3.42
   4  0.328  0.554  0.417-  32 3.25  22 3.25  13 3.36   8 3.36  43 3.42  48 3.42
   5  0.500  0.383  0.340-   1 3.25   3 3.25  11 3.36  15 3.36  21 3.42  28 3.42
   6  0.500  0.383  0.660-  24 3.25  19 3.25  16 3.36  12 3.36  42 3.42  44 3.42
   7  0.500  0.276  0.500-  29 3.24   3 3.36   1 3.36  19 3.36  24 3.36
   8  0.276  0.500  0.500-  48 3.24  22 3.36  40 3.36   4 3.36  25 3.36
   9  0.724  0.500  0.500-  49 3.24  26 3.36  45 3.36   2 3.36  20 3.36
  10  0.500  0.724  0.500-  55 3.24  27 3.36  23 3.36  46 3.36  41 3.36
  11  0.612  0.388  0.342-  21 3.24   5 3.36   3 3.36  30 3.36  26 3.36
  12  0.612  0.388  0.658-  42 3.24  24 3.36  45 3.36   6 3.36  31 3.36
  13  0.388  0.612  0.342-  43 3.24  32 3.36  50 3.36   4 3.36  27 3.36
  14  0.388  0.612  0.658-  53 3.24  25 3.36  33 3.36  51 3.36  46 3.36
  15  0.388  0.388  0.342-  28 3.24   5 3.36   1 3.36  32 3.36  22 3.36
  16  0.388  0.388  0.658-  44 3.24  19 3.36  40 3.36   6 3.36  33 3.36
  17  0.612  0.612  0.342-  47 3.24  30 3.36  50 3.36   2 3.36  23 3.36
  18  0.612  0.612  0.658-  54 3.24  31 3.36  20 3.36  51 3.36  41 3.36
  19  0.446  0.328  0.583-   6 3.25  24 3.25  16 3.36   7 3.36  44 3.42  29 3.42
  20  0.672  0.554  0.583-  31 3.25  45 3.25  18 3.36   9 3.36  54 3.42  49 3.42
  21  0.558  0.442  0.418-  11 3.24   5 3.42   3 3.42  30 3.42  26 3.42
  22  0.328  0.446  0.417-   4 3.25  32 3.25   8 3.36  15 3.36  48 3.42  28 3.42
  23  0.554  0.672  0.417-  27 3.25  50 3.25  10 3.36  17 3.36  55 3.42  47 3.42
  24  0.554  0.328  0.583-   6 3.25  19 3.25  12 3.36   7 3.36  42 3.42  29 3.42
  25  0.328  0.554  0.583-  33 3.25  40 3.25  14 3.36   8 3.36  53 3.42  48 3.42
  26  0.672  0.446  0.417-   2 3.25  30 3.25   9 3.36  11 3.36  49 3.42  21 3.42
  27  0.446  0.672  0.417-  23 3.25  50 3.25  10 3.36  13 3.36  55 3.42  43 3.42
  28  0.442  0.442  0.418-  15 3.24   5 3.42   1 3.42  32 3.42  22 3.42
  29  0.500  0.384  0.500-   7 3.24   3 3.42   1 3.42  24 3.42  19 3.42
  30  0.617  0.500  0.340-   2 3.25  26 3.25  17 3.36  11 3.36  47 3.42  21 3.42
  31  0.617  0.500  0.660-  20 3.25  45 3.25  18 3.36  12 3.36  54 3.42  42 3.42
  32  0.383  0.500  0.340-   4 3.25  22 3.25  13 3.36  15 3.36  43 3.42  28 3.42
  33  0.383  0.500  0.660-  25 3.25  40 3.25  14 3.36  16 3.36  53 3.42  44 3.42
  34  0.383  0.383  0.500-
  35  0.617  0.617  0.500-
  36  0.617  0.383  0.500-
  37  0.383  0.617  0.500-
  38  0.500  0.500  0.335-  56 2.32
  39  0.500  0.500  0.665-
  40  0.328  0.446  0.583-  33 3.25  25 3.25  16 3.36   8 3.36  44 3.42  48 3.42
  41  0.554  0.672  0.583-  46 3.25  51 3.25  10 3.36  18 3.36  54 3.42  55 3.42
  42  0.558  0.442  0.582-  12 3.24   6 3.42  24 3.42  31 3.42  45 3.42
  43  0.442  0.558  0.418-  13 3.24   4 3.42  32 3.42  27 3.42  50 3.42
  44  0.442  0.442  0.582-  16 3.24   6 3.42  19 3.42  33 3.42  40 3.42
  45  0.672  0.446  0.583-  20 3.25  31 3.25   9 3.36  12 3.36  49 3.42  42 3.42
  46  0.446  0.672  0.583-  41 3.25  51 3.25  10 3.36  14 3.36  53 3.42  55 3.42
  47  0.558  0.558  0.418-  17 3.24   2 3.42  30 3.42  23 3.42  50 3.42
  48  0.384  0.500  0.500-   8 3.24   4 3.42  22 3.42  25 3.42  40 3.42
  49  0.616  0.500  0.500-   9 3.24   2 3.42  26 3.42  20 3.42  45 3.42
  50  0.500  0.617  0.340-  27 3.25  23 3.25  13 3.36  17 3.36  43 3.42  47 3.42
  51  0.500  0.617  0.660-  41 3.25  46 3.25  14 3.36  18 3.36  53 3.42  54 3.42
  52  0.500  0.500  0.500-
  53  0.442  0.558  0.582-  14 3.24  25 3.42  33 3.42  51 3.42  46 3.42
  54  0.558  0.558  0.582-  18 3.24  31 3.42  20 3.42  51 3.42  41 3.42
  55  0.500  0.616  0.500-  10 3.24  23 3.42  27 3.42  41 3.42  46 3.42
  56  0.516  0.501  0.259-  57 1.13  38 2.32
  57  0.518  0.501  0.221-  56 1.13
 
  LATTYP: Found a simple cubic cell.
 ALAT       =    30.0000000000
  
  Lattice vectors:
  
 A1 = (  30.0000000000,   0.0000000000,   0.0000000000)
 A2 = (   0.0000000000,  30.0000000000,   0.0000000000)
 A3 = (   0.0000000000,   0.0000000000,  30.0000000000)


Analysis of symmetry for initial positions (statically):
=====================================================================
 Subroutine PRICEL returns:
 Original cell was already a primitive cell.
 

 Routine SETGRP: Setting up the symmetry group for a 
 simple cubic supercell.


 Subroutine GETGRP returns: Found  1 space group operations
 (whereof  1 operations were pure point group operations)
 out of a pool of 48 trial point group operations.


The static configuration has the point symmetry C_1 .


Analysis of symmetry for dynamics (positions and initial velocities):
=====================================================================
 Subroutine PRICEL returns:
 Original cell was already a primitive cell.
 

 Routine SETGRP: Setting up the symmetry group for a 
 simple cubic supercell.


 Subroutine GETGRP returns: Found  1 space group operations
 (whereof  1 operations were pure point group operations)
 out of a pool of 48 trial point group operations.


The dynamic configuration has the point symmetry C_1 .


Analysis of constrained symmetry for selective dynamics:
=====================================================================
 Subroutine PRICEL returns:
 Original cell was already a primitive cell.
 

 Routine SETGRP: Setting up the symmetry group for a 
 simple cubic supercell.


 Subroutine GETGRP returns: Found  1 space group operations
 (whereof  1 operations were pure point group operations)
 out of a pool of 48 trial point group operations.


The constrained configuration has the point symmetry C_1 .


 Subroutine INISYM returns: Found  1 space group operations
 (whereof  1 operations are pure point group operations),
 and found     1 'primitive' translations

 
 
 KPOINTS: K-points                                

Automatic generation of k-mesh.
Space group operators:
 irot       det(A)        alpha          n_x          n_y          n_z        tau_x        tau_y        tau_z
    1     1.000000     0.000000     1.000000     0.000000     0.000000     0.000000     0.000000     0.000000
 
 Subroutine IBZKPT returns following result:
 ===========================================
 
 Found      1 irreducible k-points:
 
 Following reciprocal coordinates:
            Coordinates               Weight
  0.000000  0.000000  0.000000      1.000000
 
 Following cartesian coordinates:
            Coordinates               Weight
  0.000000  0.000000  0.000000      1.000000
 


--------------------------------------------------------------------------------------------------------




 Dimension of arrays:
   k-points           NKPTS =      1   k-points in BZ     NKDIM =      1   number of bands    NBANDS=    336
   number of dos      NEDOS =    301   number of ions     NIONS =     57
   non local maximal  LDIM  =      6   non local SUM 2l+1 LMDIM =     18
   total plane-waves  NPLWV = ******
   max r-space proj   IRMAX =   1847   max aug-charges    IRDMAX=   6262
   dimension x,y,z NGX =   150 NGY =  150 NGZ =  150
   dimension x,y,z NGXF=   300 NGYF=  300 NGZF=  300
   support grid    NGXF=   300 NGYF=  300 NGZF=  300
   ions per type =              55   1   1
   NGX,Y,Z   is equivalent  to a cutoff of   8.31,  8.31,  8.31 a.u.
   NGXF,Y,Z  is equivalent  to a cutoff of  16.62, 16.62, 16.62 a.u.

 SYSTEM =  6_Pd100_top_free_z(O)                   
 POSCAR =  Pd55PES                                 

 Startparameter for this run:
   NWRITE =      2    write-flag & timer
   PREC   = normal    normal or accurate (medium, high low for compatibility)
   ISTART =      0    job   : 0-new  1-cont  2-samecut
   ICHARG =      2    charge: 1-file 2-atom 10-const
   ISPIN  =      1    spin polarized calculation?
   LNONCOLLINEAR =      F non collinear calculations
   LSORBIT =      F    spin-orbit coupling
   INIWAV =      1    electr: 0-lowe 1-rand  2-diag
   LASPH  =      F    aspherical Exc in radial PAW
   METAGGA=      F    non-selfconsistent MetaGGA calc.

 Electronic Relaxation 1
   ENCUT  =  400.0 eV  29.40 Ry    5.42 a.u.  48.92 48.92 48.92*2*pi/ulx,y,z
   ENINI  =  400.0     initial cutoff
   ENAUG  =  644.9 eV  augmentation charge cutoff
   NELM   =    100;   NELMIN=  6; NELMDL= -5     # of ELM steps 
   EDIFF  = 0.1E-03   stopping-criterion for ELM
   LREAL  =      T    real-space projection
   NLSPLINE    = F    spline interpolate recip. space projectors
   LCOMPAT=      F    compatible to vasp.4.4
   GGA_COMPAT  = T    GGA compatible to vasp.4.4-vasp.4.6
   LMAXPAW     = -100 max onsite density
   LMAXMIX     =    2 max onsite mixed and CHGCAR
   VOSKOWN=      0    Vosko Wilk Nusair interpolation
   ROPT   =   -0.00050  -0.00050  -0.00050
 Ionic relaxation
   EDIFFG = -.5E-01   stopping-criterion for IOM
   NSW    =      0    number of steps for IOM
   NBLOCK =      1;   KBLOCK =      1    inner block; outer block 
   IBRION =     -1    ionic relax: 0-MD 1-quasi-New 2-CG
   NFREE  =      1    steps in history (QN), initial steepest desc. (CG)
   ISIF   =      2    stress and relaxation
   IWAVPR =     10    prediction:  0-non 1-charg 2-wave 3-comb
   ISYM   =      2    0-nonsym 1-usesym 2-fastsym
   LCORR  =      T    Harris-Foulkes like correction to forces

   POTIM  = 0.5000    time-step for ionic-motion
   TEIN   =    0.0    initial temperature
   TEBEG  =    0.0;   TEEND  =   0.0 temperature during run
   SMASS  =  -3.00    Nose mass-parameter (am)
   estimated Nose-frequenzy (Omega)   =  0.10E-29 period in steps =****** mass=  -0.206E-25a.u.
   SCALEE = 1.0000    scale energy and forces
   NPACO  =    256;   APACO  = 16.0  distance and # of slots for P.C.
   PSTRESS=    0.0 pullay stress

  Mass of Ions in am
   POMASS = 106.42 12.01 16.00
  Ionic Valenz
   ZVAL   =  10.00  4.00  6.00
  Atomic Wigner-Seitz radii
   RWIGS  =  -1.00 -1.00 -1.00
  virtual crystal weights 
   VCA    =   1.00  1.00  1.00
   NELECT =     560.0000    total number of electrons
   NUPDOWN=      -1.0000    fix difference up-down

 DOS related values:
   EMIN   =  10.00;   EMAX   =-10.00  energy-range for DOS
   EFERMI =   0.00
   ISMEAR =     2;   SIGMA  =   0.20  broadening in eV -4-tet -1-fermi 0-gaus

 Electronic relaxation 2 (details)
   IALGO  =     68    algorithm
   LDIAG  =      T    sub-space diagonalisation (order eigenvalues)
   LSUBROT=      F    optimize rotation matrix (better conditioning)
   TURBO    =      0    0=normal 1=particle mesh
   IRESTART =      0    0=no restart 2=restart with 2 vectors
   NREBOOT  =      0    no. of reboots
   NMIN     =      0    reboot dimension
   EREF     =   0.00    reference energy to select bands
   IMIX   =      4    mixing-type and parameters
     AMIX     =   0.40;   BMIX     =  1.00
     AMIX_MAG =   1.60;   BMIX_MAG =  1.00
     AMIN     =   0.10
     WC   =   100.;   INIMIX=   1;  MIXPRE=   1;  MAXMIX= -45

 Intra band minimization:
   WEIMIN = 0.0000     energy-eigenvalue tresh-hold
   EBREAK =  0.74E-07  absolut break condition
   DEPER  =   0.30     relativ break condition  

   TIME   =   0.40     timestep for ELM

  volume/ion in A,a.u.               =     473.68      3196.58
  Fermi-wavevector in a.u.,A,eV,Ry     =   0.449797  0.849992  2.752691  0.202317
  Thomas-Fermi vector in A             =   1.430086
 
 Write flags
   LWAVE        =      F    write WAVECAR
   LDOWNSAMPLE  =      F    k-point downsampling of WAVECAR
   LCHARG       =      F    write CHGCAR
   LVTOT        =      F    write LOCPOT, total local potential
   LVHAR        =      F    write LOCPOT, Hartree potential only
   LELF         =      F    write electronic localiz. function (ELF)
   LORBIT       =      0    0 simple, 1 ext, 2 COOP (PROOUT), +10 PAW based schemes


 Dipole corrections
   LMONO  =      F    monopole corrections only (constant potential shift)
   LDIPOL =      F    correct potential (dipole corrections)
   IDIPOL =      0    1-x, 2-y, 3-z, 4-all directions 
   EPSILON=  1.0000000 bulk dielectric constant

 Exchange correlation treatment:
   GGA     =    RP    GGA type
   LEXCH   =     9    internal setting for exchange type
   VOSKOWN=      0    Vosko Wilk Nusair interpolation
   LHFCALC =     F    Hartree Fock is set to
   LHFONE  =     F    Hartree Fock one center treatment
   AEXX    =    0.0000 exact exchange contribution

 Linear response parameters
   LEPSILON=     F    determine dielectric tensor
   LRPA    =     F    only Hartree local field effects (RPA)
   LNABLA  =     F    use nabla operator in PAW spheres
   LVEL    =     F    velocity operator in full k-point grid
   LINTERFAST=   F  fast interpolation
   KINTER  =     0    interpolate to denser k-point grid
   CSHIFT  =0.1000    complex shift for real part using Kramers Kronig
   OMEGAMAX=  -1.0    maximum frequency
   DEG_THRESHOLD= 0.2000000E-02 threshold for treating states as degnerate
   RTIME   =   -0.100 relaxation time in fs
  (WPLASMAI=    0.000 imaginary part of plasma frequency in eV, 0.658/RTIME)
   DFIELD  = 0.0000000 0.0000000 0.0000000 field for delta impulse in time
 
 Orbital magnetization related:
   ORBITALMAG=     F  switch on orbital magnetization
   LCHIMAG   =     F  perturbation theory with respect to B field
   DQ        =  0.001000  dq finite difference perturbation B field
   LLRAUG    =     F  two centre corrections for induced B field



--------------------------------------------------------------------------------------------------------


 Static calculation
 charge density and potential will be updated during run
 non-spin polarized calculation
 RMM-DIIS sequential band-by-band and
  variant of blocked Davidson during initial phase
 perform sub-space diagonalisation
    before iterative eigenvector-optimisation
 modified Broyden-mixing scheme, WC =      100.0
 initial mixing is a Kerker type mixing with AMIX =  0.4000 and BMIX =      1.0000
 Hartree-type preconditioning will be used
 using additional bands           56
 real space projection scheme for non local part
 use partial core corrections
 calculate Harris-corrections to forces 
   (improved forces if not selfconsistent)
 use gradient corrections 
 use of overlap-Matrix (Vanderbilt PP)
 Methfessel and Paxton  Order N= 2 SIGMA  =   0.20


--------------------------------------------------------------------------------------------------------


  energy-cutoff  :      400.00
  volume of cell :    27000.00
      direct lattice vectors                 reciprocal lattice vectors
    30.000000000  0.000000000  0.000000000     0.033333333  0.000000000  0.000000000
     0.000000000 30.000000000  0.000000000     0.000000000  0.033333333  0.000000000
     0.000000000  0.000000000 30.000000000     0.000000000  0.000000000  0.033333333

  length of vectors
    30.000000000 30.000000000 30.000000000     0.033333333  0.033333333  0.033333333


 
 k-points in units of 2pi/SCALE and weight: K-points                                
   0.00000000  0.00000000  0.00000000       1.000
 
 k-points in reciprocal lattice and weights: K-points                                
   0.00000000  0.00000000  0.00000000       1.000
 
 position of ions in fractional coordinates (direct lattice) 
   0.44576020  0.32826710  0.41691983
   0.67173288  0.55423978  0.41691983
   0.55423980  0.32826710  0.41691983
   0.32826712  0.55423978  0.41691983
   0.50000000  0.38250690  0.34021317
   0.50000000  0.38250690  0.65978680
   0.50000000  0.27609440  0.50000000
   0.27609443  0.49999998  0.50000000
   0.72390557  0.49999998  0.50000000
   0.50000000  0.72390555  0.50000000
   0.61195280  0.38804720  0.34167483
   0.61195280  0.38804720  0.65832513
   0.38804722  0.61195278  0.34167483
   0.38804722  0.61195278  0.65832513
   0.38804720  0.38804720  0.34167483
   0.38804720  0.38804720  0.65832513
   0.61195278  0.61195278  0.34167483
   0.61195278  0.61195278  0.65832513
   0.44576020  0.32826710  0.58308023
   0.67173288  0.55423978  0.58308023
   0.55791699  0.44208301  0.41809300
   0.32826705  0.44576024  0.41691983
   0.55423973  0.67173293  0.41691983
   0.55423980  0.32826710  0.58308023
   0.32826712  0.55423978  0.58308023
   0.67173295  0.44576024  0.41691983
   0.44576027  0.67173293  0.41691983
   0.44208301  0.44208301  0.41809300
   0.50000000  0.38416601  0.50000000
   0.61749315  0.50000005  0.34021317
   0.61749315  0.50000005  0.65978680
   0.38250685  0.50000005  0.34021317
   0.38250685  0.50000005  0.65978680
   0.38317830  0.38317830  0.50000000
   0.61682172  0.61682172  0.50000000
   0.61682170  0.38317830  0.50000000
   0.38317828  0.61682172  0.50000000
   0.50000000  0.50000000  0.33478917
   0.50000000  0.50000000  0.66521087
   0.32826705  0.44576024  0.58308023
   0.55423973  0.67173293  0.58308023
   0.55791699  0.44208301  0.58190703
   0.44208298  0.55791702  0.41809300
   0.44208301  0.44208301  0.58190703
   0.67173295  0.44576024  0.58308023
   0.44576027  0.67173293  0.58308023
   0.55791702  0.55791702  0.41809300
   0.38416599  0.50000002  0.50000000
   0.61583401  0.50000002  0.50000000
   0.50000000  0.61749319  0.34021317
   0.50000000  0.61749319  0.65978680
   0.50000000  0.50000000  0.50000000
   0.44208298  0.55791702  0.58190703
   0.55791702  0.55791702  0.58190703
   0.50000000  0.61583404  0.50000000
   0.51573207  0.50128073  0.25900100
   0.51818130  0.50148013  0.22148140
 
 position of ions in cartesian coordinates  (Angst):
  13.37280588  9.84801292 12.50759500
  20.15198637 16.62719342 12.50759500
  16.62719412  9.84801292 12.50759500
   9.84801363 16.62719342 12.50759500
  15.00000000 11.47520705 10.20639500
  15.00000000 11.47520705 19.79360400
  15.00000000  8.28283206 15.00000000
   8.28283277 14.99999929 15.00000000
  21.71716723 14.99999929 15.00000000
  15.00000000 21.71716652 14.99999999
  18.35858397 11.64141603 10.25024500
  18.35858397 11.64141603 19.74975399
  11.64141674 18.35858326 10.25024500
  11.64141674 18.35858326 19.74975400
  11.64141603 11.64141603 10.25024500
  11.64141603 11.64141603 19.74975400
  18.35858326 18.35858326 10.25024500
  18.35858326 18.35858326 19.74975400
  13.37280588  9.84801291 17.49240700
  20.15198638 16.62719341 17.49240700
  16.73750985 13.26249015 12.54279000
   9.84801151 13.37280729 12.50759500
  16.62719200 20.15198779 12.50759500
  16.62719412  9.84801292 17.49240700
   9.84801363 16.62719342 17.49240700
  20.15198849 13.37280729 12.50759500
  13.37280800 20.15198779 12.50759500
  13.26249015 13.26249015 12.54279000
  15.00000000 11.52498029 15.00000000
  18.52479437 15.00000140 10.20639500
  18.52479437 15.00000141 19.79360400
  11.47520562 15.00000141 10.20639501
  11.47520563 15.00000141 19.79360400
  11.49534898 11.49534898 15.00000000
  18.50465172 18.50465172 15.00000000
  18.50465102 11.49534898 15.00000000
  11.49534828 18.50465172 15.00000000
  15.00000000 15.00000000 10.04367500
  15.00000000 15.00000000 19.95632599
   9.84801151 13.37280729 17.49240700
  16.62719200 20.15198779 17.49240700
  16.73750985 13.26249015 17.45721100
  13.26248944 16.73751056 12.54279001
  13.26249015 13.26249015 17.45721100
  20.15198849 13.37280729 17.49240699
  13.37280800 20.15198779 17.49240700
  16.73751056 16.73751056 12.54279000
  11.52497959 15.00000071 15.00000000
  18.47502041 15.00000071 15.00000000
  14.99999999 18.52479579 10.20639500
  15.00000000 18.52479578 19.79360400
  15.00000000 15.00000000 15.00000000
  13.26248944 16.73751057 17.45721101
  16.73751056 16.73751057 17.45721100
  15.00000000 18.47502112 15.00000000
  15.47196200 15.03842200  7.77003000
  15.54543900 15.04440400  6.64444200
 


--------------------------------------------------------------------------------------------------------


 k-point  1 :   0.0000 0.0000 0.0000  plane waves:  490521

 maximum and minimum number of plane-waves per node :    490521   490521

 maximum number of plane-waves:    490521
 maximum index in each direction: 
   IXMAX=   48   IYMAX=   48   IZMAX=   48
   IXMIN=  -48   IYMIN=  -48   IZMIN=  -48


 serial   3D FFT for wavefunctions
 parallel 3D FFT for charge:
    minimum data exchange during FFTs selected (reduces bandwidth)


 total amount of memory used by VASP MPI-rank0  5486941. kBytes
=======================================================================

   base      :      30000. kBytes
   nonlr-proj:      17126. kBytes
   fftplans  :     924480. kBytes
   grid      :    1872000. kBytes
   one-center:        886. kBytes
   wavefun   :    2642449. kBytes
 
     INWAV:  cpu time    0.0001: real time    0.0004
 Broyden mixing: mesh for mixing (old mesh)
   NGX = 97   NGY = 97   NGZ = 97
  (NGX  =300   NGY  =300   NGZ  =300)
  gives a total of 912673 points

 initial charge density was supplied:
 charge density of overlapping atoms calculated
 number of electron     560.0000000 magnetization 
 keeping initial charge density in first step


--------------------------------------------------------------------------------------------------------


 Maximum index for non-local projection operator         1763
 Maximum index for augmentation-charges         5898 (set IRDMAX)


--------------------------------------------------------------------------------------------------------


 First call to EWALD:  gamma=   0.059
 Maximum number of real-space cells 3x 3x 3
 Maximum number of reciprocal cells 3x 3x 3

    FEWALD:  cpu time    0.0149: real time    0.0149


--------------------------------------- Iteration      1(   1)  ---------------------------------------


    POTLOK:  cpu time   14.5088: real time   14.5125
    SETDIJ:  cpu time    0.1188: real time    0.1188
     EDDAV:  cpu time  362.2308: real time  362.3095
       DOS:  cpu time    0.0013: real time    0.0013
    --------------------------------------------
      LOOP:  cpu time  376.8598: real time  376.9421

 eigenvalue-minimisations  :   688
 total energy-change (2. order) : 0.4384439E+04  (-0.1004849E+05)
 number of electron     560.0000000 magnetization 
 augmentation part      560.0000000 magnetization 

 Free energy of the ion-electron system (eV)
  ---------------------------------------------------
  alpha Z        PSCENC =        75.25431677
  Ewald energy   TEWEN  =    138216.70080301
  -Hartree energ DENC   =   -181582.92466271
  -exchange      EXHF   =         0.00000000
  -V(xc)+E(xc)   XCENC  =     -1703.71547631
  PAW double counting   =     44873.02882129   -41398.84523641
  entropy T*S    EENTRO =         0.01711324
  eigenvalues    EBANDS =       818.41774346
  atomic energy  EATOM  =     45086.50549395
  Solvation  Ediel_sol  =         0.00000000
  ---------------------------------------------------
  free energy    TOTEN  =      4384.43891629 eV

  energy without entropy =     4384.42180305  energy(sigma->0) =     4384.43463798


--------------------------------------------------------------------------------------------------------




--------------------------------------- Iteration      1(   2)  ---------------------------------------


     EDDAV:  cpu time  580.2035: real time  580.2011
       DOS:  cpu time    0.0013: real time    0.0013
    --------------------------------------------
      LOOP:  cpu time  580.2048: real time  580.2023

 eigenvalue-minimisations  :  1208
 total energy-change (2. order) :-0.2354801E+04  (-0.2116536E+04)
 number of electron     560.0000000 magnetization 
 augmentation part      560.0000000 magnetization 

 Free energy of the ion-electron system (eV)
  ---------------------------------------------------
  alpha Z        PSCENC =        75.25431677
  Ewald energy   TEWEN  =    138216.70080301
  -Hartree energ DENC   =   -181582.92466271
  -exchange      EXHF   =         0.00000000
  -V(xc)+E(xc)   XCENC  =     -1703.71547631
  PAW double counting   =     44873.02882129   -41398.84523641
  entropy T*S    EENTRO =        -0.03634455
  eigenvalues    EBANDS =     -1536.32949821
  atomic energy  EATOM  =     45086.50549395
  Solvation  Ediel_sol  =         0.00000000
  ---------------------------------------------------
  free energy    TOTEN  =      2029.63821684 eV

  energy without entropy =     2029.67456139  energy(sigma->0) =     2029.64730298


--------------------------------------------------------------------------------------------------------




--------------------------------------- Iteration      1(   3)  ---------------------------------------


     EDDAV:  cpu time  494.4459: real time  494.4414
       DOS:  cpu time    0.0010: real time    0.0010
    --------------------------------------------
      LOOP:  cpu time  494.4469: real time  494.4424

 eigenvalue-minimisations  :   992
 total energy-change (2. order) :-0.1788608E+04  (-0.1680185E+04)
 number of electron     560.0000000 magnetization 
 augmentation part      560.0000000 magnetization 

 Free energy of the ion-electron system (eV)
  ---------------------------------------------------
  alpha Z        PSCENC =        75.25431677
  Ewald energy   TEWEN  =    138216.70080301
  -Hartree energ DENC   =   -181582.92466271
  -exchange      EXHF   =         0.00000000
  -V(xc)+E(xc)   XCENC  =     -1703.71547631
  PAW double counting   =     44873.02882129   -41398.84523641
  entropy T*S    EENTRO =         0.00344659
  eigenvalues    EBANDS =     -3324.97714781
  atomic energy  EATOM  =     45086.50549395
  Solvation  Ediel_sol  =         0.00000000
  ---------------------------------------------------
  free energy    TOTEN  =       241.03035837 eV

  energy without entropy =      241.02691178  energy(sigma->0) =      241.02949672


--------------------------------------------------------------------------------------------------------




--------------------------------------- Iteration      1(   4)  ---------------------------------------


     EDDAV:  cpu time  431.5215: real time  431.5171
       DOS:  cpu time    0.0012: real time    0.0012
    --------------------------------------------
      LOOP:  cpu time  431.5227: real time  431.5183

 eigenvalue-minimisations  :   840
 total energy-change (2. order) :-0.3747538E+03  (-0.3225964E+03)
 number of electron     560.0000000 magnetization 
 augmentation part      560.0000000 magnetization 

 Free energy of the ion-electron system (eV)
  ---------------------------------------------------
  alpha Z        PSCENC =        75.25431677
  Ewald energy   TEWEN  =    138216.70080301
  -Hartree energ DENC   =   -181582.92466271
  -exchange      EXHF   =         0.00000000
  -V(xc)+E(xc)   XCENC  =     -1703.71547631
  PAW double counting   =     44873.02882129   -41398.84523641
  entropy T*S    EENTRO =        -0.01987082
  eigenvalues    EBANDS =     -3699.70765548
  atomic energy  EATOM  =     45086.50549395
  Solvation  Ediel_sol  =         0.00000000
  ---------------------------------------------------
  free energy    TOTEN  =      -133.72346670 eV

  energy without entropy =     -133.70359588  energy(sigma->0) =     -133.71849900


--------------------------------------------------------------------------------------------------------




--------------------------------------- Iteration      1(   5)  ---------------------------------------


     EDDAV:  cpu time  521.4072: real time  521.4281
       DOS:  cpu time    0.0014: real time    0.0014
    CHARGE:  cpu time   27.1086: real time   27.1080
    MIXING:  cpu time    0.4392: real time    0.4392
    --------------------------------------------
      LOOP:  cpu time  548.9564: real time  548.9767

 eigenvalue-minimisations  :  1048
 total energy-change (2. order) :-0.4545788E+02  (-0.3747620E+02)
 number of electron     559.9999806 magnetization 
 augmentation part      245.2252842 magnetization 

 Broyden mixing:
  rms(total) = 0.14202E+01    rms(broyden)= 0.14192E+01
  rms(prec ) = 0.15255E+01
  weight for this iteration     100.00

 Free energy of the ion-electron system (eV)
  ---------------------------------------------------
  alpha Z        PSCENC =        75.25431677
  Ewald energy   TEWEN  =    138216.70080301
  -Hartree energ DENC   =   -181582.92466271
  -exchange      EXHF   =         0.00000000
  -V(xc)+E(xc)   XCENC  =     -1703.71547631
  PAW double counting   =     44873.02882129   -41398.84523641
  entropy T*S    EENTRO =         0.55240749
  eigenvalues    EBANDS =     -3745.73781451
  atomic energy  EATOM  =     45086.50549395
  Solvation  Ediel_sol  =         0.00000000
  ---------------------------------------------------
  free energy    TOTEN  =      -179.18134743 eV

  energy without entropy =     -179.73375491  energy(sigma->0) =     -179.31944930


--------------------------------------------------------------------------------------------------------




--------------------------------------- Iteration      1(   6)  ---------------------------------------


    POTLOK:  cpu time   14.0824: real time   14.0851
    SETDIJ:  cpu time    0.1300: real time    0.1300
    EDDIAG:  cpu time   70.4021: real time   70.4022
  RMM-DIIS:  cpu time  196.1923: real time  196.1908
    ORTHCH:  cpu time   13.7708: real time   13.7705
       DOS:  cpu time    0.0014: real time    0.0014
    CHARGE:  cpu time   26.9383: real time   26.9377
    MIXING:  cpu time    0.4766: real time    0.4766
    --------------------------------------------
      LOOP:  cpu time  321.9939: real time  321.9942

 eigenvalue-minimisations  :   728
 total energy-change (2. order) :-0.3848866E+00  (-0.5467797E+01)
 number of electron     559.9999855 magnetization 
 augmentation part      240.4782225 magnetization 

 Broyden mixing:
  rms(total) = 0.21106E+01    rms(broyden)= 0.21104E+01
  rms(prec ) = 0.24698E+01
  weight for this iteration     100.00

 eigenvalues of (default mixing * dielectric matrix)
  average eigenvalue GAMMA=   0.3509
  0.3509

 Free energy of the ion-electron system (eV)
  ---------------------------------------------------
  alpha Z        PSCENC =        75.25431677
  Ewald energy   TEWEN  =    138216.70080301
  -Hartree energ DENC   =   -181987.54370602
  -exchange      EXHF   =         0.00000000
  -V(xc)+E(xc)   XCENC  =     -1697.39100318
  PAW double counting   =     45624.36546326   -42123.03189522
  entropy T*S    EENTRO =        -0.11485459
  eigenvalues    EBANDS =     -3374.31085197
  atomic energy  EATOM  =     45086.50549395
  Solvation  Ediel_sol  =         0.00000000
  ---------------------------------------------------
  free energy    TOTEN  =      -179.56623398 eV

  energy without entropy =     -179.45137939  energy(sigma->0) =     -179.53752033


--------------------------------------------------------------------------------------------------------




--------------------------------------- Iteration      1(   7)  ---------------------------------------


    POTLOK:  cpu time   14.2260: real time   14.2280
    SETDIJ:  cpu time    0.1255: real time    0.1255
    EDDIAG:  cpu time   71.0835: real time   71.0824
  RMM-DIIS:  cpu time  230.2142: real time  230.2143
    ORTHCH:  cpu time   13.9076: real time   13.9075
       DOS:  cpu time    0.0014: real time    0.0014
    CHARGE:  cpu time   27.4323: real time   27.4321
    MIXING:  cpu time    0.5095: real time    0.5095
    --------------------------------------------
      LOOP:  cpu time  357.5000: real time  357.5007

 eigenvalue-minimisations  :   840
 total energy-change (2. order) :-0.2222636E+01  (-0.1862787E+01)
 number of electron     559.9999829 magnetization 
 augmentation part      240.3739014 magnetization 

 Broyden mixing:
  rms(total) = 0.25449E+01    rms(broyden)= 0.25447E+01
  rms(prec ) = 0.31026E+01
  weight for this iteration     100.00

 eigenvalues of (default mixing * dielectric matrix)
  average eigenvalue GAMMA=   0.2957
  0.4618  0.1295

 Free energy of the ion-electron system (eV)
  ---------------------------------------------------
  alpha Z        PSCENC =        75.25431677
  Ewald energy   TEWEN  =    138216.70080301
  -Hartree energ DENC   =   -182077.64248661
  -exchange      EXHF   =         0.00000000
  -V(xc)+E(xc)   XCENC  =     -1697.61868545
  PAW double counting   =     45686.52350334   -42182.56471969
  entropy T*S    EENTRO =        -0.03460587
  eigenvalues    EBANDS =     -3288.91248928
  atomic energy  EATOM  =     45086.50549395
  Solvation  Ediel_sol  =         0.00000000
  ---------------------------------------------------
  free energy    TOTEN  =      -181.78886982 eV

  energy without entropy =     -181.75426395  energy(sigma->0) =     -181.78021836


--------------------------------------------------------------------------------------------------------




--------------------------------------- Iteration      1(   8)  ---------------------------------------


    POTLOK:  cpu time   14.2233: real time   14.2249
    SETDIJ:  cpu time    0.1208: real time    0.1208
    EDDIAG:  cpu time   72.6376: real time   72.6371
  RMM-DIIS:  cpu time  229.6317: real time  229.6384
    ORTHCH:  cpu time   14.2283: real time   14.2282
       DOS:  cpu time    0.0015: real time    0.0015
    CHARGE:  cpu time   27.4396: real time   27.4394
    MIXING:  cpu time    0.5587: real time    0.5599
    --------------------------------------------
      LOOP:  cpu time  358.8415: real time  358.8501

 eigenvalue-minimisations  :   829
 total energy-change (2. order) :-0.2130347E+00  (-0.6261039E+00)
 number of electron     559.9999790 magnetization 
 augmentation part      240.3565696 magnetization 

 Broyden mixing:
  rms(total) = 0.23166E+01    rms(broyden)= 0.23163E+01
  rms(prec ) = 0.26752E+01
  weight for this iteration     100.00

 eigenvalues of (default mixing * dielectric matrix)
  average eigenvalue GAMMA=   0.3090
  0.6608  0.1331  0.1331

 Free energy of the ion-electron system (eV)
  ---------------------------------------------------
  alpha Z        PSCENC =        75.25431677
  Ewald energy   TEWEN  =    138216.70080301
  -Hartree energ DENC   =   -182112.47883967
  -exchange      EXHF   =         0.00000000
  -V(xc)+E(xc)   XCENC  =     -1697.64601754
  PAW double counting   =     45730.29359450   -42224.41350915
  entropy T*S    EENTRO =        -0.14535952
  eigenvalues    EBANDS =     -3256.07238689
  atomic energy  EATOM  =     45086.50549395
  Solvation  Ediel_sol  =         0.00000000
  ---------------------------------------------------
  free energy    TOTEN  =      -182.00190454 eV

  energy without entropy =     -181.85654503  energy(sigma->0) =     -181.96556466


--------------------------------------------------------------------------------------------------------




--------------------------------------- Iteration      1(   9)  ---------------------------------------


    POTLOK:  cpu time   14.2567: real time   14.2574
    SETDIJ:  cpu time    0.1249: real time    0.1249
    EDDIAG:  cpu time   71.4091: real time   71.4087
  RMM-DIIS:  cpu time  199.5947: real time  199.5948
    ORTHCH:  cpu time   14.1732: real time   14.1730
       DOS:  cpu time    0.0015: real time    0.0015
    CHARGE:  cpu time   27.4189: real time   27.4185
    MIXING:  cpu time    0.5936: real time    0.5936
    --------------------------------------------
      LOOP:  cpu time  327.5726: real time  327.5724

 eigenvalue-minimisations  :   722
 total energy-change (2. order) : 0.1648500E+01  (-0.5232780E+00)
 number of electron     559.9999800 magnetization 
 augmentation part      241.2301063 magnetization 

 Broyden mixing:
  rms(total) = 0.21478E+01    rms(broyden)= 0.21472E+01
  rms(prec ) = 0.24885E+01
  weight for this iteration     100.00

 eigenvalues of (default mixing * dielectric matrix)
  average eigenvalue GAMMA=   0.2995
  0.7763  0.1600  0.1600  0.1016

 Free energy of the ion-electron system (eV)
  ---------------------------------------------------
  alpha Z        PSCENC =        75.25431677
  Ewald energy   TEWEN  =    138216.70080301
  -Hartree energ DENC   =   -182134.02823145
  -exchange      EXHF   =         0.00000000
  -V(xc)+E(xc)   XCENC  =     -1697.58338640
  PAW double counting   =     45795.92607909   -42287.06196497
  entropy T*S    EENTRO =        -0.04052483
  eigenvalues    EBANDS =     -3236.02599010
  atomic energy  EATOM  =     45086.50549395
  Solvation  Ediel_sol  =         0.00000000
  ---------------------------------------------------
  free energy    TOTEN  =      -180.35340494 eV

  energy without entropy =     -180.31288011  energy(sigma->0) =     -180.34327373


--------------------------------------------------------------------------------------------------------




--------------------------------------- Iteration      1(  10)  ---------------------------------------


    POTLOK:  cpu time   14.2135: real time   14.2169
    SETDIJ:  cpu time    0.1260: real time    0.1260
    EDDIAG:  cpu time   71.5667: real time   71.5672
  RMM-DIIS:  cpu time  202.6165: real time  202.6161
    ORTHCH:  cpu time   14.0119: real time   14.0117
       DOS:  cpu time    0.0014: real time    0.0014
    CHARGE:  cpu time   27.5460: real time   27.5456
    MIXING:  cpu time    0.6307: real time    0.6307
    --------------------------------------------
      LOOP:  cpu time  330.7129: real time  330.7158

 eigenvalue-minimisations  :   733
 total energy-change (2. order) : 0.1143715E+01  (-0.2693057E+00)
 number of electron     559.9999801 magnetization 
 augmentation part      241.4030809 magnetization 

 Broyden mixing:
  rms(total) = 0.23150E+01    rms(broyden)= 0.23146E+01
  rms(prec ) = 0.27365E+01
  weight for this iteration     100.00

 eigenvalues of (default mixing * dielectric matrix)
  average eigenvalue GAMMA=   0.2699
  0.8243  0.1618  0.1618  0.1235  0.0778

 Free energy of the ion-electron system (eV)
  ---------------------------------------------------
  alpha Z        PSCENC =        75.25431677
  Ewald energy   TEWEN  =    138216.70080301
  -Hartree energ DENC   =   -182166.42917363
  -exchange      EXHF   =         0.00000000
  -V(xc)+E(xc)   XCENC  =     -1697.39236686
  PAW double counting   =     45844.23648785   -42333.23752837
  entropy T*S    EENTRO =         0.00202387
  eigenvalues    EBANDS =     -3204.84974624
  atomic energy  EATOM  =     45086.50549395
  Solvation  Ediel_sol  =         0.00000000
  ---------------------------------------------------
  free energy    TOTEN  =      -179.20968965 eV

  energy without entropy =     -179.21171352  energy(sigma->0) =     -179.21019562


--------------------------------------------------------------------------------------------------------




--------------------------------------- Iteration      1(  11)  ---------------------------------------


    POTLOK:  cpu time   14.3423: real time   14.3453
    SETDIJ:  cpu time    0.1333: real time    0.1333
    EDDIAG:  cpu time   71.0550: real time   71.0552
  RMM-DIIS:  cpu time  202.9946: real time  203.0031
    ORTHCH:  cpu time   14.1109: real time   14.1109
       DOS:  cpu time    0.0014: real time    0.0014
    CHARGE:  cpu time   27.5481: real time   27.5506
    MIXING:  cpu time    0.6655: real time    0.6655
    --------------------------------------------
      LOOP:  cpu time  330.8512: real time  330.8653

 eigenvalue-minimisations  :   731
 total energy-change (2. order) : 0.1515034E+01  (-0.1552844E+00)
 number of electron     559.9999822 magnetization 
 augmentation part      241.5347853 magnetization 

 Broyden mixing:
  rms(total) = 0.17066E+01    rms(broyden)= 0.17062E+01
  rms(prec ) = 0.19643E+01
  weight for this iteration     100.00

 eigenvalues of (default mixing * dielectric matrix)
  average eigenvalue GAMMA=   0.2591
  0.8880  0.1827  0.1827  0.1165  0.1165  0.0679

 Free energy of the ion-electron system (eV)
  ---------------------------------------------------
  alpha Z        PSCENC =        75.25431677
  Ewald energy   TEWEN  =    138216.70080301
  -Hartree energ DENC   =   -182184.68425074
  -exchange      EXHF   =         0.00000000
  -V(xc)+E(xc)   XCENC  =     -1697.24125109
  PAW double counting   =     45871.67055784   -42359.36082314
  entropy T*S    EENTRO =        -0.08560090
  eigenvalues    EBANDS =     -3186.45390156
  atomic energy  EATOM  =     45086.50549395
  Solvation  Ediel_sol  =         0.00000000
  ---------------------------------------------------
  free energy    TOTEN  =      -177.69465586 eV

  energy without entropy =     -177.60905496  energy(sigma->0) =     -177.67325563


--------------------------------------------------------------------------------------------------------




--------------------------------------- Iteration      1(  12)  ---------------------------------------


    POTLOK:  cpu time   14.2595: real time   14.2613
    SETDIJ:  cpu time    0.1231: real time    0.1231
    EDDIAG:  cpu time   71.9003: real time   71.9104
  RMM-DIIS:  cpu time  200.2933: real time  200.2949
    ORTHCH:  cpu time   14.0913: real time   14.0911
       DOS:  cpu time    0.0015: real time    0.0015
    CHARGE:  cpu time   27.6095: real time   27.6090
    MIXING:  cpu time    0.6891: real time    0.6891
    --------------------------------------------
      LOOP:  cpu time  328.9677: real time  328.9805

 eigenvalue-minimisations  :   722
 total energy-change (2. order) : 0.1152378E+01  (-0.1336064E+00)
 number of electron     559.9999815 magnetization 
 augmentation part      241.6260446 magnetization 

 Broyden mixing:
  rms(total) = 0.13696E+01    rms(broyden)= 0.13693E+01
  rms(prec ) = 0.16410E+01
  weight for this iteration     100.00

 eigenvalues of (default mixing * dielectric matrix)
  average eigenvalue GAMMA=   0.2541
  0.9234  0.2321  0.2321  0.1202  0.1202  0.0904  0.0601

 Free energy of the ion-electron system (eV)
  ---------------------------------------------------
  alpha Z        PSCENC =        75.25431677
  Ewald energy   TEWEN  =    138216.70080301
  -Hartree energ DENC   =   -182204.67467669
  -exchange      EXHF   =         0.00000000
  -V(xc)+E(xc)   XCENC  =     -1697.04044698
  PAW double counting   =     45902.76738842   -42388.94704537
  entropy T*S    EENTRO =        -0.05423420
  eigenvalues    EBANDS =     -3167.05387701
  atomic energy  EATOM  =     45086.50549395
  Solvation  Ediel_sol  =         0.00000000
  ---------------------------------------------------
  free energy    TOTEN  =      -176.54227810 eV

  energy without entropy =     -176.48804390  energy(sigma->0) =     -176.52871955


--------------------------------------------------------------------------------------------------------




--------------------------------------- Iteration      1(  13)  ---------------------------------------


    POTLOK:  cpu time   14.3931: real time   14.3956
    SETDIJ:  cpu time    0.1300: real time    0.1300
    EDDIAG:  cpu time   71.4506: real time   71.4520
  RMM-DIIS:  cpu time  200.5455: real time  200.5436
    ORTHCH:  cpu time   14.1641: real time   14.1638
       DOS:  cpu time    0.0015: real time    0.0015
    CHARGE:  cpu time   27.5216: real time   27.5211
    MIXING:  cpu time    0.7598: real time    0.7597
    --------------------------------------------
      LOOP:  cpu time  328.9662: real time  328.9673

 eigenvalue-minimisations  :   722
 total energy-change (2. order) : 0.4036824E+00  (-0.7767826E-01)
 number of electron     559.9999816 magnetization 
 augmentation part      241.6478385 magnetization 

 Broyden mixing:
  rms(total) = 0.14841E+01    rms(broyden)= 0.14838E+01
  rms(prec ) = 0.17848E+01
  weight for this iteration     100.00

 eigenvalues of (default mixing * dielectric matrix)
  average eigenvalue GAMMA=   0.2559
  0.9777  0.2958  0.2958  0.1074  0.1074  0.1249  0.0864  0.0517

 Free energy of the ion-electron system (eV)
  ---------------------------------------------------
  alpha Z        PSCENC =        75.25431677
  Ewald energy   TEWEN  =    138216.70080301
  -Hartree energ DENC   =   -182221.45789522
  -exchange      EXHF   =         0.00000000
  -V(xc)+E(xc)   XCENC  =     -1696.84332858
  PAW double counting   =     45925.80035735   -42410.76031672
  entropy T*S    EENTRO =        -0.00688561
  eigenvalues    EBANDS =     -3151.33114066
  atomic energy  EATOM  =     45086.50549395
  Solvation  Ediel_sol  =         0.00000000
  ---------------------------------------------------
  free energy    TOTEN  =      -176.13859572 eV

  energy without entropy =     -176.13171011  energy(sigma->0) =     -176.13687432


--------------------------------------------------------------------------------------------------------




--------------------------------------- Iteration      1(  14)  ---------------------------------------


    POTLOK:  cpu time   14.1382: real time   14.1404
    SETDIJ:  cpu time    0.1285: real time    0.1285
    EDDIAG:  cpu time   71.3049: real time   71.3060
  RMM-DIIS:  cpu time  198.8869: real time  198.8874
    ORTHCH:  cpu time   14.3098: real time   14.3095
       DOS:  cpu time    0.0015: real time    0.0015
    CHARGE:  cpu time   27.6891: real time   27.6885
    MIXING:  cpu time    0.8449: real time    0.8449
    --------------------------------------------
      LOOP:  cpu time  327.3039: real time  327.3068

 eigenvalue-minimisations  :   714
 total energy-change (2. order) : 0.2298522E+00  (-0.9070922E-01)
 number of electron     559.9999808 magnetization 
 augmentation part      241.6218407 magnetization 

 Broyden mixing:
  rms(total) = 0.15360E+01    rms(broyden)= 0.15358E+01
  rms(prec ) = 0.18115E+01
  weight for this iteration     100.00

 eigenvalues of (default mixing * dielectric matrix)
  average eigenvalue GAMMA=   0.2624
  1.0388  0.4412  0.2848  0.1637  0.1142  0.1142  0.0809  0.0744  0.0491

 Free energy of the ion-electron system (eV)
  ---------------------------------------------------
  alpha Z        PSCENC =        75.25431677
  Ewald energy   TEWEN  =    138216.70080301
  -Hartree energ DENC   =   -182244.40009811
  -exchange      EXHF   =         0.00000000
  -V(xc)+E(xc)   XCENC  =     -1696.49676133
  PAW double counting   =     45960.04721175   -42443.13403022
  entropy T*S    EENTRO =        -0.04189174
  eigenvalues    EBANDS =     -3130.34378763
  atomic energy  EATOM  =     45086.50549395
  Solvation  Ediel_sol  =         0.00000000
  ---------------------------------------------------
  free energy    TOTEN  =      -175.90874356 eV

  energy without entropy =     -175.86685182  energy(sigma->0) =     -175.89827062


--------------------------------------------------------------------------------------------------------




--------------------------------------- Iteration      1(  15)  ---------------------------------------


    POTLOK:  cpu time   14.2184: real time   14.2207
    SETDIJ:  cpu time    0.1245: real time    0.1245
    EDDIAG:  cpu time   71.5843: real time   71.5834
  RMM-DIIS:  cpu time  199.2957: real time  199.3004
    ORTHCH:  cpu time   14.4429: real time   14.4446
       DOS:  cpu time    0.0015: real time    0.0015
    CHARGE:  cpu time   27.7449: real time   27.7479
    MIXING:  cpu time    0.8975: real time    0.8975
    --------------------------------------------
      LOOP:  cpu time  328.3098: real time  328.3205

 eigenvalue-minimisations  :   720
 total energy-change (2. order) :-0.3767073E+00  (-0.8402613E-01)
 number of electron     559.9999801 magnetization 
 augmentation part      241.3555968 magnetization 

 Broyden mixing:
  rms(total) = 0.17171E+01    rms(broyden)= 0.17168E+01
  rms(prec ) = 0.20762E+01
  weight for this iteration     100.00

 eigenvalues of (default mixing * dielectric matrix)
  average eigenvalue GAMMA=   0.2748
  1.1643  0.6377  0.2254  0.2014  0.1221  0.1221  0.0811  0.0811  0.0655  0.0470

 Free energy of the ion-electron system (eV)
  ---------------------------------------------------
  alpha Z        PSCENC =        75.25431677
  Ewald energy   TEWEN  =    138216.70080301
  -Hartree energ DENC   =   -182274.62500406
  -exchange      EXHF   =         0.00000000
  -V(xc)+E(xc)   XCENC  =     -1696.08070814
  PAW double counting   =     45998.05141865   -42479.02624825
  entropy T*S    EENTRO =        -0.07412051
  eigenvalues    EBANDS =     -3102.99140224
  atomic energy  EATOM  =     45086.50549395
  Solvation  Ediel_sol  =         0.00000000
  ---------------------------------------------------
  free energy    TOTEN  =      -176.28545082 eV

  energy without entropy =     -176.21133031  energy(sigma->0) =     -176.26692069


--------------------------------------------------------------------------------------------------------




--------------------------------------- Iteration      1(  16)  ---------------------------------------


    POTLOK:  cpu time   14.2650: real time   14.2693
    SETDIJ:  cpu time    0.1268: real time    0.1268
    EDDIAG:  cpu time   71.2594: real time   71.2588
  RMM-DIIS:  cpu time  200.5387: real time  200.5378
    ORTHCH:  cpu time   14.1626: real time   14.1644
       DOS:  cpu time    0.0015: real time    0.0015
    CHARGE:  cpu time   27.4041: real time   27.4035
    MIXING:  cpu time    0.9154: real time    0.9154
    --------------------------------------------
      LOOP:  cpu time  328.6736: real time  328.6776

 eigenvalue-minimisations  :   725
 total energy-change (2. order) : 0.1096577E+00  (-0.7840970E-01)
 number of electron     559.9999825 magnetization 
 augmentation part      241.1432084 magnetization 

 Broyden mixing:
  rms(total) = 0.16777E+01    rms(broyden)= 0.16774E+01
  rms(prec ) = 0.19681E+01
  weight for this iteration     100.00

 eigenvalues of (default mixing * dielectric matrix)
  average eigenvalue GAMMA=   0.2921
  1.4223  0.7256  0.2330  0.2330  0.1178  0.1178  0.0952  0.0952  0.0715  0.0559
  0.0457

 Free energy of the ion-electron system (eV)
  ---------------------------------------------------
  alpha Z        PSCENC =        75.25431677
  Ewald energy   TEWEN  =    138216.70080301
  -Hartree energ DENC   =   -182307.93793754
  -exchange      EXHF   =         0.00000000
  -V(xc)+E(xc)   XCENC  =     -1695.62083753
  PAW double counting   =     46040.24552837   -42518.84591746
  entropy T*S    EENTRO =        -0.01765666
  eigenvalues    EBANDS =     -3072.45958603
  atomic energy  EATOM  =     45086.50549395
  Solvation  Ediel_sol  =         0.00000000
  ---------------------------------------------------
  free energy    TOTEN  =      -176.17579312 eV

  energy without entropy =     -176.15813645  energy(sigma->0) =     -176.17137895


--------------------------------------------------------------------------------------------------------




--------------------------------------- Iteration      1(  17)  ---------------------------------------


    POTLOK:  cpu time   14.2311: real time   14.2329
    SETDIJ:  cpu time    0.1223: real time    0.1223
    EDDIAG:  cpu time   71.0900: real time   71.0893
  RMM-DIIS:  cpu time  195.7738: real time  195.7788
    ORTHCH:  cpu time   14.0064: real time   14.0061
       DOS:  cpu time    0.0015: real time    0.0015
    CHARGE:  cpu time   27.5106: real time   27.5100
    MIXING:  cpu time    0.9906: real time    0.9905
    --------------------------------------------
      LOOP:  cpu time  323.7262: real time  323.7315

 eigenvalue-minimisations  :   709
 total energy-change (2. order) : 0.7800552E+00  (-0.8098352E-01)
 number of electron     559.9999827 magnetization 
 augmentation part      241.0550596 magnetization 

 Broyden mixing:
  rms(total) = 0.11809E+01    rms(broyden)= 0.11806E+01
  rms(prec ) = 0.14006E+01
  weight for this iteration     100.00

 eigenvalues of (default mixing * dielectric matrix)
  average eigenvalue GAMMA=   0.2968
  1.5424  0.7577  0.2623  0.2623  0.1672  0.1121  0.1121  0.0901  0.0901  0.0642
  0.0539  0.0465

 Free energy of the ion-electron system (eV)
  ---------------------------------------------------
  alpha Z        PSCENC =        75.25431677
  Ewald energy   TEWEN  =    138216.70080301
  -Hartree energ DENC   =   -182345.45882606
  -exchange      EXHF   =         0.00000000
  -V(xc)+E(xc)   XCENC  =     -1695.11425470
  PAW double counting   =     46087.33188882   -42563.27528377
  entropy T*S    EENTRO =         0.04225254
  eigenvalues    EBANDS =     -3037.38212845
  atomic energy  EATOM  =     45086.50549395
  Solvation  Ediel_sol  =         0.00000000
  ---------------------------------------------------
  free energy    TOTEN  =      -175.39573790 eV

  energy without entropy =     -175.43799044  energy(sigma->0) =     -175.40630103


--------------------------------------------------------------------------------------------------------




--------------------------------------- Iteration      1(  18)  ---------------------------------------


    POTLOK:  cpu time   14.1100: real time   14.1104
    SETDIJ:  cpu time    0.1255: real time    0.1255
    EDDIAG:  cpu time   71.1269: real time   71.1259
  RMM-DIIS:  cpu time  193.7002: real time  193.6997
    ORTHCH:  cpu time   14.1879: real time   14.1877
       DOS:  cpu time    0.0015: real time    0.0015
    CHARGE:  cpu time   27.5066: real time   27.5060
    MIXING:  cpu time    1.0177: real time    1.0177
    --------------------------------------------
      LOOP:  cpu time  321.7762: real time  321.7743

 eigenvalue-minimisations  :   703
 total energy-change (2. order) : 0.3926358E+00  (-0.4624139E-01)
 number of electron     559.9999834 magnetization 
 augmentation part      241.0369402 magnetization 

 Broyden mixing:
  rms(total) = 0.87694E+00    rms(broyden)= 0.87673E+00
  rms(prec ) = 0.99273E+00
  weight for this iteration     100.00

 eigenvalues of (default mixing * dielectric matrix)
  average eigenvalue GAMMA=   0.3024
  1.6162  0.8083  0.3260  0.3260  0.1767  0.1168  0.1168  0.0991  0.0907  0.0907
  0.0626  0.0549  0.0464

 Free energy of the ion-electron system (eV)
  ---------------------------------------------------
  alpha Z        PSCENC =        75.25431677
  Ewald energy   TEWEN  =    138216.70080301
  -Hartree energ DENC   =   -182362.60098449
  -exchange      EXHF   =         0.00000000
  -V(xc)+E(xc)   XCENC  =     -1694.90789059
  PAW double counting   =     46104.72722404   -42579.48193420
  entropy T*S    EENTRO =        -0.00152630
  eigenvalues    EBANDS =     -3021.19860432
  atomic energy  EATOM  =     45086.50549395
  Solvation  Ediel_sol  =         0.00000000
  ---------------------------------------------------
  free energy    TOTEN  =      -175.00310212 eV

  energy without entropy =     -175.00157583  energy(sigma->0) =     -175.00272055


--------------------------------------------------------------------------------------------------------




--------------------------------------- Iteration      1(  19)  ---------------------------------------


    POTLOK:  cpu time   14.2805: real time   14.2830
    SETDIJ:  cpu time    0.1224: real time    0.1224
    EDDIAG:  cpu time   71.2852: real time   71.2843
  RMM-DIIS:  cpu time  194.2816: real time  194.2849
    ORTHCH:  cpu time   14.2593: real time   14.2632
       DOS:  cpu time    0.0015: real time    0.0015
    CHARGE:  cpu time   27.2756: real time   27.2753
    MIXING:  cpu time    1.1114: real time    1.1114
    --------------------------------------------
      LOOP:  cpu time  322.6175: real time  322.6262

 eigenvalue-minimisations  :   706
 total energy-change (2. order) : 0.1489071E+00  (-0.3396259E-01)
 number of electron     559.9999833 magnetization 
 augmentation part      241.1425508 magnetization 

 Broyden mixing:
  rms(total) = 0.72212E+00    rms(broyden)= 0.72196E+00
  rms(prec ) = 0.82948E+00
  weight for this iteration     100.00

 eigenvalues of (default mixing * dielectric matrix)
  average eigenvalue GAMMA=   0.3331
  1.7990  1.0201  0.4189  0.4189  0.1752  0.1752  0.1138  0.1138  0.0911  0.0911
  0.0831  0.0629  0.0543  0.0463

 Free energy of the ion-electron system (eV)
  ---------------------------------------------------
  alpha Z        PSCENC =        75.25431677
  Ewald energy   TEWEN  =    138216.70080301
  -Hartree energ DENC   =   -182373.78331089
  -exchange      EXHF   =         0.00000000
  -V(xc)+E(xc)   XCENC  =     -1694.75741719
  PAW double counting   =     46111.70366340   -42585.63362069
  entropy T*S    EENTRO =        -0.01978034
  eigenvalues    EBANDS =     -3010.82434303
  atomic energy  EATOM  =     45086.50549395
  Solvation  Ediel_sol  =         0.00000000
  ---------------------------------------------------
  free energy    TOTEN  =      -174.85419502 eV

  energy without entropy =     -174.83441468  energy(sigma->0) =     -174.84924994


--------------------------------------------------------------------------------------------------------




--------------------------------------- Iteration      1(  20)  ---------------------------------------


    POTLOK:  cpu time   14.0979: real time   14.1010
    SETDIJ:  cpu time    0.1260: real time    0.1260
    EDDIAG:  cpu time   70.8657: real time   70.8694
  RMM-DIIS:  cpu time  194.5630: real time  194.5590
    ORTHCH:  cpu time   14.0078: real time   14.0074
       DOS:  cpu time    0.0015: real time    0.0015
    CHARGE:  cpu time   27.3442: real time   27.3435
    MIXING:  cpu time    1.1042: real time    1.1042
    --------------------------------------------
      LOOP:  cpu time  322.1103: real time  322.1119

 eigenvalue-minimisations  :   706
 total energy-change (2. order) :-0.9493589E-01  (-0.3353675E-01)
 number of electron     559.9999829 magnetization 
 augmentation part      241.1840286 magnetization 

 Broyden mixing:
  rms(total) = 0.90039E+00    rms(broyden)= 0.90015E+00
  rms(prec ) = 0.10390E+01
  weight for this iteration     100.00

 eigenvalues of (default mixing * dielectric matrix)
  average eigenvalue GAMMA=   0.3426
  1.9474  1.2019  0.4233  0.4233  0.1939  0.1939  0.1147  0.1147  0.0915  0.0915
  0.0986  0.0792  0.0642  0.0539  0.0464

 Free energy of the ion-electron system (eV)
  ---------------------------------------------------
  alpha Z        PSCENC =        75.25431677
  Ewald energy   TEWEN  =    138216.70080301
  -Hartree energ DENC   =   -182402.12368624
  -exchange      EXHF   =         0.00000000
  -V(xc)+E(xc)   XCENC  =     -1694.46322018
  PAW double counting   =     46122.08215448   -42594.42094020
  entropy T*S    EENTRO =        -0.01973504
  eigenvalues    EBANDS =     -2984.46431746
  atomic energy  EATOM  =     45086.50549395
  Solvation  Ediel_sol  =         0.00000000
  ---------------------------------------------------
  free energy    TOTEN  =      -174.94913091 eV

  energy without entropy =     -174.92939587  energy(sigma->0) =     -174.94419715


--------------------------------------------------------------------------------------------------------




--------------------------------------- Iteration      1(  21)  ---------------------------------------


    POTLOK:  cpu time   14.3490: real time   14.3515
    SETDIJ:  cpu time    0.1310: real time    0.1310
    EDDIAG:  cpu time   71.2169: real time   71.2171
  RMM-DIIS:  cpu time  196.5912: real time  196.5904
    ORTHCH:  cpu time   14.0437: real time   14.0433
       DOS:  cpu time    0.0015: real time    0.0015
    CHARGE:  cpu time   27.6062: real time   27.6055
    MIXING:  cpu time    1.2786: real time    1.2786
    --------------------------------------------
      LOOP:  cpu time  325.2181: real time  325.2188

 eigenvalue-minimisations  :   712
 total energy-change (2. order) : 0.2541351E+00  (-0.2578574E-01)
 number of electron     559.9999825 magnetization 
 augmentation part      241.1067933 magnetization 

 Broyden mixing:
  rms(total) = 0.66900E+00    rms(broyden)= 0.66875E+00
  rms(prec ) = 0.79325E+00
  weight for this iteration     100.00

 eigenvalues of (default mixing * dielectric matrix)
  average eigenvalue GAMMA=   0.3497
  2.1250  1.1802  0.4736  0.4736  0.2236  0.2236  0.1465  0.1158  0.1158  0.0913
  0.0913  0.1005  0.0671  0.0671  0.0539  0.0464

 Free energy of the ion-electron system (eV)
  ---------------------------------------------------
  alpha Z        PSCENC =        75.25431677
  Ewald energy   TEWEN  =    138216.70080301
  -Hartree energ DENC   =   -182426.55048713
  -exchange      EXHF   =         0.00000000
  -V(xc)+E(xc)   XCENC  =     -1694.18935327
  PAW double counting   =     46131.17360969   -42602.36542519
  entropy T*S    EENTRO =        -0.01853703
  eigenvalues    EBANDS =     -2961.20541657
  atomic energy  EATOM  =     45086.50549395
  Solvation  Ediel_sol  =         0.00000000
  ---------------------------------------------------
  free energy    TOTEN  =      -174.69499577 eV

  energy without entropy =     -174.67645874  energy(sigma->0) =     -174.69036151


--------------------------------------------------------------------------------------------------------




--------------------------------------- Iteration      1(  22)  ---------------------------------------


    POTLOK:  cpu time   14.0425: real time   14.0428
    SETDIJ:  cpu time    0.1249: real time    0.1249
    EDDIAG:  cpu time   71.1237: real time   71.1229
  RMM-DIIS:  cpu time  194.8181: real time  194.8163
    ORTHCH:  cpu time   13.9779: real time   13.9776
       DOS:  cpu time    0.0015: real time    0.0015
    CHARGE:  cpu time   27.5582: real time   27.5576
    MIXING:  cpu time    1.2988: real time    1.2988
    --------------------------------------------
      LOOP:  cpu time  322.9457: real time  322.9425

 eigenvalue-minimisations  :   702
 total energy-change (2. order) : 0.4780690E-01  (-0.1866225E-01)
 number of electron     559.9999824 magnetization 
 augmentation part      241.1700511 magnetization 

 Broyden mixing:
  rms(total) = 0.64419E+00    rms(broyden)= 0.64399E+00
  rms(prec ) = 0.73809E+00
  weight for this iteration     100.00

 eigenvalues of (default mixing * dielectric matrix)
  average eigenvalue GAMMA=   0.3537
  2.1779  1.3024  0.4960  0.4960  0.3315  0.1873  0.1873  0.1154  0.1154  0.0911
  0.0911  0.0954  0.0954  0.0464  0.0539  0.0650  0.0650

 Free energy of the ion-electron system (eV)
  ---------------------------------------------------
  alpha Z        PSCENC =        75.25431677
  Ewald energy   TEWEN  =    138216.70080301
  -Hartree energ DENC   =   -182437.64857737
  -exchange      EXHF   =         0.00000000
  -V(xc)+E(xc)   XCENC  =     -1694.04034950
  PAW double counting   =     46132.41746583   -42603.01136470
  entropy T*S    EENTRO =        -0.03568451
  eigenvalues    EBANDS =     -2950.78929233
  atomic energy  EATOM  =     45086.50549395
  Solvation  Ediel_sol  =         0.00000000
  ---------------------------------------------------
  free energy    TOTEN  =      -174.64718887 eV

  energy without entropy =     -174.61150435  energy(sigma->0) =     -174.63826774


--------------------------------------------------------------------------------------------------------




--------------------------------------- Iteration      1(  23)  ---------------------------------------


    POTLOK:  cpu time   14.0424: real time   14.0429
    SETDIJ:  cpu time    0.1221: real time    0.1221
    EDDIAG:  cpu time   70.8682: real time   70.8684
  RMM-DIIS:  cpu time  195.0496: real time  195.0473
    ORTHCH:  cpu time   13.9987: real time   13.9984
       DOS:  cpu time    0.0015: real time    0.0015
    CHARGE:  cpu time   27.5120: real time   27.5113
    MIXING:  cpu time    1.2952: real time    1.2952
    --------------------------------------------
      LOOP:  cpu time  322.8897: real time  322.8871

 eigenvalue-minimisations  :   707
 total energy-change (2. order) : 0.1063143E+00  (-0.1405693E-01)
 number of electron     559.9999820 magnetization 
 augmentation part      241.1100433 magnetization 

 Broyden mixing:
  rms(total) = 0.44281E+00    rms(broyden)= 0.44262E+00
  rms(prec ) = 0.50902E+00
  weight for this iteration     100.00

 eigenvalues of (default mixing * dielectric matrix)
  average eigenvalue GAMMA=   0.3582
  2.2268  1.3857  0.6525  0.4092  0.4092  0.1915  0.1915  0.1654  0.1150  0.1150
[...]
 -0.006  -0.012   0.004   0.004   0.006  -0.006  -0.012   0.004
 -0.011  -0.020   0.007   0.006   0.010  -0.010  -0.020   0.006
 -0.015  -0.005   0.012   0.000   0.022  -0.014  -0.005   0.012
  0.000  -0.023  -0.006  -0.015  -0.000   0.000  -0.022  -0.006
 -0.022   0.000   0.009  -0.005  -0.016  -0.021   0.000   0.008
 -0.017  -0.006   0.015   0.000   0.027  -0.017  -0.006   0.015
  0.000  -0.027  -0.007  -0.018   0.000   0.000  -0.027  -0.007
 -0.027   0.000   0.010  -0.006  -0.019  -0.026   0.000   0.010
 total augmentation occupancy for first ion, spin component:           1
  1.534  -0.028   0.003   0.023   0.021   0.077  -0.009  -0.001   0.034  -0.010   0.091  -0.031   0.012   0.000   0.002  -0.019
 -0.028   1.400   0.029   0.066   0.005  -0.008   0.072   0.011  -0.013  -0.008   0.216  -0.065   0.019   0.004   0.002  -0.006
  0.003   0.029   1.545   0.003  -0.000  -0.001   0.012   0.073  -0.013   0.017  -0.056   0.019  -0.003  -0.007  -0.005   0.016
  0.023   0.066   0.003   1.335   0.045   0.032  -0.012  -0.013   0.091  -0.022  -0.075   0.018  -0.002  -0.007  -0.004   0.001
  0.021   0.005  -0.000   0.045   1.443  -0.010  -0.009   0.016  -0.022   0.066  -0.099   0.032  -0.002  -0.010  -0.010   0.026
  0.077  -0.008  -0.001   0.032  -0.010   0.216   0.019  -0.002  -0.044   0.003  -0.048   0.002   0.017  -0.009   0.034  -0.004
 -0.009   0.072   0.012  -0.012  -0.009   0.019   0.262  -0.023  -0.004   0.006  -0.109   0.007  -0.001   0.051  -0.010  -0.000
 -0.001   0.011   0.073  -0.013   0.016  -0.002  -0.023   0.215   0.014  -0.020   0.028  -0.001  -0.012   0.009  -0.018   0.003
  0.034  -0.013  -0.013   0.091  -0.022  -0.044  -0.004   0.014   0.260   0.007   0.043  -0.004  -0.009   0.036   0.004   0.000
 -0.010  -0.008   0.017  -0.022   0.066   0.003   0.006  -0.020   0.007   0.258   0.047  -0.002  -0.038   0.002   0.049   0.007
  0.091   0.216  -0.056  -0.075  -0.099  -0.048  -0.109   0.028   0.043   0.047   0.951  -0.141   0.084   0.014   0.064  -0.013
 -0.031  -0.065   0.019   0.018   0.032   0.002   0.007  -0.001  -0.004  -0.002  -0.141   0.023  -0.014  -0.003  -0.010   0.003
  0.012   0.019  -0.003  -0.002  -0.002   0.017  -0.001  -0.012  -0.009  -0.038   0.084  -0.014   0.029  -0.008  -0.004  -0.003
  0.000   0.004  -0.007  -0.007  -0.010  -0.009   0.051   0.009   0.036   0.002   0.014  -0.003  -0.008   0.035   0.004   0.000
  0.002   0.002  -0.005  -0.004  -0.010   0.034  -0.010  -0.018   0.004   0.049   0.064  -0.010  -0.004   0.004   0.035  -0.000
 -0.019  -0.006   0.016   0.001   0.026  -0.004  -0.000   0.003   0.000   0.007  -0.013   0.003  -0.003   0.000  -0.000   0.001
  0.001  -0.028  -0.007  -0.018   0.001   0.001  -0.008  -0.001  -0.006  -0.000  -0.003   0.001   0.000  -0.003  -0.000   0.000
 -0.028   0.001   0.012  -0.005  -0.020  -0.006   0.001   0.003  -0.001  -0.007  -0.008   0.001  -0.000  -0.000  -0.003   0.000


------------------------ aborting loop because EDIFF is reached ----------------------------------------


    CHARGE:  cpu time   25.7327: real time   25.7321
    FORLOC:  cpu time    6.8955: real time    6.8953
    FORNL :  cpu time   67.9803: real time   67.9788
    STRESS:  cpu time  203.5018: real time  203.4972
    FORCOR:  cpu time   22.3749: real time   22.3744
    FORHAR:  cpu time    9.6964: real time    9.6962
    MIXING:  cpu time    3.9346: real time    3.9345
    OFIELD:  cpu time    0.0000: real time    0.0000

  FORCE on cell =-STRESS in cart. coord.  units (eV):
  Direction    XX          YY          ZZ          XY          YZ          ZX
  --------------------------------------------------------------------------------------
  Alpha Z    75.25432    75.25432    75.25432
  Ewald   44088.53284 44057.77263 50070.28955     1.50828   -22.00593  -268.87197
  Hartree 59012.99816 58987.41489 64587.95049     1.23866   -19.36652  -236.46141
  E(xc)   -2905.22939 -2905.30258 -2902.37454     0.00561    -0.03014    -0.36317
  Local  ************************************    -2.68729    41.01721   500.97836
  n-local  -881.31705  -881.02811  -894.61183    -0.02528     0.12318     1.51154
  augment  4104.98077  4105.07415  4101.29374    -0.01181     0.04484     0.53886
  Kinetic  7813.54753  7814.04141  7783.21530    -0.04790     0.28220     3.42827
  Fock        0.00000     0.00000     0.00000     0.00000     0.00000     0.00000
  -------------------------------------------------------------------------------------
  Total    -113.50796  -113.31448  -114.58046    -0.01974     0.06485     0.76049
  in kB      -6.73555    -6.72407    -6.79919    -0.00117     0.00385     0.04513
  external pressure =       -6.75 kB  Pullay stress =        0.00 kB


 VOLUME and BASIS-vectors are now :
 -----------------------------------------------------------------------------
  energy-cutoff  :      400.00
  volume of cell :    27000.00
      direct lattice vectors                 reciprocal lattice vectors
    30.000000000  0.000000000  0.000000000     0.033333333  0.000000000  0.000000000
     0.000000000 30.000000000  0.000000000     0.000000000  0.033333333  0.000000000
     0.000000000  0.000000000 30.000000000     0.000000000  0.000000000  0.033333333

  length of vectors
    30.000000000 30.000000000 30.000000000     0.033333333  0.033333333  0.033333333


 FORCES acting on ions
    electron-ion (+dipol)            ewald-force                    non-local-force                 convergence-correction
 -----------------------------------------------------------------------------------------------
   0.400E+03 0.985E+03 0.400E+03   -.398E+03 -.982E+03 -.400E+03   -.152E+01 -.183E+01 -.203E+00   -.135E-02 0.297E-02 0.175E-02
   -.987E+03 -.399E+03 0.397E+03   0.984E+03 0.397E+03 -.396E+03   0.183E+01 0.152E+01 -.211E+00   -.107E-02 -.237E-02 -.509E-02
   -.397E+03 0.986E+03 0.399E+03   0.395E+03 -.983E+03 -.398E+03   0.152E+01 -.183E+01 -.213E+00   -.110E-02 0.160E-02 0.770E-03
   0.985E+03 -.398E+03 0.402E+03   -.982E+03 0.396E+03 -.401E+03   -.183E+01 0.151E+01 -.207E+00   0.723E-03 -.206E-02 -.664E-03
   0.682E+01 0.633E+03 0.923E+03   -.683E+01 -.633E+03 -.920E+03   0.870E-02 -.173E+00 -.237E+01   -.108E-02 0.211E-02 0.223E-02
   0.327E+00 0.588E+03 -.967E+03   -.323E+00 -.587E+03 0.964E+03   -.442E-03 -.302E+00 0.236E+01   -.202E-02 0.923E-03 0.130E-03
   0.598E+00 0.114E+04 -.838E+01   -.597E+00 -.113E+04 0.836E+01   0.102E-02 -.310E+01 0.123E-01   -.102E-02 0.191E-02 -.354E-03
   0.114E+04 0.449E-01 -.761E+01   -.113E+04 -.445E-01 0.760E+01   -.311E+01 0.146E-03 0.650E-02   0.121E-02 -.480E-03 0.116E-02
   -.114E+04 0.563E-01 -.946E+01   0.114E+04 -.545E-01 0.944E+01   0.310E+01 0.379E-04 0.190E-01   0.983E-03 -.173E-02 -.231E-02
   0.609E+00 -.114E+04 -.853E+01   -.607E+00 0.113E+04 0.851E+01   0.927E-03 0.310E+01 0.133E-01   -.165E-02 0.175E-02 -.537E-03
   -.602E+03 0.607E+03 0.785E+03   0.600E+03 -.605E+03 -.781E+03   0.154E+01 -.154E+01 -.221E+01   0.484E-03 0.178E-02 -.255E-03
   -.579E+03 0.579E+03 -.815E+03   0.577E+03 -.577E+03 0.812E+03   0.155E+01 -.156E+01 0.220E+01   -.236E-02 -.228E-02 0.693E-03
   0.603E+03 -.599E+03 0.792E+03   -.600E+03 0.597E+03 -.788E+03   -.155E+01 0.155E+01 -.221E+01   -.261E-03 -.832E-03 -.412E-03
   0.580E+03 -.579E+03 -.815E+03   -.577E+03 0.577E+03 0.811E+03   -.156E+01 0.155E+01 0.220E+01   -.551E-03 0.986E-04 0.360E-04
   0.602E+03 0.599E+03 0.792E+03   -.600E+03 -.597E+03 -.789E+03   -.155E+01 -.155E+01 -.221E+01   0.764E-04 0.208E-02 0.277E-02
   0.580E+03 0.579E+03 -.815E+03   -.577E+03 -.577E+03 0.811E+03   -.156E+01 -.156E+01 0.220E+01   0.277E-04 -.250E-03 0.166E-03
   -.603E+03 -.607E+03 0.784E+03   0.601E+03 0.605E+03 -.780E+03   0.154E+01 0.154E+01 -.221E+01   -.655E-03 -.164E-02 -.127E-02
   -.579E+03 -.579E+03 -.815E+03   0.577E+03 0.577E+03 0.812E+03   0.155E+01 0.156E+01 0.220E+01   -.271E-02 0.215E-02 0.287E-02
   0.395E+03 0.974E+03 -.422E+03   -.393E+03 -.971E+03 0.421E+03   -.150E+01 -.183E+01 0.216E+00   -.581E-03 0.165E-02 -.945E-03
   -.974E+03 -.395E+03 -.423E+03   0.971E+03 0.393E+03 0.422E+03   0.183E+01 0.150E+01 0.206E+00   0.565E-03 0.107E-02 0.195E-02
   -.329E+03 0.333E+03 0.414E+03   0.330E+03 -.334E+03 -.415E+03   -.314E+00 0.325E+00 0.470E+00   -.246E-02 -.396E-03 -.140E-02
   0.985E+03 0.398E+03 0.402E+03   -.982E+03 -.396E+03 -.401E+03   -.183E+01 -.151E+01 -.206E+00   0.308E-02 -.154E-02 -.423E-03
   -.397E+03 -.986E+03 0.399E+03   0.395E+03 0.984E+03 -.398E+03   0.152E+01 0.183E+01 -.214E+00   -.189E-02 0.232E-02 -.198E-02
   -.394E+03 0.974E+03 -.422E+03   0.392E+03 -.971E+03 0.422E+03   0.150E+01 -.183E+01 0.209E+00   -.177E-02 0.347E-03 -.105E-02
   0.974E+03 -.395E+03 -.422E+03   -.971E+03 0.393E+03 0.421E+03   -.183E+01 0.150E+01 0.217E+00   -.106E-02 0.907E-03 0.118E-02
   -.986E+03 0.399E+03 0.397E+03   0.983E+03 -.397E+03 -.396E+03   0.183E+01 -.152E+01 -.210E+00   -.251E-02 -.172E-02 -.401E-02
   0.400E+03 -.985E+03 0.400E+03   -.398E+03 0.982E+03 -.400E+03   -.152E+01 0.183E+01 -.203E+00   -.539E-03 0.159E-02 -.265E-03
   0.334E+03 0.332E+03 0.420E+03   -.335E+03 -.332E+03 -.420E+03   0.274E+00 0.262E+00 0.574E+00   -.868E-03 -.120E-02 0.522E-03
   0.108E+01 0.645E+03 -.156E+02   -.108E+01 -.646E+03 0.156E+02   -.830E-03 0.731E+00 0.241E-01   -.250E-02 0.826E-03 -.214E-02
   -.640E+03 0.747E+00 0.910E+03   0.639E+03 -.746E+00 -.906E+03   0.101E+00 0.114E-02 -.235E+01   -.112E-02 -.212E-02 -.103E-02
   -.587E+03 0.279E-01 -.967E+03   0.587E+03 -.275E-01 0.964E+03   0.303E+00 -.441E-04 0.236E+01   -.382E-02 -.179E-03 0.218E-02
   0.629E+03 0.452E+00 0.931E+03   -.629E+03 -.450E+00 -.927E+03   -.218E+00 0.468E-03 -.239E+01   0.104E-02 -.264E-02 0.108E-02
   0.588E+03 0.253E-01 -.967E+03   -.587E+03 -.258E-01 0.963E+03   -.300E+00 -.131E-04 0.237E+01   -.120E-05 0.579E-03 -.327E-03
   0.765E+03 0.765E+03 -.112E+02   -.764E+03 -.763E+03 0.112E+02   -.113E+01 -.113E+01 -.222E-01   0.115E-02 0.463E-03 -.220E-02
   -.765E+03 -.765E+03 -.130E+02   0.763E+03 0.764E+03 0.130E+02   0.114E+01 0.114E+01 -.113E-03   -.112E-02 0.155E-02 -.163E-02
   -.765E+03 0.766E+03 -.129E+02   0.763E+03 -.764E+03 0.129E+02   0.114E+01 -.114E+01 -.193E-02   -.241E-02 -.158E-02 -.180E-02
   0.766E+03 -.765E+03 -.113E+02   -.764E+03 0.763E+03 0.113E+02   -.113E+01 0.113E+01 -.207E-01   -.218E-02 0.556E-03 0.136E-02
   0.338E+02 0.275E+01 0.887E+03   -.331E+02 -.270E+01 -.889E+03   -.318E+00 -.260E-01 0.105E+01   -.440E-03 -.180E-02 0.119E-02
   0.367E+00 0.297E-01 -.107E+04   -.356E+00 -.290E-01 0.107E+04   -.549E-02 -.453E-03 0.163E+01   -.238E-02 -.321E-04 0.155E-02
   0.974E+03 0.395E+03 -.422E+03   -.971E+03 -.393E+03 0.421E+03   -.183E+01 -.150E+01 0.218E+00   0.417E-03 0.132E-03 -.174E-03
   -.394E+03 -.974E+03 -.422E+03   0.392E+03 0.971E+03 0.422E+03   0.150E+01 0.183E+01 0.208E+00   -.301E-02 0.209E-02 0.303E-02
   -.322E+03 0.322E+03 -.462E+03   0.322E+03 -.323E+03 0.463E+03   -.361E+00 0.361E+00 -.525E+00   -.471E-02 -.214E-02 -.649E-03
   0.335E+03 -.331E+03 0.419E+03   -.335E+03 0.332E+03 -.420E+03   0.279E+00 -.267E+00 0.565E+00   -.670E-03 -.384E-02 -.179E-02
   0.323E+03 0.322E+03 -.461E+03   -.323E+03 -.323E+03 0.462E+03   0.365E+00 0.365E+00 -.518E+00   -.226E-03 -.176E-02 -.107E-03
   -.974E+03 0.395E+03 -.423E+03   0.971E+03 -.393E+03 0.422E+03   0.183E+01 -.150E+01 0.206E+00   -.664E-03 -.343E-02 -.334E-03
   0.395E+03 -.974E+03 -.422E+03   -.393E+03 0.971E+03 0.422E+03   -.150E+01 0.183E+01 0.215E+00   -.176E-02 0.786E-03 0.223E-02
   -.329E+03 -.333E+03 0.414E+03   0.330E+03 0.333E+03 -.414E+03   -.319E+00 -.328E+00 0.462E+00   -.171E-02 -.354E-02 -.412E-02
   0.645E+03 0.850E-01 -.145E+02   -.646E+03 -.820E-01 0.145E+02   0.733E+00 -.340E-04 0.116E-01   -.276E-03 -.307E-02 -.112E-02
   -.644E+03 0.995E-01 -.171E+02   0.645E+03 -.955E-01 0.170E+02   -.729E+00 -.678E-04 0.388E-01   -.366E-02 -.400E-02 -.316E-02
   0.710E+01 -.634E+03 0.922E+03   -.711E+01 0.634E+03 -.918E+03   0.939E-02 0.163E+00 -.237E+01   -.468E-03 -.631E-03 0.100E-03
   0.329E+00 -.588E+03 -.967E+03   -.325E+00 0.587E+03 0.964E+03   -.504E-03 0.302E+00 0.236E+01   -.229E-02 -.478E-03 0.201E-02
   0.144E+01 0.122E+00 -.211E+02   -.144E+01 -.117E+00 0.211E+02   0.187E-02 0.183E-03 0.186E-01   -.236E-02 -.502E-02 -.254E-02
   0.323E+03 -.322E+03 -.461E+03   -.323E+03 0.323E+03 0.462E+03   0.364E+00 -.364E+00 -.518E+00   -.221E-02 -.266E-03 0.328E-02
   -.322E+03 -.322E+03 -.462E+03   0.322E+03 0.323E+03 0.463E+03   -.361E+00 -.361E+00 -.526E+00   -.458E-02 -.121E-02 0.354E-02
   0.109E+01 -.645E+03 -.158E+02   -.109E+01 0.646E+03 0.158E+02   -.841E-03 -.730E+00 0.262E-01   -.299E-02 0.132E-02 -.956E-03
   -.149E+02 -.125E+01 0.229E+03   0.130E+02 0.109E+01 -.202E+03   0.125E+01 0.102E+00 -.216E+02   0.810E-04 -.248E-03 0.370E-03
   -.437E+02 -.357E+01 0.733E+03   0.479E+02 0.391E+01 -.797E+03   -.391E+01 -.321E+00 0.611E+02   0.791E-05 -.250E-03 0.941E-03
 -----------------------------------------------------------------------------------------------
   0.325E+01 0.275E+00 -.423E+02   0.348E-12 0.744E-12 -.114E-11   -.317E+01 -.260E+00 0.423E+02   -.652E-01 -.212E-01 -.596E-02
 
 
 POSITION                                       TOTAL-FORCE (eV/Angst)
 -----------------------------------------------------------------------------------
     13.37281      9.84801     12.50759         0.702334      1.107382      0.288711
     20.15199     16.62719     12.50759        -1.104732     -0.702485      0.291701
     16.62719      9.84801     12.50759        -0.700377      1.104557      0.292603
      9.84801     16.62719     12.50759         1.105949     -0.700181      0.289727
     15.00000     11.47521     10.20639        -0.003553      0.377401      1.326668
     15.00000     11.47521     19.79360         0.000488      0.406536     -1.281392
     15.00000      8.28283     15.00000         0.000557      1.511856     -0.004400
      8.28283     15.00000     15.00000         1.512618      0.000144     -0.002806
     21.71717     15.00000     15.00000        -1.510615      0.000168     -0.006327
     15.00000     21.71717     15.00000         0.000587     -1.511499     -0.004661
     18.35858     11.64142     10.25025        -0.750501      0.748284      1.075390
     18.35858     11.64142     19.74975        -0.753617      0.754796     -1.073560
     11.64142     18.35858     10.25025         0.751983     -0.753005      1.073332
     11.64142     18.35858     19.74975         0.754417     -0.753329     -1.073967
     11.64142     11.64142     10.25025         0.752318      0.753320      1.073183
     11.64142     11.64142     19.74975         0.754340      0.753631     -1.073994
     18.35858     18.35858     10.25025        -0.749929     -0.747709      1.075528
     18.35858     18.35858     19.74975        -0.753759     -0.754586     -1.073560
     13.37281      9.84801     17.49241         0.699985      1.108632     -0.291534
     20.15199     16.62719     17.49241        -1.109056     -0.700241     -0.289496
     16.73751     13.26249     12.54279         0.123783     -0.133274     -0.137881
      9.84801     13.37281     12.50759         1.106183      0.700589      0.289504
     16.62719     20.15199     12.50759        -0.700658     -1.104176      0.292807
     16.62719      9.84801     17.49241        -0.700870      1.107836     -0.290331
      9.84801     16.62719     17.49241         1.107440     -0.700804     -0.291752
     20.15199     13.37281     12.50759        -1.105194      0.702900      0.291310
     13.37281     20.15199     12.50759         0.702598     -1.107214      0.288777
     13.26249     13.26249     12.54279        -0.100059     -0.090159     -0.163293
     15.00000     11.52498     15.00000        -0.000976     -0.216978      0.000936
     18.52479     15.00000     10.20639        -0.373244     -0.000171      1.323478
     18.52479     15.00000     19.79360        -0.407218      0.000192     -1.281194
     11.47521     15.00000     10.20640         0.385279     -0.000092      1.322726
     11.47521     15.00000     19.79360         0.405173      0.000161     -1.281535
     11.49535     11.49535     15.00000         0.816694      0.818268      0.017985
     18.50465     18.50465     15.00000        -0.822222     -0.820868      0.010438
     18.50465     11.49535     15.00000        -0.822081      0.820688      0.011192
     11.49535     18.50465     15.00000         0.816716     -0.818318      0.017688
     15.00000     15.00000     10.04368         0.350434      0.028781     -0.930888
     15.00000     15.00000     19.95633         0.002953      0.000358     -1.184939
      9.84801     13.37281     17.49241         1.107375      0.700887     -0.291884
     16.62719     20.15199     17.49241        -0.700905     -1.107714     -0.290125
     16.73751     13.26249     17.45721         0.112919     -0.113396      0.154332
     13.26249     16.73751     12.54279        -0.104432      0.093212     -0.160201
     13.26249     13.26249     17.45721        -0.113369     -0.113121      0.153845
     20.15199     13.37281     17.49241        -1.109093      0.700330     -0.289594
     13.37281     20.15199     17.49241         0.699983     -1.108572     -0.291286
     16.73751     16.73751     12.54279         0.126268      0.134445     -0.136666
     11.52498     15.00000     15.00000        -0.216941      0.000006     -0.000363
     18.47502     15.00000     15.00000         0.216792      0.000030      0.002149
     15.00000     18.52480     10.20639        -0.003732     -0.375694      1.327281
     15.00000     18.52480     19.79360         0.000507     -0.406463     -1.281444
     15.00000     15.00000     15.00000        -0.000474      0.000037     -0.010853
     13.26249     16.73751     17.45721        -0.113392      0.113326      0.153918
     16.73751     16.73751     17.45721         0.112932      0.113574      0.154424
     15.00000     18.47502     15.00000        -0.000955      0.217168      0.001130
     15.47196     15.03842      7.77003        -0.646668     -0.052826      5.059621
     15.54544     15.04440      6.64444         0.249014      0.013379     -3.170453
 -----------------------------------------------------------------------------------
    total drift:                                0.009368     -0.005555     -0.000122


--------------------------------------------------------------------------------------------------------



  FREE ENERGIE OF THE ION-ELECTRON SYSTEM (eV)
  ---------------------------------------------------
  free  energy   TOTEN  =      -174.40064945 eV

  energy  without entropy=     -174.33345824  energy(sigma->0) =     -174.38385165
 


--------------------------------------------------------------------------------------------------------


    POTLOK:  cpu time   14.1714: real time   14.1759


--------------------------------------------------------------------------------------------------------


     LOOP+:  cpu time18645.5654: real time18646.0012
    4ORBIT:  cpu time    0.0000: real time    0.0000

 total amount of memory used by VASP MPI-rank0  5486941. kBytes
=======================================================================

   base      :      30000. kBytes
   nonlr-proj:      17126. kBytes
   fftplans  :     924480. kBytes
   grid      :    1872000. kBytes
   one-center:        886. kBytes
   wavefun   :    2642449. kBytes
 
  
  
 General timing and accounting informations for this job:
 ========================================================
  
                  Total CPU time used (sec):    18720.645
                            User time (sec):    17692.382
                          System time (sec):     1028.263
                         Elapsed time (sec):    18721.126
  
                   Maximum memory used (kb):     7179432.
                   Average memory used (kb):           0.
  
                          Minor page faults:    803377453
                          Major page faults:            0
                 Voluntary context switches:          535
