  57  57   0   0
  0.4736842E+03  0.3000000E-08  0.3000000E-08  0.3000000E-08  0.5000000E-15
  1.000000000000000E-004
  CAR 
 6_Pd100_top_free_z(O)                   
      1.28950474    -31.07712294  301     -4.14082729      1.00000000
    -31.077  0.0000E+00  0.0000E+00
    -30.969  0.0000E+00  0.0000E+00
    -30.861  0.0000E+00  0.0000E+00
    -30.753  0.4519E-27  0.4875E-28
    -30.646  0.2322E-23  0.2506E-24
    -30.538  0.6562E-20  0.7083E-21
    -30.430  0.1017E-16  0.1098E-17
    -30.322  0.8605E-14  0.9295E-15
    -30.214  0.3966E-11  0.4288E-12
    -30.106  0.9849E-09  0.1067E-09
    -29.998  0.1306E-06  0.1420E-07
    -29.890  0.9099E-05  0.9959E-06
    -29.782  0.3234E-03  0.3589E-04
    -29.675  0.5532E-02  0.6328E-03
    -29.567  0.3897E-01  0.4837E-02
    -29.459  0.3820E-01  0.8959E-02
    -29.351 -0.4865E+00 -0.4353E-01
    -29.243 -0.4298E+00 -0.8990E-01
    -29.135  0.4771E+01  0.4248E+00
    -29.027  0.9994E+01  0.1503E+01
    -28.919  0.5340E+01  0.2079E+01
    -28.811 -0.2598E+00  0.2051E+01
    -28.704 -0.5483E+00  0.1992E+01
    -28.596  0.2470E-01  0.1995E+01
    -28.488  0.4306E-01  0.1999E+01
    -28.380  0.6630E-02  0.2000E+01
    -28.272  0.4112E-03  0.2000E+01
    -28.164  0.1219E-04  0.2000E+01
    -28.056  0.1839E-06  0.2000E+01
    -27.948  0.1454E-08  0.2000E+01
    -27.840  0.6135E-11  0.2000E+01
    -27.733  0.1441E-13  0.2000E+01
    -27.625  0.0000E+00  0.2000E+01
    -27.517  0.0000E+00  0.2000E+01
    -27.409  0.0000E+00  0.2000E+01
    -27.301  0.0000E+00  0.2000E+01
    -27.193  0.0000E+00  0.2000E+01
    -27.085  0.0000E+00  0.2000E+01
    -26.977  0.0000E+00  0.2000E+01
    -26.869  0.0000E+00  0.2000E+01
    -26.762  0.0000E+00  0.2000E+01
    -26.654  0.0000E+00  0.2000E+01
    -26.546  0.0000E+00  0.2000E+01
    -26.438  0.0000E+00  0.2000E+01
    -26.330  0.0000E+00  0.2000E+01
    -26.222  0.0000E+00  0.2000E+01
    -26.114  0.0000E+00  0.2000E+01
    -26.006  0.0000E+00  0.2000E+01
    -25.898  0.0000E+00  0.2000E+01
    -25.791  0.0000E+00  0.2000E+01
    -25.683  0.0000E+00  0.2000E+01
    -25.575  0.0000E+00  0.2000E+01
    -25.467  0.0000E+00  0.2000E+01
    -25.359  0.0000E+00  0.2000E+01
    -25.251  0.0000E+00  0.2000E+01
    -25.143  0.0000E+00  0.2000E+01
    -25.035  0.0000E+00  0.2000E+01
    -24.927  0.0000E+00  0.2000E+01
    -24.820  0.0000E+00  0.2000E+01
    -24.712  0.0000E+00  0.2000E+01
    -24.604  0.0000E+00  0.2000E+01
    -24.496  0.0000E+00  0.2000E+01
    -24.388  0.0000E+00  0.2000E+01
    -24.280  0.0000E+00  0.2000E+01
    -24.172  0.0000E+00  0.2000E+01
    -24.064  0.0000E+00  0.2000E+01
    -23.956  0.0000E+00  0.2000E+01
    -23.849  0.0000E+00  0.2000E+01
    -23.741  0.0000E+00  0.2000E+01
    -23.633  0.0000E+00  0.2000E+01
    -23.525  0.0000E+00  0.2000E+01
    -23.417  0.0000E+00  0.2000E+01
    -23.309  0.0000E+00  0.2000E+01
    -23.201  0.0000E+00  0.2000E+01
    -23.093  0.0000E+00  0.2000E+01
    -22.985  0.0000E+00  0.2000E+01
    -22.878  0.0000E+00  0.2000E+01
    -22.770  0.0000E+00  0.2000E+01
    -22.662  0.0000E+00  0.2000E+01
    -22.554  0.0000E+00  0.2000E+01
    -22.446  0.0000E+00  0.2000E+01
    -22.338  0.0000E+00  0.2000E+01
    -22.230  0.0000E+00  0.2000E+01
    -22.122  0.0000E+00  0.2000E+01
    -22.014  0.0000E+00  0.2000E+01
    -21.907  0.0000E+00  0.2000E+01
    -21.799  0.0000E+00  0.2000E+01
    -21.691  0.0000E+00  0.2000E+01
    -21.583  0.0000E+00  0.2000E+01
    -21.475  0.0000E+00  0.2000E+01
    -21.367  0.0000E+00  0.2000E+01
    -21.259  0.0000E+00  0.2000E+01
    -21.151  0.0000E+00  0.2000E+01
    -21.043  0.0000E+00  0.2000E+01
    -20.936  0.0000E+00  0.2000E+01
    -20.828  0.0000E+00  0.2000E+01
    -20.720  0.0000E+00  0.2000E+01
    -20.612  0.0000E+00  0.2000E+01
    -20.504  0.0000E+00  0.2000E+01
    -20.396  0.0000E+00  0.2000E+01
    -20.288  0.0000E+00  0.2000E+01
    -20.180  0.0000E+00  0.2000E+01
    -20.072  0.0000E+00  0.2000E+01
    -19.965  0.0000E+00  0.2000E+01
    -19.857  0.0000E+00  0.2000E+01
    -19.749  0.0000E+00  0.2000E+01
    -19.641  0.0000E+00  0.2000E+01
    -19.533  0.0000E+00  0.2000E+01
    -19.425  0.0000E+00  0.2000E+01
    -19.317  0.0000E+00  0.2000E+01
    -19.209  0.0000E+00  0.2000E+01
    -19.101  0.0000E+00  0.2000E+01
    -18.994  0.0000E+00  0.2000E+01
    -18.886  0.0000E+00  0.2000E+01
    -18.778  0.0000E+00  0.2000E+01
    -18.670  0.0000E+00  0.2000E+01
    -18.562  0.0000E+00  0.2000E+01
    -18.454  0.0000E+00  0.2000E+01
    -18.346  0.0000E+00  0.2000E+01
    -18.238  0.0000E+00  0.2000E+01
    -18.130  0.0000E+00  0.2000E+01
    -18.023  0.0000E+00  0.2000E+01
    -17.915  0.0000E+00  0.2000E+01
    -17.807  0.0000E+00  0.2000E+01
    -17.699  0.0000E+00  0.2000E+01
    -17.591  0.0000E+00  0.2000E+01
    -17.483  0.0000E+00  0.2000E+01
    -17.375  0.0000E+00  0.2000E+01
    -17.267  0.0000E+00  0.2000E+01
    -17.159  0.0000E+00  0.2000E+01
    -17.052  0.0000E+00  0.2000E+01
    -16.944  0.0000E+00  0.2000E+01
    -16.836  0.0000E+00  0.2000E+01
    -16.728  0.0000E+00  0.2000E+01
    -16.620  0.0000E+00  0.2000E+01
    -16.512  0.0000E+00  0.2000E+01
    -16.404  0.0000E+00  0.2000E+01
    -16.296  0.0000E+00  0.2000E+01
    -16.188  0.0000E+00  0.2000E+01
    -16.081  0.0000E+00  0.2000E+01
    -15.973  0.0000E+00  0.2000E+01
    -15.865  0.0000E+00  0.2000E+01
    -15.757  0.0000E+00  0.2000E+01
    -15.649  0.0000E+00  0.2000E+01
    -15.541  0.0000E+00  0.2000E+01
    -15.433  0.0000E+00  0.2000E+01
    -15.325  0.4883E-27  0.2000E+01
    -15.217  0.2496E-23  0.2000E+01
    -15.110  0.7018E-20  0.2000E+01
    -15.002  0.1082E-16  0.2000E+01
    -14.894  0.9105E-14  0.2000E+01
    -14.786  0.4174E-11  0.2000E+01
    -14.678  0.1031E-08  0.2000E+01
    -14.570  0.1360E-06  0.2000E+01
    -14.462  0.9417E-05  0.2000E+01
    -14.354  0.3326E-03  0.2000E+01
    -14.246  0.5652E-02  0.2001E+01
    -14.139  0.3944E-01  0.2005E+01
    -14.031  0.3681E-01  0.2009E+01
    -13.923 -0.4937E+00  0.1956E+01
    -13.815 -0.4118E+00  0.1911E+01
    -13.707  0.4837E+01  0.2433E+01
    -13.599  0.9998E+01  0.3512E+01
    -13.491  0.5273E+01  0.4081E+01
    -13.383 -0.2815E+00  0.4050E+01
    -13.275 -0.5411E+00  0.3992E+01
    -13.168  0.2646E-01  0.3995E+01
    -13.060  0.4258E-01  0.3999E+01
    -12.952  0.6493E-02  0.4000E+01
    -12.844  0.3999E-03  0.4000E+01
    -12.736  0.1178E-04  0.4000E+01
    -12.628  0.1767E-06  0.4000E+01
    -12.520  0.1404E-08  0.4000E+01
    -12.412  0.3396E-08  0.4000E+01
    -12.304  0.4203E-06  0.4000E+01
    -12.197  0.2732E-04  0.4000E+01
    -12.089  0.9021E-03  0.4000E+01
    -11.981  0.1421E-01  0.4002E+01
    -11.873  0.8926E-01  0.4011E+01
    -11.765  0.3691E-01  0.4015E+01
    -11.657 -0.1143E+01  0.3892E+01
    -11.549 -0.3677E+00  0.3852E+01
    -11.441  0.1112E+02  0.5051E+01
    -11.333  0.1995E+02  0.7203E+01
    -11.226  0.9108E+01  0.8186E+01
    -11.118 -0.9690E+00  0.8081E+01
    -11.010 -0.9255E+00  0.7982E+01
    -10.902  0.8476E-01  0.7991E+01
    -10.794  0.7488E-01  0.7999E+01
    -10.686  0.1067E-01  0.8000E+01
    -10.578  0.6428E-02  0.8001E+01
    -10.470  0.4018E-01  0.8005E+01
    -10.362  0.3460E-01  0.8009E+01
    -10.255 -0.5047E+00  0.7954E+01
    -10.147 -0.3836E+00  0.7913E+01
    -10.039  0.4937E+01  0.8446E+01
     -9.931  0.1000E+02  0.9525E+01
     -9.823  0.5172E+01  0.1008E+02
     -9.715 -0.3135E+00  0.1005E+02
     -9.607 -0.5302E+00  0.9992E+01
     -9.499  0.2903E-01  0.9995E+01
     -9.391  0.4185E-01  0.9999E+01
     -9.284  0.6290E-02  0.1000E+02
     -9.176  0.3833E-03  0.1000E+02
     -9.068  0.1119E-04  0.1000E+02
     -8.960  0.1664E-06  0.1000E+02
     -8.852  0.1297E-08  0.1000E+02
     -8.744  0.5400E-11  0.1000E+02
     -8.636  0.1235E-13  0.1000E+02
     -8.528  0.0000E+00  0.1000E+02
     -8.420  0.0000E+00  0.1000E+02
     -8.313  0.5129E-27  0.1000E+02
     -8.205  0.2613E-23  0.1000E+02
     -8.097  0.7322E-20  0.1000E+02
     -7.989  0.1125E-16  0.1000E+02
     -7.881  0.9437E-14  0.1000E+02
     -7.773  0.4311E-11  0.1000E+02
     -7.665  0.1061E-08  0.1000E+02
     -7.557  0.1395E-06  0.1000E+02
     -7.449  0.9624E-05  0.1000E+02
     -7.342  0.3386E-03  0.1000E+02
     -7.234  0.5729E-02  0.1000E+02
     -7.126  0.3974E-01  0.1000E+02
     -7.018  0.3590E-01  0.1001E+02
     -6.910 -0.4982E+00  0.9955E+01
     -6.802 -0.3983E+00  0.9912E+01
     -6.694  0.4905E+01  0.1044E+02
     -6.586  0.1015E+02  0.1154E+02
     -6.478  0.5219E+01  0.1210E+02
     -6.371 -0.2183E+01  0.1186E+02
     -6.263 -0.3338E-02  0.1186E+02
     -6.155  0.1903E+02  0.1392E+02
     -6.047  0.2776E+02  0.1691E+02
     -5.939  0.1063E+02  0.1806E+02
     -5.831  0.1708E+02  0.1990E+02
     -5.723  0.5767E+02  0.2612E+02
     -5.615  0.1295E+03  0.4009E+02
     -5.507  0.2457E+03  0.6660E+02
     -5.400  0.3063E+03  0.9965E+02
     -5.292  0.2471E+03  0.1263E+03
     -5.184  0.2055E+03  0.1485E+03
     -5.076  0.2769E+03  0.1784E+03
     -4.968  0.3629E+03  0.2175E+03
     -4.860  0.3346E+03  0.2536E+03
     -4.752  0.2856E+03  0.2844E+03
     -4.644  0.3596E+03  0.3232E+03
     -4.536  0.4314E+03  0.3698E+03
     -4.429  0.4234E+03  0.4154E+03
     -4.321  0.4921E+03  0.4685E+03
     -4.213  0.5605E+03  0.5290E+03
     -4.105  0.3797E+03  0.5700E+03
     -3.997  0.1013E+03  0.5809E+03
     -3.889  0.6627E+01  0.5816E+03
     -3.781  0.3100E+02  0.5850E+03
     -3.673  0.2494E+02  0.5876E+03
     -3.565  0.9354E+01  0.5887E+03
     -3.458  0.2338E+02  0.5912E+03
     -3.350  0.2309E+02  0.5937E+03
     -3.242  0.7870E+00  0.5937E+03
     -3.134  0.5268E+01  0.5943E+03
     -3.026  0.4773E+02  0.5995E+03
     -2.918  0.6672E+02  0.6067E+03
     -2.810  0.3227E+02  0.6101E+03
     -2.702 -0.1051E+01  0.6100E+03
     -2.594  0.3356E+01  0.6104E+03
     -2.487  0.2643E+02  0.6132E+03
     -2.379  0.2825E+02  0.6163E+03
     -2.271  0.1136E+02  0.6175E+03
     -2.163  0.1272E+02  0.6189E+03
     -2.055  0.3586E+02  0.6228E+03
     -1.947  0.4498E+02  0.6276E+03
     -1.839  0.3583E+02  0.6315E+03
     -1.731  0.3626E+02  0.6354E+03
     -1.623  0.4715E+02  0.6405E+03
     -1.516  0.4347E+02  0.6452E+03
     -1.408  0.2707E+02  0.6481E+03
     -1.300  0.1836E+02  0.6501E+03
     -1.192  0.2088E+02  0.6523E+03
     -1.084  0.2543E+02  0.6551E+03
     -0.976  0.4047E+02  0.6594E+03
     -0.868  0.5594E+02  0.6655E+03
     -0.760  0.4178E+02  0.6700E+03
     -0.652  0.1731E+02  0.6718E+03
     -0.545  0.2747E+01  0.6721E+03
     -0.437 -0.1184E+01  0.6720E+03
     -0.329 -0.3080E+00  0.6720E+03
     -0.221  0.1402E+00  0.6720E+03
     -0.113  0.5431E-01  0.6720E+03
     -0.005  0.6560E-02  0.6720E+03
      0.103  0.3575E-03  0.6720E+03
      0.211  0.9685E-05  0.6720E+03
      0.319  0.1359E-06  0.6720E+03
      0.426  0.1011E-08  0.6720E+03
      0.534  0.4034E-11  0.6720E+03
      0.642  0.8232E-14  0.6720E+03
      0.750  0.0000E+00  0.6720E+03
      0.858  0.0000E+00  0.6720E+03
      0.966  0.0000E+00  0.6720E+03
      1.074  0.0000E+00  0.6720E+03
      1.182  0.0000E+00  0.6720E+03
      1.290  0.0000E+00  0.6720E+03
