 vasp.5.4.4.18Apr17-6-g9f103f2a35 (build Sep 03 2018 23:53:05) complex          
  
 executed on             LinuxIFC date 2021.12.01  10:24:48
 running on    1 total cores
 distrk:  each k-point on    1 cores,    1 groups
 distr:  one band on NCORES_PER_BAND=   1 cores,    1 groups


--------------------------------------------------------------------------------------------------------


 INCAR:
 POTCAR:    PAW_PBE Pd 04Jan2005                  
 POTCAR:    PAW_PBE C 08Apr2002                   
 POTCAR:    PAW_PBE O 08Apr2002                   
 POTCAR:    PAW_PBE Pd 04Jan2005                  
   VRHFIN =Pd : s1 d9                                                           
   LEXCH  = PE                                                                  
   EATOM  =   809.7530 eV,   59.5152 Ry                                         
                                                                                
   TITEL  = PAW_PBE Pd 04Jan2005                                                
   LULTRA =        F    use ultrasoft PP ?                                      
   IUNSCR =        1    unscreen: 0-lin 1-nonlin 2-no                           
   RPACOR =    2.000    partial core radius                                     
   POMASS =  106.420; ZVAL   =   10.000    mass and valenz                      
   RCORE  =    2.600    outmost cutoff radius                                   
   RWIGS  =    2.710; RWIGS  =    1.434    wigner-seitz radius (au A)           
   ENMAX  =  250.925; ENMIN  =  188.194 eV                                      
   ICORE  =        3    local potential                                         
   LCOR   =        T    correct aug charges                                     
   LPAW   =        T    paw PP                                                  
   EAUG   =  416.230                                                            
   DEXC   =    0.000                                                            
   RMAX   =    2.653    core radius for proj-oper                               
   RAUG   =    1.300    factor for augmentation sphere                          
   RDEP   =    2.734    radius for radial grids                                 
   RDEPT  =    2.103    core radius for aug-charge                              
                                                                                
   Atomic configuration                                                         
   12 entries                                                                   
     n  l   j            E        occ.                                          
     1  0  0.50    -24164.6631   2.0000                                         
     2  0  0.50     -3530.9218   2.0000                                         
     2  1  1.50     -3165.6822   6.0000                                         
     3  0  0.50      -639.4577   2.0000                                         
     3  1  1.50      -519.4532   6.0000                                         
     3  2  2.50      -328.9757  10.0000                                         
     4  0  0.50       -88.7014   2.0000                                         
     4  1  1.50       -54.4540   6.0000                                         
     4  2  2.50        -6.6878   9.0000                                         
     5  0  0.50        -4.3543   1.0000                                         
     5  1  0.50        -1.3606   0.0000                                         
     4  3  2.50        -1.3606   0.0000                                         
   Description                                                                  
     l       E           TYP  RCUT    TYP  RCUT                                 
     2     -6.6878251     23  2.400                                             
     2     -8.0484077     23  2.400                                             
     0     -4.3542939     23  2.400                                             
     0      4.3406793     23  2.400                                             
     1     -4.0817478     23  2.600                                             
     1     15.8380318     23  2.600                                             
     3     -4.0817478     23  2.400                                             
  local pseudopotential read in
  partial core-charges read in
  partial kinetic energy density read in
  atomic valenz-charges read in
  non local Contribution for L=           2  read in
    real space projection operators read in
  non local Contribution for L=           2  read in
    real space projection operators read in
  non local Contribution for L=           0  read in
    real space projection operators read in
  non local Contribution for L=           0  read in
    real space projection operators read in
  non local Contribution for L=           1  read in
    real space projection operators read in
  non local Contribution for L=           1  read in
    real space projection operators read in
    PAW grid and wavefunctions read in
 
   number of l-projection  operators is LMAX  =           6
   number of lm-projection operators is LMMAX =          18
 
 POTCAR:    PAW_PBE C 08Apr2002                   
   VRHFIN =C: s2p2                                                              
   LEXCH  = PE                                                                  
   EATOM  =   147.1560 eV,   10.8157 Ry                                         
                                                                                
   TITEL  = PAW_PBE C 08Apr2002                                                 
   LULTRA =        F    use ultrasoft PP ?                                      
   IUNSCR =        1    unscreen: 0-lin 1-nonlin 2-no                           
   RPACOR =    1.200    partial core radius                                     
   POMASS =   12.011; ZVAL   =    4.000    mass and valenz                      
   RCORE  =    1.500    outmost cutoff radius                                   
   RWIGS  =    1.630; RWIGS  =    0.863    wigner-seitz radius (au A)           
   ENMAX  =  400.000; ENMIN  =  300.000 eV                                      
   ICORE  =        2    local potential                                         
   LCOR   =        T    correct aug charges                                     
   LPAW   =        T    paw PP                                                  
   EAUG   =  644.873                                                            
   DEXC   =    0.000                                                            
   RMAX   =    1.529    core radius for proj-oper                               
   RAUG   =    1.300    factor for augmentation sphere                          
   RDEP   =    1.501    radius for radial grids                                 
   RDEPT  =    1.300    core radius for aug-charge                              
                                                                                
   Atomic configuration                                                         
    4 entries                                                                   
     n  l   j            E        occ.                                          
     1  0  0.50      -273.3789   2.0000                                         
     2  0  0.50       -13.7508   2.0000                                         
     2  1  0.50        -5.2854   2.0000                                         
     3  2  1.50        -5.4423   0.0000                                         
   Description                                                                  
     l       E           TYP  RCUT    TYP  RCUT                                 
     0    -13.7508458     23  1.200                                             
     0     -8.2022199     23  1.200                                             
     1     -5.2854383     23  1.500                                             
     1     34.0145650     23  1.500                                             
     2     -5.4423304      7  1.500                                             
  local pseudopotential read in
  partial core-charges read in
  partial kinetic energy density read in
  atomic valenz-charges read in
  non local Contribution for L=           0  read in
    real space projection operators read in
  non local Contribution for L=           0  read in
    real space projection operators read in
  non local Contribution for L=           1  read in
    real space projection operators read in
  non local Contribution for L=           1  read in
    real space projection operators read in
    PAW grid and wavefunctions read in
 
   number of l-projection  operators is LMAX  =           4
   number of lm-projection operators is LMMAX =           8
 
 POTCAR:    PAW_PBE O 08Apr2002                   
   VRHFIN =O: s2p4                                                              
   LEXCH  = PE                                                                  
   EATOM  =   432.3788 eV,   31.7789 Ry                                         
                                                                                
   TITEL  = PAW_PBE O 08Apr2002                                                 
   LULTRA =        F    use ultrasoft PP ?                                      
   IUNSCR =        1    unscreen: 0-lin 1-nonlin 2-no                           
   RPACOR =    1.200    partial core radius                                     
   POMASS =   16.000; ZVAL   =    6.000    mass and valenz                      
   RCORE  =    1.520    outmost cutoff radius                                   
   RWIGS  =    1.550; RWIGS  =    0.820    wigner-seitz radius (au A)           
   ENMAX  =  400.000; ENMIN  =  300.000 eV                                      
   ICORE  =        2    local potential                                         
   LCOR   =        T    correct aug charges                                     
   LPAW   =        T    paw PP                                                  
   EAUG   =  605.392                                                            
   DEXC   =    0.000                                                            
   RMAX   =    1.553    core radius for proj-oper                               
   RAUG   =    1.300    factor for augmentation sphere                          
   RDEP   =    1.550    radius for radial grids                                 
   RDEPT  =    1.329    core radius for aug-charge                              
                                                                                
   Atomic configuration                                                         
    4 entries                                                                   
     n  l   j            E        occ.                                          
     1  0  0.50      -514.6923   2.0000                                         
     2  0  0.50       -23.9615   2.0000                                         
     2  1  0.50        -9.0305   4.0000                                         
     3  2  1.50        -9.5241   0.0000                                         
   Description                                                                  
     l       E           TYP  RCUT    TYP  RCUT                                 
     0    -23.9615318     23  1.200                                             
     0     -9.5240782     23  1.200                                             
     1     -9.0304911     23  1.520                                             
     1      8.1634956     23  1.520                                             
     2     -9.5240782      7  1.500                                             
  local pseudopotential read in
  partial core-charges read in
  partial kinetic energy density read in
  kinetic energy density of atom read in
  atomic valenz-charges read in
  non local Contribution for L=           0  read in
    real space projection operators read in
  non local Contribution for L=           0  read in
    real space projection operators read in
  non local Contribution for L=           1  read in
    real space projection operators read in
  non local Contribution for L=           1  read in
    real space projection operators read in
    PAW grid and wavefunctions read in
 
   number of l-projection  operators is LMAX  =           4
   number of lm-projection operators is LMMAX =           8
 
 Optimization of the real space projectors (new method)

 maximal supplied QI-value         = 14.36
 optimisation between [QCUT,QGAM] = [ 10.20, 20.39] = [ 29.12,116.47] Ry 
 Optimized for a Real-space Cutoff    1.51 Angstroem

   l    n(q)    QCUT    max X(q) W(low)/X(q) W(high)/X(q)  e(spline) 
   2      8    10.197    59.108    0.26E-03    0.14E-03    0.96E-07
   2      8    10.197    58.101    0.27E-03    0.14E-03    0.98E-07
   0      9    10.197   102.235    0.54E-04    0.60E-05    0.72E-07
   0      9    10.197    58.388    0.52E-04    0.60E-05    0.68E-07
   1      9    10.197    22.191    0.18E-03    0.25E-03    0.79E-07
   1      9    10.197    15.590    0.15E-03    0.21E-03    0.69E-07
 Optimization of the real space projectors (new method)

 maximal supplied QI-value         = 25.13
 optimisation between [QCUT,QGAM] = [ 10.05, 20.36] = [ 28.30,116.06] Ry 
 Optimized for a Real-space Cutoff    1.30 Angstroem

   l    n(q)    QCUT    max X(q) W(low)/X(q) W(high)/X(q)  e(spline) 
   0      8    10.053   115.676    0.49E-03    0.72E-03    0.18E-06
   0      8    10.053    87.132    0.49E-03    0.71E-03    0.18E-06
   1      7    10.053     4.429    0.32E-03    0.31E-03    0.18E-06
   1      7    10.053     2.733    0.23E-03    0.19E-03    0.20E-06
 Optimization of the real space projectors (new method)

 maximal supplied QI-value         = 24.76
 optimisation between [QCUT,QGAM] = [ 10.15, 20.30] = [ 28.85,115.39] Ry 
 Optimized for a Real-space Cutoff    1.38 Angstroem

   l    n(q)    QCUT    max X(q) W(low)/X(q) W(high)/X(q)  e(spline) 
   0      8    10.150    20.381    0.22E-03    0.32E-03    0.29E-06
   0      8    10.150    15.268    0.23E-03    0.35E-03    0.30E-06
   1      8    10.150     5.964    0.46E-03    0.53E-03    0.21E-06
   1      8    10.150     5.382    0.38E-03    0.45E-03    0.19E-06

 ----------------------------------------------------------------------------- 
|                                                                             |
|  ADVICE TO THIS USER RUNNING 'VASP/VAMP'   (HEAR YOUR MASTER'S VOICE ...):  |
|                                                                             |
|      You enforced a specific xc-type in the INCAR file,                     |
|      a different type was found on the POTCAR file                          |
|          I HOPE YOU KNOW, WHAT YOU ARE  DOING                               |
|                                                                             |
 ----------------------------------------------------------------------------- 

  PAW_PBE Pd 04Jan2005                  :
 energy of atom  1       EATOM= -809.7530
 kinetic energy error for atom=    0.0091 (will be added to EATOM!!)
  PAW_PBE C 08Apr2002                   :
 energy of atom  2       EATOM= -147.1560
 kinetic energy error for atom=    0.0288 (will be added to EATOM!!)
  PAW_PBE O 08Apr2002                   :
 energy of atom  3       EATOM= -432.3788
 kinetic energy error for atom=    0.1156 (will be added to EATOM!!)
 
 
 POSCAR: Pd55PES                                 
  positions in cartesian coordinates
  No initial velocities read in
 exchange correlation table for  LEXCH =        9
   RHO(1)=    0.500       N(1)  =     2000
   RHO(2)=  100.500       N(2)  =     4000
 


--------------------------------------------------------------------------------------------------------


 ion  position               nearest neighbor table
   1  0.446  0.328  0.417-   3 3.25   5 3.25   7 3.36  15 3.36  29 3.42  28 3.42
   2  0.672  0.554  0.417-  56 2.28  26 3.25  30 3.25  17 3.36   9 3.36  47 3.42  49 3.42
   3  0.554  0.328  0.417-   1 3.25   5 3.25   7 3.36  11 3.36  29 3.42  21 3.42
   4  0.328  0.554  0.417-  32 3.25  22 3.25  13 3.36   8 3.36  43 3.42  48 3.42
   5  0.500  0.383  0.340-   1 3.25   3 3.25  11 3.36  15 3.36  21 3.42  28 3.42
   6  0.500  0.383  0.660-  24 3.25  19 3.25  16 3.36  12 3.36  42 3.42  44 3.42
   7  0.500  0.276  0.500-  29 3.24   3 3.36   1 3.36  19 3.36  24 3.36
   8  0.276  0.500  0.500-  48 3.24  22 3.36  40 3.36   4 3.36  25 3.36
   9  0.724  0.500  0.500-  49 3.24  26 3.36  45 3.36   2 3.36  20 3.36
  10  0.500  0.724  0.500-  55 3.24  27 3.36  23 3.36  46 3.36  41 3.36
  11  0.612  0.388  0.342-  21 3.24   5 3.36   3 3.36  30 3.36  26 3.36
  12  0.612  0.388  0.658-  42 3.24  24 3.36  45 3.36   6 3.36  31 3.36
  13  0.388  0.612  0.342-  43 3.24  32 3.36  50 3.36   4 3.36  27 3.36
  14  0.388  0.612  0.658-  53 3.24  25 3.36  33 3.36  51 3.36  46 3.36
  15  0.388  0.388  0.342-  28 3.24   5 3.36   1 3.36  32 3.36  22 3.36
  16  0.388  0.388  0.658-  44 3.24  19 3.36  40 3.36   6 3.36  33 3.36
  17  0.612  0.612  0.342-  47 3.24  30 3.36  50 3.36   2 3.36  23 3.36
  18  0.612  0.612  0.658-  54 3.24  31 3.36  20 3.36  51 3.36  41 3.36
  19  0.446  0.328  0.583-   6 3.25  24 3.25  16 3.36   7 3.36  44 3.42  29 3.42
  20  0.672  0.554  0.583-  31 3.25  45 3.25  18 3.36   9 3.36  54 3.42  49 3.42
  21  0.558  0.442  0.418-  11 3.24   5 3.42   3 3.42  30 3.42  26 3.42
  22  0.328  0.446  0.417-   4 3.25  32 3.25   8 3.36  15 3.36  48 3.42  28 3.42
  23  0.554  0.672  0.417-  27 3.25  50 3.25  10 3.36  17 3.36  55 3.42  47 3.42
  24  0.554  0.328  0.583-   6 3.25  19 3.25  12 3.36   7 3.36  42 3.42  29 3.42
  25  0.328  0.554  0.583-  33 3.25  40 3.25  14 3.36   8 3.36  53 3.42  48 3.42
  26  0.672  0.446  0.417-   2 3.25  30 3.25   9 3.36  11 3.36  49 3.42  21 3.42
  27  0.446  0.672  0.417-  23 3.25  50 3.25  10 3.36  13 3.36  55 3.42  43 3.42
  28  0.442  0.442  0.418-  15 3.24   5 3.42   1 3.42  32 3.42  22 3.42
  29  0.500  0.384  0.500-   7 3.24   3 3.42   1 3.42  24 3.42  19 3.42
  30  0.617  0.500  0.340-   2 3.25  26 3.25  17 3.36  11 3.36  47 3.42  21 3.42
  31  0.617  0.500  0.660-  20 3.25  45 3.25  18 3.36  12 3.36  54 3.42  42 3.42
  32  0.383  0.500  0.340-   4 3.25  22 3.25  13 3.36  15 3.36  43 3.42  28 3.42
  33  0.383  0.500  0.660-  25 3.25  40 3.25  14 3.36  16 3.36  53 3.42  44 3.42
  34  0.383  0.383  0.500-
  35  0.617  0.617  0.500-
  36  0.617  0.383  0.500-
  37  0.383  0.617  0.500-
  38  0.500  0.500  0.335-
  39  0.500  0.500  0.665-
  40  0.328  0.446  0.583-  33 3.25  25 3.25  16 3.36   8 3.36  44 3.42  48 3.42
  41  0.554  0.672  0.583-  46 3.25  51 3.25  10 3.36  18 3.36  54 3.42  55 3.42
  42  0.558  0.442  0.582-  12 3.24   6 3.42  24 3.42  31 3.42  45 3.42
  43  0.442  0.558  0.418-  13 3.24   4 3.42  32 3.42  27 3.42  50 3.42
  44  0.442  0.442  0.582-  16 3.24   6 3.42  19 3.42  33 3.42  40 3.42
  45  0.672  0.446  0.583-  20 3.25  31 3.25   9 3.36  12 3.36  49 3.42  42 3.42
  46  0.446  0.672  0.583-  41 3.25  51 3.25  10 3.36  14 3.36  53 3.42  55 3.42
  47  0.558  0.558  0.418-  17 3.24   2 3.42  30 3.42  23 3.42  50 3.42
  48  0.384  0.500  0.500-   8 3.24   4 3.42  22 3.42  25 3.42  40 3.42
  49  0.616  0.500  0.500-   9 3.24   2 3.42  26 3.42  20 3.42  45 3.42
  50  0.500  0.617  0.340-  27 3.25  23 3.25  13 3.36  17 3.36  43 3.42  47 3.42
  51  0.500  0.617  0.660-  41 3.25  46 3.25  14 3.36  18 3.36  53 3.42  54 3.42
  52  0.500  0.500  0.500-
  53  0.442  0.558  0.582-  14 3.24  25 3.42  33 3.42  51 3.42  46 3.42
  54  0.558  0.558  0.582-  18 3.24  31 3.42  20 3.42  51 3.42  41 3.42
  55  0.500  0.616  0.500-  10 3.24  23 3.42  27 3.42  41 3.42  46 3.42
  56  0.742  0.564  0.391-  57 1.13   2 2.28
  57  0.776  0.573  0.376-  56 1.13
 
  LATTYP: Found a simple cubic cell.
 ALAT       =    30.0000000000
  
  Lattice vectors:
  
 A1 = (  30.0000000000,   0.0000000000,   0.0000000000)
 A2 = (   0.0000000000,  30.0000000000,   0.0000000000)
 A3 = (   0.0000000000,   0.0000000000,  30.0000000000)


Analysis of symmetry for initial positions (statically):
=====================================================================
 Subroutine PRICEL returns:
 Original cell was already a primitive cell.
 

 Routine SETGRP: Setting up the symmetry group for a 
 simple cubic supercell.


 Subroutine GETGRP returns: Found  1 space group operations
 (whereof  1 operations were pure point group operations)
 out of a pool of 48 trial point group operations.


The static configuration has the point symmetry C_1 .


Analysis of symmetry for dynamics (positions and initial velocities):
=====================================================================
 Subroutine PRICEL returns:
 Original cell was already a primitive cell.
 

 Routine SETGRP: Setting up the symmetry group for a 
 simple cubic supercell.


 Subroutine GETGRP returns: Found  1 space group operations
 (whereof  1 operations were pure point group operations)
 out of a pool of 48 trial point group operations.


The dynamic configuration has the point symmetry C_1 .


Analysis of constrained symmetry for selective dynamics:
=====================================================================
 Subroutine PRICEL returns:
 Original cell was already a primitive cell.
 

 Routine SETGRP: Setting up the symmetry group for a 
 simple cubic supercell.


 Subroutine GETGRP returns: Found  1 space group operations
 (whereof  1 operations were pure point group operations)
 out of a pool of 48 trial point group operations.


The constrained configuration has the point symmetry C_1 .


 Subroutine INISYM returns: Found  1 space group operations
 (whereof  1 operations are pure point group operations),
 and found     1 'primitive' translations

 
 
 KPOINTS: K-points                                

Automatic generation of k-mesh.
Space group operators:
 irot       det(A)        alpha          n_x          n_y          n_z        tau_x        tau_y        tau_z
    1     1.000000     0.000000     1.000000     0.000000     0.000000     0.000000     0.000000     0.000000
 
 Subroutine IBZKPT returns following result:
 ===========================================
 
 Found      1 irreducible k-points:
 
 Following reciprocal coordinates:
            Coordinates               Weight
  0.000000  0.000000  0.000000      1.000000
 
 Following cartesian coordinates:
            Coordinates               Weight
  0.000000  0.000000  0.000000      1.000000
 


--------------------------------------------------------------------------------------------------------




 Dimension of arrays:
   k-points           NKPTS =      1   k-points in BZ     NKDIM =      1   number of bands    NBANDS=    336
   number of dos      NEDOS =    301   number of ions     NIONS =     57
   non local maximal  LDIM  =      6   non local SUM 2l+1 LMDIM =     18
   total plane-waves  NPLWV = ******
   max r-space proj   IRMAX =   1847   max aug-charges    IRDMAX=   6262
   dimension x,y,z NGX =   150 NGY =  150 NGZ =  150
   dimension x,y,z NGXF=   300 NGYF=  300 NGZF=  300
   support grid    NGXF=   300 NGYF=  300 NGZF=  300
   ions per type =              55   1   1
   NGX,Y,Z   is equivalent  to a cutoff of   8.31,  8.31,  8.31 a.u.
   NGXF,Y,Z  is equivalent  to a cutoff of  16.62, 16.62, 16.62 a.u.

 SYSTEM =  6_Pd100_top_free_z(O)                   
 POSCAR =  Pd55PES                                 

 Startparameter for this run:
   NWRITE =      2    write-flag & timer
   PREC   = normal    normal or accurate (medium, high low for compatibility)
   ISTART =      0    job   : 0-new  1-cont  2-samecut
   ICHARG =      2    charge: 1-file 2-atom 10-const
   ISPIN  =      1    spin polarized calculation?
   LNONCOLLINEAR =      F non collinear calculations
   LSORBIT =      F    spin-orbit coupling
   INIWAV =      1    electr: 0-lowe 1-rand  2-diag
   LASPH  =      F    aspherical Exc in radial PAW
   METAGGA=      F    non-selfconsistent MetaGGA calc.

 Electronic Relaxation 1
   ENCUT  =  400.0 eV  29.40 Ry    5.42 a.u.  48.92 48.92 48.92*2*pi/ulx,y,z
   ENINI  =  400.0     initial cutoff
   ENAUG  =  644.9 eV  augmentation charge cutoff
   NELM   =    100;   NELMIN=  6; NELMDL= -5     # of ELM steps 
   EDIFF  = 0.1E-03   stopping-criterion for ELM
   LREAL  =      T    real-space projection
   NLSPLINE    = F    spline interpolate recip. space projectors
   LCOMPAT=      F    compatible to vasp.4.4
   GGA_COMPAT  = T    GGA compatible to vasp.4.4-vasp.4.6
   LMAXPAW     = -100 max onsite density
   LMAXMIX     =    2 max onsite mixed and CHGCAR
   VOSKOWN=      0    Vosko Wilk Nusair interpolation
   ROPT   =   -0.00050  -0.00050  -0.00050
 Ionic relaxation
   EDIFFG = -.5E-01   stopping-criterion for IOM
   NSW    =      0    number of steps for IOM
   NBLOCK =      1;   KBLOCK =      1    inner block; outer block 
   IBRION =     -1    ionic relax: 0-MD 1-quasi-New 2-CG
   NFREE  =      1    steps in history (QN), initial steepest desc. (CG)
   ISIF   =      2    stress and relaxation
   IWAVPR =     10    prediction:  0-non 1-charg 2-wave 3-comb
   ISYM   =      2    0-nonsym 1-usesym 2-fastsym
   LCORR  =      T    Harris-Foulkes like correction to forces

   POTIM  = 0.5000    time-step for ionic-motion
   TEIN   =    0.0    initial temperature
   TEBEG  =    0.0;   TEEND  =   0.0 temperature during run
   SMASS  =  -3.00    Nose mass-parameter (am)
   estimated Nose-frequenzy (Omega)   =  0.10E-29 period in steps =****** mass=  -0.206E-25a.u.
   SCALEE = 1.0000    scale energy and forces
   NPACO  =    256;   APACO  = 16.0  distance and # of slots for P.C.
   PSTRESS=    0.0 pullay stress

  Mass of Ions in am
   POMASS = 106.42 12.01 16.00
  Ionic Valenz
   ZVAL   =  10.00  4.00  6.00
  Atomic Wigner-Seitz radii
   RWIGS  =  -1.00 -1.00 -1.00
  virtual crystal weights 
   VCA    =   1.00  1.00  1.00
   NELECT =     560.0000    total number of electrons
   NUPDOWN=      -1.0000    fix difference up-down

 DOS related values:
   EMIN   =  10.00;   EMAX   =-10.00  energy-range for DOS
   EFERMI =   0.00
   ISMEAR =     2;   SIGMA  =   0.20  broadening in eV -4-tet -1-fermi 0-gaus

 Electronic relaxation 2 (details)
   IALGO  =     68    algorithm
   LDIAG  =      T    sub-space diagonalisation (order eigenvalues)
   LSUBROT=      F    optimize rotation matrix (better conditioning)
   TURBO    =      0    0=normal 1=particle mesh
   IRESTART =      0    0=no restart 2=restart with 2 vectors
   NREBOOT  =      0    no. of reboots
   NMIN     =      0    reboot dimension
   EREF     =   0.00    reference energy to select bands
   IMIX   =      4    mixing-type and parameters
     AMIX     =   0.40;   BMIX     =  1.00
     AMIX_MAG =   1.60;   BMIX_MAG =  1.00
     AMIN     =   0.10
     WC   =   100.;   INIMIX=   1;  MIXPRE=   1;  MAXMIX= -45

 Intra band minimization:
   WEIMIN = 0.0000     energy-eigenvalue tresh-hold
   EBREAK =  0.74E-07  absolut break condition
   DEPER  =   0.30     relativ break condition  

   TIME   =   0.40     timestep for ELM

  volume/ion in A,a.u.               =     473.68      3196.58
  Fermi-wavevector in a.u.,A,eV,Ry     =   0.449797  0.849992  2.752691  0.202317
  Thomas-Fermi vector in A             =   1.430086
 
 Write flags
   LWAVE        =      F    write WAVECAR
   LDOWNSAMPLE  =      F    k-point downsampling of WAVECAR
   LCHARG       =      F    write CHGCAR
   LVTOT        =      F    write LOCPOT, total local potential
   LVHAR        =      F    write LOCPOT, Hartree potential only
   LELF         =      F    write electronic localiz. function (ELF)
   LORBIT       =      0    0 simple, 1 ext, 2 COOP (PROOUT), +10 PAW based schemes


 Dipole corrections
   LMONO  =      F    monopole corrections only (constant potential shift)
   LDIPOL =      F    correct potential (dipole corrections)
   IDIPOL =      0    1-x, 2-y, 3-z, 4-all directions 
   EPSILON=  1.0000000 bulk dielectric constant

 Exchange correlation treatment:
   GGA     =    RP    GGA type
   LEXCH   =     9    internal setting for exchange type
   VOSKOWN=      0    Vosko Wilk Nusair interpolation
   LHFCALC =     F    Hartree Fock is set to
   LHFONE  =     F    Hartree Fock one center treatment
   AEXX    =    0.0000 exact exchange contribution

 Linear response parameters
   LEPSILON=     F    determine dielectric tensor
   LRPA    =     F    only Hartree local field effects (RPA)
   LNABLA  =     F    use nabla operator in PAW spheres
   LVEL    =     F    velocity operator in full k-point grid
   LINTERFAST=   F  fast interpolation
   KINTER  =     0    interpolate to denser k-point grid
   CSHIFT  =0.1000    complex shift for real part using Kramers Kronig
   OMEGAMAX=  -1.0    maximum frequency
   DEG_THRESHOLD= 0.2000000E-02 threshold for treating states as degnerate
   RTIME   =   -0.100 relaxation time in fs
  (WPLASMAI=    0.000 imaginary part of plasma frequency in eV, 0.658/RTIME)
   DFIELD  = 0.0000000 0.0000000 0.0000000 field for delta impulse in time
 
 Orbital magnetization related:
   ORBITALMAG=     F  switch on orbital magnetization
   LCHIMAG   =     F  perturbation theory with respect to B field
   DQ        =  0.001000  dq finite difference perturbation B field
   LLRAUG    =     F  two centre corrections for induced B field



--------------------------------------------------------------------------------------------------------


 Static calculation
 charge density and potential will be updated during run
 non-spin polarized calculation
 RMM-DIIS sequential band-by-band and
  variant of blocked Davidson during initial phase
 perform sub-space diagonalisation
    before iterative eigenvector-optimisation
 modified Broyden-mixing scheme, WC =      100.0
 initial mixing is a Kerker type mixing with AMIX =  0.4000 and BMIX =      1.0000
 Hartree-type preconditioning will be used
 using additional bands           56
 real space projection scheme for non local part
 use partial core corrections
 calculate Harris-corrections to forces 
   (improved forces if not selfconsistent)
 use gradient corrections 
 use of overlap-Matrix (Vanderbilt PP)
 Methfessel and Paxton  Order N= 2 SIGMA  =   0.20


--------------------------------------------------------------------------------------------------------


  energy-cutoff  :      400.00
  volume of cell :    27000.00
      direct lattice vectors                 reciprocal lattice vectors
    30.000000000  0.000000000  0.000000000     0.033333333  0.000000000  0.000000000
     0.000000000 30.000000000  0.000000000     0.000000000  0.033333333  0.000000000
     0.000000000  0.000000000 30.000000000     0.000000000  0.000000000  0.033333333

  length of vectors
    30.000000000 30.000000000 30.000000000     0.033333333  0.033333333  0.033333333


 
 k-points in units of 2pi/SCALE and weight: K-points                                
   0.00000000  0.00000000  0.00000000       1.000
 
 k-points in reciprocal lattice and weights: K-points                                
   0.00000000  0.00000000  0.00000000       1.000
 
 position of ions in fractional coordinates (direct lattice) 
   0.44576020  0.32826710  0.41691983
   0.67173288  0.55423978  0.41691983
   0.55423980  0.32826710  0.41691983
   0.32826712  0.55423978  0.41691983
   0.50000000  0.38250690  0.34021317
   0.50000000  0.38250690  0.65978680
   0.50000000  0.27609440  0.50000000
   0.27609443  0.49999998  0.50000000
   0.72390557  0.49999998  0.50000000
   0.50000000  0.72390555  0.50000000
   0.61195280  0.38804720  0.34167483
   0.61195280  0.38804720  0.65832513
   0.38804722  0.61195278  0.34167483
   0.38804722  0.61195278  0.65832513
   0.38804720  0.38804720  0.34167483
   0.38804720  0.38804720  0.65832513
   0.61195278  0.61195278  0.34167483
   0.61195278  0.61195278  0.65832513
   0.44576020  0.32826710  0.58308023
   0.67173288  0.55423978  0.58308023
   0.55791699  0.44208301  0.41809300
   0.32826705  0.44576024  0.41691983
   0.55423973  0.67173293  0.41691983
   0.55423980  0.32826710  0.58308023
   0.32826712  0.55423978  0.58308023
   0.67173295  0.44576024  0.41691983
   0.44576027  0.67173293  0.41691983
   0.44208301  0.44208301  0.41809300
   0.50000000  0.38416601  0.50000000
   0.61749315  0.50000005  0.34021317
   0.61749315  0.50000005  0.65978680
   0.38250685  0.50000005  0.34021317
   0.38250685  0.50000005  0.65978680
   0.38317830  0.38317830  0.50000000
   0.61682172  0.61682172  0.50000000
   0.61682170  0.38317830  0.50000000
   0.38317828  0.61682172  0.50000000
   0.50000000  0.50000000  0.33478917
   0.50000000  0.50000000  0.66521087
   0.32826705  0.44576024  0.58308023
   0.55423973  0.67173293  0.58308023
   0.55791699  0.44208301  0.58190703
   0.44208298  0.55791702  0.41809300
   0.44208301  0.44208301  0.58190703
   0.67173295  0.44576024  0.58308023
   0.44576027  0.67173293  0.58308023
   0.55791702  0.55791702  0.41809300
   0.38416599  0.50000002  0.50000000
   0.61583401  0.50000002  0.50000000
   0.50000000  0.61749319  0.34021317
   0.50000000  0.61749319  0.65978680
   0.50000000  0.50000000  0.50000000
   0.44208298  0.55791702  0.58190703
   0.55791702  0.55791702  0.58190703
   0.50000000  0.61583404  0.50000000
   0.74235157  0.56404607  0.39105113
   0.77569083  0.57285660  0.37606350
 
 position of ions in cartesian coordinates  (Angst):
  13.37280588  9.84801292 12.50759500
  20.15198637 16.62719342 12.50759500
  16.62719412  9.84801292 12.50759500
   9.84801363 16.62719342 12.50759500
  15.00000000 11.47520705 10.20639500
  15.00000000 11.47520705 19.79360400
  15.00000000  8.28283206 15.00000000
   8.28283277 14.99999929 15.00000000
  21.71716723 14.99999929 15.00000000
  15.00000000 21.71716652 14.99999999
  18.35858397 11.64141603 10.25024500
  18.35858397 11.64141603 19.74975399
  11.64141674 18.35858326 10.25024500
  11.64141674 18.35858326 19.74975400
  11.64141603 11.64141603 10.25024500
  11.64141603 11.64141603 19.74975400
  18.35858326 18.35858326 10.25024500
  18.35858326 18.35858326 19.74975400
  13.37280588  9.84801291 17.49240700
  20.15198638 16.62719341 17.49240700
  16.73750985 13.26249015 12.54279000
   9.84801151 13.37280729 12.50759500
  16.62719200 20.15198779 12.50759500
  16.62719412  9.84801292 17.49240700
   9.84801363 16.62719342 17.49240700
  20.15198849 13.37280729 12.50759500
  13.37280800 20.15198779 12.50759500
  13.26249015 13.26249015 12.54279000
  15.00000000 11.52498029 15.00000000
  18.52479437 15.00000140 10.20639500
  18.52479437 15.00000141 19.79360400
  11.47520562 15.00000141 10.20639501
  11.47520563 15.00000141 19.79360400
  11.49534898 11.49534898 15.00000000
  18.50465172 18.50465172 15.00000000
  18.50465102 11.49534898 15.00000000
  11.49534828 18.50465172 15.00000000
  15.00000000 15.00000000 10.04367500
  15.00000000 15.00000000 19.95632599
   9.84801151 13.37280729 17.49240700
  16.62719200 20.15198779 17.49240700
  16.73750985 13.26249015 17.45721100
  13.26248944 16.73751056 12.54279001
  13.26249015 13.26249015 17.45721100
  20.15198849 13.37280729 17.49240699
  13.37280800 20.15198779 17.49240700
  16.73751056 16.73751056 12.54279000
  11.52497959 15.00000071 15.00000000
  18.47502041 15.00000071 15.00000000
  14.99999999 18.52479579 10.20639500
  15.00000000 18.52479578 19.79360400
  15.00000000 15.00000000 15.00000000
  13.26248944 16.73751057 17.45721101
  16.73751056 16.73751057 17.45721100
  15.00000000 18.47502112 15.00000000
  22.27054700 16.92138200 11.73153400
  23.27072500 17.18569800 11.28190500
 


--------------------------------------------------------------------------------------------------------


 k-point  1 :   0.0000 0.0000 0.0000  plane waves:  490521

 maximum and minimum number of plane-waves per node :    490521   490521

 maximum number of plane-waves:    490521
 maximum index in each direction: 
   IXMAX=   48   IYMAX=   48   IZMAX=   48
   IXMIN=  -48   IYMIN=  -48   IZMIN=  -48


 serial   3D FFT for wavefunctions
 parallel 3D FFT for charge:
    minimum data exchange during FFTs selected (reduces bandwidth)


 total amount of memory used by VASP MPI-rank0  5486940. kBytes
=======================================================================

   base      :      30000. kBytes
   nonlr-proj:      17125. kBytes
   fftplans  :     924480. kBytes
   grid      :    1872000. kBytes
   one-center:        886. kBytes
   wavefun   :    2642449. kBytes
 
     INWAV:  cpu time    0.0001: real time    0.0004
 Broyden mixing: mesh for mixing (old mesh)
   NGX = 97   NGY = 97   NGZ = 97
  (NGX  =300   NGY  =300   NGZ  =300)
  gives a total of 912673 points

 initial charge density was supplied:
 charge density of overlapping atoms calculated
 number of electron     560.0000000 magnetization 
 keeping initial charge density in first step


--------------------------------------------------------------------------------------------------------


 Maximum index for non-local projection operator         1763
 Maximum index for augmentation-charges         5898 (set IRDMAX)


--------------------------------------------------------------------------------------------------------


 First call to EWALD:  gamma=   0.059
 Maximum number of real-space cells 3x 3x 3
 Maximum number of reciprocal cells 3x 3x 3

    FEWALD:  cpu time    0.0126: real time    0.0126


--------------------------------------- Iteration      1(   1)  ---------------------------------------


    POTLOK:  cpu time   11.3413: real time   11.3444
    SETDIJ:  cpu time    0.0980: real time    0.0980
     EDDAV:  cpu time  305.9728: real time  306.0033
       DOS:  cpu time    0.0011: real time    0.0011
    --------------------------------------------
      LOOP:  cpu time  317.4132: real time  317.4468

 eigenvalue-minimisations  :   688
 total energy-change (2. order) : 0.4382795E+04  (-0.1005035E+05)
 number of electron     560.0000000 magnetization 
 augmentation part      560.0000000 magnetization 

 Free energy of the ion-electron system (eV)
  ---------------------------------------------------
  alpha Z        PSCENC =        75.25431677
  Ewald energy   TEWEN  =    137547.17047754
  -Hartree energ DENC   =   -180913.00132463
  -exchange      EXHF   =         0.00000000
  -V(xc)+E(xc)   XCENC  =     -1703.66600103
  PAW double counting   =     44873.02882129   -41398.84523641
  entropy T*S    EENTRO =         0.01094202
  eigenvalues    EBANDS =       816.33800437
  atomic energy  EATOM  =     45086.50549395
  Solvation  Ediel_sol  =         0.00000000
  ---------------------------------------------------
  free energy    TOTEN  =      4382.79549387 eV

  energy without entropy =     4382.78455185  energy(sigma->0) =     4382.79275837


--------------------------------------------------------------------------------------------------------




--------------------------------------- Iteration      1(   2)  ---------------------------------------


     EDDAV:  cpu time  494.2758: real time  494.2825
       DOS:  cpu time    0.0011: real time    0.0011
    --------------------------------------------
      LOOP:  cpu time  494.2769: real time  494.2835

 eigenvalue-minimisations  :  1224
 total energy-change (2. order) :-0.2372716E+04  (-0.2135125E+04)
 number of electron     560.0000000 magnetization 
 augmentation part      560.0000000 magnetization 

 Free energy of the ion-electron system (eV)
  ---------------------------------------------------
  alpha Z        PSCENC =        75.25431677
  Ewald energy   TEWEN  =    137547.17047754
  -Hartree energ DENC   =   -180913.00132463
  -exchange      EXHF   =         0.00000000
  -V(xc)+E(xc)   XCENC  =     -1703.66600103
  PAW double counting   =     44873.02882129   -41398.84523641
  entropy T*S    EENTRO =         0.01306033
  eigenvalues    EBANDS =     -1556.38035388
  atomic energy  EATOM  =     45086.50549395
  Solvation  Ediel_sol  =         0.00000000
  ---------------------------------------------------
  free energy    TOTEN  =      2010.07925393 eV

  energy without entropy =     2010.06619360  energy(sigma->0) =     2010.07598884


--------------------------------------------------------------------------------------------------------




--------------------------------------- Iteration      1(   3)  ---------------------------------------


     EDDAV:  cpu time  416.5901: real time  416.5961
       DOS:  cpu time    0.0009: real time    0.0009
    --------------------------------------------
      LOOP:  cpu time  416.5910: real time  416.5970

 eigenvalue-minimisations  :  1008
 total energy-change (2. order) :-0.1778061E+04  (-0.1671027E+04)
 number of electron     560.0000000 magnetization 
 augmentation part      560.0000000 magnetization 

 Free energy of the ion-electron system (eV)
  ---------------------------------------------------
  alpha Z        PSCENC =        75.25431677
  Ewald energy   TEWEN  =    137547.17047754
  -Hartree energ DENC   =   -180913.00132463
  -exchange      EXHF   =         0.00000000
  -V(xc)+E(xc)   XCENC  =     -1703.66600103
  PAW double counting   =     44873.02882129   -41398.84523641
  entropy T*S    EENTRO =        -0.06840265
  eigenvalues    EBANDS =     -3334.35949404
  atomic energy  EATOM  =     45086.50549395
  Solvation  Ediel_sol  =         0.00000000
  ---------------------------------------------------
  free energy    TOTEN  =       232.01865079 eV

  energy without entropy =      232.08705344  energy(sigma->0) =      232.03575145


--------------------------------------------------------------------------------------------------------




--------------------------------------- Iteration      1(   4)  ---------------------------------------


     EDDAV:  cpu time  356.5042: real time  356.5111
       DOS:  cpu time    0.0010: real time    0.0010
    --------------------------------------------
      LOOP:  cpu time  356.5051: real time  356.5121

 eigenvalue-minimisations  :   832
 total energy-change (2. order) :-0.3668819E+03  (-0.3125972E+03)
 number of electron     560.0000000 magnetization 
 augmentation part      560.0000000 magnetization 

 Free energy of the ion-electron system (eV)
  ---------------------------------------------------
  alpha Z        PSCENC =        75.25431677
  Ewald energy   TEWEN  =    137547.17047754
  -Hartree energ DENC   =   -180913.00132463
  -exchange      EXHF   =         0.00000000
  -V(xc)+E(xc)   XCENC  =     -1703.66600103
  PAW double counting   =     44873.02882129   -41398.84523641
  entropy T*S    EENTRO =         0.02481685
  eigenvalues    EBANDS =     -3701.33465546
  atomic energy  EATOM  =     45086.50549395
  Solvation  Ediel_sol  =         0.00000000
  ---------------------------------------------------
  free energy    TOTEN  =      -134.86329112 eV

  energy without entropy =     -134.88810798  energy(sigma->0) =     -134.86949534


--------------------------------------------------------------------------------------------------------




--------------------------------------- Iteration      1(   5)  ---------------------------------------


     EDDAV:  cpu time  429.0505: real time  429.0577
       DOS:  cpu time    0.0012: real time    0.0012
    CHARGE:  cpu time   21.5262: real time   21.5263
    MIXING:  cpu time    0.3776: real time    0.3776
    --------------------------------------------
      LOOP:  cpu time  450.9555: real time  450.9628

 eigenvalue-minimisations  :  1040
 total energy-change (2. order) :-0.4449933E+02  (-0.3701382E+02)
 number of electron     559.9999893 magnetization 
 augmentation part      245.1667029 magnetization 

 Broyden mixing:
  rms(total) = 0.14195E+01    rms(broyden)= 0.14185E+01
  rms(prec ) = 0.15259E+01
  weight for this iteration     100.00

 Free energy of the ion-electron system (eV)
  ---------------------------------------------------
  alpha Z        PSCENC =        75.25431677
  Ewald energy   TEWEN  =    137547.17047754
  -Hartree energ DENC   =   -180913.00132463
  -exchange      EXHF   =         0.00000000
  -V(xc)+E(xc)   XCENC  =     -1703.66600103
  PAW double counting   =     44873.02882129   -41398.84523641
  entropy T*S    EENTRO =         0.48545425
  eigenvalues    EBANDS =     -3746.29461988
  atomic energy  EATOM  =     45086.50549395
  Solvation  Ediel_sol  =         0.00000000
  ---------------------------------------------------
  free energy    TOTEN  =      -179.36261815 eV

  energy without entropy =     -179.84807239  energy(sigma->0) =     -179.48398171


--------------------------------------------------------------------------------------------------------




--------------------------------------- Iteration      1(   6)  ---------------------------------------


    POTLOK:  cpu time   10.3368: real time   10.3377
    SETDIJ:  cpu time    0.1006: real time    0.1006
    EDDIAG:  cpu time   57.5534: real time   57.5559
  RMM-DIIS:  cpu time  159.0981: real time  159.1019
    ORTHCH:  cpu time   11.1316: real time   11.1317
       DOS:  cpu time    0.0012: real time    0.0012
    CHARGE:  cpu time   21.4370: real time   21.4371
    MIXING:  cpu time    0.3930: real time    0.3930
    --------------------------------------------
      LOOP:  cpu time  260.0517: real time  260.0592

 eigenvalue-minimisations  :   725
 total energy-change (2. order) :-0.1746918E+00  (-0.5342811E+01)
 number of electron     559.9999917 magnetization 
 augmentation part      240.6943371 magnetization 

 Broyden mixing:
  rms(total) = 0.22529E+01    rms(broyden)= 0.22528E+01
  rms(prec ) = 0.26343E+01
  weight for this iteration     100.00

 eigenvalues of (default mixing * dielectric matrix)
  average eigenvalue GAMMA=   0.3222
  0.3222

 Free energy of the ion-electron system (eV)
  ---------------------------------------------------
  alpha Z        PSCENC =        75.25431677
  Ewald energy   TEWEN  =    137547.17047754
  -Hartree energ DENC   =   -181321.05847188
  -exchange      EXHF   =         0.00000000
  -V(xc)+E(xc)   XCENC  =     -1697.42136168
  PAW double counting   =     45623.73499669   -42122.60447793
  entropy T*S    EENTRO =        -0.11042655
  eigenvalues    EBANDS =     -3371.00785690
  atomic energy  EATOM  =     45086.50549395
  Solvation  Ediel_sol  =         0.00000000
  ---------------------------------------------------
  free energy    TOTEN  =      -179.53730999 eV

  energy without entropy =     -179.42688344  energy(sigma->0) =     -179.50970335


--------------------------------------------------------------------------------------------------------




--------------------------------------- Iteration      1(   7)  ---------------------------------------


    POTLOK:  cpu time   10.3541: real time   10.3557
    SETDIJ:  cpu time    0.1005: real time    0.1005
    EDDIAG:  cpu time   57.6760: real time   57.6778
  RMM-DIIS:  cpu time  187.3154: real time  187.3208
    ORTHCH:  cpu time   11.1430: real time   11.1431
       DOS:  cpu time    0.0012: real time    0.0012
    CHARGE:  cpu time   21.3771: real time   21.3772
    MIXING:  cpu time    0.4157: real time    0.4157
    --------------------------------------------
      LOOP:  cpu time  288.3830: real time  288.3920

 eigenvalue-minimisations  :   857
 total energy-change (2. order) :-0.1649513E+01  (-0.1762939E+01)
 number of electron     559.9999851 magnetization 
 augmentation part      240.4509455 magnetization 

 Broyden mixing:
  rms(total) = 0.21283E+01    rms(broyden)= 0.21280E+01
  rms(prec ) = 0.25901E+01
  weight for this iteration     100.00

 eigenvalues of (default mixing * dielectric matrix)
  average eigenvalue GAMMA=   0.3205
  0.4932  0.1479

 Free energy of the ion-electron system (eV)
  ---------------------------------------------------
  alpha Z        PSCENC =        75.25431677
  Ewald energy   TEWEN  =    137547.17047754
  -Hartree energ DENC   =   -181402.03450876
  -exchange      EXHF   =         0.00000000
  -V(xc)+E(xc)   XCENC  =     -1697.54989047
  PAW double counting   =     45683.38509561   -42179.68946170
  entropy T*S    EENTRO =        -0.04227839
  eigenvalues    EBANDS =     -3294.18606804
  atomic energy  EATOM  =     45086.50549395
  Solvation  Ediel_sol  =         0.00000000
  ---------------------------------------------------
  free energy    TOTEN  =      -181.18682349 eV

  energy without entropy =     -181.14454510  energy(sigma->0) =     -181.17625389


--------------------------------------------------------------------------------------------------------




--------------------------------------- Iteration      1(   8)  ---------------------------------------


    POTLOK:  cpu time   10.3741: real time   10.3747
    SETDIJ:  cpu time    0.1006: real time    0.1006
    EDDIAG:  cpu time   57.6392: real time   57.6399
  RMM-DIIS:  cpu time  170.3587: real time  170.3626
    ORTHCH:  cpu time   11.0415: real time   11.0416
       DOS:  cpu time    0.0012: real time    0.0012
    CHARGE:  cpu time   21.3881: real time   21.3881
    MIXING:  cpu time    0.4330: real time    0.4330
    --------------------------------------------
      LOOP:  cpu time  271.3364: real time  271.3418

 eigenvalue-minimisations  :   776
 total energy-change (2. order) :-0.2926349E+01  (-0.6454107E+00)
 number of electron     559.9999853 magnetization 
 augmentation part      240.0185550 magnetization 

 Broyden mixing:
  rms(total) = 0.27915E+01    rms(broyden)= 0.27912E+01
  rms(prec ) = 0.33402E+01
  weight for this iteration     100.00

 eigenvalues of (default mixing * dielectric matrix)
  average eigenvalue GAMMA=   0.2948
  0.6234  0.1447  0.1162

 Free energy of the ion-electron system (eV)
  ---------------------------------------------------
  alpha Z        PSCENC =        75.25431677
  Ewald energy   TEWEN  =    137547.17047754
  -Hartree energ DENC   =   -181447.52667503
  -exchange      EXHF   =         0.00000000
  -V(xc)+E(xc)   XCENC  =     -1697.56042241
  PAW double counting   =     45743.19057190   -42236.77703657
  entropy T*S    EENTRO =        -0.11556849
  eigenvalues    EBANDS =     -3254.25433051
  atomic energy  EATOM  =     45086.50549395
  Solvation  Ediel_sol  =         0.00000000
  ---------------------------------------------------
  free energy    TOTEN  =      -184.11317285 eV

  energy without entropy =     -183.99760436  energy(sigma->0) =     -184.08428073


--------------------------------------------------------------------------------------------------------




--------------------------------------- Iteration      1(   9)  ---------------------------------------


    POTLOK:  cpu time   10.3185: real time   10.3200
    SETDIJ:  cpu time    0.1007: real time    0.1007
    EDDIAG:  cpu time   57.5815: real time   57.5831
  RMM-DIIS:  cpu time  162.5953: real time  162.5997
    ORTHCH:  cpu time   11.1219: real time   11.1219
       DOS:  cpu time    0.0012: real time    0.0012
    CHARGE:  cpu time   21.3764: real time   21.3766
    MIXING:  cpu time    0.4539: real time    0.4539
    --------------------------------------------
      LOOP:  cpu time  263.5492: real time  263.5571

 eigenvalue-minimisations  :   740
 total energy-change (2. order) : 0.1536247E+01  (-0.4579390E+00)
 number of electron     559.9999872 magnetization 
 augmentation part      240.6790116 magnetization 

 Broyden mixing:
  rms(total) = 0.27640E+01    rms(broyden)= 0.27637E+01
  rms(prec ) = 0.32943E+01
  weight for this iteration     100.00

 eigenvalues of (default mixing * dielectric matrix)
  average eigenvalue GAMMA=   0.2716
  0.7100  0.1435  0.1435  0.0893

 Free energy of the ion-electron system (eV)
  ---------------------------------------------------
  alpha Z        PSCENC =        75.25431677
  Ewald energy   TEWEN  =    137547.17047754
  -Hartree energ DENC   =   -181463.32762805
  -exchange      EXHF   =         0.00000000
  -V(xc)+E(xc)   XCENC  =     -1697.55472507
  PAW double counting   =     45788.95243267   -42280.49469631
  entropy T*S    EENTRO =        -0.04131403
  eigenvalues    EBANDS =     -3239.04128365
  atomic energy  EATOM  =     45086.50549395
  Solvation  Ediel_sol  =         0.00000000
  ---------------------------------------------------
  free energy    TOTEN  =      -182.57692618 eV

  energy without entropy =     -182.53561216  energy(sigma->0) =     -182.56659768


--------------------------------------------------------------------------------------------------------




--------------------------------------- Iteration      1(  10)  ---------------------------------------


    POTLOK:  cpu time   10.3341: real time   10.3348
    SETDIJ:  cpu time    0.1007: real time    0.1007
    EDDIAG:  cpu time   57.5641: real time   57.5670
  RMM-DIIS:  cpu time  161.9972: real time  162.0010
    ORTHCH:  cpu time   11.1447: real time   11.1448
       DOS:  cpu time    0.0011: real time    0.0011
    CHARGE:  cpu time   21.4227: real time   21.4229
    MIXING:  cpu time    0.4839: real time    0.4839
    --------------------------------------------
      LOOP:  cpu time  263.0483: real time  263.0562

 eigenvalue-minimisations  :   737
 total energy-change (2. order) : 0.1629387E+01  (-0.2746609E+00)
 number of electron     559.9999882 magnetization 
 augmentation part      240.9575245 magnetization 

 Broyden mixing:
  rms(total) = 0.26204E+01    rms(broyden)= 0.26201E+01
  rms(prec ) = 0.30894E+01
  weight for this iteration     100.00

 eigenvalues of (default mixing * dielectric matrix)
  average eigenvalue GAMMA=   0.2496
  0.7650  0.1606  0.1606  0.0808  0.0808

 Free energy of the ion-electron system (eV)
  ---------------------------------------------------
  alpha Z        PSCENC =        75.25431677
  Ewald energy   TEWEN  =    137547.17047754
  -Hartree energ DENC   =   -181483.33589969
  -exchange      EXHF   =         0.00000000
  -V(xc)+E(xc)   XCENC  =     -1697.47301928
  PAW double counting   =     45823.64935861   -42313.72503810
  entropy T*S    EENTRO =        -0.06987338
  eigenvalues    EBANDS =     -3218.92335577
  atomic energy  EATOM  =     45086.50549395
  Solvation  Ediel_sol  =         0.00000000
  ---------------------------------------------------
  free energy    TOTEN  =      -180.94753936 eV

  energy without entropy =     -180.87766598  energy(sigma->0) =     -180.93007101


--------------------------------------------------------------------------------------------------------




--------------------------------------- Iteration      1(  11)  ---------------------------------------


    POTLOK:  cpu time   10.3231: real time   10.3240
    SETDIJ:  cpu time    0.1006: real time    0.1006
    EDDIAG:  cpu time   57.5362: real time   57.5377
  RMM-DIIS:  cpu time  163.2975: real time  163.3019
    ORTHCH:  cpu time   11.0700: real time   11.0701
       DOS:  cpu time    0.0012: real time    0.0012
    CHARGE:  cpu time   21.4597: real time   21.4598
    MIXING:  cpu time    0.5090: real time    0.5090
    --------------------------------------------
      LOOP:  cpu time  264.2973: real time  264.3043

 eigenvalue-minimisations  :   742
 total energy-change (2. order) : 0.2507649E+01  (-0.1882842E+00)
 number of electron     559.9999876 magnetization 
 augmentation part      241.3618855 magnetization 

 Broyden mixing:
  rms(total) = 0.19333E+01    rms(broyden)= 0.19329E+01
  rms(prec ) = 0.22485E+01
  weight for this iteration     100.00

 eigenvalues of (default mixing * dielectric matrix)
  average eigenvalue GAMMA=   0.2437
  0.8512  0.1587  0.1587  0.1457  0.0740  0.0740

 Free energy of the ion-electron system (eV)
  ---------------------------------------------------
  alpha Z        PSCENC =        75.25431677
  Ewald energy   TEWEN  =    137547.17047754
  -Hartree energ DENC   =   -181499.42991003
  -exchange      EXHF   =         0.00000000
  -V(xc)+E(xc)   XCENC  =     -1697.39087495
  PAW double counting   =     45849.01733278   -42337.96462570
  entropy T*S    EENTRO =        -0.07630720
  eigenvalues    EBANDS =     -3201.52579304
  atomic energy  EATOM  =     45086.50549395
  Solvation  Ediel_sol  =         0.00000000
  ---------------------------------------------------
  free energy    TOTEN  =      -178.43988988 eV

  energy without entropy =     -178.36358268  energy(sigma->0) =     -178.42081308


--------------------------------------------------------------------------------------------------------




--------------------------------------- Iteration      1(  12)  ---------------------------------------


    POTLOK:  cpu time   10.3111: real time   10.3124
    SETDIJ:  cpu time    0.1008: real time    0.1008
    EDDIAG:  cpu time   57.5694: real time   57.5703
  RMM-DIIS:  cpu time  159.4263: real time  159.4291
    ORTHCH:  cpu time   11.0624: real time   11.0624
       DOS:  cpu time    0.0013: real time    0.0013
    CHARGE:  cpu time   21.4786: real time   21.4787
    MIXING:  cpu time    0.5411: real time    0.5411
    --------------------------------------------
      LOOP:  cpu time  260.4908: real time  260.4960

 eigenvalue-minimisations  :   724
 total energy-change (2. order) : 0.1144052E+01  (-0.1690723E+00)
 number of electron     559.9999883 magnetization 
 augmentation part      241.5184517 magnetization 

 Broyden mixing:
  rms(total) = 0.16545E+01    rms(broyden)= 0.16542E+01
  rms(prec ) = 0.19969E+01
  weight for this iteration     100.00

 eigenvalues of (default mixing * dielectric matrix)
  average eigenvalue GAMMA=   0.2361
  0.8824  0.2052  0.2052  0.1060  0.1060  0.0894  0.0589

 Free energy of the ion-electron system (eV)
  ---------------------------------------------------
  alpha Z        PSCENC =        75.25431677
  Ewald energy   TEWEN  =    137547.17047754
  -Hartree energ DENC   =   -181517.44993251
  -exchange      EXHF   =         0.00000000
  -V(xc)+E(xc)   XCENC  =     -1697.19581105
  PAW double counting   =     45883.48929786   -42370.80134312
  entropy T*S    EENTRO =        -0.02405510
  eigenvalues    EBANDS =     -3184.24428262
  atomic energy  EATOM  =     45086.50549395
  Solvation  Ediel_sol  =         0.00000000
  ---------------------------------------------------
  free energy    TOTEN  =      -177.29583828 eV

  energy without entropy =     -177.27178318  energy(sigma->0) =     -177.28982450


--------------------------------------------------------------------------------------------------------




--------------------------------------- Iteration      1(  13)  ---------------------------------------


    POTLOK:  cpu time   10.3150: real time   10.3158
    SETDIJ:  cpu time    0.1006: real time    0.1006
    EDDIAG:  cpu time   57.3804: real time   57.3813
  RMM-DIIS:  cpu time  159.5095: real time  159.5128
    ORTHCH:  cpu time   11.0614: real time   11.0615
       DOS:  cpu time    0.0013: real time    0.0013
    CHARGE:  cpu time   21.4110: real time   21.4112
    MIXING:  cpu time    0.5688: real time    0.5688
    --------------------------------------------
      LOOP:  cpu time  260.3480: real time  260.3532

 eigenvalue-minimisations  :   725
 total energy-change (2. order) : 0.6799876E+00  (-0.8799548E-01)
 number of electron     559.9999885 magnetization 
 augmentation part      241.5153985 magnetization 

 Broyden mixing:
  rms(total) = 0.14226E+01    rms(broyden)= 0.14223E+01
  rms(prec ) = 0.17263E+01
  weight for this iteration     100.00

 eigenvalues of (default mixing * dielectric matrix)
  average eigenvalue GAMMA=   0.2410
  0.9422  0.2657  0.2657  0.1245  0.1245  0.0756  0.0756  0.0544

 Free energy of the ion-electron system (eV)
  ---------------------------------------------------
  alpha Z        PSCENC =        75.25431677
  Ewald energy   TEWEN  =    137547.17047754
  -Hartree energ DENC   =   -181535.79552843
  -exchange      EXHF   =         0.00000000
  -V(xc)+E(xc)   XCENC  =     -1697.02373593
  PAW double counting   =     45906.20164437   -42392.36575908
  entropy T*S    EENTRO =        -0.11415369
  eigenvalues    EBANDS =     -3166.44860619
  atomic energy  EATOM  =     45086.50549395
  Solvation  Ediel_sol  =         0.00000000
  ---------------------------------------------------
  free energy    TOTEN  =      -176.61585069 eV

  energy without entropy =     -176.50169700  energy(sigma->0) =     -176.58731227


--------------------------------------------------------------------------------------------------------




--------------------------------------- Iteration      1(  14)  ---------------------------------------


    POTLOK:  cpu time   10.3061: real time   10.3068
    SETDIJ:  cpu time    0.1007: real time    0.1007
    EDDIAG:  cpu time   57.4050: real time   57.4071
  RMM-DIIS:  cpu time  160.2293: real time  160.2342
    ORTHCH:  cpu time   11.0552: real time   11.0552
       DOS:  cpu time    0.0012: real time    0.0012
    CHARGE:  cpu time   21.4090: real time   21.4091
    MIXING:  cpu time    0.6003: real time    0.6003
    --------------------------------------------
      LOOP:  cpu time  261.1068: real time  261.1147

 eigenvalue-minimisations  :   728
 total energy-change (2. order) :-0.6946765E-01  (-0.9311247E-01)
 number of electron     559.9999867 magnetization 
 augmentation part      241.5223772 magnetization 

 Broyden mixing:
  rms(total) = 0.16763E+01    rms(broyden)= 0.16760E+01
  rms(prec ) = 0.20316E+01
  weight for this iteration     100.00

 eigenvalues of (default mixing * dielectric matrix)
  average eigenvalue GAMMA=   0.2482
  1.0245  0.3314  0.3314  0.1262  0.1262  0.0920  0.0920  0.0596  0.0504

 Free energy of the ion-electron system (eV)
  ---------------------------------------------------
  alpha Z        PSCENC =        75.25431677
  Ewald energy   TEWEN  =    137547.17047754
  -Hartree energ DENC   =   -181555.63440525
  -exchange      EXHF   =         0.00000000
  -V(xc)+E(xc)   XCENC  =     -1696.74158150
  PAW double counting   =     45937.56295651   -42422.07863784
  entropy T*S    EENTRO =        -0.08453659
  eigenvalues    EBANDS =     -3148.63940192
  atomic energy  EATOM  =     45086.50549395
  Solvation  Ediel_sol  =         0.00000000
  ---------------------------------------------------
  free energy    TOTEN  =      -176.68531834 eV

  energy without entropy =     -176.60078175  energy(sigma->0) =     -176.66418419


--------------------------------------------------------------------------------------------------------




--------------------------------------- Iteration      1(  15)  ---------------------------------------


    POTLOK:  cpu time   10.3088: real time   10.3098
    SETDIJ:  cpu time    0.1005: real time    0.1005
    EDDIAG:  cpu time   57.1609: real time   57.1619
  RMM-DIIS:  cpu time  156.9200: real time  156.9252
    ORTHCH:  cpu time   11.0762: real time   11.0763
       DOS:  cpu time    0.0012: real time    0.0012
    CHARGE:  cpu time   21.4223: real time   21.4225
    MIXING:  cpu time    0.6388: real time    0.6388
    --------------------------------------------
      LOOP:  cpu time  257.6288: real time  257.6362

 eigenvalue-minimisations  :   714
 total energy-change (2. order) : 0.8730109E-01  (-0.1029141E+00)
 number of electron     559.9999868 magnetization 
 augmentation part      241.4594990 magnetization 

 Broyden mixing:
  rms(total) = 0.18362E+01    rms(broyden)= 0.18360E+01
  rms(prec ) = 0.21225E+01
  weight for this iteration     100.00

 eigenvalues of (default mixing * dielectric matrix)
  average eigenvalue GAMMA=   0.2666
  1.1973  0.5330  0.2794  0.1393  0.1393  0.0932  0.0932  0.0879  0.0535  0.0495

 Free energy of the ion-electron system (eV)
  ---------------------------------------------------
  alpha Z        PSCENC =        75.25431677
  Ewald energy   TEWEN  =    137547.17047754
  -Hartree energ DENC   =   -181581.29420808
  -exchange      EXHF   =         0.00000000
  -V(xc)+E(xc)   XCENC  =     -1696.34361364
  PAW double counting   =     45976.99444976   -42459.42561073
  entropy T*S    EENTRO =        -0.09732951
  eigenvalues    EBANDS =     -3125.36199331
  atomic energy  EATOM  =     45086.50549395
  Solvation  Ediel_sol  =         0.00000000
  ---------------------------------------------------
  free energy    TOTEN  =      -176.59801724 eV

  energy without entropy =     -176.50068773  energy(sigma->0) =     -176.57368487


--------------------------------------------------------------------------------------------------------




--------------------------------------- Iteration      1(  16)  ---------------------------------------


    POTLOK:  cpu time   10.2900: real time   10.2908
    SETDIJ:  cpu time    0.1008: real time    0.1008
    EDDIAG:  cpu time   57.1869: real time   57.1878
  RMM-DIIS:  cpu time  159.0557: real time  159.0583
    ORTHCH:  cpu time   11.5274: real time   11.5274
       DOS:  cpu time    0.0013: real time    0.0013
    CHARGE:  cpu time   22.4445: real time   22.4444
    MIXING:  cpu time    0.7238: real time    0.7238
    --------------------------------------------
      LOOP:  cpu time  261.3304: real time  261.3345

 eigenvalue-minimisations  :   717
 total energy-change (2. order) : 0.7621470E+00  (-0.1157635E+00)
 number of electron     559.9999856 magnetization 
 augmentation part      241.1872123 magnetization 

 Broyden mixing:
  rms(total) = 0.12628E+01    rms(broyden)= 0.12625E+01
  rms(prec ) = 0.14306E+01
  weight for this iteration     100.00

 eigenvalues of (default mixing * dielectric matrix)
  average eigenvalue GAMMA=   0.2793
  1.3772  0.6411  0.2415  0.1657  0.1657  0.1016  0.1016  0.0876  0.0876  0.0512
  0.0512

 Free energy of the ion-electron system (eV)
  ---------------------------------------------------
  alpha Z        PSCENC =        75.25431677
  Ewald energy   TEWEN  =    137547.17047754
  -Hartree energ DENC   =   -181630.94390319
  -exchange      EXHF   =         0.00000000
  -V(xc)+E(xc)   XCENC  =     -1695.74196666
  PAW double counting   =     46038.34451015   -42517.57303481
  entropy T*S    EENTRO =        -0.14476910
  eigenvalues    EBANDS =     -3078.70699490
  atomic energy  EATOM  =     45086.50549395
  Solvation  Ediel_sol  =         0.00000000
  ---------------------------------------------------
  free energy    TOTEN  =      -175.83587023 eV

  energy without entropy =     -175.69110113  energy(sigma->0) =     -175.79967796


--------------------------------------------------------------------------------------------------------




--------------------------------------- Iteration      1(  17)  ---------------------------------------


    POTLOK:  cpu time   11.4673: real time   11.4679
    SETDIJ:  cpu time    0.1036: real time    0.1035
    EDDIAG:  cpu time   59.9715: real time   59.9718
  RMM-DIIS:  cpu time  164.6476: real time  164.6496
    ORTHCH:  cpu time   11.5559: real time   11.5558
       DOS:  cpu time    0.0013: real time    0.0013
    CHARGE:  cpu time   22.3370: real time   22.3367
    MIXING:  cpu time    0.7541: real time    0.7541
    --------------------------------------------
      LOOP:  cpu time  270.8382: real time  270.8407

 eigenvalue-minimisations  :   708
 total energy-change (2. order) : 0.4489677E+00  (-0.8309206E-01)
 number of electron     559.9999887 magnetization 
 augmentation part      241.1674677 magnetization 

 Broyden mixing:
  rms(total) = 0.13075E+01    rms(broyden)= 0.13073E+01
  rms(prec ) = 0.15363E+01
  weight for this iteration     100.00

 eigenvalues of (default mixing * dielectric matrix)
  average eigenvalue GAMMA=   0.2824
  1.4729  0.7259  0.2120  0.2120  0.1829  0.1131  0.1131  0.0928  0.0928  0.0674
  0.0552  0.0490

 Free energy of the ion-electron system (eV)
  ---------------------------------------------------
  alpha Z        PSCENC =        75.25431677
  Ewald energy   TEWEN  =    137547.17047754
  -Hartree energ DENC   =   -181658.52380754
  -exchange      EXHF   =         0.00000000
  -V(xc)+E(xc)   XCENC  =     -1695.32707344
  PAW double counting   =     46077.24725557   -42554.33189681
  entropy T*S    EENTRO =        -0.04185108
  eigenvalues    EBANDS =     -3053.33981753
  atomic energy  EATOM  =     45086.50549395
  Solvation  Ediel_sol  =         0.00000000
  ---------------------------------------------------
  free energy    TOTEN  =      -175.38690256 eV

  energy without entropy =     -175.34505149  energy(sigma->0) =     -175.37643979


--------------------------------------------------------------------------------------------------------




--------------------------------------- Iteration      1(  18)  ---------------------------------------


    POTLOK:  cpu time   11.4125: real time   11.4129
    SETDIJ:  cpu time    0.1028: real time    0.1028
    EDDIAG:  cpu time   59.5101: real time   59.5097
  RMM-DIIS:  cpu time  162.6186: real time  162.6173
    ORTHCH:  cpu time   11.2900: real time   11.2898
       DOS:  cpu time    0.0013: real time    0.0013
    CHARGE:  cpu time   21.9030: real time   21.9027
    MIXING:  cpu time    0.7936: real time    0.7936
    --------------------------------------------
      LOOP:  cpu time  267.6318: real time  267.6301

 eigenvalue-minimisations  :   716
 total energy-change (2. order) : 0.3725816E-01  (-0.4903689E-01)
 number of electron     559.9999876 magnetization 
 augmentation part      241.0895168 magnetization 

 Broyden mixing:
  rms(total) = 0.11168E+01    rms(broyden)= 0.11166E+01
  rms(prec ) = 0.12981E+01
  weight for this iteration     100.00

 eigenvalues of (default mixing * dielectric matrix)
  average eigenvalue GAMMA=   0.3016
  1.6033  0.8455  0.3166  0.3166  0.1333  0.1333  0.1319  0.0956  0.0956  0.0868
  0.0570  0.0570  0.0484

 Free energy of the ion-electron system (eV)
  ---------------------------------------------------
  alpha Z        PSCENC =        75.25431677
  Ewald energy   TEWEN  =    137547.17047754
  -Hartree energ DENC   =   -181675.32254396
  -exchange      EXHF   =         0.00000000
  -V(xc)+E(xc)   XCENC  =     -1695.11080714
  PAW double counting   =     46095.33557464   -42571.30828889
  entropy T*S    EENTRO =        -0.06255481
  eigenvalues    EBANDS =     -3037.81131250
  atomic energy  EATOM  =     45086.50549395
  Solvation  Ediel_sol  =         0.00000000
  ---------------------------------------------------
  free energy    TOTEN  =      -175.34964440 eV

  energy without entropy =     -175.28708959  energy(sigma->0) =     -175.33400570


--------------------------------------------------------------------------------------------------------




--------------------------------------- Iteration      1(  19)  ---------------------------------------


    POTLOK:  cpu time   10.9517: real time   10.9522
    SETDIJ:  cpu time    0.1027: real time    0.1027
    EDDIAG:  cpu time   58.4893: real time   58.4887
  RMM-DIIS:  cpu time  161.2855: real time  161.2841
    ORTHCH:  cpu time   11.3420: real time   11.3418
       DOS:  cpu time    0.0013: real time    0.0013
    CHARGE:  cpu time   21.9507: real time   21.9503
    MIXING:  cpu time    0.8195: real time    0.8195
    --------------------------------------------
      LOOP:  cpu time  264.9427: real time  264.9406

 eigenvalue-minimisations  :   712
 total energy-change (2. order) : 0.3500190E-01  (-0.5244324E-01)
 number of electron     559.9999884 magnetization 
 augmentation part      241.0180070 magnetization 

 Broyden mixing:
  rms(total) = 0.10598E+01    rms(broyden)= 0.10596E+01
  rms(prec ) = 0.12048E+01
  weight for this iteration     100.00

 eigenvalues of (default mixing * dielectric matrix)
  average eigenvalue GAMMA=   0.3078
  1.6540  0.9942  0.3562  0.3562  0.1472  0.1472  0.1099  0.1099  0.0936  0.0936
  0.0836  0.0572  0.0572  0.0485

 Free energy of the ion-electron system (eV)
  ---------------------------------------------------
  alpha Z        PSCENC =        75.25431677
  Ewald energy   TEWEN  =    137547.17047754
  -Hartree energ DENC   =   -181696.57228608
  -exchange      EXHF   =         0.00000000
  -V(xc)+E(xc)   XCENC  =     -1694.87019526
  PAW double counting   =     46112.67215686   -42587.32804957
  entropy T*S    EENTRO =        -0.01935941
  eigenvalues    EBANDS =     -3018.12719729
  atomic energy  EATOM  =     45086.50549395
  Solvation  Ediel_sol  =         0.00000000
  ---------------------------------------------------
  free energy    TOTEN  =      -175.31464250 eV

  energy without entropy =     -175.29528309  energy(sigma->0) =     -175.30980265


--------------------------------------------------------------------------------------------------------




--------------------------------------- Iteration      1(  20)  ---------------------------------------


    POTLOK:  cpu time   11.0507: real time   11.0512
    SETDIJ:  cpu time    0.1024: real time    0.1024
    EDDIAG:  cpu time   58.5979: real time   58.5979
  RMM-DIIS:  cpu time  160.7409: real time  160.7394
    ORTHCH:  cpu time   11.4021: real time   11.4019
       DOS:  cpu time    0.0013: real time    0.0013
    CHARGE:  cpu time   21.9692: real time   21.9688
    MIXING:  cpu time    0.8843: real time    0.8843
    --------------------------------------------
      LOOP:  cpu time  264.7488: real time  264.7471

 eigenvalue-minimisations  :   712
 total energy-change (2. order) : 0.3838884E-01  (-0.3496843E-01)
 number of electron     559.9999895 magnetization 
 augmentation part      241.0569454 magnetization 

 Broyden mixing:
  rms(total) = 0.11367E+01    rms(broyden)= 0.11365E+01
  rms(prec ) = 0.13361E+01
  weight for this iteration     100.00

 eigenvalues of (default mixing * dielectric matrix)
  average eigenvalue GAMMA=   0.3107
  1.7096  1.1000  0.3805  0.3805  0.1735  0.1735  0.1191  0.1191  0.0941  0.0941
  0.0765  0.0765  0.0571  0.0571  0.0484

 Free energy of the ion-electron system (eV)
  ---------------------------------------------------
  alpha Z        PSCENC =        75.25431677
  Ewald energy   TEWEN  =    137547.17047754
  -Hartree energ DENC   =   -181710.65330866
  -exchange      EXHF   =         0.00000000
  -V(xc)+E(xc)   XCENC  =     -1694.72002303
  PAW double counting   =     46119.00868446   -42592.88218893
  entropy T*S    EENTRO =         0.01383875
  eigenvalues    EBANDS =     -3004.97354451
  atomic energy  EATOM  =     45086.50549395
  Solvation  Ediel_sol  =         0.00000000
  ---------------------------------------------------
  free energy    TOTEN  =      -175.27625366 eV

  energy without entropy =     -175.29009241  energy(sigma->0) =     -175.27971335


--------------------------------------------------------------------------------------------------------




--------------------------------------- Iteration      1(  21)  ---------------------------------------


    POTLOK:  cpu time   11.0425: real time   11.0429
    SETDIJ:  cpu time    0.1028: real time    0.1028
    EDDIAG:  cpu time   58.4022: real time   58.4018
  RMM-DIIS:  cpu time  157.2230: real time  157.2216
    ORTHCH:  cpu time   11.2283: real time   11.2281
       DOS:  cpu time    0.0013: real time    0.0013
    CHARGE:  cpu time   21.7047: real time   21.7044
    MIXING:  cpu time    0.9248: real time    0.9248
    --------------------------------------------
      LOOP:  cpu time  260.6296: real time  260.6277

 eigenvalue-minimisations  :   704
 total energy-change (2. order) : 0.7589493E-01  (-0.2570056E-01)
 number of electron     559.9999892 magnetization 
 augmentation part      241.1327858 magnetization 

 Broyden mixing:
  rms(total) = 0.12790E+01    rms(broyden)= 0.12789E+01
  rms(prec ) = 0.15099E+01
  weight for this iteration     100.00

 eigenvalues of (default mixing * dielectric matrix)
  average eigenvalue GAMMA=   0.3062
  1.7224  1.1982  0.3868  0.3868  0.1951  0.1951  0.1231  0.1231  0.0956  0.0956
  0.0821  0.0821  0.0569  0.0569  0.0478  0.0517

 Free energy of the ion-electron system (eV)
  ---------------------------------------------------
  alpha Z        PSCENC =        75.25431677
  Ewald energy   TEWEN  =    137547.17047754
  -Hartree energ DENC   =   -181722.24568890
  -exchange      EXHF   =         0.00000000
  -V(xc)+E(xc)   XCENC  =     -1694.59527297
  PAW double counting   =     46122.90140390   -42596.15520690
  entropy T*S    EENTRO =         0.05205615
  eigenvalues    EBANDS =     -2994.08793827
  atomic energy  EATOM  =     45086.50549395
  Solvation  Ediel_sol  =         0.00000000
  ---------------------------------------------------
  free energy    TOTEN  =      -175.20035874 eV

  energy without entropy =     -175.25241488  energy(sigma->0) =     -175.21337277


--------------------------------------------------------------------------------------------------------




--------------------------------------- Iteration      1(  22)  ---------------------------------------


    POTLOK:  cpu time   10.8114: real time   10.8118
    SETDIJ:  cpu time    0.1012: real time    0.1012
    EDDIAG:  cpu time   58.1884: real time   58.1894
  RMM-DIIS:  cpu time  157.6832: real time  157.6817
    ORTHCH:  cpu time   11.2414: real time   11.2413
       DOS:  cpu time    0.0013: real time    0.0013
    CHARGE:  cpu time   21.7351: real time   21.7347
    MIXING:  cpu time    0.9657: real time    0.9657
    --------------------------------------------
      LOOP:  cpu time  260.7277: real time  260.7271

 eigenvalue-minimisations  :   706
 total energy-change (2. order) : 0.2671625E+00  (-0.1759103E-01)
 number of electron     559.9999894 magnetization 
 augmentation part      241.1128745 magnetization 

 Broyden mixing:
  rms(total) = 0.82730E+00    rms(broyden)= 0.82715E+00
  rms(prec ) = 0.97752E+00
  weight for this iteration     100.00

 eigenvalues of (default mixing * dielectric matrix)
  average eigenvalue GAMMA=   0.3063
  1.8286  1.1716  0.3968  0.3968  0.2352  0.2352  0.1302  0.1302  0.0990  0.0990
  0.0986  0.0908  0.0908  0.0569  0.0569  0.0486  0.0422

 Free energy of the ion-electron system (eV)
  ---------------------------------------------------
  alpha Z        PSCENC =        75.25431677
  Ewald energy   TEWEN  =    137547.17047754
  -Hartree energ DENC   =   -181733.42801935
  -exchange      EXHF   =         0.00000000
  -V(xc)+E(xc)   XCENC  =     -1694.48936985
  PAW double counting   =     46125.55608563   -42598.33565094
  entropy T*S    EENTRO =        -0.04092825
  eigenvalues    EBANDS =     -2983.12560176
  atomic energy  EATOM  =     45086.50549395
  Solvation  Ediel_sol  =         0.00000000
  ---------------------------------------------------
  free energy    TOTEN  =      -174.93319625 eV

  energy without entropy =     -174.89226800  energy(sigma->0) =     -174.92296419


--------------------------------------------------------------------------------------------------------




--------------------------------------- Iteration      1(  23)  ---------------------------------------


    POTLOK:  cpu time   10.6867: real time   10.6872
    SETDIJ:  cpu time    0.1018: real time    0.1018
    EDDIAG:  cpu time   58.1480: real time   58.1487
  RMM-DIIS:  cpu time  156.4810: real time  156.4796
    ORTHCH:  cpu time   11.2515: real time   11.2514
       DOS:  cpu time    0.0013: real time    0.0013
    CHARGE:  cpu time   21.6700: real time   21.6697
    MIXING:  cpu time    1.0245: real time    1.0245
    --------------------------------------------
      LOOP:  cpu time  259.3647: real time  259.3641

 eigenvalue-minimisations  :   701
 total energy-change (2. order) : 0.1971903E+00  (-0.1811660E-01)
 number of electron     559.9999884 magnetization 
 augmentation part      241.1484818 magnetization 

 Broyden mixing:
  rms(total) = 0.52669E+00    rms(broyden)= 0.52654E+00
  rms(prec ) = 0.61310E+00
  weight for this iteration     100.00

 eigenvalues of (default mixing * dielectric matrix)
  average eigenvalue GAMMA=   0.3294
  1.9475  1.3658  0.6722  0.3299  0.3299  0.1642  0.1642  0.1264  0.1264  0.1418
[...]
 -0.007  -0.012   0.004   0.004   0.005  -0.006  -0.011   0.004
 -0.011  -0.020   0.006   0.007   0.009  -0.011  -0.019   0.006
 -0.015  -0.005   0.013   0.000   0.022  -0.014  -0.005   0.012
  0.000  -0.023  -0.006  -0.015  -0.000   0.000  -0.022  -0.006
 -0.022   0.000   0.009  -0.005  -0.016  -0.021   0.000   0.008
 -0.017  -0.006   0.015   0.000   0.027  -0.017  -0.006   0.015
  0.000  -0.027  -0.007  -0.018   0.000   0.000  -0.027  -0.007
 -0.027   0.000   0.010  -0.006  -0.019  -0.026   0.000   0.010
 total augmentation occupancy for first ion, spin component:           1
  1.541  -0.030   0.003   0.016   0.025   0.074  -0.008  -0.001   0.036  -0.010   0.094  -0.032   0.012   0.002   0.002  -0.019
 -0.030   1.402   0.029   0.069   0.001  -0.007   0.071   0.011  -0.014  -0.008   0.215  -0.064   0.019   0.002   0.002  -0.006
  0.003   0.029   1.545   0.003   0.002  -0.001   0.013   0.073  -0.013   0.017  -0.055   0.018  -0.003  -0.007  -0.005   0.016
  0.016   0.069   0.003   1.340   0.044   0.034  -0.013  -0.013   0.090  -0.023  -0.083   0.022  -0.001  -0.009  -0.003   0.001
  0.025   0.001   0.002   0.044   1.440  -0.010  -0.009   0.016  -0.022   0.067  -0.093   0.030  -0.003  -0.010  -0.010   0.026
  0.074  -0.007  -0.001   0.034  -0.010   0.217   0.019  -0.002  -0.045   0.004  -0.049   0.002   0.017  -0.010   0.035  -0.004
 -0.008   0.071   0.013  -0.013  -0.009   0.019   0.262  -0.023  -0.003   0.006  -0.109   0.007  -0.001   0.051  -0.010  -0.000
 -0.001   0.011   0.073  -0.013   0.016  -0.002  -0.023   0.215   0.014  -0.020   0.028  -0.001  -0.012   0.009  -0.018   0.003
  0.036  -0.014  -0.013   0.090  -0.022  -0.045  -0.003   0.014   0.260   0.007   0.043  -0.004  -0.009   0.036   0.004   0.000
 -0.010  -0.008   0.017  -0.023   0.067   0.004   0.006  -0.020   0.007   0.258   0.046  -0.003  -0.038   0.002   0.049   0.007
  0.094   0.215  -0.055  -0.083  -0.093  -0.049  -0.109   0.028   0.043   0.046   0.950  -0.141   0.084   0.014   0.064  -0.013
 -0.032  -0.064   0.018   0.022   0.030   0.002   0.007  -0.001  -0.004  -0.003  -0.141   0.023  -0.014  -0.003  -0.010   0.003
  0.012   0.019  -0.003  -0.001  -0.003   0.017  -0.001  -0.012  -0.009  -0.038   0.084  -0.014   0.029  -0.008  -0.004  -0.003
  0.002   0.002  -0.007  -0.009  -0.010  -0.010   0.051   0.009   0.036   0.002   0.014  -0.003  -0.008   0.036   0.004   0.000
  0.002   0.002  -0.005  -0.003  -0.010   0.035  -0.010  -0.018   0.004   0.049   0.064  -0.010  -0.004   0.004   0.035  -0.000
 -0.019  -0.006   0.016   0.001   0.026  -0.004  -0.000   0.003   0.000   0.007  -0.013   0.003  -0.003   0.000  -0.000   0.001
  0.001  -0.028  -0.007  -0.018   0.001   0.001  -0.008  -0.002  -0.006  -0.000  -0.003   0.001   0.000  -0.003  -0.000   0.000
 -0.028   0.001   0.012  -0.005  -0.019  -0.006   0.001   0.003  -0.001  -0.007  -0.008   0.001  -0.000  -0.000  -0.003   0.000


------------------------ aborting loop because EDIFF is reached ----------------------------------------


    CHARGE:  cpu time   21.0290: real time   21.0291
    FORLOC:  cpu time    5.7781: real time    5.7781
    FORNL :  cpu time   54.5225: real time   54.5227
    STRESS:  cpu time  165.8868: real time  165.8878
    FORCOR:  cpu time   17.6731: real time   17.6732
    FORHAR:  cpu time    7.9668: real time    7.9668
    MIXING:  cpu time    2.8193: real time    2.8193
    OFIELD:  cpu time    0.0000: real time    0.0000

  FORCE on cell =-STRESS in cart. coord.  units (eV):
  Direction    XX          YY          ZZ          XY          YZ          ZX
  --------------------------------------------------------------------------------------
  Alpha Z    75.25432    75.25432    75.25432
  Ewald   48932.57152 43937.80758 44676.68583   964.07283  -536.73810 -1532.11531
  Hartree 63516.31593 58851.57785 59543.56003   879.48122  -489.18699 -1391.25476
  E(xc)   -2902.54669 -2905.01386 -2904.67450     0.53561    -0.28424    -1.05048
  Local  ************************************ -1835.27775  1021.25847  2908.16574
  n-local  -889.49706  -880.83707  -881.52388    -1.95403     1.45025     3.18110
  augment  4101.25971  4105.45161  4104.66834    -0.82791     0.50449     1.88380
  Kinetic  7786.25986  7811.99208  7808.32469    -5.77647     2.86486    11.38324
  Fock        0.00000     0.00000     0.00000     0.00000     0.00000     0.00000
  -------------------------------------------------------------------------------------
  Total    -115.02918  -113.44919  -113.62798     0.25350    -0.13127     0.19333
  in kB      -6.82582    -6.73206    -6.74267     0.01504    -0.00779     0.01147
  external pressure =       -6.77 kB  Pullay stress =        0.00 kB


 VOLUME and BASIS-vectors are now :
 -----------------------------------------------------------------------------
  energy-cutoff  :      400.00
  volume of cell :    27000.00
      direct lattice vectors                 reciprocal lattice vectors
    30.000000000  0.000000000  0.000000000     0.033333333  0.000000000  0.000000000
     0.000000000 30.000000000  0.000000000     0.000000000  0.033333333  0.000000000
     0.000000000  0.000000000 30.000000000     0.000000000  0.000000000  0.033333333

  length of vectors
    30.000000000 30.000000000 30.000000000     0.033333333  0.033333333  0.033333333


 FORCES acting on ions
    electron-ion (+dipol)            ewald-force                    non-local-force                 convergence-correction
 -----------------------------------------------------------------------------------------------
   0.399E+03 0.975E+03 0.415E+03   -.397E+03 -.972E+03 -.414E+03   -.149E+01 -.182E+01 -.229E+00   0.368E-02 -.442E-02 0.248E-02
   -.794E+03 -.366E+03 0.349E+03   0.795E+03 0.365E+03 -.350E+03   -.972E+00 0.624E+00 0.833E+00   -.947E-03 0.214E-02 0.422E-02
   -.385E+03 0.980E+03 0.414E+03   0.382E+03 -.977E+03 -.414E+03   0.149E+01 -.182E+01 -.225E+00   0.106E-01 -.693E-03 0.155E-02
   0.974E+03 -.393E+03 0.415E+03   -.971E+03 0.391E+03 -.414E+03   -.183E+01 0.149E+01 -.208E+00   0.400E-02 0.951E-02 -.866E-03
   0.104E+02 0.593E+03 0.965E+03   -.105E+02 -.593E+03 -.962E+03   0.169E-02 -.314E+00 -.234E+01   0.970E-02 0.275E-02 -.410E-02
   0.419E+01 0.589E+03 -.968E+03   -.417E+01 -.588E+03 0.964E+03   -.215E-01 -.312E+00 0.235E+01   0.819E-02 0.294E-02 0.591E-02
   0.471E+01 0.114E+04 -.236E+01   -.472E+01 -.113E+04 0.236E+01   0.447E-03 -.311E+01 -.609E-02   0.541E-02 -.242E-02 0.433E-02
   0.113E+04 0.105E+01 -.176E+01   -.113E+04 -.106E+01 0.176E+01   -.310E+01 0.302E-03 -.968E-02   -.159E-03 0.421E-02 0.297E-02
   -.111E+04 0.387E+02 -.659E+02   0.111E+04 -.388E+02 0.660E+02   0.295E+01 0.825E-01 -.116E+00   -.440E-02 0.206E-02 0.516E-02
   0.102E+02 -.114E+04 -.491E+01   -.102E+02 0.113E+04 0.491E+01   0.689E-02 0.311E+01 -.459E-02   0.559E-02 -.348E-02 0.532E-02
   -.561E+03 0.598E+03 0.816E+03   0.558E+03 -.595E+03 -.813E+03   0.156E+01 -.155E+01 -.221E+01   0.644E-02 0.263E-02 0.906E-03
   -.573E+03 0.583E+03 -.819E+03   0.571E+03 -.580E+03 0.816E+03   0.157E+01 -.155E+01 0.219E+01   0.533E-02 0.622E-02 0.127E-02
   0.585E+03 -.579E+03 0.813E+03   -.583E+03 0.576E+03 -.809E+03   -.154E+01 0.157E+01 -.220E+01   0.455E-02 0.351E-02 -.132E-02
   0.581E+03 -.578E+03 -.815E+03   -.578E+03 0.576E+03 0.812E+03   -.157E+01 0.155E+01 0.220E+01   0.399E-02 -.363E-03 -.177E-02
   0.583E+03 0.581E+03 0.812E+03   -.580E+03 -.579E+03 -.809E+03   -.155E+01 -.156E+01 -.220E+01   -.252E-02 0.119E-03 -.556E-02
   0.580E+03 0.579E+03 -.814E+03   -.578E+03 -.577E+03 0.811E+03   -.155E+01 -.156E+01 0.220E+01   0.303E-02 0.921E-03 0.573E-02
   -.522E+03 -.594E+03 0.828E+03   0.519E+03 0.592E+03 -.824E+03   0.163E+01 0.151E+01 -.212E+01   -.227E-03 -.885E-04 0.393E-02
   -.571E+03 -.579E+03 -.823E+03   0.568E+03 0.577E+03 0.820E+03   0.156E+01 0.156E+01 0.219E+01   0.143E-02 -.300E-02 -.549E-02
   0.397E+03 0.973E+03 -.419E+03   -.395E+03 -.971E+03 0.418E+03   -.151E+01 -.181E+01 0.223E+00   0.277E-02 -.721E-03 0.735E-02
   -.957E+03 -.391E+03 -.444E+03   0.954E+03 0.389E+03 0.444E+03   0.185E+01 0.151E+01 0.232E+00   -.101E-02 -.291E-02 0.105E-02
   -.299E+03 0.334E+03 0.449E+03   0.299E+03 -.335E+03 -.449E+03   -.400E+00 0.344E+00 0.524E+00   0.985E-02 0.681E-02 0.124E-02
   0.973E+03 0.396E+03 0.415E+03   -.970E+03 -.393E+03 -.414E+03   -.183E+01 -.150E+01 -.207E+00   -.329E-02 0.211E-02 0.427E-03
   -.369E+03 -.983E+03 0.412E+03   0.367E+03 0.980E+03 -.411E+03   0.150E+01 0.184E+01 -.227E+00   0.275E-02 -.298E-02 0.510E-02
   -.388E+03 0.976E+03 -.421E+03   0.386E+03 -.973E+03 0.420E+03   0.151E+01 -.181E+01 0.207E+00   0.791E-02 0.381E-02 0.795E-02
   0.972E+03 -.393E+03 -.418E+03   -.970E+03 0.391E+03 0.418E+03   -.182E+01 0.150E+01 0.228E+00   0.637E-02 0.686E-02 0.480E-02
   -.934E+03 0.445E+03 0.402E+03   0.931E+03 -.443E+03 -.401E+03   0.188E+01 -.127E+01 -.215E+00   0.353E-02 0.559E-02 0.438E-02
   0.404E+03 -.974E+03 0.414E+03   -.402E+03 0.971E+03 -.414E+03   -.150E+01 0.181E+01 -.228E+00   0.623E-02 -.207E-02 0.406E-02
   0.330E+03 0.325E+03 0.451E+03   -.331E+03 -.325E+03 -.452E+03   0.391E+00 0.374E+00 0.518E+00   0.598E-02 0.101E-01 0.286E-02
   0.879E+01 0.644E+03 -.425E+01   -.881E+01 -.645E+03 0.425E+01   0.139E-01 0.740E+00 -.640E-02   0.837E-02 0.179E-02 0.529E-02
   -.536E+03 0.242E+02 0.979E+03   0.535E+03 -.243E+02 -.975E+03   0.439E+00 0.967E-01 -.227E+01   0.315E-02 0.656E-02 0.344E-02
   -.579E+03 0.310E+01 -.975E+03   0.578E+03 -.309E+01 0.971E+03   0.309E+00 -.810E-02 0.235E+01   0.478E-02 -.132E-02 -.265E-02
   0.592E+03 0.177E+01 0.965E+03   -.592E+03 -.178E+01 -.961E+03   -.297E+00 -.405E-03 -.235E+01   0.337E-02 0.110E-01 -.299E-02
   0.589E+03 0.932E+00 -.967E+03   -.588E+03 -.942E+00 0.963E+03   -.314E+00 0.430E-02 0.235E+01   0.484E-02 0.501E-02 0.310E-02
   0.764E+03 0.762E+03 -.203E+01   -.762E+03 -.760E+03 0.202E+01   -.115E+01 -.114E+01 0.419E-02   -.117E-02 -.630E-03 0.591E-02
   -.728E+03 -.770E+03 -.259E+02   0.726E+03 0.768E+03 0.260E+02   0.123E+01 0.119E+01 -.202E-01   -.197E-03 0.311E-03 0.347E-02
   -.748E+03 0.775E+03 -.972E+01   0.746E+03 -.773E+03 0.968E+01   0.113E+01 -.118E+01 0.193E-01   0.901E-02 0.405E-02 0.510E-02
   0.765E+03 -.761E+03 -.273E+01   -.763E+03 0.759E+03 0.272E+01   -.114E+01 0.114E+01 0.483E-02   0.644E-02 0.340E-02 0.437E-02
   0.182E+02 0.502E+01 0.107E+04   -.181E+02 -.502E+01 -.107E+04   -.400E-01 -.995E-02 -.161E+01   0.663E-02 0.109E-01 -.881E-03
   0.553E+01 0.163E+01 -.107E+04   -.554E+01 -.164E+01 0.107E+04   0.112E-02 0.338E-02 0.161E+01   0.607E-02 0.288E-02 0.265E-02
   0.972E+03 0.395E+03 -.418E+03   -.969E+03 -.393E+03 0.418E+03   -.182E+01 -.151E+01 0.224E+00   0.153E-02 0.215E-02 0.722E-02
   -.383E+03 -.975E+03 -.426E+03   0.381E+03 0.972E+03 0.425E+03   0.151E+01 0.180E+01 0.202E+00   0.177E-02 -.756E-03 -.423E-02
   -.311E+03 0.326E+03 -.462E+03   0.311E+03 -.327E+03 0.462E+03   -.353E+00 0.386E+00 -.560E+00   0.130E-01 0.346E-02 0.104E-01
   0.333E+03 -.320E+03 0.451E+03   -.333E+03 0.320E+03 -.451E+03   0.417E+00 -.375E+00 0.519E+00   0.715E-02 0.928E-02 0.107E-02
   0.326E+03 0.323E+03 -.457E+03   -.327E+03 -.324E+03 0.457E+03   0.376E+00 0.356E+00 -.519E+00   0.423E-02 0.575E-02 0.829E-02
   -.962E+03 0.405E+03 -.434E+03   0.959E+03 -.403E+03 0.434E+03   0.181E+01 -.152E+01 0.257E+00   0.109E-02 0.485E-02 0.503E-02
   0.400E+03 -.973E+03 -.420E+03   -.398E+03 0.970E+03 0.420E+03   -.150E+01 0.181E+01 0.207E+00   0.799E-02 -.134E-02 -.373E-02
   -.284E+03 -.319E+03 0.446E+03   0.285E+03 0.319E+03 -.447E+03   -.623E+00 -.336E+00 0.471E+00   0.503E-02 0.786E-02 0.107E-02
   0.643E+03 0.158E+01 -.266E+01   -.644E+03 -.159E+01 0.267E+01   0.720E+00 -.188E-02 -.121E-01   0.618E-02 0.105E-01 0.481E-02
   -.609E+03 0.139E+02 -.235E+02   0.610E+03 -.138E+02 0.234E+02   -.699E+00 -.789E-01 0.913E-01   0.104E-01 0.654E-02 0.449E-02
   0.193E+02 -.589E+03 0.967E+03   -.193E+02 0.589E+03 -.963E+03   -.363E-01 0.324E+00 -.236E+01   0.454E-02 -.254E-03 0.527E-03
   0.588E+01 -.587E+03 -.970E+03   -.589E+01 0.586E+03 0.966E+03   0.674E-02 0.292E+00 0.234E+01   0.456E-02 -.285E-03 -.470E-02
   0.145E+02 0.402E+01 -.683E+01   -.144E+02 -.403E+01 0.682E+01   -.100E-01 -.245E-02 0.396E-02   0.581E-02 0.122E-01 0.272E-02
   0.328E+03 -.320E+03 -.458E+03   -.328E+03 0.321E+03 0.458E+03   0.371E+00 -.370E+00 -.523E+00   0.442E-02 0.734E-02 0.212E-02
   -.308E+03 -.320E+03 -.465E+03   0.308E+03 0.320E+03 0.466E+03   -.396E+00 -.367E+00 -.501E+00   0.649E-02 0.680E-02 0.263E-02
   0.151E+02 -.640E+03 -.715E+01   -.151E+02 0.641E+03 0.713E+01   -.174E-01 -.726E+00 0.110E-01   0.586E-02 0.581E-02 0.489E-02
   -.184E+03 -.601E+02 0.794E+02   0.161E+03 0.542E+02 -.689E+02   0.187E+02 0.502E+01 -.848E+01   -.243E-02 0.285E-04 0.184E-02
   -.607E+03 -.179E+03 0.280E+03   0.664E+03 0.194E+03 -.306E+03   -.543E+02 -.145E+02 0.245E+02   -.277E-02 0.641E-04 0.197E-02
 -----------------------------------------------------------------------------------------------
   0.382E+02 0.989E+01 -.172E+02   0.682E-12 -.284E-12 -.165E-11   -.385E+02 -.101E+02 0.170E+02   0.241E+00 0.173E+00 0.137E+00
 
 
 POSITION                                       TOTAL-FORCE (eV/Angst)
 -----------------------------------------------------------------------------------
     13.37281      9.84801     12.50759         0.701844      1.107446      0.292445
     20.15199     16.62719     12.50759         0.926053     -0.352488     -0.464699
     16.62719      9.84801     12.50759        -0.704664      1.107405      0.292065
      9.84801     16.62719     12.50759         1.114865     -0.698027      0.283760
     15.00000     11.47521     10.20639        -0.001773      0.413841      1.281300
     15.00000     11.47521     19.79360         0.012329      0.414160     -1.283667
     15.00000      8.28283     15.00000        -0.000106      1.518976      0.004385
      8.28283     15.00000     15.00000         1.514552      0.000116      0.001492
     21.71717     15.00000     15.00000        -1.508644     -0.023169      0.033068
     15.00000     21.71717     15.00000        -0.002757     -1.519429      0.002892
     18.35858     11.64142     10.25025        -0.749928      0.768088      1.084700
     18.35858     11.64142     19.74975        -0.770044      0.749760     -1.071292
     11.64142     18.35858     10.25025         0.747809     -0.765295      1.078470
     11.64142     18.35858     19.74975         0.762276     -0.751219     -1.072698
     11.64142     11.64142     10.25025         0.754494      0.759643      1.073311
     11.64142     11.64142     19.74975         0.756955      0.755927     -1.072002
     18.35858     18.35858     10.25025        -0.797509     -0.749698      1.066180
     18.35858     18.35858     19.74975        -0.760834     -0.757223     -1.072359
     13.37281      9.84801     17.49241         0.709680      1.106224     -0.295213
     20.15199     16.62719     17.49241        -1.110420     -0.706183     -0.277052
     16.73751     13.26249     12.54279         0.115435     -0.104202     -0.155262
      9.84801     13.37281     12.50759         1.115540      0.701399      0.286197
     16.62719     20.15199     12.50759        -0.709143     -1.106475      0.290174
     16.62719      9.84801     17.49241        -0.708823      1.108187     -0.284819
      9.84801     16.62719     17.49241         1.109522     -0.705600     -0.292136
     20.15199     13.37281     12.50759        -1.143566      0.606052      0.298390
     13.37281     20.15199     12.50759         0.706207     -1.108527      0.292598
     13.26249     13.26249     12.54279        -0.115992     -0.110599     -0.156976
     15.00000     11.52498     15.00000         0.000726     -0.230150      0.001980
     18.52479     15.00000     10.20639        -0.494454     -0.043304      1.239951
     18.52479     15.00000     19.79360        -0.410517      0.002647     -1.285051
     11.47521     15.00000     10.20640         0.406300      0.002541      1.281900
     11.47521     15.00000     19.79360         0.412593     -0.000518     -1.282016
     11.49535     11.49535     15.00000         0.829093      0.828353     -0.000303
     18.50465     18.50465     15.00000        -0.866232     -0.829472      0.021687
     18.50465     11.49535     15.00000        -0.825832      0.829882     -0.012572
     11.49535     18.50465     15.00000         0.828068     -0.827309      0.000655
     15.00000     15.00000     10.04368         0.016219     -0.004606      1.177011
     15.00000     15.00000     19.95633        -0.001623     -0.000420     -1.175570
      9.84801     13.37281     17.49241         1.108469      0.705347     -0.290792
     16.62719     20.15199     17.49241        -0.723556     -1.109914     -0.279875
     16.73751     13.26249     17.45721         0.097222     -0.131358      0.174473
     13.26249     16.73751     12.54279        -0.140693      0.111151     -0.165324
     13.26249     13.26249     17.45721        -0.116322     -0.110019      0.155989
     20.15199     13.37281     17.49241        -1.100155      0.710529     -0.298977
     13.37281     20.15199     17.49241         0.706981     -1.109437     -0.286687
     16.73751     16.73751     12.54279         0.197529      0.098754     -0.132737
     11.52498     15.00000     15.00000        -0.226950     -0.001353      0.005591
     18.47502     15.00000     15.00000         0.192647      0.015504     -0.005848
     15.00000     18.52480     10.20639         0.011660     -0.413561      1.279449
     15.00000     18.52480     19.79360        -0.002388     -0.408685     -1.285339
     15.00000     15.00000     15.00000         0.017861     -0.000646     -0.010015
     13.26249     16.73751     17.45721        -0.112776      0.114271      0.157755
     16.73751     16.73751     17.45721         0.117826      0.112523      0.153929
     15.00000     18.47502     15.00000         0.008044      0.231272     -0.003863
     22.27055     16.92138     11.73153        -4.808918     -0.912064      1.996747
     23.27073     17.18570     11.28191         2.915820      0.710954     -1.295404
 -----------------------------------------------------------------------------------
    total drift:                                0.006964      0.007440     -0.002874


--------------------------------------------------------------------------------------------------------



  FREE ENERGIE OF THE ION-ELECTRON SYSTEM (eV)
  ---------------------------------------------------
  free  energy   TOTEN  =      -174.48972189 eV

  energy  without entropy=     -174.37041681  energy(sigma->0) =     -174.45989562
 


--------------------------------------------------------------------------------------------------------


    POTLOK:  cpu time   10.7041: real time   10.7041


--------------------------------------------------------------------------------------------------------


     LOOP+:  cpu time15274.7521: real time15275.0895
    4ORBIT:  cpu time    0.0000: real time    0.0000

 total amount of memory used by VASP MPI-rank0  5486940. kBytes
=======================================================================

   base      :      30000. kBytes
   nonlr-proj:      17125. kBytes
   fftplans  :     924480. kBytes
   grid      :    1872000. kBytes
   one-center:        886. kBytes
   wavefun   :    2642449. kBytes
 
  
  
 General timing and accounting informations for this job:
 ========================================================
  
                  Total CPU time used (sec):    15337.033
                            User time (sec):    14490.253
                          System time (sec):      846.780
                         Elapsed time (sec):    15337.408
  
                   Maximum memory used (kb):     7178976.
                   Average memory used (kb):           0.
  
                          Minor page faults:    817439302
                          Major page faults:            0
                 Voluntary context switches:          441
