 vasp.5.4.4.18Apr17-6-g9f103f2a35 (build Sep 03 2018 23:53:05) complex          
  
 executed on             LinuxIFC date 2021.12.02  01:19:26
 running on    1 total cores
 distrk:  each k-point on    1 cores,    1 groups
 distr:  one band on NCORES_PER_BAND=   1 cores,    1 groups


--------------------------------------------------------------------------------------------------------


 INCAR:
 POTCAR:    PAW_PBE Pd 04Jan2005                  
 POTCAR:    PAW_PBE C 08Apr2002                   
 POTCAR:    PAW_PBE O 08Apr2002                   
 POTCAR:    PAW_PBE Pd 04Jan2005                  
   VRHFIN =Pd : s1 d9                                                           
   LEXCH  = PE                                                                  
   EATOM  =   809.7530 eV,   59.5152 Ry                                         
                                                                                
   TITEL  = PAW_PBE Pd 04Jan2005                                                
   LULTRA =        F    use ultrasoft PP ?                                      
   IUNSCR =        1    unscreen: 0-lin 1-nonlin 2-no                           
   RPACOR =    2.000    partial core radius                                     
   POMASS =  106.420; ZVAL   =   10.000    mass and valenz                      
   RCORE  =    2.600    outmost cutoff radius                                   
   RWIGS  =    2.710; RWIGS  =    1.434    wigner-seitz radius (au A)           
   ENMAX  =  250.925; ENMIN  =  188.194 eV                                      
   ICORE  =        3    local potential                                         
   LCOR   =        T    correct aug charges                                     
   LPAW   =        T    paw PP                                                  
   EAUG   =  416.230                                                            
   DEXC   =    0.000                                                            
   RMAX   =    2.653    core radius for proj-oper                               
   RAUG   =    1.300    factor for augmentation sphere                          
   RDEP   =    2.734    radius for radial grids                                 
   RDEPT  =    2.103    core radius for aug-charge                              
                                                                                
   Atomic configuration                                                         
   12 entries                                                                   
     n  l   j            E        occ.                                          
     1  0  0.50    -24164.6631   2.0000                                         
     2  0  0.50     -3530.9218   2.0000                                         
     2  1  1.50     -3165.6822   6.0000                                         
     3  0  0.50      -639.4577   2.0000                                         
     3  1  1.50      -519.4532   6.0000                                         
     3  2  2.50      -328.9757  10.0000                                         
     4  0  0.50       -88.7014   2.0000                                         
     4  1  1.50       -54.4540   6.0000                                         
     4  2  2.50        -6.6878   9.0000                                         
     5  0  0.50        -4.3543   1.0000                                         
     5  1  0.50        -1.3606   0.0000                                         
     4  3  2.50        -1.3606   0.0000                                         
   Description                                                                  
     l       E           TYP  RCUT    TYP  RCUT                                 
     2     -6.6878251     23  2.400                                             
     2     -8.0484077     23  2.400                                             
     0     -4.3542939     23  2.400                                             
     0      4.3406793     23  2.400                                             
     1     -4.0817478     23  2.600                                             
     1     15.8380318     23  2.600                                             
     3     -4.0817478     23  2.400                                             
  local pseudopotential read in
  partial core-charges read in
  partial kinetic energy density read in
  atomic valenz-charges read in
  non local Contribution for L=           2  read in
    real space projection operators read in
  non local Contribution for L=           2  read in
    real space projection operators read in
  non local Contribution for L=           0  read in
    real space projection operators read in
  non local Contribution for L=           0  read in
    real space projection operators read in
  non local Contribution for L=           1  read in
    real space projection operators read in
  non local Contribution for L=           1  read in
    real space projection operators read in
    PAW grid and wavefunctions read in
 
   number of l-projection  operators is LMAX  =           6
   number of lm-projection operators is LMMAX =          18
 
 POTCAR:    PAW_PBE C 08Apr2002                   
   VRHFIN =C: s2p2                                                              
   LEXCH  = PE                                                                  
   EATOM  =   147.1560 eV,   10.8157 Ry                                         
                                                                                
   TITEL  = PAW_PBE C 08Apr2002                                                 
   LULTRA =        F    use ultrasoft PP ?                                      
   IUNSCR =        1    unscreen: 0-lin 1-nonlin 2-no                           
   RPACOR =    1.200    partial core radius                                     
   POMASS =   12.011; ZVAL   =    4.000    mass and valenz                      
   RCORE  =    1.500    outmost cutoff radius                                   
   RWIGS  =    1.630; RWIGS  =    0.863    wigner-seitz radius (au A)           
   ENMAX  =  400.000; ENMIN  =  300.000 eV                                      
   ICORE  =        2    local potential                                         
   LCOR   =        T    correct aug charges                                     
   LPAW   =        T    paw PP                                                  
   EAUG   =  644.873                                                            
   DEXC   =    0.000                                                            
   RMAX   =    1.529    core radius for proj-oper                               
   RAUG   =    1.300    factor for augmentation sphere                          
   RDEP   =    1.501    radius for radial grids                                 
   RDEPT  =    1.300    core radius for aug-charge                              
                                                                                
   Atomic configuration                                                         
    4 entries                                                                   
     n  l   j            E        occ.                                          
     1  0  0.50      -273.3789   2.0000                                         
     2  0  0.50       -13.7508   2.0000                                         
     2  1  0.50        -5.2854   2.0000                                         
     3  2  1.50        -5.4423   0.0000                                         
   Description                                                                  
     l       E           TYP  RCUT    TYP  RCUT                                 
     0    -13.7508458     23  1.200                                             
     0     -8.2022199     23  1.200                                             
     1     -5.2854383     23  1.500                                             
     1     34.0145650     23  1.500                                             
     2     -5.4423304      7  1.500                                             
  local pseudopotential read in
  partial core-charges read in
  partial kinetic energy density read in
  atomic valenz-charges read in
  non local Contribution for L=           0  read in
    real space projection operators read in
  non local Contribution for L=           0  read in
    real space projection operators read in
  non local Contribution for L=           1  read in
    real space projection operators read in
  non local Contribution for L=           1  read in
    real space projection operators read in
    PAW grid and wavefunctions read in
 
   number of l-projection  operators is LMAX  =           4
   number of lm-projection operators is LMMAX =           8
 
 POTCAR:    PAW_PBE O 08Apr2002                   
   VRHFIN =O: s2p4                                                              
   LEXCH  = PE                                                                  
   EATOM  =   432.3788 eV,   31.7789 Ry                                         
                                                                                
   TITEL  = PAW_PBE O 08Apr2002                                                 
   LULTRA =        F    use ultrasoft PP ?                                      
   IUNSCR =        1    unscreen: 0-lin 1-nonlin 2-no                           
   RPACOR =    1.200    partial core radius                                     
   POMASS =   16.000; ZVAL   =    6.000    mass and valenz                      
   RCORE  =    1.520    outmost cutoff radius                                   
   RWIGS  =    1.550; RWIGS  =    0.820    wigner-seitz radius (au A)           
   ENMAX  =  400.000; ENMIN  =  300.000 eV                                      
   ICORE  =        2    local potential                                         
   LCOR   =        T    correct aug charges                                     
   LPAW   =        T    paw PP                                                  
   EAUG   =  605.392                                                            
   DEXC   =    0.000                                                            
   RMAX   =    1.553    core radius for proj-oper                               
   RAUG   =    1.300    factor for augmentation sphere                          
   RDEP   =    1.550    radius for radial grids                                 
   RDEPT  =    1.329    core radius for aug-charge                              
                                                                                
   Atomic configuration                                                         
    4 entries                                                                   
     n  l   j            E        occ.                                          
     1  0  0.50      -514.6923   2.0000                                         
     2  0  0.50       -23.9615   2.0000                                         
     2  1  0.50        -9.0305   4.0000                                         
     3  2  1.50        -9.5241   0.0000                                         
   Description                                                                  
     l       E           TYP  RCUT    TYP  RCUT                                 
     0    -23.9615318     23  1.200                                             
     0     -9.5240782     23  1.200                                             
     1     -9.0304911     23  1.520                                             
     1      8.1634956     23  1.520                                             
     2     -9.5240782      7  1.500                                             
  local pseudopotential read in
  partial core-charges read in
  partial kinetic energy density read in
  kinetic energy density of atom read in
  atomic valenz-charges read in
  non local Contribution for L=           0  read in
    real space projection operators read in
  non local Contribution for L=           0  read in
    real space projection operators read in
  non local Contribution for L=           1  read in
    real space projection operators read in
  non local Contribution for L=           1  read in
    real space projection operators read in
    PAW grid and wavefunctions read in
 
   number of l-projection  operators is LMAX  =           4
   number of lm-projection operators is LMMAX =           8
 
 Optimization of the real space projectors (new method)

 maximal supplied QI-value         = 14.36
 optimisation between [QCUT,QGAM] = [ 10.20, 20.39] = [ 29.12,116.47] Ry 
 Optimized for a Real-space Cutoff    1.51 Angstroem

   l    n(q)    QCUT    max X(q) W(low)/X(q) W(high)/X(q)  e(spline) 
   2      8    10.197    59.108    0.26E-03    0.14E-03    0.96E-07
   2      8    10.197    58.101    0.27E-03    0.14E-03    0.98E-07
   0      9    10.197   102.235    0.54E-04    0.60E-05    0.72E-07
   0      9    10.197    58.388    0.52E-04    0.60E-05    0.68E-07
   1      9    10.197    22.191    0.18E-03    0.25E-03    0.79E-07
   1      9    10.197    15.590    0.15E-03    0.21E-03    0.69E-07
 Optimization of the real space projectors (new method)

 maximal supplied QI-value         = 25.13
 optimisation between [QCUT,QGAM] = [ 10.05, 20.36] = [ 28.30,116.06] Ry 
 Optimized for a Real-space Cutoff    1.30 Angstroem

   l    n(q)    QCUT    max X(q) W(low)/X(q) W(high)/X(q)  e(spline) 
   0      8    10.053   115.676    0.49E-03    0.72E-03    0.18E-06
   0      8    10.053    87.132    0.49E-03    0.71E-03    0.18E-06
   1      7    10.053     4.429    0.32E-03    0.31E-03    0.18E-06
   1      7    10.053     2.733    0.23E-03    0.19E-03    0.20E-06
 Optimization of the real space projectors (new method)

 maximal supplied QI-value         = 24.76
 optimisation between [QCUT,QGAM] = [ 10.15, 20.30] = [ 28.85,115.39] Ry 
 Optimized for a Real-space Cutoff    1.38 Angstroem

   l    n(q)    QCUT    max X(q) W(low)/X(q) W(high)/X(q)  e(spline) 
   0      8    10.150    20.381    0.22E-03    0.32E-03    0.29E-06
   0      8    10.150    15.268    0.23E-03    0.35E-03    0.30E-06
   1      8    10.150     5.964    0.46E-03    0.53E-03    0.21E-06
   1      8    10.150     5.382    0.38E-03    0.45E-03    0.19E-06

 ----------------------------------------------------------------------------- 
|                                                                             |
|  ADVICE TO THIS USER RUNNING 'VASP/VAMP'   (HEAR YOUR MASTER'S VOICE ...):  |
|                                                                             |
|      You enforced a specific xc-type in the INCAR file,                     |
|      a different type was found on the POTCAR file                          |
|          I HOPE YOU KNOW, WHAT YOU ARE  DOING                               |
|                                                                             |
 ----------------------------------------------------------------------------- 

  PAW_PBE Pd 04Jan2005                  :
 energy of atom  1       EATOM= -809.7530
 kinetic energy error for atom=    0.0091 (will be added to EATOM!!)
  PAW_PBE C 08Apr2002                   :
 energy of atom  2       EATOM= -147.1560
 kinetic energy error for atom=    0.0288 (will be added to EATOM!!)
  PAW_PBE O 08Apr2002                   :
 energy of atom  3       EATOM= -432.3788
 kinetic energy error for atom=    0.1156 (will be added to EATOM!!)
 
 
 POSCAR: Pd55PES                                 
  positions in cartesian coordinates
  No initial velocities read in
 exchange correlation table for  LEXCH =        9
   RHO(1)=    0.500       N(1)  =     2000
   RHO(2)=  100.500       N(2)  =     4000
 


--------------------------------------------------------------------------------------------------------


 ion  position               nearest neighbor table
   1  0.446  0.328  0.417-   3 3.25   5 3.25   7 3.36  15 3.36  29 3.42  28 3.42
   2  0.672  0.554  0.417-  26 3.25  30 3.25  17 3.36   9 3.36  47 3.42  49 3.42
   3  0.554  0.328  0.417-   1 3.25   5 3.25   7 3.36  11 3.36  29 3.42  21 3.42
   4  0.328  0.554  0.417-  32 3.25  22 3.25  13 3.36   8 3.36  43 3.42  48 3.42
   5  0.500  0.383  0.340-   1 3.25   3 3.25  11 3.36  15 3.36  21 3.42  28 3.42
   6  0.500  0.383  0.660-  24 3.25  19 3.25  16 3.36  12 3.36  42 3.42  44 3.42
   7  0.500  0.276  0.500-  29 3.24   3 3.36   1 3.36  19 3.36  24 3.36
   8  0.276  0.500  0.500-  48 3.24  22 3.36  40 3.36   4 3.36  25 3.36
   9  0.724  0.500  0.500-  49 3.24  26 3.36  45 3.36   2 3.36  20 3.36
  10  0.500  0.724  0.500-  55 3.24  27 3.36  23 3.36  46 3.36  41 3.36
  11  0.612  0.388  0.342-  21 3.24   5 3.36   3 3.36  30 3.36  26 3.36
  12  0.612  0.388  0.658-  56 1.71  57 2.43  42 3.24  24 3.36  45 3.36   6 3.36  31 3.36
  13  0.388  0.612  0.342-  43 3.24  32 3.36  50 3.36   4 3.36  27 3.36
  14  0.388  0.612  0.658-  53 3.24  25 3.36  33 3.36  51 3.36  46 3.36
  15  0.388  0.388  0.342-  28 3.24   5 3.36   1 3.36  32 3.36  22 3.36
  16  0.388  0.388  0.658-  44 3.24  19 3.36  40 3.36   6 3.36  33 3.36
  17  0.612  0.612  0.342-  47 3.24  30 3.36  50 3.36   2 3.36  23 3.36
  18  0.612  0.612  0.658-  54 3.24  31 3.36  20 3.36  51 3.36  41 3.36
  19  0.446  0.328  0.583-   6 3.25  24 3.25  16 3.36   7 3.36  44 3.42  29 3.42
  20  0.672  0.554  0.583-  31 3.25  45 3.25  18 3.36   9 3.36  54 3.42  49 3.42
  21  0.558  0.442  0.418-  11 3.24   5 3.42   3 3.42  30 3.42  26 3.42
  22  0.328  0.446  0.417-   4 3.25  32 3.25   8 3.36  15 3.36  48 3.42  28 3.42
  23  0.554  0.672  0.417-  27 3.25  50 3.25  10 3.36  17 3.36  55 3.42  47 3.42
  24  0.554  0.328  0.583-   6 3.25  19 3.25  12 3.36   7 3.36  42 3.42  29 3.42
  25  0.328  0.554  0.583-  33 3.25  40 3.25  14 3.36   8 3.36  53 3.42  48 3.42
  26  0.672  0.446  0.417-   2 3.25  30 3.25   9 3.36  11 3.36  49 3.42  21 3.42
  27  0.446  0.672  0.417-  23 3.25  50 3.25  10 3.36  13 3.36  55 3.42  43 3.42
  28  0.442  0.442  0.418-  15 3.24   5 3.42   1 3.42  32 3.42  22 3.42
  29  0.500  0.384  0.500-   7 3.24   3 3.42   1 3.42  24 3.42  19 3.42
  30  0.617  0.500  0.340-   2 3.25  26 3.25  17 3.36  11 3.36  47 3.42  21 3.42
  31  0.617  0.500  0.660-  20 3.25  45 3.25  18 3.36  12 3.36  54 3.42  42 3.42
  32  0.383  0.500  0.340-   4 3.25  22 3.25  13 3.36  15 3.36  43 3.42  28 3.42
  33  0.383  0.500  0.660-  25 3.25  40 3.25  14 3.36  16 3.36  53 3.42  44 3.42
  34  0.383  0.383  0.500-
  35  0.617  0.617  0.500-
  36  0.617  0.383  0.500-
  37  0.383  0.617  0.500-
  38  0.500  0.500  0.335-
  39  0.500  0.500  0.665-
  40  0.328  0.446  0.583-  33 3.25  25 3.25  16 3.36   8 3.36  44 3.42  48 3.42
  41  0.554  0.672  0.583-  46 3.25  51 3.25  10 3.36  18 3.36  54 3.42  55 3.42
  42  0.558  0.442  0.582-  12 3.24   6 3.42  24 3.42  31 3.42  45 3.42
  43  0.442  0.558  0.418-  13 3.24   4 3.42  32 3.42  27 3.42  50 3.42
  44  0.442  0.442  0.582-  16 3.24   6 3.42  19 3.42  33 3.42  40 3.42
  45  0.672  0.446  0.583-  56 2.34  20 3.25  31 3.25   9 3.36  12 3.36  49 3.42  42 3.42
  46  0.446  0.672  0.583-  41 3.25  51 3.25  10 3.36  14 3.36  53 3.42  55 3.42
  47  0.558  0.558  0.418-  17 3.24   2 3.42  30 3.42  23 3.42  50 3.42
  48  0.384  0.500  0.500-   8 3.24   4 3.42  22 3.42  25 3.42  40 3.42
  49  0.616  0.500  0.500-   9 3.24   2 3.42  26 3.42  20 3.42  45 3.42
  50  0.500  0.617  0.340-  27 3.25  23 3.25  13 3.36  17 3.36  43 3.42  47 3.42
  51  0.500  0.617  0.660-  41 3.25  46 3.25  14 3.36  18 3.36  53 3.42  54 3.42
  52  0.500  0.500  0.500-
  53  0.442  0.558  0.582-  14 3.24  25 3.42  33 3.42  51 3.42  46 3.42
  54  0.558  0.558  0.582-  18 3.24  31 3.42  20 3.42  51 3.42  41 3.42
  55  0.500  0.616  0.500-  10 3.24  23 3.42  27 3.42  41 3.42  46 3.42
  56  0.667  0.398  0.645-  57 1.13  12 1.71  45 2.34
  57  0.692  0.383  0.667-  56 1.13  12 2.43
 
  LATTYP: Found a simple cubic cell.
 ALAT       =    30.0000000000
  
  Lattice vectors:
  
 A1 = (  30.0000000000,   0.0000000000,   0.0000000000)
 A2 = (   0.0000000000,  30.0000000000,   0.0000000000)
 A3 = (   0.0000000000,   0.0000000000,  30.0000000000)


Analysis of symmetry for initial positions (statically):
=====================================================================
 Subroutine PRICEL returns:
 Original cell was already a primitive cell.
 

 Routine SETGRP: Setting up the symmetry group for a 
 simple cubic supercell.


 Subroutine GETGRP returns: Found  1 space group operations
 (whereof  1 operations were pure point group operations)
 out of a pool of 48 trial point group operations.


The static configuration has the point symmetry C_1 .


Analysis of symmetry for dynamics (positions and initial velocities):
=====================================================================
 Subroutine PRICEL returns:
 Original cell was already a primitive cell.
 

 Routine SETGRP: Setting up the symmetry group for a 
 simple cubic supercell.


 Subroutine GETGRP returns: Found  1 space group operations
 (whereof  1 operations were pure point group operations)
 out of a pool of 48 trial point group operations.


The dynamic configuration has the point symmetry C_1 .


Analysis of constrained symmetry for selective dynamics:
=====================================================================
 Subroutine PRICEL returns:
 Original cell was already a primitive cell.
 

 Routine SETGRP: Setting up the symmetry group for a 
 simple cubic supercell.


 Subroutine GETGRP returns: Found  1 space group operations
 (whereof  1 operations were pure point group operations)
 out of a pool of 48 trial point group operations.


The constrained configuration has the point symmetry C_1 .


 Subroutine INISYM returns: Found  1 space group operations
 (whereof  1 operations are pure point group operations),
 and found     1 'primitive' translations

 
 
 KPOINTS: K-points                                

Automatic generation of k-mesh.
Space group operators:
 irot       det(A)        alpha          n_x          n_y          n_z        tau_x        tau_y        tau_z
    1     1.000000     0.000000     1.000000     0.000000     0.000000     0.000000     0.000000     0.000000
 
 Subroutine IBZKPT returns following result:
 ===========================================
 
 Found      1 irreducible k-points:
 
 Following reciprocal coordinates:
            Coordinates               Weight
  0.000000  0.000000  0.000000      1.000000
 
 Following cartesian coordinates:
            Coordinates               Weight
  0.000000  0.000000  0.000000      1.000000
 


--------------------------------------------------------------------------------------------------------




 Dimension of arrays:
   k-points           NKPTS =      1   k-points in BZ     NKDIM =      1   number of bands    NBANDS=    336
   number of dos      NEDOS =    301   number of ions     NIONS =     57
   non local maximal  LDIM  =      6   non local SUM 2l+1 LMDIM =     18
   total plane-waves  NPLWV = ******
   max r-space proj   IRMAX =   1847   max aug-charges    IRDMAX=   6262
   dimension x,y,z NGX =   150 NGY =  150 NGZ =  150
   dimension x,y,z NGXF=   300 NGYF=  300 NGZF=  300
   support grid    NGXF=   300 NGYF=  300 NGZF=  300
   ions per type =              55   1   1
   NGX,Y,Z   is equivalent  to a cutoff of   8.31,  8.31,  8.31 a.u.
   NGXF,Y,Z  is equivalent  to a cutoff of  16.62, 16.62, 16.62 a.u.

 SYSTEM =  6_Pd100_top_free_z(O)                   
 POSCAR =  Pd55PES                                 

 Startparameter for this run:
   NWRITE =      2    write-flag & timer
   PREC   = normal    normal or accurate (medium, high low for compatibility)
   ISTART =      0    job   : 0-new  1-cont  2-samecut
   ICHARG =      2    charge: 1-file 2-atom 10-const
   ISPIN  =      1    spin polarized calculation?
   LNONCOLLINEAR =      F non collinear calculations
   LSORBIT =      F    spin-orbit coupling
   INIWAV =      1    electr: 0-lowe 1-rand  2-diag
   LASPH  =      F    aspherical Exc in radial PAW
   METAGGA=      F    non-selfconsistent MetaGGA calc.

 Electronic Relaxation 1
   ENCUT  =  400.0 eV  29.40 Ry    5.42 a.u.  48.92 48.92 48.92*2*pi/ulx,y,z
   ENINI  =  400.0     initial cutoff
   ENAUG  =  644.9 eV  augmentation charge cutoff
   NELM   =    100;   NELMIN=  6; NELMDL= -5     # of ELM steps 
   EDIFF  = 0.1E-03   stopping-criterion for ELM
   LREAL  =      T    real-space projection
   NLSPLINE    = F    spline interpolate recip. space projectors
   LCOMPAT=      F    compatible to vasp.4.4
   GGA_COMPAT  = T    GGA compatible to vasp.4.4-vasp.4.6
   LMAXPAW     = -100 max onsite density
   LMAXMIX     =    2 max onsite mixed and CHGCAR
   VOSKOWN=      0    Vosko Wilk Nusair interpolation
   ROPT   =   -0.00050  -0.00050  -0.00050
 Ionic relaxation
   EDIFFG = -.5E-01   stopping-criterion for IOM
   NSW    =      0    number of steps for IOM
   NBLOCK =      1;   KBLOCK =      1    inner block; outer block 
   IBRION =     -1    ionic relax: 0-MD 1-quasi-New 2-CG
   NFREE  =      1    steps in history (QN), initial steepest desc. (CG)
   ISIF   =      2    stress and relaxation
   IWAVPR =     10    prediction:  0-non 1-charg 2-wave 3-comb
   ISYM   =      2    0-nonsym 1-usesym 2-fastsym
   LCORR  =      T    Harris-Foulkes like correction to forces

   POTIM  = 0.5000    time-step for ionic-motion
   TEIN   =    0.0    initial temperature
   TEBEG  =    0.0;   TEEND  =   0.0 temperature during run
   SMASS  =  -3.00    Nose mass-parameter (am)
   estimated Nose-frequenzy (Omega)   =  0.10E-29 period in steps =****** mass=  -0.206E-25a.u.
   SCALEE = 1.0000    scale energy and forces
   NPACO  =    256;   APACO  = 16.0  distance and # of slots for P.C.
   PSTRESS=    0.0 pullay stress

  Mass of Ions in am
   POMASS = 106.42 12.01 16.00
  Ionic Valenz
   ZVAL   =  10.00  4.00  6.00
  Atomic Wigner-Seitz radii
   RWIGS  =  -1.00 -1.00 -1.00
  virtual crystal weights 
   VCA    =   1.00  1.00  1.00
   NELECT =     560.0000    total number of electrons
   NUPDOWN=      -1.0000    fix difference up-down

 DOS related values:
   EMIN   =  10.00;   EMAX   =-10.00  energy-range for DOS
   EFERMI =   0.00
   ISMEAR =     2;   SIGMA  =   0.20  broadening in eV -4-tet -1-fermi 0-gaus

 Electronic relaxation 2 (details)
   IALGO  =     68    algorithm
   LDIAG  =      T    sub-space diagonalisation (order eigenvalues)
   LSUBROT=      F    optimize rotation matrix (better conditioning)
   TURBO    =      0    0=normal 1=particle mesh
   IRESTART =      0    0=no restart 2=restart with 2 vectors
   NREBOOT  =      0    no. of reboots
   NMIN     =      0    reboot dimension
   EREF     =   0.00    reference energy to select bands
   IMIX   =      4    mixing-type and parameters
     AMIX     =   0.40;   BMIX     =  1.00
     AMIX_MAG =   1.60;   BMIX_MAG =  1.00
     AMIN     =   0.10
     WC   =   100.;   INIMIX=   1;  MIXPRE=   1;  MAXMIX= -45

 Intra band minimization:
   WEIMIN = 0.0000     energy-eigenvalue tresh-hold
   EBREAK =  0.74E-07  absolut break condition
   DEPER  =   0.30     relativ break condition  

   TIME   =   0.40     timestep for ELM

  volume/ion in A,a.u.               =     473.68      3196.58
  Fermi-wavevector in a.u.,A,eV,Ry     =   0.449797  0.849992  2.752691  0.202317
  Thomas-Fermi vector in A             =   1.430086
 
 Write flags
   LWAVE        =      F    write WAVECAR
   LDOWNSAMPLE  =      F    k-point downsampling of WAVECAR
   LCHARG       =      F    write CHGCAR
   LVTOT        =      F    write LOCPOT, total local potential
   LVHAR        =      F    write LOCPOT, Hartree potential only
   LELF         =      F    write electronic localiz. function (ELF)
   LORBIT       =      0    0 simple, 1 ext, 2 COOP (PROOUT), +10 PAW based schemes


 Dipole corrections
   LMONO  =      F    monopole corrections only (constant potential shift)
   LDIPOL =      F    correct potential (dipole corrections)
   IDIPOL =      0    1-x, 2-y, 3-z, 4-all directions 
   EPSILON=  1.0000000 bulk dielectric constant

 Exchange correlation treatment:
   GGA     =    RP    GGA type
   LEXCH   =     9    internal setting for exchange type
   VOSKOWN=      0    Vosko Wilk Nusair interpolation
   LHFCALC =     F    Hartree Fock is set to
   LHFONE  =     F    Hartree Fock one center treatment
   AEXX    =    0.0000 exact exchange contribution

 Linear response parameters
   LEPSILON=     F    determine dielectric tensor
   LRPA    =     F    only Hartree local field effects (RPA)
   LNABLA  =     F    use nabla operator in PAW spheres
   LVEL    =     F    velocity operator in full k-point grid
   LINTERFAST=   F  fast interpolation
   KINTER  =     0    interpolate to denser k-point grid
   CSHIFT  =0.1000    complex shift for real part using Kramers Kronig
   OMEGAMAX=  -1.0    maximum frequency
   DEG_THRESHOLD= 0.2000000E-02 threshold for treating states as degnerate
   RTIME   =   -0.100 relaxation time in fs
  (WPLASMAI=    0.000 imaginary part of plasma frequency in eV, 0.658/RTIME)
   DFIELD  = 0.0000000 0.0000000 0.0000000 field for delta impulse in time
 
 Orbital magnetization related:
   ORBITALMAG=     F  switch on orbital magnetization
   LCHIMAG   =     F  perturbation theory with respect to B field
   DQ        =  0.001000  dq finite difference perturbation B field
   LLRAUG    =     F  two centre corrections for induced B field



--------------------------------------------------------------------------------------------------------


 Static calculation
 charge density and potential will be updated during run
 non-spin polarized calculation
 RMM-DIIS sequential band-by-band and
  variant of blocked Davidson during initial phase
 perform sub-space diagonalisation
    before iterative eigenvector-optimisation
 modified Broyden-mixing scheme, WC =      100.0
 initial mixing is a Kerker type mixing with AMIX =  0.4000 and BMIX =      1.0000
 Hartree-type preconditioning will be used
 using additional bands           56
 real space projection scheme for non local part
 use partial core corrections
 calculate Harris-corrections to forces 
   (improved forces if not selfconsistent)
 use gradient corrections 
 use of overlap-Matrix (Vanderbilt PP)
 Methfessel and Paxton  Order N= 2 SIGMA  =   0.20


--------------------------------------------------------------------------------------------------------


  energy-cutoff  :      400.00
  volume of cell :    27000.00
      direct lattice vectors                 reciprocal lattice vectors
    30.000000000  0.000000000  0.000000000     0.033333333  0.000000000  0.000000000
     0.000000000 30.000000000  0.000000000     0.000000000  0.033333333  0.000000000
     0.000000000  0.000000000 30.000000000     0.000000000  0.000000000  0.033333333

  length of vectors
    30.000000000 30.000000000 30.000000000     0.033333333  0.033333333  0.033333333


 
 k-points in units of 2pi/SCALE and weight: K-points                                
   0.00000000  0.00000000  0.00000000       1.000
 
 k-points in reciprocal lattice and weights: K-points                                
   0.00000000  0.00000000  0.00000000       1.000
 
 position of ions in fractional coordinates (direct lattice) 
   0.44576020  0.32826710  0.41691983
   0.67173288  0.55423978  0.41691983
   0.55423980  0.32826710  0.41691983
   0.32826712  0.55423978  0.41691983
   0.50000000  0.38250690  0.34021317
   0.50000000  0.38250690  0.65978680
   0.50000000  0.27609440  0.50000000
   0.27609443  0.49999998  0.50000000
   0.72390557  0.49999998  0.50000000
   0.50000000  0.72390555  0.50000000
   0.61195280  0.38804720  0.34167483
   0.61195280  0.38804720  0.65832513
   0.38804722  0.61195278  0.34167483
   0.38804722  0.61195278  0.65832513
   0.38804720  0.38804720  0.34167483
   0.38804720  0.38804720  0.65832513
   0.61195278  0.61195278  0.34167483
   0.61195278  0.61195278  0.65832513
   0.44576020  0.32826710  0.58308023
   0.67173288  0.55423978  0.58308023
   0.55791699  0.44208301  0.41809300
   0.32826705  0.44576024  0.41691983
   0.55423973  0.67173293  0.41691983
   0.55423980  0.32826710  0.58308023
   0.32826712  0.55423978  0.58308023
   0.67173295  0.44576024  0.41691983
   0.44576027  0.67173293  0.41691983
   0.44208301  0.44208301  0.41809300
   0.50000000  0.38416601  0.50000000
   0.61749315  0.50000005  0.34021317
   0.61749315  0.50000005  0.65978680
   0.38250685  0.50000005  0.34021317
   0.38250685  0.50000005  0.65978680
   0.38317830  0.38317830  0.50000000
   0.61682172  0.61682172  0.50000000
   0.61682170  0.38317830  0.50000000
   0.38317828  0.61682172  0.50000000
   0.50000000  0.50000000  0.33478917
   0.50000000  0.50000000  0.66521087
   0.32826705  0.44576024  0.58308023
   0.55423973  0.67173293  0.58308023
   0.55791699  0.44208301  0.58190703
   0.44208298  0.55791702  0.41809300
   0.44208301  0.44208301  0.58190703
   0.67173295  0.44576024  0.58308023
   0.44576027  0.67173293  0.58308023
   0.55791702  0.55791702  0.41809300
   0.38416599  0.50000002  0.50000000
   0.61583401  0.50000002  0.50000000
   0.50000000  0.61749319  0.34021317
   0.50000000  0.61749319  0.65978680
   0.50000000  0.50000000  0.50000000
   0.44208298  0.55791702  0.58190703
   0.55791702  0.55791702  0.58190703
   0.50000000  0.61583404  0.50000000
   0.66653267  0.39837357  0.64498453
   0.69229357  0.38265300  0.66741217
 
 position of ions in cartesian coordinates  (Angst):
  13.37280588  9.84801292 12.50759500
  20.15198637 16.62719342 12.50759500
  16.62719412  9.84801292 12.50759500
   9.84801363 16.62719342 12.50759500
  15.00000000 11.47520705 10.20639500
  15.00000000 11.47520705 19.79360400
  15.00000000  8.28283206 15.00000000
   8.28283277 14.99999929 15.00000000
  21.71716723 14.99999929 15.00000000
  15.00000000 21.71716652 14.99999999
  18.35858397 11.64141603 10.25024500
  18.35858397 11.64141603 19.74975399
  11.64141674 18.35858326 10.25024500
  11.64141674 18.35858326 19.74975400
  11.64141603 11.64141603 10.25024500
  11.64141603 11.64141603 19.74975400
  18.35858326 18.35858326 10.25024500
  18.35858326 18.35858326 19.74975400
  13.37280588  9.84801291 17.49240700
  20.15198638 16.62719341 17.49240700
  16.73750985 13.26249015 12.54279000
   9.84801151 13.37280729 12.50759500
  16.62719200 20.15198779 12.50759500
  16.62719412  9.84801292 17.49240700
   9.84801363 16.62719342 17.49240700
  20.15198849 13.37280729 12.50759500
  13.37280800 20.15198779 12.50759500
  13.26249015 13.26249015 12.54279000
  15.00000000 11.52498029 15.00000000
  18.52479437 15.00000140 10.20639500
  18.52479437 15.00000141 19.79360400
  11.47520562 15.00000141 10.20639501
  11.47520563 15.00000141 19.79360400
  11.49534898 11.49534898 15.00000000
  18.50465172 18.50465172 15.00000000
  18.50465102 11.49534898 15.00000000
  11.49534828 18.50465172 15.00000000
  15.00000000 15.00000000 10.04367500
  15.00000000 15.00000000 19.95632599
   9.84801151 13.37280729 17.49240700
  16.62719200 20.15198779 17.49240700
  16.73750985 13.26249015 17.45721100
  13.26248944 16.73751056 12.54279001
  13.26249015 13.26249015 17.45721100
  20.15198849 13.37280729 17.49240699
  13.37280800 20.15198779 17.49240700
  16.73751056 16.73751056 12.54279000
  11.52497959 15.00000071 15.00000000
  18.47502041 15.00000071 15.00000000
  14.99999999 18.52479579 10.20639500
  15.00000000 18.52479578 19.79360400
  15.00000000 15.00000000 15.00000000
  13.26248944 16.73751057 17.45721101
  16.73751056 16.73751057 17.45721100
  15.00000000 18.47502112 15.00000000
  19.99598000 11.95120700 19.34953600
  20.76880700 11.47959000 20.02236500
 


--------------------------------------------------------------------------------------------------------


 k-point  1 :   0.0000 0.0000 0.0000  plane waves:  490521

 maximum and minimum number of plane-waves per node :    490521   490521

 maximum number of plane-waves:    490521
 maximum index in each direction: 
   IXMAX=   48   IYMAX=   48   IZMAX=   48
   IXMIN=  -48   IYMIN=  -48   IZMIN=  -48


 serial   3D FFT for wavefunctions
 parallel 3D FFT for charge:
    minimum data exchange during FFTs selected (reduces bandwidth)


 total amount of memory used by VASP MPI-rank0  5486941. kBytes
=======================================================================

   base      :      30000. kBytes
   nonlr-proj:      17126. kBytes
   fftplans  :     924480. kBytes
   grid      :    1872000. kBytes
   one-center:        886. kBytes
   wavefun   :    2642449. kBytes
 
     INWAV:  cpu time    0.0001: real time    0.0004
 Broyden mixing: mesh for mixing (old mesh)
   NGX = 97   NGY = 97   NGZ = 97
  (NGX  =300   NGY  =300   NGZ  =300)
  gives a total of 912673 points

 initial charge density was supplied:
 charge density of overlapping atoms calculated
 number of electron     560.0000000 magnetization 
 keeping initial charge density in first step


--------------------------------------------------------------------------------------------------------


 Maximum index for non-local projection operator         1763
 Maximum index for augmentation-charges         5898 (set IRDMAX)


--------------------------------------------------------------------------------------------------------


 First call to EWALD:  gamma=   0.059
 Maximum number of real-space cells 3x 3x 3
 Maximum number of reciprocal cells 3x 3x 3

    FEWALD:  cpu time    0.0146: real time    0.0146


--------------------------------------- Iteration      1(   1)  ---------------------------------------


    POTLOK:  cpu time   13.7372: real time   13.7397
    SETDIJ:  cpu time    0.1141: real time    0.1141
     EDDAV:  cpu time  353.3123: real time  353.3867
       DOS:  cpu time    0.0013: real time    0.0013
    --------------------------------------------
      LOOP:  cpu time  367.1649: real time  367.2418

 eigenvalue-minimisations  :   688
 total energy-change (2. order) : 0.4400299E+04  (-0.1005292E+05)
 number of electron     560.0000000 magnetization 
 augmentation part      560.0000000 magnetization 

 Free energy of the ion-electron system (eV)
  ---------------------------------------------------
  alpha Z        PSCENC =        75.25431677
  Ewald energy   TEWEN  =    138524.03190200
  -Hartree energ DENC   =   -181873.72326117
  -exchange      EXHF   =         0.00000000
  -V(xc)+E(xc)   XCENC  =     -1702.01555210
  PAW double counting   =     44873.02882129   -41398.84523641
  entropy T*S    EENTRO =         0.00210733
  eigenvalues    EBANDS =       816.06088698
  atomic energy  EATOM  =     45086.50549395
  Solvation  Ediel_sol  =         0.00000000
  ---------------------------------------------------
  free energy    TOTEN  =      4400.29947865 eV

  energy without entropy =     4400.29737132  energy(sigma->0) =     4400.29895181


--------------------------------------------------------------------------------------------------------




--------------------------------------- Iteration      1(   2)  ---------------------------------------


     EDDAV:  cpu time  567.0009: real time  567.0048
       DOS:  cpu time    0.0012: real time    0.0012
    --------------------------------------------
      LOOP:  cpu time  567.0022: real time  567.0061

 eigenvalue-minimisations  :  1224
 total energy-change (2. order) :-0.2387973E+04  (-0.2150170E+04)
 number of electron     560.0000000 magnetization 
 augmentation part      560.0000000 magnetization 

 Free energy of the ion-electron system (eV)
  ---------------------------------------------------
  alpha Z        PSCENC =        75.25431677
  Ewald energy   TEWEN  =    138524.03190200
  -Hartree energ DENC   =   -181873.72326117
  -exchange      EXHF   =         0.00000000
  -V(xc)+E(xc)   XCENC  =     -1702.01555210
  PAW double counting   =     44873.02882129   -41398.84523641
  entropy T*S    EENTRO =        -0.00236472
  eigenvalues    EBANDS =     -1571.90751376
  atomic energy  EATOM  =     45086.50549395
  Solvation  Ediel_sol  =         0.00000000
  ---------------------------------------------------
  free energy    TOTEN  =      2012.32660586 eV

  energy without entropy =     2012.32897058  energy(sigma->0) =     2012.32719704


--------------------------------------------------------------------------------------------------------




--------------------------------------- Iteration      1(   3)  ---------------------------------------


     EDDAV:  cpu time  472.2831: real time  472.2854
       DOS:  cpu time    0.0011: real time    0.0011
    --------------------------------------------
      LOOP:  cpu time  472.2842: real time  472.2865

 eigenvalue-minimisations  :   984
 total energy-change (2. order) :-0.1773590E+04  (-0.1670743E+04)
 number of electron     560.0000000 magnetization 
 augmentation part      560.0000000 magnetization 

 Free energy of the ion-electron system (eV)
  ---------------------------------------------------
  alpha Z        PSCENC =        75.25431677
  Ewald energy   TEWEN  =    138524.03190200
  -Hartree energ DENC   =   -181873.72326117
  -exchange      EXHF   =         0.00000000
  -V(xc)+E(xc)   XCENC  =     -1702.01555210
  PAW double counting   =     44873.02882129   -41398.84523641
  entropy T*S    EENTRO =         0.04771461
  eigenvalues    EBANDS =     -3345.54807895
  atomic energy  EATOM  =     45086.50549395
  Solvation  Ediel_sol  =         0.00000000
  ---------------------------------------------------
  free energy    TOTEN  =       238.73612000 eV

  energy without entropy =      238.68840539  energy(sigma->0) =      238.72419135


--------------------------------------------------------------------------------------------------------




--------------------------------------- Iteration      1(   4)  ---------------------------------------


     EDDAV:  cpu time  409.2318: real time  409.2362
       DOS:  cpu time    0.0012: real time    0.0012
    --------------------------------------------
      LOOP:  cpu time  409.2330: real time  409.2374

 eigenvalue-minimisations  :   824
 total energy-change (2. order) :-0.3728628E+03  (-0.3150285E+03)
 number of electron     560.0000000 magnetization 
 augmentation part      560.0000000 magnetization 

 Free energy of the ion-electron system (eV)
  ---------------------------------------------------
  alpha Z        PSCENC =        75.25431677
  Ewald energy   TEWEN  =    138524.03190200
  -Hartree energ DENC   =   -181873.72326117
  -exchange      EXHF   =         0.00000000
  -V(xc)+E(xc)   XCENC  =     -1702.01555210
  PAW double counting   =     44873.02882129   -41398.84523641
  entropy T*S    EENTRO =        -0.03798324
  eigenvalues    EBANDS =     -3718.32514405
  atomic energy  EATOM  =     45086.50549395
  Solvation  Ediel_sol  =         0.00000000
  ---------------------------------------------------
  free energy    TOTEN  =      -134.12664296 eV

  energy without entropy =     -134.08865971  energy(sigma->0) =     -134.11714715


--------------------------------------------------------------------------------------------------------




--------------------------------------- Iteration      1(   5)  ---------------------------------------


     EDDAV:  cpu time  504.0751: real time  504.0805
       DOS:  cpu time    0.0013: real time    0.0013
    CHARGE:  cpu time   25.9637: real time   25.9637
    MIXING:  cpu time    0.4473: real time    0.4473
    --------------------------------------------
      LOOP:  cpu time  530.4874: real time  530.4928

 eigenvalue-minimisations  :  1056
 total energy-change (2. order) :-0.4627258E+02  (-0.3880091E+02)
 number of electron     559.9999889 magnetization 
 augmentation part      244.9413174 magnetization 

 Broyden mixing:
  rms(total) = 0.18437E+01    rms(broyden)= 0.18428E+01
  rms(prec ) = 0.19393E+01
  weight for this iteration     100.00

 Free energy of the ion-electron system (eV)
  ---------------------------------------------------
  alpha Z        PSCENC =        75.25431677
  Ewald energy   TEWEN  =    138524.03190200
  -Hartree energ DENC   =   -181873.72326117
  -exchange      EXHF   =         0.00000000
  -V(xc)+E(xc)   XCENC  =     -1702.01555210
  PAW double counting   =     44873.02882129   -41398.84523641
  entropy T*S    EENTRO =         0.53991040
  eigenvalues    EBANDS =     -3765.17561870
  atomic energy  EATOM  =     45086.50549395
  Solvation  Ediel_sol  =         0.00000000
  ---------------------------------------------------
  free energy    TOTEN  =      -180.39922396 eV

  energy without entropy =     -180.93913436  energy(sigma->0) =     -180.53420156


--------------------------------------------------------------------------------------------------------




--------------------------------------- Iteration      1(   6)  ---------------------------------------


    POTLOK:  cpu time   13.4091: real time   13.4120
    SETDIJ:  cpu time    0.1211: real time    0.1211
    EDDIAG:  cpu time   67.2136: real time   67.2149
  RMM-DIIS:  cpu time  183.8833: real time  183.8834
    ORTHCH:  cpu time   13.2302: real time   13.2300
       DOS:  cpu time    0.0013: real time    0.0013
    CHARGE:  cpu time   25.1175: real time   25.1172
    MIXING:  cpu time    0.4574: real time    0.4574
    --------------------------------------------
      LOOP:  cpu time  303.4335: real time  303.4375

 eigenvalue-minimisations  :   727
 total energy-change (2. order) : 0.5713215E+00  (-0.6421771E+01)
 number of electron     559.9999889 magnetization 
 augmentation part      240.6312359 magnetization 

 Broyden mixing:
  rms(total) = 0.23376E+01    rms(broyden)= 0.23374E+01
  rms(prec ) = 0.27052E+01
  weight for this iteration     100.00

 eigenvalues of (default mixing * dielectric matrix)
  average eigenvalue GAMMA=   0.4011
  0.4011

 Free energy of the ion-electron system (eV)
  ---------------------------------------------------
  alpha Z        PSCENC =        75.25431677
  Ewald energy   TEWEN  =    138524.03190200
  -Hartree energ DENC   =   -182277.20242805
  -exchange      EXHF   =         0.00000000
  -V(xc)+E(xc)   XCENC  =     -1695.54386085
  PAW double counting   =     45697.78546873   -42197.81739070
  entropy T*S    EENTRO =        -0.08351868
  eigenvalues    EBANDS =     -3392.75788560
  atomic energy  EATOM  =     45086.50549395
  Solvation  Ediel_sol  =         0.00000000
  ---------------------------------------------------
  free energy    TOTEN  =      -179.82790243 eV

  energy without entropy =     -179.74438375  energy(sigma->0) =     -179.80702276


--------------------------------------------------------------------------------------------------------




--------------------------------------- Iteration      1(   7)  ---------------------------------------


    POTLOK:  cpu time   13.0454: real time   13.0461
    SETDIJ:  cpu time    0.1215: real time    0.1215
    EDDIAG:  cpu time   66.4277: real time   66.4276
  RMM-DIIS:  cpu time  218.1154: real time  218.1179
    ORTHCH:  cpu time   13.7765: real time   13.7776
       DOS:  cpu time    0.0014: real time    0.0014
    CHARGE:  cpu time   25.4881: real time   25.4930
    MIXING:  cpu time    0.4998: real time    0.4999
    --------------------------------------------
      LOOP:  cpu time  337.4758: real time  337.4851

 eigenvalue-minimisations  :   856
 total energy-change (2. order) :-0.5548988E+01  (-0.2395945E+01)
 number of electron     559.9999848 magnetization 
 augmentation part      239.8131864 magnetization 

 Broyden mixing:
  rms(total) = 0.26900E+01    rms(broyden)= 0.26898E+01
  rms(prec ) = 0.33118E+01
  weight for this iteration     100.00

 eigenvalues of (default mixing * dielectric matrix)
  average eigenvalue GAMMA=   0.3675
  0.5744  0.1607

 Free energy of the ion-electron system (eV)
  ---------------------------------------------------
  alpha Z        PSCENC =        75.25431677
  Ewald energy   TEWEN  =    138524.03190200
  -Hartree energ DENC   =   -182375.62649030
  -exchange      EXHF   =         0.00000000
  -V(xc)+E(xc)   XCENC  =     -1695.79703058
  PAW double counting   =     45797.41908339   -42294.48977122
  entropy T*S    EENTRO =        -0.10811128
  eigenvalues    EBANDS =     -3302.56628345
  atomic energy  EATOM  =     45086.50549395
  Solvation  Ediel_sol  =         0.00000000
  ---------------------------------------------------
  free energy    TOTEN  =      -185.37689072 eV

  energy without entropy =     -185.26877944  energy(sigma->0) =     -185.34986290


--------------------------------------------------------------------------------------------------------




--------------------------------------- Iteration      1(   8)  ---------------------------------------


    POTLOK:  cpu time   13.4726: real time   13.4739
    SETDIJ:  cpu time    0.1235: real time    0.1235
    EDDIAG:  cpu time   69.5608: real time   69.5645
  RMM-DIIS:  cpu time  199.2754: real time  199.2961
    ORTHCH:  cpu time   13.5418: real time   13.5429
       DOS:  cpu time    0.0014: real time    0.0014
    CHARGE:  cpu time   24.7743: real time   24.7765
    MIXING:  cpu time    0.5189: real time    0.5189
    --------------------------------------------
      LOOP:  cpu time  321.2686: real time  321.2975

 eigenvalue-minimisations  :   789
 total energy-change (2. order) :-0.1203609E+01  (-0.9769097E+00)
 number of electron     559.9999850 magnetization 
 augmentation part      239.7651875 magnetization 

 Broyden mixing:
  rms(total) = 0.27828E+01    rms(broyden)= 0.27825E+01
  rms(prec ) = 0.32090E+01
  weight for this iteration     100.00

 eigenvalues of (default mixing * dielectric matrix)
  average eigenvalue GAMMA=   0.3643
  0.7836  0.1546  0.1546

 Free energy of the ion-electron system (eV)
  ---------------------------------------------------
  alpha Z        PSCENC =        75.25431677
  Ewald energy   TEWEN  =    138524.03190200
  -Hartree energ DENC   =   -182414.62041673
  -exchange      EXHF   =         0.00000000
  -V(xc)+E(xc)   XCENC  =     -1695.97388084
  PAW double counting   =     45873.89392095   -42368.91342623
  entropy T*S    EENTRO =        -0.15365848
  eigenvalues    EBANDS =     -3266.60475067
  atomic energy  EATOM  =     45086.50549395
  Solvation  Ediel_sol  =         0.00000000
  ---------------------------------------------------
  free energy    TOTEN  =      -186.58049927 eV

  energy without entropy =     -186.42684079  energy(sigma->0) =     -186.54208465


--------------------------------------------------------------------------------------------------------




--------------------------------------- Iteration      1(   9)  ---------------------------------------


    POTLOK:  cpu time   12.9087: real time   12.9107
    SETDIJ:  cpu time    0.1206: real time    0.1206
    EDDIAG:  cpu time   66.9209: real time   66.9281
  RMM-DIIS:  cpu time  184.8992: real time  184.9182
    ORTHCH:  cpu time   13.2822: real time   13.2827
       DOS:  cpu time    0.0014: real time    0.0014
    CHARGE:  cpu time   24.7816: real time   24.7834
    MIXING:  cpu time    0.5262: real time    0.5262
    --------------------------------------------
      LOOP:  cpu time  303.4409: real time  303.4714

 eigenvalue-minimisations  :   732
 total energy-change (2. order) : 0.2559573E+01  (-0.8515647E+00)
 number of electron     559.9999856 magnetization 
 augmentation part      241.0717091 magnetization 

 Broyden mixing:
  rms(total) = 0.28832E+01    rms(broyden)= 0.28829E+01
  rms(prec ) = 0.33148E+01
  weight for this iteration     100.00

 eigenvalues of (default mixing * dielectric matrix)
  average eigenvalue GAMMA=   0.3358
  0.8881  0.1687  0.1687  0.1177

 Free energy of the ion-electron system (eV)
  ---------------------------------------------------
  alpha Z        PSCENC =        75.25431677
  Ewald energy   TEWEN  =    138524.03190200
  -Hartree energ DENC   =   -182417.75218277
  -exchange      EXHF   =         0.00000000
  -V(xc)+E(xc)   XCENC  =     -1696.05014162
  PAW double counting   =     45959.66575889   -42452.45552715
  entropy T*S    EENTRO =         0.03737060
  eigenvalues    EBANDS =     -3263.25791705
  atomic energy  EATOM  =     45086.50549395
  Solvation  Ediel_sol  =         0.00000000
  ---------------------------------------------------
  free energy    TOTEN  =      -184.02092637 eV

  energy without entropy =     -184.05829697  energy(sigma->0) =     -184.03026902


--------------------------------------------------------------------------------------------------------




--------------------------------------- Iteration      1(  10)  ---------------------------------------


    POTLOK:  cpu time   12.9297: real time   12.9334
    SETDIJ:  cpu time    0.1186: real time    0.1186
    EDDIAG:  cpu time   67.5331: real time   67.5393
  RMM-DIIS:  cpu time  186.4486: real time  186.4640
    ORTHCH:  cpu time   13.0122: real time   13.0125
       DOS:  cpu time    0.0014: real time    0.0014
    CHARGE:  cpu time   24.2328: real time   24.2356
    MIXING:  cpu time    0.5575: real time    0.5575
    --------------------------------------------
      LOOP:  cpu time  304.8340: real time  304.8623

 eigenvalue-minimisations  :   734
 total energy-change (2. order) : 0.2708713E+01  (-0.4428545E+00)
 number of electron     559.9999889 magnetization 
 augmentation part      241.4904998 magnetization 

 Broyden mixing:
  rms(total) = 0.23704E+01    rms(broyden)= 0.23700E+01
  rms(prec ) = 0.27297E+01
  weight for this iteration     100.00

 eigenvalues of (default mixing * dielectric matrix)
  average eigenvalue GAMMA=   0.3223
  1.0036  0.1727  0.1727  0.1704  0.0919

 Free energy of the ion-electron system (eV)
  ---------------------------------------------------
  alpha Z        PSCENC =        75.25431677
  Ewald energy   TEWEN  =    138524.03190200
  -Hartree energ DENC   =   -182452.14880079
  -exchange      EXHF   =         0.00000000
  -V(xc)+E(xc)   XCENC  =     -1695.93469597
  PAW double counting   =     46012.82374142   -42504.13397363
  entropy T*S    EENTRO =        -0.08569186
  eigenvalues    EBANDS =     -3227.62450529
  atomic energy  EATOM  =     45086.50549395
  Solvation  Ediel_sol  =         0.00000000
  ---------------------------------------------------
  free energy    TOTEN  =      -181.31221338 eV

  energy without entropy =     -181.22652152  energy(sigma->0) =     -181.29079041


--------------------------------------------------------------------------------------------------------




--------------------------------------- Iteration      1(  11)  ---------------------------------------


    POTLOK:  cpu time   12.5202: real time   12.5231
    SETDIJ:  cpu time    0.1185: real time    0.1185
    EDDIAG:  cpu time   65.9623: real time   65.9657
  RMM-DIIS:  cpu time  176.8420: real time  176.8602
    ORTHCH:  cpu time   13.0267: real time   13.0271
       DOS:  cpu time    0.0014: real time    0.0014
    CHARGE:  cpu time   24.1926: real time   24.1933
    MIXING:  cpu time    0.5866: real time    0.5867
    --------------------------------------------
      LOOP:  cpu time  293.2503: real time  293.2761

 eigenvalue-minimisations  :   723
 total energy-change (2. order) : 0.1777605E+01  (-0.3725908E+00)
 number of electron     559.9999891 magnetization 
 augmentation part      241.5583050 magnetization 

 Broyden mixing:
  rms(total) = 0.21451E+01    rms(broyden)= 0.21448E+01
  rms(prec ) = 0.25931E+01
  weight for this iteration     100.00

 eigenvalues of (default mixing * dielectric matrix)
  average eigenvalue GAMMA=   0.3030
  1.0660  0.2057  0.2057  0.1294  0.1294  0.0818

 Free energy of the ion-electron system (eV)
  ---------------------------------------------------
  alpha Z        PSCENC =        75.25431677
  Ewald energy   TEWEN  =    138524.03190200
  -Hartree energ DENC   =   -182478.62909496
  -exchange      EXHF   =         0.00000000
  -V(xc)+E(xc)   XCENC  =     -1695.71015779
  PAW double counting   =     46069.97860299   -42559.47597070
  entropy T*S    EENTRO =        -0.02554750
  eigenvalues    EBANDS =     -3201.46415316
  atomic energy  EATOM  =     45086.50549395
  Solvation  Ediel_sol  =         0.00000000
  ---------------------------------------------------
  free energy    TOTEN  =      -179.53460839 eV

  energy without entropy =     -179.50906089  energy(sigma->0) =     -179.52822151


--------------------------------------------------------------------------------------------------------




--------------------------------------- Iteration      1(  12)  ---------------------------------------


    POTLOK:  cpu time   12.6481: real time   12.6517
    SETDIJ:  cpu time    0.1182: real time    0.1182
    EDDIAG:  cpu time   66.4952: real time   66.5015
  RMM-DIIS:  cpu time  177.4357: real time  177.4451
    ORTHCH:  cpu time   13.0124: real time   13.0129
       DOS:  cpu time    0.0015: real time    0.0015
    CHARGE:  cpu time   24.2039: real time   24.2056
    MIXING:  cpu time    0.6282: real time    0.6283
    --------------------------------------------
      LOOP:  cpu time  294.5432: real time  294.5648

 eigenvalue-minimisations  :   727
 total energy-change (2. order) : 0.9534393E+00  (-0.1656269E+00)
 number of electron     559.9999873 magnetization 
 augmentation part      241.6613297 magnetization 

 Broyden mixing:
  rms(total) = 0.18367E+01    rms(broyden)= 0.18364E+01
  rms(prec ) = 0.22137E+01
  weight for this iteration     100.00

 eigenvalues of (default mixing * dielectric matrix)
  average eigenvalue GAMMA=   0.3001
  1.1525  0.2566  0.2566  0.1389  0.1389  0.0902  0.0672

 Free energy of the ion-electron system (eV)
  ---------------------------------------------------
  alpha Z        PSCENC =        75.25431677
  Ewald energy   TEWEN  =    138524.03190200
  -Hartree energ DENC   =   -182493.55575114
  -exchange      EXHF   =         0.00000000
  -V(xc)+E(xc)   XCENC  =     -1695.53876919
  PAW double counting   =     46100.71554096   -42589.08734193
  entropy T*S    EENTRO =        -0.16814745
  eigenvalues    EBANDS =     -3186.73841308
  atomic energy  EATOM  =     45086.50549395
  Solvation  Ediel_sol  =         0.00000000
  ---------------------------------------------------
  free energy    TOTEN  =      -178.58116910 eV

  energy without entropy =     -178.41302165  energy(sigma->0) =     -178.53913224


--------------------------------------------------------------------------------------------------------




--------------------------------------- Iteration      1(  13)  ---------------------------------------


    POTLOK:  cpu time   12.7324: real time   12.7356
    SETDIJ:  cpu time    0.1218: real time    0.1218
    EDDIAG:  cpu time   66.4992: real time   66.5073
  RMM-DIIS:  cpu time  181.1653: real time  181.1907
    ORTHCH:  cpu time   13.0796: real time   13.0808
       DOS:  cpu time    0.0015: real time    0.0015
    CHARGE:  cpu time   24.3335: real time   24.3351
    MIXING:  cpu time    0.6502: real time    0.6502
    --------------------------------------------
      LOOP:  cpu time  298.5835: real time  298.6230

 eigenvalue-minimisations  :   726
 total energy-change (2. order) : 0.1366891E+01  (-0.1841096E+00)
 number of electron     559.9999864 magnetization 
 augmentation part      241.7753300 magnetization 

 Broyden mixing:
  rms(total) = 0.16169E+01    rms(broyden)= 0.16165E+01
  rms(prec ) = 0.18686E+01
  weight for this iteration     100.00

 eigenvalues of (default mixing * dielectric matrix)
  average eigenvalue GAMMA=   0.3191
  1.3479  0.3269  0.3269  0.1327  0.1327  0.1104  0.1104  0.0647

 Free energy of the ion-electron system (eV)
  ---------------------------------------------------
  alpha Z        PSCENC =        75.25431677
  Ewald energy   TEWEN  =    138524.03190200
  -Hartree energ DENC   =   -182512.69686169
  -exchange      EXHF   =         0.00000000
  -V(xc)+E(xc)   XCENC  =     -1695.22544138
  PAW double counting   =     46143.21122794   -42629.99026123
  entropy T*S    EENTRO =        -0.07615628
  eigenvalues    EBANDS =     -3168.22849830
  atomic energy  EATOM  =     45086.50549395
  Solvation  Ediel_sol  =         0.00000000
  ---------------------------------------------------
  free energy    TOTEN  =      -177.21427821 eV

  energy without entropy =     -177.13812193  energy(sigma->0) =     -177.19523914


--------------------------------------------------------------------------------------------------------




--------------------------------------- Iteration      1(  14)  ---------------------------------------


    POTLOK:  cpu time   12.7077: real time   12.7104
    SETDIJ:  cpu time    0.1189: real time    0.1189
    EDDIAG:  cpu time   66.0708: real time   66.0761
  RMM-DIIS:  cpu time  176.8600: real time  176.8800
    ORTHCH:  cpu time   13.2196: real time   13.2217
       DOS:  cpu time    0.0014: real time    0.0014
    CHARGE:  cpu time   24.8566: real time   24.8589
    MIXING:  cpu time    0.7405: real time    0.7405
    --------------------------------------------
      LOOP:  cpu time  294.5755: real time  294.6079

 eigenvalue-minimisations  :   711
 total energy-change (2. order) :-0.3544945E+00  (-0.2206593E+00)
 number of electron     559.9999858 magnetization 
 augmentation part      241.5265648 magnetization 

 Broyden mixing:
  rms(total) = 0.23415E+01    rms(broyden)= 0.23412E+01
  rms(prec ) = 0.27075E+01
  weight for this iteration     100.00

 eigenvalues of (default mixing * dielectric matrix)
  average eigenvalue GAMMA=   0.3104
  1.4258  0.3593  0.3593  0.1422  0.1422  0.1273  0.0895  0.0895  0.0589

 Free energy of the ion-electron system (eV)
  ---------------------------------------------------
  alpha Z        PSCENC =        75.25431677
  Ewald energy   TEWEN  =    138524.03190200
  -Hartree energ DENC   =   -182556.34578013
  -exchange      EXHF   =         0.00000000
  -V(xc)+E(xc)   XCENC  =     -1694.51962270
  PAW double counting   =     46229.02634215   -42712.41163622
  entropy T*S    EENTRO =        -0.01088658
  eigenvalues    EBANDS =     -3129.09890199
  atomic energy  EATOM  =     45086.50549395
  Solvation  Ediel_sol  =         0.00000000
  ---------------------------------------------------
  free energy    TOTEN  =      -177.56877274 eV

  energy without entropy =     -177.55788616  energy(sigma->0) =     -177.56605109


--------------------------------------------------------------------------------------------------------




--------------------------------------- Iteration      1(  15)  ---------------------------------------


    POTLOK:  cpu time   13.0084: real time   13.0121
    SETDIJ:  cpu time    0.1195: real time    0.1195
    EDDIAG:  cpu time   67.0632: real time   67.0693
  RMM-DIIS:  cpu time  177.4953: real time  177.5139
    ORTHCH:  cpu time   13.1514: real time   13.1534
       DOS:  cpu time    0.0015: real time    0.0015
    CHARGE:  cpu time   24.9915: real time   24.9929
    MIXING:  cpu time    0.7552: real time    0.7553
    --------------------------------------------
      LOOP:  cpu time  296.5861: real time  296.6180

 eigenvalue-minimisations  :   712
 total energy-change (2. order) : 0.7931950E+00  (-0.1312475E+00)
 number of electron     559.9999863 magnetization 
 augmentation part      241.2721509 magnetization 

 Broyden mixing:
  rms(total) = 0.19369E+01    rms(broyden)= 0.19367E+01
  rms(prec ) = 0.22305E+01
  weight for this iteration     100.00

 eigenvalues of (default mixing * dielectric matrix)
  average eigenvalue GAMMA=   0.3134
  1.5639  0.5203  0.2784  0.1583  0.1583  0.1151  0.1039  0.1039  0.0711  0.0609

 Free energy of the ion-electron system (eV)
  ---------------------------------------------------
  alpha Z        PSCENC =        75.25431677
  Ewald energy   TEWEN  =    138524.03190200
  -Hartree energ DENC   =   -182587.12520973
  -exchange      EXHF   =         0.00000000
  -V(xc)+E(xc)   XCENC  =     -1694.10733341
  PAW double counting   =     46273.49562004   -42755.04785019
  entropy T*S    EENTRO =        -0.01321874
  eigenvalues    EBANDS =     -3099.76929840
  atomic energy  EATOM  =     45086.50549395
  Solvation  Ediel_sol  =         0.00000000
  ---------------------------------------------------
  free energy    TOTEN  =      -176.77557769 eV

  energy without entropy =     -176.76235896  energy(sigma->0) =     -176.77227301


--------------------------------------------------------------------------------------------------------




--------------------------------------- Iteration      1(  16)  ---------------------------------------


    POTLOK:  cpu time   12.9392: real time   12.9420
    SETDIJ:  cpu time    0.1310: real time    0.1309
    EDDIAG:  cpu time   67.2411: real time   67.2483
  RMM-DIIS:  cpu time  183.1000: real time  183.1143
    ORTHCH:  cpu time   13.4728: real time   13.4733
       DOS:  cpu time    0.0014: real time    0.0014
    CHARGE:  cpu time   24.9617: real time   24.9640
    MIXING:  cpu time    0.8036: real time    0.8036
    --------------------------------------------
      LOOP:  cpu time  302.6507: real time  302.6778

 eigenvalue-minimisations  :   713
 total energy-change (2. order) : 0.6197533E-01  (-0.1232565E+00)
 number of electron     559.9999891 magnetization 
 augmentation part      240.9521844 magnetization 

 Broyden mixing:
  rms(total) = 0.16409E+01    rms(broyden)= 0.16406E+01
  rms(prec ) = 0.19855E+01
  weight for this iteration     100.00

 eigenvalues of (default mixing * dielectric matrix)
  average eigenvalue GAMMA=   0.3016
  1.6191  0.5679  0.2285  0.1733  0.1733  0.1172  0.1172  0.1217  0.0710  0.0710
  0.0577

 Free energy of the ion-electron system (eV)
  ---------------------------------------------------
  alpha Z        PSCENC =        75.25431677
  Ewald energy   TEWEN  =    138524.03190200
  -Hartree energ DENC   =   -182617.26343629
  -exchange      EXHF   =         0.00000000
  -V(xc)+E(xc)   XCENC  =     -1693.65289819
  PAW double counting   =     46324.14066039   -42803.60116234
  entropy T*S    EENTRO =        -0.05811980
  eigenvalues    EBANDS =     -3072.07035885
  atomic energy  EATOM  =     45086.50549395
  Solvation  Ediel_sol  =         0.00000000
  ---------------------------------------------------
  free energy    TOTEN  =      -176.71360237 eV

  energy without entropy =     -176.65548256  energy(sigma->0) =     -176.69907242


--------------------------------------------------------------------------------------------------------




--------------------------------------- Iteration      1(  17)  ---------------------------------------


    POTLOK:  cpu time   12.9826: real time   12.9863
    SETDIJ:  cpu time    0.1207: real time    0.1207
    EDDIAG:  cpu time   66.8638: real time   66.8671
  RMM-DIIS:  cpu time  179.9125: real time  179.9265
    ORTHCH:  cpu time   13.0738: real time   13.0736
       DOS:  cpu time    0.0014: real time    0.0014
    CHARGE:  cpu time   25.1624: real time   25.1620
    MIXING:  cpu time    0.8855: real time    0.8855
    --------------------------------------------
      LOOP:  cpu time  299.0026: real time  299.0231

 eigenvalue-minimisations  :   719
 total energy-change (2. order) : 0.8082065E+00  (-0.6082154E-01)
 number of electron     559.9999884 magnetization 
 augmentation part      241.0339352 magnetization 

 Broyden mixing:
  rms(total) = 0.11477E+01    rms(broyden)= 0.11474E+01
  rms(prec ) = 0.13118E+01
  weight for this iteration     100.00

 eigenvalues of (default mixing * dielectric matrix)
  average eigenvalue GAMMA=   0.3067
  1.7013  0.6266  0.2745  0.2745  0.1408  0.1408  0.1300  0.0958  0.0958  0.0852
  0.0646  0.0511

 Free energy of the ion-electron system (eV)
  ---------------------------------------------------
  alpha Z        PSCENC =        75.25431677
  Ewald energy   TEWEN  =    138524.03190200
  -Hartree energ DENC   =   -182629.57161730
  -exchange      EXHF   =         0.00000000
  -V(xc)+E(xc)   XCENC  =     -1693.46434945
  PAW double counting   =     46343.23524131   -42821.84029946
  entropy T*S    EENTRO =        -0.03506042
  eigenvalues    EBANDS =     -3060.02102323
  atomic energy  EATOM  =     45086.50549395
  Solvation  Ediel_sol  =         0.00000000
  ---------------------------------------------------
  free energy    TOTEN  =      -175.90539583 eV

  energy without entropy =     -175.87033541  energy(sigma->0) =     -175.89663073


--------------------------------------------------------------------------------------------------------




--------------------------------------- Iteration      1(  18)  ---------------------------------------


    POTLOK:  cpu time   12.8821: real time   12.8854
    SETDIJ:  cpu time    0.1214: real time    0.1214
    EDDIAG:  cpu time   66.7688: real time   66.7688
  RMM-DIIS:  cpu time  173.2601: real time  173.2595
    ORTHCH:  cpu time   13.0615: real time   13.0613
       DOS:  cpu time    0.0015: real time    0.0015
    CHARGE:  cpu time   24.9141: real time   24.9138
    MIXING:  cpu time    0.9133: real time    0.9133
    --------------------------------------------
      LOOP:  cpu time  291.9228: real time  291.9251

 eigenvalue-minimisations  :   695
 total energy-change (2. order) : 0.3935961E+00  (-0.6085572E-01)
 number of electron     559.9999876 magnetization 
 augmentation part      241.1722029 magnetization 

 Broyden mixing:
  rms(total) = 0.10104E+01    rms(broyden)= 0.10102E+01
  rms(prec ) = 0.11424E+01
  weight for this iteration     100.00

 eigenvalues of (default mixing * dielectric matrix)
  average eigenvalue GAMMA=   0.3142
  1.7535  0.7190  0.3495  0.3495  0.1484  0.1484  0.1115  0.1115  0.1165  0.0822
  0.0822  0.0619  0.0510

 Free energy of the ion-electron system (eV)
  ---------------------------------------------------
  alpha Z        PSCENC =        75.25431677
  Ewald energy   TEWEN  =    138524.03190200
  -Hartree energ DENC   =   -182640.04994671
  -exchange      EXHF   =         0.00000000
  -V(xc)+E(xc)   XCENC  =     -1693.28822914
  PAW double counting   =     46361.09984316   -42838.77164262
  entropy T*S    EENTRO =        -0.00768056
  eigenvalues    EBANDS =     -3050.28585657
  atomic energy  EATOM  =     45086.50549395
  Solvation  Ediel_sol  =         0.00000000
  ---------------------------------------------------
  free energy    TOTEN  =      -175.51179972 eV

  energy without entropy =     -175.50411916  energy(sigma->0) =     -175.50987958


--------------------------------------------------------------------------------------------------------




--------------------------------------- Iteration      1(  19)  ---------------------------------------


    POTLOK:  cpu time   13.1257: real time   13.1281
    SETDIJ:  cpu time    0.1239: real time    0.1239
    EDDIAG:  cpu time   66.7762: real time   66.7758
  RMM-DIIS:  cpu time  174.5617: real time  174.5620
    ORTHCH:  cpu time   13.5982: real time   13.5981
       DOS:  cpu time    0.0015: real time    0.0015
    CHARGE:  cpu time   25.5985: real time   25.5982
    MIXING:  cpu time    0.9730: real time    0.9730
    --------------------------------------------
      LOOP:  cpu time  294.7588: real time  294.7607

 eigenvalue-minimisations  :   700
 total energy-change (2. order) :-0.1073130E+00  (-0.3967410E-01)
 number of electron     559.9999883 magnetization 
 augmentation part      241.2461342 magnetization 

 Broyden mixing:
  rms(total) = 0.11645E+01    rms(broyden)= 0.11643E+01
  rms(prec ) = 0.13562E+01
  weight for this iteration     100.00

 eigenvalues of (default mixing * dielectric matrix)
  average eigenvalue GAMMA=   0.3188
  1.7907  0.8746  0.3887  0.3887  0.1571  0.1571  0.1257  0.1257  0.0927  0.0927
  0.0867  0.0660  0.0660  0.0504

 Free energy of the ion-electron system (eV)
  ---------------------------------------------------
  alpha Z        PSCENC =        75.25431677
  Ewald energy   TEWEN  =    138524.03190200
  -Hartree energ DENC   =   -182650.38830594
  -exchange      EXHF   =         0.00000000
  -V(xc)+E(xc)   XCENC  =     -1693.14953198
  PAW double counting   =     46370.47769219   -42847.38132594
  entropy T*S    EENTRO =         0.06093605
  eigenvalues    EBANDS =     -3041.03028984
  atomic energy  EATOM  =     45086.50549395
  Solvation  Ediel_sol  =         0.00000000
  ---------------------------------------------------
  free energy    TOTEN  =      -175.61911273 eV

  energy without entropy =     -175.68004877  energy(sigma->0) =     -175.63434674


--------------------------------------------------------------------------------------------------------




--------------------------------------- Iteration      1(  20)  ---------------------------------------


    POTLOK:  cpu time   13.3477: real time   13.3502
    SETDIJ:  cpu time    0.1276: real time    0.1275
    EDDIAG:  cpu time   68.6626: real time   68.6649
  RMM-DIIS:  cpu time  176.1068: real time  176.1064
    ORTHCH:  cpu time   13.2319: real time   13.2318
       DOS:  cpu time    0.0015: real time    0.0015
    CHARGE:  cpu time   25.1026: real time   25.1024
    MIXING:  cpu time    0.9926: real time    0.9926
    --------------------------------------------
      LOOP:  cpu time  297.5734: real time  297.5774

 eigenvalue-minimisations  :   698
 total energy-change (2. order) :-0.3694217E-01  (-0.3200929E-01)
 number of electron     559.9999887 magnetization 
 augmentation part      241.2097052 magnetization 

 Broyden mixing:
  rms(total) = 0.12057E+01    rms(broyden)= 0.12055E+01
  rms(prec ) = 0.13938E+01
  weight for this iteration     100.00

 eigenvalues of (default mixing * dielectric matrix)
  average eigenvalue GAMMA=   0.3175
  1.8375  0.9745  0.4037  0.4037  0.1676  0.1676  0.1350  0.1350  0.1011  0.1011
  0.0802  0.0802  0.0622  0.0622  0.0502

 Free energy of the ion-electron system (eV)
  ---------------------------------------------------
  alpha Z        PSCENC =        75.25431677
  Ewald energy   TEWEN  =    138524.03190200
  -Hartree energ DENC   =   -182668.80132812
  -exchange      EXHF   =         0.00000000
  -V(xc)+E(xc)   XCENC  =     -1692.96597411
  PAW double counting   =     46380.51511673   -42856.45885295
  entropy T*S    EENTRO =         0.00759389
  eigenvalues    EBANDS =     -3023.74432306
  atomic energy  EATOM  =     45086.50549395
  Solvation  Ediel_sol  =         0.00000000
  ---------------------------------------------------
  free energy    TOTEN  =      -175.65605489 eV

  energy without entropy =     -175.66364878  energy(sigma->0) =     -175.65795336


--------------------------------------------------------------------------------------------------------




--------------------------------------- Iteration      1(  21)  ---------------------------------------


    POTLOK:  cpu time   12.7534: real time   12.7563
    SETDIJ:  cpu time    0.1185: real time    0.1185
    EDDIAG:  cpu time   66.6826: real time   66.6834
  RMM-DIIS:  cpu time  172.9416: real time  172.9413
    ORTHCH:  cpu time   13.3526: real time   13.3524
       DOS:  cpu time    0.0015: real time    0.0015
    CHARGE:  cpu time   25.0340: real time   25.0336
    MIXING:  cpu time    1.0537: real time    1.0537
    --------------------------------------------
      LOOP:  cpu time  291.9379: real time  291.9406

 eigenvalue-minimisations  :   697
 total energy-change (2. order) : 0.3615100E+00  (-0.2632674E-01)
 number of electron     559.9999893 magnetization 
 augmentation part      241.1867894 magnetization 

 Broyden mixing:
  rms(total) = 0.81084E+00    rms(broyden)= 0.81066E+00
  rms(prec ) = 0.92565E+00
  weight for this iteration     100.00

 eigenvalues of (default mixing * dielectric matrix)
  average eigenvalue GAMMA=   0.3127
  1.8941  0.9832  0.4117  0.4117  0.1849  0.1849  0.1472  0.1472  0.1042  0.1042
  0.0975  0.0824  0.0824  0.0592  0.0592  0.0497

 Free energy of the ion-electron system (eV)
  ---------------------------------------------------
  alpha Z        PSCENC =        75.25431677
  Ewald energy   TEWEN  =    138524.03190200
  -Hartree energ DENC   =   -182683.31376437
  -exchange      EXHF   =         0.00000000
  -V(xc)+E(xc)   XCENC  =     -1692.80923554
  PAW double counting   =     46388.07719953   -42863.25482235
  entropy T*S    EENTRO =        -0.01715611
  eigenvalues    EBANDS =     -3009.76847880
  atomic energy  EATOM  =     45086.50549395
  Solvation  Ediel_sol  =         0.00000000
  ---------------------------------------------------
  free energy    TOTEN  =      -175.29454492 eV

  energy without entropy =     -175.27738881  energy(sigma->0) =     -175.29025589


--------------------------------------------------------------------------------------------------------




--------------------------------------- Iteration      1(  22)  ---------------------------------------


    POTLOK:  cpu time   12.7310: real time   12.7336
    SETDIJ:  cpu time    0.1196: real time    0.1196
    EDDIAG:  cpu time   66.7912: real time   66.7916
  RMM-DIIS:  cpu time  173.0538: real time  173.0537
    ORTHCH:  cpu time   13.1539: real time   13.1537
       DOS:  cpu time    0.0015: real time    0.0015
    CHARGE:  cpu time   24.6839: real time   24.6837
    MIXING:  cpu time    1.1539: real time    1.1539
    --------------------------------------------
      LOOP:  cpu time  291.6888: real time  291.6912

 eigenvalue-minimisations  :   696
 total energy-change (2. order) : 0.2227751E+00  (-0.1902042E-01)
 number of electron     559.9999886 magnetization 
 augmentation part      241.2390956 magnetization 

 Broyden mixing:
  rms(total) = 0.61282E+00    rms(broyden)= 0.61267E+00
  rms(prec ) = 0.70302E+00
  weight for this iteration     100.00

 eigenvalues of (default mixing * dielectric matrix)
  average eigenvalue GAMMA=   0.3165
  1.9605  1.0358  0.4620  0.3406  0.3406  0.1516  0.1516  0.1444  0.1444  0.1108
  0.1108  0.0874  0.0874  0.0844  0.0589  0.0589  0.0496

 Free energy of the ion-electron system (eV)
  ---------------------------------------------------
  alpha Z        PSCENC =        75.25431677
  Ewald energy   TEWEN  =    138524.03190200
  -Hartree energ DENC   =   -182692.10422806
  -exchange      EXHF   =         0.00000000
  -V(xc)+E(xc)   XCENC  =     -1692.68489032
  PAW double counting   =     46392.75419053   -42867.40892641
  entropy T*S    EENTRO =        -0.05192721
  eigenvalues    EBANDS =     -3001.36770105
  atomic energy  EATOM  =     45086.50549395
  Solvation  Ediel_sol  =         0.00000000
  ---------------------------------------------------
  free energy    TOTEN  =      -175.07176980 eV

  energy without entropy =     -175.01984259  energy(sigma->0) =     -175.05878800


--------------------------------------------------------------------------------------------------------




--------------------------------------- Iteration      1(  23)  ---------------------------------------


    POTLOK:  cpu time   13.0735: real time   13.0760
    SETDIJ:  cpu time    0.1189: real time    0.1189
    EDDIAG:  cpu time   66.5314: real time   66.5316
  RMM-DIIS:  cpu time  173.2327: real time  173.2322
    ORTHCH:  cpu time   13.6899: real time   13.6898
       DOS:  cpu time    0.0015: real time    0.0015
    CHARGE:  cpu time   25.9524: real time   25.9522
    MIXING:  cpu time    1.2685: real time    1.2685
    --------------------------------------------
      LOOP:  cpu time  293.8690: real time  293.8708

 eigenvalue-minimisations  :   696
 total energy-change (2. order) : 0.2568596E-02  (-0.1816331E-01)
 number of electron     559.9999882 magnetization 
 augmentation part      241.1834561 magnetization 

 Broyden mixing:
  rms(total) = 0.78268E+00    rms(broyden)= 0.78257E+00
  rms(prec ) = 0.89907E+00
  weight for this iteration     100.00

 eigenvalues of (default mixing * dielectric matrix)
  average eigenvalue GAMMA=   0.3251
[...]
 -0.007  -0.013   0.003   0.004   0.006  -0.007  -0.012   0.003
 -0.012  -0.022   0.006   0.007   0.010  -0.011  -0.021   0.006
 -0.015  -0.005   0.013   0.000   0.022  -0.014  -0.004   0.012
  0.000  -0.023  -0.006  -0.015  -0.000   0.000  -0.022  -0.005
 -0.022   0.000   0.009  -0.005  -0.016  -0.022   0.000   0.009
 -0.018  -0.006   0.015   0.000   0.027  -0.017  -0.005   0.015
  0.000  -0.027  -0.007  -0.018  -0.000   0.000  -0.027  -0.007
 -0.027   0.000   0.011  -0.006  -0.019  -0.026   0.000   0.010
 total augmentation occupancy for first ion, spin component:           1
  1.533  -0.032   0.006   0.016   0.023   0.077  -0.008  -0.002   0.036  -0.009   0.093  -0.032   0.012   0.002   0.003  -0.019
 -0.032   1.402   0.035   0.074  -0.001  -0.007   0.071   0.010  -0.015  -0.008   0.227  -0.070   0.019  -0.000   0.004  -0.006
  0.006   0.035   1.541   0.002   0.002  -0.002   0.011   0.075  -0.012   0.017  -0.046   0.015  -0.003  -0.007  -0.005   0.016
  0.016   0.074   0.002   1.334   0.046   0.033  -0.014  -0.012   0.093  -0.023  -0.078   0.020  -0.001  -0.008  -0.003   0.001
  0.023  -0.001   0.002   0.046   1.437  -0.010  -0.008   0.016  -0.022   0.068  -0.103   0.034  -0.002  -0.009  -0.010   0.026
  0.077  -0.007  -0.002   0.033  -0.010   0.217   0.019  -0.002  -0.045   0.003  -0.048   0.001   0.017  -0.010   0.034  -0.004
 -0.008   0.071   0.011  -0.014  -0.008   0.019   0.264  -0.022  -0.003   0.005  -0.110   0.007  -0.001   0.052  -0.010  -0.000
 -0.002   0.010   0.075  -0.012   0.016  -0.002  -0.022   0.215   0.014  -0.019   0.027  -0.001  -0.012   0.009  -0.018   0.003
  0.036  -0.015  -0.012   0.093  -0.022  -0.045  -0.003   0.014   0.261   0.008   0.043  -0.004  -0.009   0.036   0.004   0.000
 -0.009  -0.008   0.017  -0.023   0.068   0.003   0.005  -0.019   0.008   0.259   0.047  -0.002  -0.038   0.002   0.049   0.007
  0.093   0.227  -0.046  -0.078  -0.103  -0.048  -0.110   0.027   0.043   0.047   0.947  -0.141   0.084   0.013   0.064  -0.013
 -0.032  -0.070   0.015   0.020   0.034   0.001   0.007  -0.001  -0.004  -0.002  -0.141   0.023  -0.014  -0.003  -0.010   0.003
  0.012   0.019  -0.003  -0.001  -0.002   0.017  -0.001  -0.012  -0.009  -0.038   0.084  -0.014   0.029  -0.008  -0.004  -0.003
  0.002  -0.000  -0.007  -0.008  -0.009  -0.010   0.052   0.009   0.036   0.002   0.013  -0.003  -0.008   0.036   0.004   0.000
  0.003   0.004  -0.005  -0.003  -0.010   0.034  -0.010  -0.018   0.004   0.049   0.064  -0.010  -0.004   0.004   0.035  -0.000
 -0.019  -0.006   0.016   0.001   0.026  -0.004  -0.000   0.003   0.000   0.007  -0.013   0.003  -0.003   0.000  -0.000   0.001
  0.001  -0.028  -0.007  -0.018   0.001   0.001  -0.008  -0.001  -0.006  -0.000  -0.004   0.001   0.000  -0.003  -0.000   0.000
 -0.028   0.001   0.012  -0.005  -0.020  -0.006   0.001   0.003  -0.001  -0.007  -0.008   0.001  -0.000  -0.000  -0.003   0.000


------------------------ aborting loop because EDIFF is reached ----------------------------------------


    CHARGE:  cpu time   23.6782: real time   23.6785
    FORLOC:  cpu time    6.5570: real time    6.5571
    FORNL :  cpu time   61.1061: real time   61.1085
    STRESS:  cpu time  187.5216: real time  187.5210
    FORCOR:  cpu time   20.7947: real time   20.7944
    FORHAR:  cpu time    9.1231: real time    9.1230
    MIXING:  cpu time    3.0249: real time    3.0248
    OFIELD:  cpu time    0.0000: real time    0.0000

  FORCE on cell =-STRESS in cart. coord.  units (eV):
  Direction    XX          YY          ZZ          XY          YZ          ZX
  --------------------------------------------------------------------------------------
  Alpha Z    75.25432    75.25432    75.25432
  Ewald   47250.90163 45161.28707 46111.73755 -1136.04074 -1266.57788  1669.07923
  Hartree 61881.12066 60049.33186 60938.60499 -1072.46075 -1131.98896  1575.41316
  E(xc)   -2905.55243 -2906.57710 -2905.99850    -0.34669    -0.84914     0.19398
  Local  ************************************  2202.00447  2386.22260 -3238.70589
  n-local  -874.35133  -882.19356  -883.37175     3.50493     1.95923    -4.81432
  augment  4099.13719  4106.21570  4104.37454    -0.87230     1.37041     2.94408
  Kinetic  7800.46567  7818.23591  7810.58981     2.97380     9.10849    -1.57489
  Fock        0.00000     0.00000     0.00000     0.00000     0.00000     0.00000
  -------------------------------------------------------------------------------------
  Total     -98.35368  -112.49207  -112.12164    -1.23729    -0.75523     2.53535
  in kB      -5.83630    -6.67527    -6.65329    -0.07342    -0.04482     0.15045
  external pressure =       -6.39 kB  Pullay stress =        0.00 kB


 VOLUME and BASIS-vectors are now :
 -----------------------------------------------------------------------------
  energy-cutoff  :      400.00
  volume of cell :    27000.00
      direct lattice vectors                 reciprocal lattice vectors
    30.000000000  0.000000000  0.000000000     0.033333333  0.000000000  0.000000000
     0.000000000 30.000000000  0.000000000     0.000000000  0.033333333  0.000000000
     0.000000000  0.000000000 30.000000000     0.000000000  0.000000000  0.033333333

  length of vectors
    30.000000000 30.000000000 30.000000000     0.033333333  0.033333333  0.033333333


 FORCES acting on ions
    electron-ion (+dipol)            ewald-force                    non-local-force                 convergence-correction
 -----------------------------------------------------------------------------------------------
   0.402E+03 0.972E+03 0.424E+03   -.399E+03 -.969E+03 -.423E+03   -.150E+01 -.181E+01 -.199E+00   0.869E-02 -.841E-02 0.152E-01
   -.970E+03 -.403E+03 0.429E+03   0.967E+03 0.401E+03 -.429E+03   0.182E+01 0.150E+01 -.234E+00   0.299E-03 0.680E-02 0.802E-02
   -.385E+03 0.974E+03 0.432E+03   0.383E+03 -.971E+03 -.431E+03   0.149E+01 -.184E+01 -.240E+00   -.242E-02 -.708E-02 0.153E-01
   0.974E+03 -.396E+03 0.419E+03   -.971E+03 0.394E+03 -.418E+03   -.182E+01 0.152E+01 -.230E+00   -.144E-02 0.903E-02 0.604E-02
   0.516E+01 0.586E+03 0.971E+03   -.516E+01 -.585E+03 -.968E+03   -.595E-03 -.302E+00 -.235E+01   0.372E-02 -.804E-02 0.518E-02
   0.472E+02 0.588E+03 -.964E+03   -.471E+02 -.587E+03 0.961E+03   -.269E+00 -.327E+00 0.239E+01   0.373E-03 0.879E-03 -.752E-02
   0.142E+02 0.114E+04 0.125E+02   -.142E+02 -.114E+04 -.125E+02   0.172E-01 -.309E+01 -.253E-01   0.265E-02 0.501E-02 0.613E-02
   0.114E+04 -.183E+01 0.253E+01   -.113E+04 0.183E+01 -.254E+01   -.311E+01 -.445E-03 -.201E-02   -.426E-02 0.999E-03 0.145E-01
   -.114E+04 -.221E+02 0.315E+02   0.114E+04 0.221E+02 -.315E+02   0.324E+01 0.119E-01 -.431E-01   -.150E-02 0.209E-02 0.760E-02
   0.350E+01 -.114E+04 0.309E+01   -.351E+01 0.113E+04 -.310E+01   0.319E-02 0.311E+01 0.306E-02   0.216E-02 -.464E-02 0.504E-03
   -.574E+03 0.577E+03 0.824E+03   0.572E+03 -.575E+03 -.820E+03   0.157E+01 -.156E+01 -.219E+01   0.582E-03 -.745E-02 0.341E-02
   -.241E+03 0.604E+03 -.842E+03   0.243E+03 -.601E+03 0.838E+03   -.819E+01 -.293E+01 0.417E+01   -.291E-02 -.520E-04 -.406E-02
   0.580E+03 -.580E+03 0.814E+03   -.578E+03 0.578E+03 -.811E+03   -.157E+01 0.156E+01 -.220E+01   0.489E-02 0.114E-01 -.122E-02
   0.585E+03 -.583E+03 -.812E+03   -.582E+03 0.581E+03 0.808E+03   -.155E+01 0.156E+01 0.220E+01   0.536E-02 -.339E-02 -.175E-02
   0.582E+03 0.577E+03 0.816E+03   -.579E+03 -.575E+03 -.813E+03   -.156E+01 -.156E+01 -.220E+01   0.144E-02 -.103E-01 -.126E-02
   0.593E+03 0.578E+03 -.812E+03   -.591E+03 -.575E+03 0.808E+03   -.151E+01 -.153E+01 0.218E+01   0.442E-02 0.582E-03 -.301E-02
   -.576E+03 -.582E+03 0.818E+03   0.573E+03 0.580E+03 -.814E+03   0.157E+01 0.156E+01 -.220E+01   -.343E-03 0.749E-02 0.346E-02
   -.569E+03 -.604E+03 -.812E+03   0.567E+03 0.601E+03 0.808E+03   0.157E+01 0.162E+01 0.218E+01   -.542E-02 -.310E-02 -.350E-02
   0.415E+03 0.976E+03 -.409E+03   -.412E+03 -.973E+03 0.408E+03   -.158E+01 -.182E+01 0.218E+00   0.755E-02 0.308E-03 -.451E-02
   -.968E+03 -.437E+03 -.396E+03   0.965E+03 0.434E+03 0.396E+03   0.186E+01 0.146E+01 0.304E+00   -.668E-02 0.159E-02 0.179E-02
   -.311E+03 0.317E+03 0.469E+03   0.312E+03 -.317E+03 -.470E+03   -.369E+00 0.377E+00 0.510E+00   -.117E-02 -.595E-02 0.147E-01
   0.975E+03 0.393E+03 0.419E+03   -.972E+03 -.390E+03 -.419E+03   -.183E+01 -.151E+01 -.226E+00   -.259E-02 -.810E-02 0.776E-02
   -.391E+03 -.976E+03 0.421E+03   0.388E+03 0.973E+03 -.420E+03   0.153E+01 0.182E+01 -.206E+00   -.534E-03 0.169E-02 0.692E-02
   -.345E+03 0.995E+03 -.387E+03   0.343E+03 -.992E+03 0.387E+03   0.165E+01 -.182E+01 0.206E+00   -.483E-02 -.152E-03 -.570E-02
   0.976E+03 -.397E+03 -.414E+03   -.973E+03 0.395E+03 0.413E+03   -.182E+01 0.151E+01 0.213E+00   0.685E-02 0.337E-02 0.103E-01
   -.969E+03 0.388E+03 0.439E+03   0.966E+03 -.386E+03 -.439E+03   0.183E+01 -.150E+01 -.252E+00   0.164E-02 -.199E-02 0.893E-02
   0.397E+03 -.974E+03 0.419E+03   -.395E+03 0.971E+03 -.419E+03   -.152E+01 0.183E+01 -.239E+00   0.679E-02 0.461E-02 0.576E-02
   0.328E+03 0.318E+03 0.460E+03   -.329E+03 -.319E+03 -.461E+03   0.381E+00 0.367E+00 0.531E+00   0.105E-01 -.692E-02 0.141E-01
   0.198E+02 0.638E+03 0.173E+02   -.198E+02 -.639E+03 -.173E+02   -.195E-01 0.702E+00 -.334E-01   0.340E-02 -.106E-01 0.115E-01
   -.583E+03 -.402E+01 0.973E+03   0.582E+03 0.400E+01 -.970E+03   0.315E+00 0.723E-02 -.235E+01   0.163E-02 0.427E-02 -.107E-03
   -.538E+03 -.844E+02 -.967E+03   0.537E+03 0.850E+02 0.963E+03   0.480E+00 -.359E+00 0.219E+01   -.518E-02 0.288E-02 -.352E-02
   0.589E+03 -.171E+01 0.967E+03   -.589E+03 0.168E+01 -.964E+03   -.317E+00 0.105E-01 -.236E+01   0.368E-02 0.275E-02 -.644E-02
   0.598E+03 -.500E+01 -.964E+03   -.597E+03 0.501E+01 0.960E+03   -.310E+00 -.340E-02 0.235E+01   0.644E-02 0.530E-02 -.312E-02
   0.770E+03 0.760E+03 0.584E+01   -.768E+03 -.758E+03 -.587E+01   -.115E+01 -.116E+01 0.136E-01   0.103E-01 -.853E-02 0.132E-01
   -.755E+03 -.774E+03 0.102E+02   0.753E+03 0.772E+03 -.101E+02   0.111E+01 0.119E+01 -.395E-01   -.400E-02 0.135E-02 0.696E-02
   -.739E+03 0.762E+03 0.501E+02   0.737E+03 -.760E+03 -.502E+02   0.120E+01 -.114E+01 0.110E+00   -.787E-02 -.571E-02 0.883E-02
   0.765E+03 -.764E+03 0.318E+01   -.763E+03 0.762E+03 -.319E+01   -.116E+01 0.114E+01 -.362E-02   0.793E-02 0.487E-02 0.126E-01
   0.431E+01 -.271E+01 0.107E+04   -.431E+01 0.271E+01 -.107E+04   -.341E-02 -.833E-02 -.161E+01   0.403E-02 0.389E-02 0.248E-04
   0.290E+02 -.178E+02 -.107E+04   -.290E+02 0.178E+02 0.107E+04   0.255E-02 0.216E-01 0.163E+01   -.421E-03 0.550E-02 -.479E-02
   0.978E+03 0.392E+03 -.413E+03   -.976E+03 -.390E+03 0.413E+03   -.181E+01 -.152E+01 0.210E+00   0.576E-02 0.344E-03 0.729E-02
   -.388E+03 -.982E+03 -.412E+03   0.386E+03 0.979E+03 0.412E+03   0.150E+01 0.182E+01 0.222E+00   -.107E-02 -.794E-02 0.876E-03
   -.266E+03 0.297E+03 -.419E+03   0.266E+03 -.298E+03 0.420E+03   -.874E-03 0.266E+00 -.352E+00   -.344E-02 -.962E-03 0.138E-02
   0.326E+03 -.325E+03 0.458E+03   -.327E+03 0.325E+03 -.459E+03   0.346E+00 -.350E+00 0.507E+00   0.112E-01 0.983E-02 0.974E-02
   0.341E+03 0.316E+03 -.446E+03   -.342E+03 -.316E+03 0.446E+03   0.279E+00 0.375E+00 -.518E+00   0.618E-02 -.961E-03 0.441E-02
   -.960E+03 0.279E+03 -.265E+03   0.958E+03 -.279E+03 0.267E+03   0.124E+01 0.288E-01 -.129E+01   -.506E-02 0.909E-03 0.225E-02
   0.399E+03 -.977E+03 -.414E+03   -.397E+03 0.974E+03 0.413E+03   -.149E+01 0.182E+01 0.228E+00   0.343E-02 -.822E-02 0.466E-02
   -.315E+03 -.328E+03 0.463E+03   0.315E+03 0.328E+03 -.463E+03   -.343E+00 -.384E+00 0.560E+00   0.595E-03 0.904E-02 0.113E-01
   0.646E+03 -.358E+01 0.500E+01   -.647E+03 0.357E+01 -.502E+01   0.745E+00 0.688E-02 0.542E-02   0.891E-02 0.869E-03 0.205E-01
   -.626E+03 -.206E+02 0.293E+02   0.627E+03 0.206E+02 -.292E+02   -.859E+00 -.189E-02 -.813E-01   -.306E-02 0.330E-02 0.127E-01
   0.304E+01 -.589E+03 0.968E+03   -.300E+01 0.588E+03 -.964E+03   -.195E-01 0.321E+00 -.237E+01   0.343E-02 0.839E-02 0.466E-02
   0.107E+02 -.599E+03 -.964E+03   -.106E+02 0.598E+03 0.960E+03   -.104E-01 0.330E+00 0.234E+01   -.147E-02 -.606E-02 -.349E-02
   0.146E+02 -.905E+01 0.128E+02   -.146E+02 0.904E+01 -.128E+02   -.484E-03 0.682E-02 -.130E-01   0.447E-02 0.101E-02 0.159E-01
   0.333E+03 -.329E+03 -.448E+03   -.333E+03 0.330E+03 0.449E+03   0.374E+00 -.372E+00 -.522E+00   0.586E-02 0.200E-02 0.102E-01
   -.303E+03 -.344E+03 -.442E+03   0.304E+03 0.345E+03 0.442E+03   -.385E+00 -.350E+00 -.527E+00   -.365E-02 0.200E-02 0.445E-02
   0.708E+01 -.646E+03 0.621E+01   -.711E+01 0.647E+03 -.624E+01   0.182E-01 -.745E+00 0.155E-01   0.468E-02 0.159E-02 0.869E-02
   -.271E+03 0.100E+03 -.102E+03   0.261E+03 -.901E+02 0.875E+02   0.921E+01 -.602E+01 0.892E+01   -.191E-02 0.124E-03 -.634E-03
   -.619E+03 0.353E+03 -.470E+03   0.666E+03 -.380E+03 0.509E+03   -.406E+02 0.244E+02 -.349E+02   -.256E-02 0.334E-03 -.102E-02
 -----------------------------------------------------------------------------------------------
   0.412E+02 -.182E+02 0.253E+02   0.455E-12 -.199E-11 -.512E-12   -.413E+02 0.182E+02 -.256E+02   0.861E-01 0.184E-02 0.272E+00
 
 
 POSITION                                       TOTAL-FORCE (eV/Angst)
 -----------------------------------------------------------------------------------
     13.37281      9.84801     12.50759         0.705034      1.109607      0.282722
     20.15199     16.62719     12.50759        -1.099669     -0.702890      0.305346
     16.62719      9.84801     12.50759        -0.705262      1.108538      0.283884
      9.84801     16.62719     12.50759         1.100613     -0.711079      0.298890
     15.00000     11.47521     10.20639         0.003365      0.414478      1.280807
     15.00000     11.47521     19.79360        -0.140420      0.357861     -1.301294
     15.00000      8.28283     15.00000        -0.007025      1.511688     -0.002452
      8.28283     15.00000     15.00000         1.515936     -0.000702      0.003349
     21.71717     15.00000     15.00000        -1.534552      0.000678      0.002539
     15.00000     21.71717     15.00000        -0.000864     -1.515816     -0.001158
     18.35858     11.64142     10.25025        -0.759405      0.755097      1.072672
     18.35858     11.64142     19.74975        -6.237763      0.051359     -0.225965
     11.64142     18.35858     10.25025         0.758883     -0.752376      1.066735
     11.64142     18.35858     19.74975         0.753792     -0.759604     -1.075518
     11.64142     11.64142     10.25025         0.755966      0.753277      1.070124
     11.64142     11.64142     19.74975         0.721591      0.762249     -1.063789
     18.35858     18.35858     10.25025        -0.761357     -0.755623      1.070718
     18.35858     18.35858     19.74975        -0.760046     -0.793823     -1.058857
     13.37281      9.84801     17.49241         0.743015      1.097198     -0.277558
     20.15199     16.62719     17.49241        -1.123233     -0.627605     -0.335590
     16.73751     13.26249     12.54279         0.115578     -0.115797     -0.154385
      9.84801     13.37281     12.50759         1.102531      0.702646      0.289080
     16.62719     20.15199     12.50759        -0.711299     -1.102166      0.281008
     16.62719      9.84801     17.49241        -0.825499      1.047150     -0.333939
      9.84801     16.62719     17.49241         1.107971     -0.703926     -0.286029
     20.15199     13.37281     12.50759        -1.109928      0.707777      0.291730
     13.37281     20.15199     12.50759         0.711660     -1.100554      0.305645
     13.26249     13.26249     12.54279        -0.103294     -0.102630     -0.158592
     15.00000     11.52498     15.00000        -0.009060     -0.227644      0.004697
     18.52479     15.00000     10.20639        -0.416592     -0.004653      1.278790
     18.52479     15.00000     19.79360        -0.367794      0.186815     -1.263118
     11.47521     15.00000     10.20640         0.415698     -0.009995      1.280006
     11.47521     15.00000     19.79360         0.409875      0.003969     -1.284992
     11.49535     11.49535     15.00000         0.830618      0.834005     -0.007928
     18.50465     18.50465     15.00000        -0.815949     -0.843261      0.017943
     18.50465     11.49535     15.00000        -0.837040      0.818123     -0.050072
     11.49535     18.50465     15.00000         0.828345     -0.826611      0.003101
     15.00000     15.00000     10.04368        -0.000259     -0.001597      1.175107
     15.00000     15.00000     19.95633        -0.019850      0.003720     -1.179436
      9.84801     13.37281     17.49241         1.098838      0.715583     -0.291359
     16.62719     20.15199     17.49241        -0.702008     -1.104149     -0.293874
     16.73751     13.26249     17.45721        -0.011713     -0.074708      0.081314
     13.26249     16.73751     12.54279        -0.115836      0.109124     -0.156376
     13.26249     13.26249     17.45721        -0.101744     -0.109055      0.151811
     20.15199     13.37281     17.49241        -1.060247     -0.154070      0.812333
     13.37281     20.15199     17.49241         0.700098     -1.109654     -0.292160
     16.73751     16.73751     12.54279         0.096978      0.127894     -0.178316
     11.52498     15.00000     15.00000        -0.221803      0.003354      0.002002
     18.47502     15.00000     15.00000         0.207069      0.022425     -0.029478
     15.00000     18.52480     10.20639         0.018635     -0.417904      1.281408
     15.00000     18.52480     19.79360        -0.001390     -0.410747     -1.282096
     15.00000     15.00000     15.00000         0.009314     -0.002561      0.008639
     13.26249     16.73751     17.45721        -0.111102      0.108629      0.161733
     16.73751     16.73751     17.45721         0.116045      0.115609      0.145930
     15.00000     18.47502     15.00000        -0.010338      0.227397     -0.007135
     19.99598     11.95121     19.34954        -0.556332      4.275555     -5.837316
     20.76881     11.47959     20.02236         6.411222     -2.890605      4.118718
 -----------------------------------------------------------------------------------
    total drift:                               -0.000169      0.000964      0.000264


--------------------------------------------------------------------------------------------------------



  FREE ENERGIE OF THE ION-ELECTRON SYSTEM (eV)
  ---------------------------------------------------
  free  energy   TOTEN  =      -174.73712073 eV

  energy  without entropy=     -174.68474294  energy(sigma->0) =     -174.72402629
 


--------------------------------------------------------------------------------------------------------


    POTLOK:  cpu time   12.4930: real time   12.4928


--------------------------------------------------------------------------------------------------------


     LOOP+:  cpu time17655.5642: real time17656.1502
    4ORBIT:  cpu time    0.0000: real time    0.0000

 total amount of memory used by VASP MPI-rank0  5486941. kBytes
=======================================================================

   base      :      30000. kBytes
   nonlr-proj:      17126. kBytes
   fftplans  :     924480. kBytes
   grid      :    1872000. kBytes
   one-center:        886. kBytes
   wavefun   :    2642449. kBytes
 
  
  
 General timing and accounting informations for this job:
 ========================================================
  
                  Total CPU time used (sec):    17728.801
                            User time (sec):    16753.699
                          System time (sec):      975.103
                         Elapsed time (sec):    17729.424
  
                   Maximum memory used (kb):     7178668.
                   Average memory used (kb):           0.
  
                          Minor page faults:    829548152
                          Major page faults:            0
                 Voluntary context switches:          615
