  57  57   0   0
  0.4736842E+03  0.3000000E-08  0.3000000E-08  0.3000000E-08  0.5000000E-15
  1.000000000000000E-004
  CAR 
 6_Pd100_top_free_z(O)                   
      1.31441942    -31.30976895  301     -4.12019947      1.00000000
    -31.310  0.0000E+00  0.0000E+00
    -31.201  0.0000E+00  0.0000E+00
    -31.092  0.0000E+00  0.0000E+00
    -30.984  0.5536E-27  0.6020E-28
    -30.875  0.2994E-23  0.3257E-24
    -30.766  0.8822E-20  0.9597E-21
    -30.657  0.1411E-16  0.1536E-17
    -30.549  0.1221E-13  0.1329E-14
    -30.440  0.5694E-11  0.6205E-12
    -30.331  0.1416E-08  0.1546E-09
    -30.222  0.1861E-06  0.2039E-07
    -30.114  0.1269E-04  0.1400E-05
    -30.005  0.4353E-03  0.4873E-04
    -29.896  0.7042E-02  0.8145E-03
    -29.787  0.4482E-01  0.5689E-02
    -29.679  0.1556E-01  0.7381E-02
    -29.570 -0.5869E+00 -0.5644E-01
    -29.461 -0.1047E+00 -0.6783E-01
    -29.352  0.5823E+01  0.5654E+00
    -29.244  0.9919E+01  0.1644E+01
    -29.135  0.4174E+01  0.2098E+01
    -29.026 -0.5807E+00  0.2035E+01
    -28.917 -0.4083E+00  0.1990E+01
    -28.809  0.5121E-01  0.1996E+01
    -28.700  0.3314E-01  0.2000E+01
    -28.591  0.4121E-02  0.2000E+01
    -28.482  0.2144E-03  0.2000E+01
    -28.374  0.5363E-05  0.2000E+01
    -28.265  0.6806E-07  0.2000E+01
    -28.156  0.4503E-09  0.2000E+01
    -28.047  0.1580E-11  0.2000E+01
    -27.939  0.2042E-14  0.2000E+01
    -27.830  0.0000E+00  0.2000E+01
    -27.721  0.0000E+00  0.2000E+01
    -27.612  0.0000E+00  0.2000E+01
    -27.504  0.0000E+00  0.2000E+01
    -27.395  0.0000E+00  0.2000E+01
    -27.286  0.0000E+00  0.2000E+01
    -27.177  0.0000E+00  0.2000E+01
    -27.069  0.0000E+00  0.2000E+01
    -26.960  0.0000E+00  0.2000E+01
    -26.851  0.0000E+00  0.2000E+01
    -26.742  0.0000E+00  0.2000E+01
    -26.634  0.0000E+00  0.2000E+01
    -26.525  0.0000E+00  0.2000E+01
    -26.416  0.0000E+00  0.2000E+01
    -26.307  0.0000E+00  0.2000E+01
    -26.199  0.0000E+00  0.2000E+01
    -26.090  0.0000E+00  0.2000E+01
    -25.981  0.0000E+00  0.2000E+01
    -25.872  0.0000E+00  0.2000E+01
    -25.764  0.0000E+00  0.2000E+01
    -25.655  0.0000E+00  0.2000E+01
    -25.546  0.0000E+00  0.2000E+01
    -25.437  0.0000E+00  0.2000E+01
    -25.329  0.0000E+00  0.2000E+01
    -25.220  0.0000E+00  0.2000E+01
    -25.111  0.0000E+00  0.2000E+01
    -25.002  0.0000E+00  0.2000E+01
    -24.894  0.0000E+00  0.2000E+01
    -24.785  0.0000E+00  0.2000E+01
    -24.676  0.0000E+00  0.2000E+01
    -24.567  0.0000E+00  0.2000E+01
    -24.459  0.0000E+00  0.2000E+01
    -24.350  0.0000E+00  0.2000E+01
    -24.241  0.0000E+00  0.2000E+01
    -24.132  0.0000E+00  0.2000E+01
    -24.024  0.0000E+00  0.2000E+01
    -23.915  0.0000E+00  0.2000E+01
    -23.806  0.0000E+00  0.2000E+01
    -23.697  0.0000E+00  0.2000E+01
    -23.589  0.0000E+00  0.2000E+01
    -23.480  0.0000E+00  0.2000E+01
    -23.371  0.0000E+00  0.2000E+01
    -23.262  0.0000E+00  0.2000E+01
    -23.154  0.0000E+00  0.2000E+01
    -23.045  0.0000E+00  0.2000E+01
    -22.936  0.0000E+00  0.2000E+01
    -22.827  0.0000E+00  0.2000E+01
    -22.719  0.0000E+00  0.2000E+01
    -22.610  0.0000E+00  0.2000E+01
    -22.501  0.0000E+00  0.2000E+01
    -22.392  0.0000E+00  0.2000E+01
    -22.284  0.0000E+00  0.2000E+01
    -22.175  0.0000E+00  0.2000E+01
    -22.066  0.0000E+00  0.2000E+01
    -21.958  0.0000E+00  0.2000E+01
    -21.849  0.0000E+00  0.2000E+01
    -21.740  0.0000E+00  0.2000E+01
    -21.631  0.0000E+00  0.2000E+01
    -21.523  0.0000E+00  0.2000E+01
    -21.414  0.0000E+00  0.2000E+01
    -21.305  0.0000E+00  0.2000E+01
    -21.196  0.0000E+00  0.2000E+01
    -21.088  0.0000E+00  0.2000E+01
    -20.979  0.0000E+00  0.2000E+01
    -20.870  0.0000E+00  0.2000E+01
    -20.761  0.0000E+00  0.2000E+01
    -20.653  0.0000E+00  0.2000E+01
    -20.544  0.0000E+00  0.2000E+01
    -20.435  0.0000E+00  0.2000E+01
    -20.326  0.0000E+00  0.2000E+01
    -20.218  0.0000E+00  0.2000E+01
    -20.109  0.0000E+00  0.2000E+01
    -20.000  0.0000E+00  0.2000E+01
    -19.891  0.0000E+00  0.2000E+01
    -19.783  0.0000E+00  0.2000E+01
    -19.674  0.0000E+00  0.2000E+01
    -19.565  0.0000E+00  0.2000E+01
    -19.456  0.0000E+00  0.2000E+01
    -19.348  0.0000E+00  0.2000E+01
    -19.239  0.0000E+00  0.2000E+01
    -19.130  0.0000E+00  0.2000E+01
    -19.021  0.0000E+00  0.2000E+01
    -18.913  0.0000E+00  0.2000E+01
    -18.804  0.0000E+00  0.2000E+01
    -18.695  0.0000E+00  0.2000E+01
    -18.586  0.0000E+00  0.2000E+01
    -18.478  0.0000E+00  0.2000E+01
    -18.369  0.0000E+00  0.2000E+01
    -18.260  0.0000E+00  0.2000E+01
    -18.151  0.0000E+00  0.2000E+01
    -18.043  0.0000E+00  0.2000E+01
    -17.934  0.0000E+00  0.2000E+01
    -17.825  0.0000E+00  0.2000E+01
    -17.716  0.0000E+00  0.2000E+01
    -17.608  0.0000E+00  0.2000E+01
    -17.499  0.0000E+00  0.2000E+01
    -17.390  0.0000E+00  0.2000E+01
    -17.281  0.0000E+00  0.2000E+01
    -17.173  0.0000E+00  0.2000E+01
    -17.064  0.0000E+00  0.2000E+01
    -16.955  0.0000E+00  0.2000E+01
    -16.846  0.0000E+00  0.2000E+01
    -16.738  0.0000E+00  0.2000E+01
    -16.629  0.0000E+00  0.2000E+01
    -16.520  0.0000E+00  0.2000E+01
    -16.411  0.0000E+00  0.2000E+01
    -16.303  0.0000E+00  0.2000E+01
    -16.194  0.0000E+00  0.2000E+01
    -16.085  0.0000E+00  0.2000E+01
    -15.976  0.0000E+00  0.2000E+01
    -15.868  0.0000E+00  0.2000E+01
    -15.759  0.0000E+00  0.2000E+01
    -15.650  0.0000E+00  0.2000E+01
    -15.541  0.0000E+00  0.2000E+01
    -15.433  0.6150E-25  0.2000E+01
    -15.324  0.2398E-21  0.2000E+01
    -15.215  0.5084E-18  0.2000E+01
    -15.106  0.5842E-15  0.2000E+01
    -14.998  0.3631E-12  0.2000E+01
    -14.889  0.1206E-09  0.2000E+01
    -14.780  0.2130E-07  0.2000E+01
    -14.671  0.1970E-05  0.2000E+01
    -14.563  0.9324E-04  0.2000E+01
    -14.454  0.2158E-02  0.2000E+01
    -14.345  0.2197E-01  0.2003E+01
    -14.236  0.6382E-01  0.2010E+01
    -14.128 -0.2255E+00  0.1985E+01
    -14.019 -0.7982E+00  0.1898E+01
    -13.910  0.2461E+01  0.2166E+01
    -13.801  0.9227E+01  0.3169E+01
    -13.693  0.7579E+01  0.3994E+01
    -13.584  0.8067E+00  0.4081E+01
    -13.475 -0.7548E+00  0.3999E+01
    -13.366 -0.6322E-01  0.3992E+01
    -13.258  0.5731E-01  0.3999E+01
    -13.149  0.1219E-01  0.4000E+01
    -13.040  0.9217E-03  0.4000E+01
    -12.931  0.3200E-04  0.4000E+01
    -12.823  0.5527E-06  0.4000E+01
    -12.714  0.4964E-08  0.4000E+01
    -12.605  0.8553E-08  0.4000E+01
    -12.496  0.9751E-06  0.4000E+01
    -12.388  0.5756E-04  0.4000E+01
    -12.279  0.1692E-02  0.4000E+01
    -12.170  0.2293E-01  0.4003E+01
    -12.061  0.1120E+00  0.4015E+01
    -11.953 -0.1031E+00  0.4004E+01
    -11.844 -0.1478E+01  0.3843E+01
    -11.735  0.1356E+01  0.3990E+01
    -11.627  0.1477E+02  0.5597E+01
    -11.518  0.1869E+02  0.7629E+01
    -11.409  0.5298E+01  0.8205E+01
    -11.300 -0.1574E+01  0.8034E+01
    -11.192 -0.4900E+00  0.7981E+01
    -11.083  0.1269E+00  0.7994E+01
    -10.974  0.4628E-01  0.7999E+01
    -10.865  0.4669E-02  0.8000E+01
    -10.757  0.2061E-03  0.8000E+01
    -10.648  0.4442E-05  0.8000E+01
    -10.539  0.4893E-07  0.8000E+01
    -10.430  0.2821E-09  0.8000E+01
    -10.322  0.1062E-11  0.8000E+01
    -10.213  0.7008E-10  0.8000E+01
    -10.104  0.1318E-07  0.8000E+01
     -9.995  0.1300E-05  0.8000E+01
     -9.887  0.6581E-04  0.8000E+01
     -9.778  0.1639E-02  0.8000E+01
     -9.669  0.1825E-01  0.8002E+01
     -9.560  0.6350E-01  0.8009E+01
     -9.452 -0.1634E+00  0.7991E+01
     -9.343 -0.8131E+00  0.7903E+01
     -9.234  0.1850E+01  0.8104E+01
     -9.125  0.8764E+01  0.9057E+01
     -9.017  0.8205E+01  0.9949E+01
     -8.908  0.1293E+01  0.1009E+02
     -8.799 -0.7962E+00  0.1000E+02
     -8.690 -0.1088E+00  0.9992E+01
     -8.582  0.6111E-01  0.9998E+01
     -8.473  0.1497E-01  0.1000E+02
     -8.364  0.1232E-02  0.1000E+02
     -8.255  0.4596E-04  0.1000E+02
     -8.147  0.8486E-06  0.1000E+02
     -8.038  0.8061E-08  0.1000E+02
     -7.929  0.4024E-10  0.1000E+02
     -7.820  0.2088E-12  0.1000E+02
     -7.712  0.3882E-10  0.1000E+02
     -7.603  0.7808E-08  0.1000E+02
     -7.494  0.8254E-06  0.1000E+02
     -7.385  0.4491E-04  0.1000E+02
     -7.277  0.1209E-02  0.1000E+02
     -7.168  0.1478E-01  0.1000E+02
     -7.059  0.6090E-01  0.1001E+02
     -6.950 -0.1056E+00  0.9997E+01
     -6.842 -0.7939E+00  0.9911E+01
     -6.733  0.1266E+01  0.1005E+02
     -6.624  0.8233E+01  0.1094E+02
     -6.515  0.8988E+01  0.1192E+02
     -6.407  0.1217E+01  0.1205E+02
     -6.298 -0.3102E+01  0.1172E+02
     -6.189  0.7607E+01  0.1254E+02
     -6.080  0.2740E+02  0.1552E+02
     -5.972  0.2020E+02  0.1772E+02
     -5.863  0.7815E+01  0.1857E+02
     -5.754  0.3049E+02  0.2188E+02
     -5.645  0.7968E+02  0.3055E+02
     -5.537  0.1825E+03  0.5039E+02
     -5.428  0.2962E+03  0.8260E+02
     -5.319  0.2844E+03  0.1135E+03
     -5.210  0.2099E+03  0.1364E+03
     -5.102  0.2355E+03  0.1620E+03
     -4.993  0.3365E+03  0.1986E+03
     -4.884  0.3625E+03  0.2380E+03
     -4.775  0.2981E+03  0.2704E+03
     -4.667  0.3211E+03  0.3053E+03
     -4.558  0.4173E+03  0.3507E+03
     -4.449  0.4273E+03  0.3972E+03
     -4.340  0.4538E+03  0.4465E+03
     -4.232  0.5579E+03  0.5072E+03
     -4.123  0.4770E+03  0.5591E+03
     -4.014  0.1883E+03  0.5796E+03
     -3.905  0.1776E+02  0.5815E+03
     -3.797  0.2333E+02  0.5840E+03
     -3.688  0.2987E+02  0.5873E+03
     -3.579  0.9465E+01  0.5883E+03
     -3.470  0.1988E+02  0.5905E+03
     -3.362  0.2734E+02  0.5934E+03
     -3.253  0.4515E+01  0.5939E+03
     -3.144 -0.1847E+01  0.5937E+03
     -3.035  0.3741E+02  0.5978E+03
     -2.927  0.7081E+02  0.6055E+03
     -2.818  0.4179E+02  0.6100E+03
     -2.709  0.9277E+00  0.6101E+03
     -2.600  0.4487E-01  0.6101E+03
     -2.492  0.2406E+02  0.6128E+03
     -2.383  0.2978E+02  0.6160E+03
     -2.274  0.1287E+02  0.6174E+03
     -2.165  0.1070E+02  0.6186E+03
     -2.057  0.3160E+02  0.6220E+03
     -1.948  0.4505E+02  0.6269E+03
     -1.839  0.4460E+02  0.6317E+03
     -1.731  0.4400E+02  0.6365E+03
     -1.622  0.4612E+02  0.6415E+03
     -1.513  0.4632E+02  0.6466E+03
     -1.404  0.2710E+02  0.6495E+03
     -1.296  0.9760E+01  0.6506E+03
     -1.187  0.1978E+02  0.6527E+03
     -1.078  0.2543E+02  0.6555E+03
     -0.969  0.3893E+02  0.6597E+03
     -0.861  0.5708E+02  0.6659E+03
     -0.752  0.3832E+02  0.6701E+03
     -0.643  0.1442E+02  0.6717E+03
     -0.534  0.3710E+01  0.6721E+03
     -0.426 -0.5679E+00  0.6720E+03
     -0.317 -0.4015E+00  0.6720E+03
     -0.208  0.9562E-01  0.6720E+03
     -0.099  0.5576E-01  0.6720E+03
      0.009  0.7717E-02  0.6720E+03
      0.118  0.4558E-03  0.6720E+03
      0.227  0.1301E-04  0.6720E+03
      0.336  0.1887E-06  0.6720E+03
      0.444  0.1428E-08  0.6720E+03
      0.553  0.5721E-11  0.6720E+03
      0.662  0.1225E-13  0.6720E+03
      0.771  0.0000E+00  0.6720E+03
      0.879  0.0000E+00  0.6720E+03
      0.988  0.0000E+00  0.6720E+03
      1.097  0.0000E+00  0.6720E+03
      1.206  0.0000E+00  0.6720E+03
      1.314  0.0000E+00  0.6720E+03
