 vasp.5.4.4.18Apr17-6-g9f103f2a35 (build Sep 03 2018 23:53:05) complex          
  
 executed on             LinuxIFC date 2021.11.28  08:38:53
 running on    1 total cores
 distrk:  each k-point on    1 cores,    1 groups
 distr:  one band on NCORES_PER_BAND=   1 cores,    1 groups


--------------------------------------------------------------------------------------------------------


 INCAR:
 POTCAR:    PAW_PBE Pd 04Jan2005                  
 POTCAR:    PAW_PBE C 08Apr2002                   
 POTCAR:    PAW_PBE O 08Apr2002                   
 POTCAR:    PAW_PBE Pd 04Jan2005                  
   VRHFIN =Pd : s1 d9                                                           
   LEXCH  = PE                                                                  
   EATOM  =   809.7530 eV,   59.5152 Ry                                         
                                                                                
   TITEL  = PAW_PBE Pd 04Jan2005                                                
   LULTRA =        F    use ultrasoft PP ?                                      
   IUNSCR =        1    unscreen: 0-lin 1-nonlin 2-no                           
   RPACOR =    2.000    partial core radius                                     
   POMASS =  106.420; ZVAL   =   10.000    mass and valenz                      
   RCORE  =    2.600    outmost cutoff radius                                   
   RWIGS  =    2.710; RWIGS  =    1.434    wigner-seitz radius (au A)           
   ENMAX  =  250.925; ENMIN  =  188.194 eV                                      
   ICORE  =        3    local potential                                         
   LCOR   =        T    correct aug charges                                     
   LPAW   =        T    paw PP                                                  
   EAUG   =  416.230                                                            
   DEXC   =    0.000                                                            
   RMAX   =    2.653    core radius for proj-oper                               
   RAUG   =    1.300    factor for augmentation sphere                          
   RDEP   =    2.734    radius for radial grids                                 
   RDEPT  =    2.103    core radius for aug-charge                              
                                                                                
   Atomic configuration                                                         
   12 entries                                                                   
     n  l   j            E        occ.                                          
     1  0  0.50    -24164.6631   2.0000                                         
     2  0  0.50     -3530.9218   2.0000                                         
     2  1  1.50     -3165.6822   6.0000                                         
     3  0  0.50      -639.4577   2.0000                                         
     3  1  1.50      -519.4532   6.0000                                         
     3  2  2.50      -328.9757  10.0000                                         
     4  0  0.50       -88.7014   2.0000                                         
     4  1  1.50       -54.4540   6.0000                                         
     4  2  2.50        -6.6878   9.0000                                         
     5  0  0.50        -4.3543   1.0000                                         
     5  1  0.50        -1.3606   0.0000                                         
     4  3  2.50        -1.3606   0.0000                                         
   Description                                                                  
     l       E           TYP  RCUT    TYP  RCUT                                 
     2     -6.6878251     23  2.400                                             
     2     -8.0484077     23  2.400                                             
     0     -4.3542939     23  2.400                                             
     0      4.3406793     23  2.400                                             
     1     -4.0817478     23  2.600                                             
     1     15.8380318     23  2.600                                             
     3     -4.0817478     23  2.400                                             
  local pseudopotential read in
  partial core-charges read in
  partial kinetic energy density read in
  atomic valenz-charges read in
  non local Contribution for L=           2  read in
    real space projection operators read in
  non local Contribution for L=           2  read in
    real space projection operators read in
  non local Contribution for L=           0  read in
    real space projection operators read in
  non local Contribution for L=           0  read in
    real space projection operators read in
  non local Contribution for L=           1  read in
    real space projection operators read in
  non local Contribution for L=           1  read in
    real space projection operators read in
    PAW grid and wavefunctions read in
 
   number of l-projection  operators is LMAX  =           6
   number of lm-projection operators is LMMAX =          18
 
 POTCAR:    PAW_PBE C 08Apr2002                   
   VRHFIN =C: s2p2                                                              
   LEXCH  = PE                                                                  
   EATOM  =   147.1560 eV,   10.8157 Ry                                         
                                                                                
   TITEL  = PAW_PBE C 08Apr2002                                                 
   LULTRA =        F    use ultrasoft PP ?                                      
   IUNSCR =        1    unscreen: 0-lin 1-nonlin 2-no                           
   RPACOR =    1.200    partial core radius                                     
   POMASS =   12.011; ZVAL   =    4.000    mass and valenz                      
   RCORE  =    1.500    outmost cutoff radius                                   
   RWIGS  =    1.630; RWIGS  =    0.863    wigner-seitz radius (au A)           
   ENMAX  =  400.000; ENMIN  =  300.000 eV                                      
   ICORE  =        2    local potential                                         
   LCOR   =        T    correct aug charges                                     
   LPAW   =        T    paw PP                                                  
   EAUG   =  644.873                                                            
   DEXC   =    0.000                                                            
   RMAX   =    1.529    core radius for proj-oper                               
   RAUG   =    1.300    factor for augmentation sphere                          
   RDEP   =    1.501    radius for radial grids                                 
   RDEPT  =    1.300    core radius for aug-charge                              
                                                                                
   Atomic configuration                                                         
    4 entries                                                                   
     n  l   j            E        occ.                                          
     1  0  0.50      -273.3789   2.0000                                         
     2  0  0.50       -13.7508   2.0000                                         
     2  1  0.50        -5.2854   2.0000                                         
     3  2  1.50        -5.4423   0.0000                                         
   Description                                                                  
     l       E           TYP  RCUT    TYP  RCUT                                 
     0    -13.7508458     23  1.200                                             
     0     -8.2022199     23  1.200                                             
     1     -5.2854383     23  1.500                                             
     1     34.0145650     23  1.500                                             
     2     -5.4423304      7  1.500                                             
  local pseudopotential read in
  partial core-charges read in
  partial kinetic energy density read in
  atomic valenz-charges read in
  non local Contribution for L=           0  read in
    real space projection operators read in
  non local Contribution for L=           0  read in
    real space projection operators read in
  non local Contribution for L=           1  read in
    real space projection operators read in
  non local Contribution for L=           1  read in
    real space projection operators read in
    PAW grid and wavefunctions read in
 
   number of l-projection  operators is LMAX  =           4
   number of lm-projection operators is LMMAX =           8
 
 POTCAR:    PAW_PBE O 08Apr2002                   
   VRHFIN =O: s2p4                                                              
   LEXCH  = PE                                                                  
   EATOM  =   432.3788 eV,   31.7789 Ry                                         
                                                                                
   TITEL  = PAW_PBE O 08Apr2002                                                 
   LULTRA =        F    use ultrasoft PP ?                                      
   IUNSCR =        1    unscreen: 0-lin 1-nonlin 2-no                           
   RPACOR =    1.200    partial core radius                                     
   POMASS =   16.000; ZVAL   =    6.000    mass and valenz                      
   RCORE  =    1.520    outmost cutoff radius                                   
   RWIGS  =    1.550; RWIGS  =    0.820    wigner-seitz radius (au A)           
   ENMAX  =  400.000; ENMIN  =  300.000 eV                                      
   ICORE  =        2    local potential                                         
   LCOR   =        T    correct aug charges                                     
   LPAW   =        T    paw PP                                                  
   EAUG   =  605.392                                                            
   DEXC   =    0.000                                                            
   RMAX   =    1.553    core radius for proj-oper                               
   RAUG   =    1.300    factor for augmentation sphere                          
   RDEP   =    1.550    radius for radial grids                                 
   RDEPT  =    1.329    core radius for aug-charge                              
                                                                                
   Atomic configuration                                                         
    4 entries                                                                   
     n  l   j            E        occ.                                          
     1  0  0.50      -514.6923   2.0000                                         
     2  0  0.50       -23.9615   2.0000                                         
     2  1  0.50        -9.0305   4.0000                                         
     3  2  1.50        -9.5241   0.0000                                         
   Description                                                                  
     l       E           TYP  RCUT    TYP  RCUT                                 
     0    -23.9615318     23  1.200                                             
     0     -9.5240782     23  1.200                                             
     1     -9.0304911     23  1.520                                             
     1      8.1634956     23  1.520                                             
     2     -9.5240782      7  1.500                                             
  local pseudopotential read in
  partial core-charges read in
  partial kinetic energy density read in
  kinetic energy density of atom read in
  atomic valenz-charges read in
  non local Contribution for L=           0  read in
    real space projection operators read in
  non local Contribution for L=           0  read in
    real space projection operators read in
  non local Contribution for L=           1  read in
    real space projection operators read in
  non local Contribution for L=           1  read in
    real space projection operators read in
    PAW grid and wavefunctions read in
 
   number of l-projection  operators is LMAX  =           4
   number of lm-projection operators is LMMAX =           8
 
 Optimization of the real space projectors (new method)

 maximal supplied QI-value         = 14.36
 optimisation between [QCUT,QGAM] = [ 10.20, 20.39] = [ 29.12,116.47] Ry 
 Optimized for a Real-space Cutoff    1.51 Angstroem

   l    n(q)    QCUT    max X(q) W(low)/X(q) W(high)/X(q)  e(spline) 
   2      8    10.197    59.108    0.26E-03    0.14E-03    0.96E-07
   2      8    10.197    58.101    0.27E-03    0.14E-03    0.98E-07
   0      9    10.197   102.235    0.54E-04    0.60E-05    0.72E-07
   0      9    10.197    58.388    0.52E-04    0.60E-05    0.68E-07
   1      9    10.197    22.191    0.18E-03    0.25E-03    0.79E-07
   1      9    10.197    15.590    0.15E-03    0.21E-03    0.69E-07
 Optimization of the real space projectors (new method)

 maximal supplied QI-value         = 25.13
 optimisation between [QCUT,QGAM] = [ 10.05, 20.36] = [ 28.30,116.06] Ry 
 Optimized for a Real-space Cutoff    1.30 Angstroem

   l    n(q)    QCUT    max X(q) W(low)/X(q) W(high)/X(q)  e(spline) 
   0      8    10.053   115.676    0.49E-03    0.72E-03    0.18E-06
   0      8    10.053    87.132    0.49E-03    0.71E-03    0.18E-06
   1      7    10.053     4.429    0.32E-03    0.31E-03    0.18E-06
   1      7    10.053     2.733    0.23E-03    0.19E-03    0.20E-06
 Optimization of the real space projectors (new method)

 maximal supplied QI-value         = 24.76
 optimisation between [QCUT,QGAM] = [ 10.15, 20.30] = [ 28.85,115.39] Ry 
 Optimized for a Real-space Cutoff    1.38 Angstroem

   l    n(q)    QCUT    max X(q) W(low)/X(q) W(high)/X(q)  e(spline) 
   0      8    10.150    20.381    0.22E-03    0.32E-03    0.29E-06
   0      8    10.150    15.268    0.23E-03    0.35E-03    0.30E-06
   1      8    10.150     5.964    0.46E-03    0.53E-03    0.21E-06
   1      8    10.150     5.382    0.38E-03    0.45E-03    0.19E-06

 ----------------------------------------------------------------------------- 
|                                                                             |
|  ADVICE TO THIS USER RUNNING 'VASP/VAMP'   (HEAR YOUR MASTER'S VOICE ...):  |
|                                                                             |
|      You enforced a specific xc-type in the INCAR file,                     |
|      a different type was found on the POTCAR file                          |
|          I HOPE YOU KNOW, WHAT YOU ARE  DOING                               |
|                                                                             |
 ----------------------------------------------------------------------------- 

  PAW_PBE Pd 04Jan2005                  :
 energy of atom  1       EATOM= -809.7530
 kinetic energy error for atom=    0.0091 (will be added to EATOM!!)
  PAW_PBE C 08Apr2002                   :
 energy of atom  2       EATOM= -147.1560
 kinetic energy error for atom=    0.0288 (will be added to EATOM!!)
  PAW_PBE O 08Apr2002                   :
 energy of atom  3       EATOM= -432.3788
 kinetic energy error for atom=    0.1156 (will be added to EATOM!!)
 
 
 POSCAR: Pd55PES                                 
  positions in cartesian coordinates
  No initial velocities read in
 exchange correlation table for  LEXCH =        9
   RHO(1)=    0.500       N(1)  =     2000
   RHO(2)=  100.500       N(2)  =     4000
 


--------------------------------------------------------------------------------------------------------


 ion  position               nearest neighbor table
   1  0.446  0.328  0.417-   3 3.25   5 3.25   7 3.36  15 3.36  29 3.42  28 3.42
   2  0.672  0.554  0.417-  26 3.25  30 3.25  17 3.36   9 3.36  47 3.42  49 3.42
   3  0.554  0.328  0.417-   1 3.25   5 3.25   7 3.36  11 3.36  29 3.42  21 3.42
   4  0.328  0.554  0.417-  32 3.25  22 3.25  13 3.36   8 3.36  43 3.42  48 3.42
   5  0.500  0.383  0.340-   1 3.25   3 3.25  11 3.36  15 3.36  21 3.42  28 3.42
   6  0.500  0.383  0.660-  24 3.25  19 3.25  16 3.36  12 3.36  42 3.42  44 3.42
   7  0.500  0.276  0.500-  29 3.24   3 3.36   1 3.36  19 3.36  24 3.36
   8  0.276  0.500  0.500-  48 3.24  22 3.36  40 3.36   4 3.36  25 3.36
   9  0.724  0.500  0.500-  49 3.24  26 3.36  45 3.36   2 3.36  20 3.36
  10  0.500  0.724  0.500-  55 3.24  27 3.36  23 3.36  46 3.36  41 3.36
  11  0.612  0.388  0.342-  21 3.24   5 3.36   3 3.36  30 3.36  26 3.36
  12  0.612  0.388  0.658-  42 3.24  24 3.36  45 3.36   6 3.36  31 3.36
  13  0.388  0.612  0.342-  43 3.24  32 3.36  50 3.36   4 3.36  27 3.36
  14  0.388  0.612  0.658-  53 3.24  25 3.36  33 3.36  51 3.36  46 3.36
  15  0.388  0.388  0.342-  28 3.24   5 3.36   1 3.36  32 3.36  22 3.36
  16  0.388  0.388  0.658-  44 3.24  19 3.36  40 3.36   6 3.36  33 3.36
  17  0.612  0.612  0.342-  47 3.24  30 3.36  50 3.36   2 3.36  23 3.36
  18  0.612  0.612  0.658-  54 3.24  31 3.36  20 3.36  51 3.36  41 3.36
  19  0.446  0.328  0.583-   6 3.25  24 3.25  16 3.36   7 3.36  44 3.42  29 3.42
  20  0.672  0.554  0.583-  31 3.25  45 3.25  18 3.36   9 3.36  54 3.42  49 3.42
  21  0.558  0.442  0.418-  11 3.24   5 3.42   3 3.42  30 3.42  26 3.42
  22  0.328  0.446  0.417-   4 3.25  32 3.25   8 3.36  15 3.36  48 3.42  28 3.42
  23  0.554  0.672  0.417-  27 3.25  50 3.25  10 3.36  17 3.36  55 3.42  47 3.42
  24  0.554  0.328  0.583-   6 3.25  19 3.25  12 3.36   7 3.36  42 3.42  29 3.42
  25  0.328  0.554  0.583-  33 3.25  40 3.25  14 3.36   8 3.36  53 3.42  48 3.42
  26  0.672  0.446  0.417-   2 3.25  30 3.25   9 3.36  11 3.36  49 3.42  21 3.42
  27  0.446  0.672  0.417-  23 3.25  50 3.25  10 3.36  13 3.36  55 3.42  43 3.42
  28  0.442  0.442  0.418-  15 3.24   5 3.42   1 3.42  32 3.42  22 3.42
  29  0.500  0.384  0.500-   7 3.24   3 3.42   1 3.42  24 3.42  19 3.42
  30  0.617  0.500  0.340-   2 3.25  26 3.25  17 3.36  11 3.36  47 3.42  21 3.42
  31  0.617  0.500  0.660-  20 3.25  45 3.25  18 3.36  12 3.36  54 3.42  42 3.42
  32  0.383  0.500  0.340-   4 3.25  22 3.25  13 3.36  15 3.36  43 3.42  28 3.42
  33  0.383  0.500  0.660-  25 3.25  40 3.25  14 3.36  16 3.36  53 3.42  44 3.42
  34  0.383  0.383  0.500-
  35  0.617  0.617  0.500-
  36  0.617  0.383  0.500-
  37  0.383  0.617  0.500-
  38  0.500  0.500  0.335-
  39  0.500  0.500  0.665-
  40  0.328  0.446  0.583-  33 3.25  25 3.25  16 3.36   8 3.36  44 3.42  48 3.42
  41  0.554  0.672  0.583-  46 3.25  51 3.25  10 3.36  18 3.36  54 3.42  55 3.42
  42  0.558  0.442  0.582-  12 3.24   6 3.42  24 3.42  31 3.42  45 3.42
  43  0.442  0.558  0.418-  13 3.24   4 3.42  32 3.42  27 3.42  50 3.42
  44  0.442  0.442  0.582-  16 3.24   6 3.42  19 3.42  33 3.42  40 3.42
  45  0.672  0.446  0.583-  20 3.25  31 3.25   9 3.36  12 3.36  49 3.42  42 3.42
  46  0.446  0.672  0.583-  41 3.25  51 3.25  10 3.36  14 3.36  53 3.42  55 3.42
  47  0.558  0.558  0.418-  17 3.24   2 3.42  30 3.42  23 3.42  50 3.42
  48  0.384  0.500  0.500-   8 3.24   4 3.42  22 3.42  25 3.42  40 3.42
  49  0.616  0.500  0.500-   9 3.24   2 3.42  26 3.42  20 3.42  45 3.42
  50  0.500  0.617  0.340-  27 3.25  23 3.25  13 3.36  17 3.36  43 3.42  47 3.42
  51  0.500  0.617  0.660-  56 1.78  46 3.25  41 3.25  18 3.36  14 3.36  53 3.42  54 3.42
  52  0.500  0.500  0.500-
  53  0.442  0.558  0.582-  14 3.24  25 3.42  33 3.42  51 3.42  46 3.42
  54  0.558  0.558  0.582-  18 3.24  31 3.42  20 3.42  51 3.42  41 3.42
  55  0.500  0.616  0.500-  10 3.24  23 3.42  27 3.42  41 3.42  46 3.42
  56  0.535  0.637  0.703-  57 1.13  51 1.78
  57  0.541  0.658  0.734-  56 1.13
 
  LATTYP: Found a simple cubic cell.
 ALAT       =    30.0000000000
  
  Lattice vectors:
  
 A1 = (  30.0000000000,   0.0000000000,   0.0000000000)
 A2 = (   0.0000000000,  30.0000000000,   0.0000000000)
 A3 = (   0.0000000000,   0.0000000000,  30.0000000000)


Analysis of symmetry for initial positions (statically):
=====================================================================
 Subroutine PRICEL returns:
 Original cell was already a primitive cell.
 

 Routine SETGRP: Setting up the symmetry group for a 
 simple cubic supercell.


 Subroutine GETGRP returns: Found  1 space group operations
 (whereof  1 operations were pure point group operations)
 out of a pool of 48 trial point group operations.


The static configuration has the point symmetry C_1 .


Analysis of symmetry for dynamics (positions and initial velocities):
=====================================================================
 Subroutine PRICEL returns:
 Original cell was already a primitive cell.
 

 Routine SETGRP: Setting up the symmetry group for a 
 simple cubic supercell.


 Subroutine GETGRP returns: Found  1 space group operations
 (whereof  1 operations were pure point group operations)
 out of a pool of 48 trial point group operations.


The dynamic configuration has the point symmetry C_1 .


Analysis of constrained symmetry for selective dynamics:
=====================================================================
 Subroutine PRICEL returns:
 Original cell was already a primitive cell.
 

 Routine SETGRP: Setting up the symmetry group for a 
 simple cubic supercell.


 Subroutine GETGRP returns: Found  1 space group operations
 (whereof  1 operations were pure point group operations)
 out of a pool of 48 trial point group operations.


The constrained configuration has the point symmetry C_1 .


 Subroutine INISYM returns: Found  1 space group operations
 (whereof  1 operations are pure point group operations),
 and found     1 'primitive' translations

 
 
 KPOINTS: K-points                                

Automatic generation of k-mesh.
Space group operators:
 irot       det(A)        alpha          n_x          n_y          n_z        tau_x        tau_y        tau_z
    1     1.000000     0.000000     1.000000     0.000000     0.000000     0.000000     0.000000     0.000000
 
 Subroutine IBZKPT returns following result:
 ===========================================
 
 Found      1 irreducible k-points:
 
 Following reciprocal coordinates:
            Coordinates               Weight
  0.000000  0.000000  0.000000      1.000000
 
 Following cartesian coordinates:
            Coordinates               Weight
  0.000000  0.000000  0.000000      1.000000
 


--------------------------------------------------------------------------------------------------------




 Dimension of arrays:
   k-points           NKPTS =      1   k-points in BZ     NKDIM =      1   number of bands    NBANDS=    336
   number of dos      NEDOS =    301   number of ions     NIONS =     57
   non local maximal  LDIM  =      6   non local SUM 2l+1 LMDIM =     18
   total plane-waves  NPLWV = ******
   max r-space proj   IRMAX =   1847   max aug-charges    IRDMAX=   6262
   dimension x,y,z NGX =   150 NGY =  150 NGZ =  150
   dimension x,y,z NGXF=   300 NGYF=  300 NGZF=  300
   support grid    NGXF=   300 NGYF=  300 NGZF=  300
   ions per type =              55   1   1
   NGX,Y,Z   is equivalent  to a cutoff of   8.31,  8.31,  8.31 a.u.
   NGXF,Y,Z  is equivalent  to a cutoff of  16.62, 16.62, 16.62 a.u.

 SYSTEM =  6_Pd100_top_free_z(O)                   
 POSCAR =  Pd55PES                                 

 Startparameter for this run:
   NWRITE =      2    write-flag & timer
   PREC   = normal    normal or accurate (medium, high low for compatibility)
   ISTART =      0    job   : 0-new  1-cont  2-samecut
   ICHARG =      2    charge: 1-file 2-atom 10-const
   ISPIN  =      1    spin polarized calculation?
   LNONCOLLINEAR =      F non collinear calculations
   LSORBIT =      F    spin-orbit coupling
   INIWAV =      1    electr: 0-lowe 1-rand  2-diag
   LASPH  =      F    aspherical Exc in radial PAW
   METAGGA=      F    non-selfconsistent MetaGGA calc.

 Electronic Relaxation 1
   ENCUT  =  400.0 eV  29.40 Ry    5.42 a.u.  48.92 48.92 48.92*2*pi/ulx,y,z
   ENINI  =  400.0     initial cutoff
   ENAUG  =  644.9 eV  augmentation charge cutoff
   NELM   =    100;   NELMIN=  6; NELMDL= -5     # of ELM steps 
   EDIFF  = 0.1E-03   stopping-criterion for ELM
   LREAL  =      T    real-space projection
   NLSPLINE    = F    spline interpolate recip. space projectors
   LCOMPAT=      F    compatible to vasp.4.4
   GGA_COMPAT  = T    GGA compatible to vasp.4.4-vasp.4.6
   LMAXPAW     = -100 max onsite density
   LMAXMIX     =    2 max onsite mixed and CHGCAR
   VOSKOWN=      0    Vosko Wilk Nusair interpolation
   ROPT   =   -0.00050  -0.00050  -0.00050
 Ionic relaxation
   EDIFFG = -.5E-01   stopping-criterion for IOM
   NSW    =      0    number of steps for IOM
   NBLOCK =      1;   KBLOCK =      1    inner block; outer block 
   IBRION =     -1    ionic relax: 0-MD 1-quasi-New 2-CG
   NFREE  =      1    steps in history (QN), initial steepest desc. (CG)
   ISIF   =      2    stress and relaxation
   IWAVPR =     10    prediction:  0-non 1-charg 2-wave 3-comb
   ISYM   =      2    0-nonsym 1-usesym 2-fastsym
   LCORR  =      T    Harris-Foulkes like correction to forces

   POTIM  = 0.5000    time-step for ionic-motion
   TEIN   =    0.0    initial temperature
   TEBEG  =    0.0;   TEEND  =   0.0 temperature during run
   SMASS  =  -3.00    Nose mass-parameter (am)
   estimated Nose-frequenzy (Omega)   =  0.10E-29 period in steps =****** mass=  -0.206E-25a.u.
   SCALEE = 1.0000    scale energy and forces
   NPACO  =    256;   APACO  = 16.0  distance and # of slots for P.C.
   PSTRESS=    0.0 pullay stress

  Mass of Ions in am
   POMASS = 106.42 12.01 16.00
  Ionic Valenz
   ZVAL   =  10.00  4.00  6.00
  Atomic Wigner-Seitz radii
   RWIGS  =  -1.00 -1.00 -1.00
  virtual crystal weights 
   VCA    =   1.00  1.00  1.00
   NELECT =     560.0000    total number of electrons
   NUPDOWN=      -1.0000    fix difference up-down

 DOS related values:
   EMIN   =  10.00;   EMAX   =-10.00  energy-range for DOS
   EFERMI =   0.00
   ISMEAR =     2;   SIGMA  =   0.20  broadening in eV -4-tet -1-fermi 0-gaus

 Electronic relaxation 2 (details)
   IALGO  =     68    algorithm
   LDIAG  =      T    sub-space diagonalisation (order eigenvalues)
   LSUBROT=      F    optimize rotation matrix (better conditioning)
   TURBO    =      0    0=normal 1=particle mesh
   IRESTART =      0    0=no restart 2=restart with 2 vectors
   NREBOOT  =      0    no. of reboots
   NMIN     =      0    reboot dimension
   EREF     =   0.00    reference energy to select bands
   IMIX   =      4    mixing-type and parameters
     AMIX     =   0.40;   BMIX     =  1.00
     AMIX_MAG =   1.60;   BMIX_MAG =  1.00
     AMIN     =   0.10
     WC   =   100.;   INIMIX=   1;  MIXPRE=   1;  MAXMIX= -45

 Intra band minimization:
   WEIMIN = 0.0000     energy-eigenvalue tresh-hold
   EBREAK =  0.74E-07  absolut break condition
   DEPER  =   0.30     relativ break condition  

   TIME   =   0.40     timestep for ELM

  volume/ion in A,a.u.               =     473.68      3196.58
  Fermi-wavevector in a.u.,A,eV,Ry     =   0.449797  0.849992  2.752691  0.202317
  Thomas-Fermi vector in A             =   1.430086
 
 Write flags
   LWAVE        =      F    write WAVECAR
   LDOWNSAMPLE  =      F    k-point downsampling of WAVECAR
   LCHARG       =      F    write CHGCAR
   LVTOT        =      F    write LOCPOT, total local potential
   LVHAR        =      F    write LOCPOT, Hartree potential only
   LELF         =      F    write electronic localiz. function (ELF)
   LORBIT       =      0    0 simple, 1 ext, 2 COOP (PROOUT), +10 PAW based schemes


 Dipole corrections
   LMONO  =      F    monopole corrections only (constant potential shift)
   LDIPOL =      F    correct potential (dipole corrections)
   IDIPOL =      0    1-x, 2-y, 3-z, 4-all directions 
   EPSILON=  1.0000000 bulk dielectric constant

 Exchange correlation treatment:
   GGA     =    RP    GGA type
   LEXCH   =     9    internal setting for exchange type
   VOSKOWN=      0    Vosko Wilk Nusair interpolation
   LHFCALC =     F    Hartree Fock is set to
   LHFONE  =     F    Hartree Fock one center treatment
   AEXX    =    0.0000 exact exchange contribution

 Linear response parameters
   LEPSILON=     F    determine dielectric tensor
   LRPA    =     F    only Hartree local field effects (RPA)
   LNABLA  =     F    use nabla operator in PAW spheres
   LVEL    =     F    velocity operator in full k-point grid
   LINTERFAST=   F  fast interpolation
   KINTER  =     0    interpolate to denser k-point grid
   CSHIFT  =0.1000    complex shift for real part using Kramers Kronig
   OMEGAMAX=  -1.0    maximum frequency
   DEG_THRESHOLD= 0.2000000E-02 threshold for treating states as degnerate
   RTIME   =   -0.100 relaxation time in fs
  (WPLASMAI=    0.000 imaginary part of plasma frequency in eV, 0.658/RTIME)
   DFIELD  = 0.0000000 0.0000000 0.0000000 field for delta impulse in time
 
 Orbital magnetization related:
   ORBITALMAG=     F  switch on orbital magnetization
   LCHIMAG   =     F  perturbation theory with respect to B field
   DQ        =  0.001000  dq finite difference perturbation B field
   LLRAUG    =     F  two centre corrections for induced B field



--------------------------------------------------------------------------------------------------------


 Static calculation
 charge density and potential will be updated during run
 non-spin polarized calculation
 RMM-DIIS sequential band-by-band and
  variant of blocked Davidson during initial phase
 perform sub-space diagonalisation
    before iterative eigenvector-optimisation
 modified Broyden-mixing scheme, WC =      100.0
 initial mixing is a Kerker type mixing with AMIX =  0.4000 and BMIX =      1.0000
 Hartree-type preconditioning will be used
 using additional bands           56
 real space projection scheme for non local part
 use partial core corrections
 calculate Harris-corrections to forces 
   (improved forces if not selfconsistent)
 use gradient corrections 
 use of overlap-Matrix (Vanderbilt PP)
 Methfessel and Paxton  Order N= 2 SIGMA  =   0.20


--------------------------------------------------------------------------------------------------------


  energy-cutoff  :      400.00
  volume of cell :    27000.00
      direct lattice vectors                 reciprocal lattice vectors
    30.000000000  0.000000000  0.000000000     0.033333333  0.000000000  0.000000000
     0.000000000 30.000000000  0.000000000     0.000000000  0.033333333  0.000000000
     0.000000000  0.000000000 30.000000000     0.000000000  0.000000000  0.033333333

  length of vectors
    30.000000000 30.000000000 30.000000000     0.033333333  0.033333333  0.033333333


 
 k-points in units of 2pi/SCALE and weight: K-points                                
   0.00000000  0.00000000  0.00000000       1.000
 
 k-points in reciprocal lattice and weights: K-points                                
   0.00000000  0.00000000  0.00000000       1.000
 
 position of ions in fractional coordinates (direct lattice) 
   0.44576020  0.32826710  0.41691983
   0.67173288  0.55423978  0.41691983
   0.55423980  0.32826710  0.41691983
   0.32826712  0.55423978  0.41691983
   0.50000000  0.38250690  0.34021317
   0.50000000  0.38250690  0.65978680
   0.50000000  0.27609440  0.50000000
   0.27609443  0.49999998  0.50000000
   0.72390557  0.49999998  0.50000000
   0.50000000  0.72390555  0.50000000
   0.61195280  0.38804720  0.34167483
   0.61195280  0.38804720  0.65832513
   0.38804722  0.61195278  0.34167483
   0.38804722  0.61195278  0.65832513
   0.38804720  0.38804720  0.34167483
   0.38804720  0.38804720  0.65832513
   0.61195278  0.61195278  0.34167483
   0.61195278  0.61195278  0.65832513
   0.44576020  0.32826710  0.58308023
   0.67173288  0.55423978  0.58308023
   0.55791699  0.44208301  0.41809300
   0.32826705  0.44576024  0.41691983
   0.55423973  0.67173293  0.41691983
   0.55423980  0.32826710  0.58308023
   0.32826712  0.55423978  0.58308023
   0.67173295  0.44576024  0.41691983
   0.44576027  0.67173293  0.41691983
   0.44208301  0.44208301  0.41809300
   0.50000000  0.38416601  0.50000000
   0.61749315  0.50000005  0.34021317
   0.61749315  0.50000005  0.65978680
   0.38250685  0.50000005  0.34021317
   0.38250685  0.50000005  0.65978680
   0.38317830  0.38317830  0.50000000
   0.61682172  0.61682172  0.50000000
   0.61682170  0.38317830  0.50000000
   0.38317828  0.61682172  0.50000000
   0.50000000  0.50000000  0.33478917
   0.50000000  0.50000000  0.66521087
   0.32826705  0.44576024  0.58308023
   0.55423973  0.67173293  0.58308023
   0.55791699  0.44208301  0.58190703
   0.44208298  0.55791702  0.41809300
   0.44208301  0.44208301  0.58190703
   0.67173295  0.44576024  0.58308023
   0.44576027  0.67173293  0.58308023
   0.55791702  0.55791702  0.41809300
   0.38416599  0.50000002  0.50000000
   0.61583401  0.50000002  0.50000000
   0.50000000  0.61749319  0.34021317
   0.50000000  0.61749319  0.65978680
   0.50000000  0.50000000  0.50000000
   0.44208298  0.55791702  0.58190703
   0.55791702  0.55791702  0.58190703
   0.50000000  0.61583404  0.50000000
   0.53526777  0.63686073  0.70348213
   0.54062023  0.65763157  0.73436390
 
 position of ions in cartesian coordinates  (Angst):
  13.37280588  9.84801292 12.50759500
  20.15198637 16.62719342 12.50759500
  16.62719412  9.84801292 12.50759500
   9.84801363 16.62719342 12.50759500
  15.00000000 11.47520705 10.20639500
  15.00000000 11.47520705 19.79360400
  15.00000000  8.28283206 15.00000000
   8.28283277 14.99999929 15.00000000
  21.71716723 14.99999929 15.00000000
  15.00000000 21.71716652 14.99999999
  18.35858397 11.64141603 10.25024500
  18.35858397 11.64141603 19.74975399
  11.64141674 18.35858326 10.25024500
  11.64141674 18.35858326 19.74975400
  11.64141603 11.64141603 10.25024500
  11.64141603 11.64141603 19.74975400
  18.35858326 18.35858326 10.25024500
  18.35858326 18.35858326 19.74975400
  13.37280588  9.84801291 17.49240700
  20.15198638 16.62719341 17.49240700
  16.73750985 13.26249015 12.54279000
   9.84801151 13.37280729 12.50759500
  16.62719200 20.15198779 12.50759500
  16.62719412  9.84801292 17.49240700
   9.84801363 16.62719342 17.49240700
  20.15198849 13.37280729 12.50759500
  13.37280800 20.15198779 12.50759500
  13.26249015 13.26249015 12.54279000
  15.00000000 11.52498029 15.00000000
  18.52479437 15.00000140 10.20639500
  18.52479437 15.00000141 19.79360400
  11.47520562 15.00000141 10.20639501
  11.47520563 15.00000141 19.79360400
  11.49534898 11.49534898 15.00000000
  18.50465172 18.50465172 15.00000000
  18.50465102 11.49534898 15.00000000
  11.49534828 18.50465172 15.00000000
  15.00000000 15.00000000 10.04367500
  15.00000000 15.00000000 19.95632599
   9.84801151 13.37280729 17.49240700
  16.62719200 20.15198779 17.49240700
  16.73750985 13.26249015 17.45721100
  13.26248944 16.73751056 12.54279001
  13.26249015 13.26249015 17.45721100
  20.15198849 13.37280729 17.49240699
  13.37280800 20.15198779 17.49240700
  16.73751056 16.73751056 12.54279000
  11.52497959 15.00000071 15.00000000
  18.47502041 15.00000071 15.00000000
  14.99999999 18.52479579 10.20639500
  15.00000000 18.52479578 19.79360400
  15.00000000 15.00000000 15.00000000
  13.26248944 16.73751057 17.45721101
  16.73751056 16.73751057 17.45721100
  15.00000000 18.47502112 15.00000000
  16.05803300 19.10582200 21.10446400
  16.21860700 19.72894700 22.03091700
 


--------------------------------------------------------------------------------------------------------


 k-point  1 :   0.0000 0.0000 0.0000  plane waves:  490521

 maximum and minimum number of plane-waves per node :    490521   490521

 maximum number of plane-waves:    490521
 maximum index in each direction: 
   IXMAX=   48   IYMAX=   48   IZMAX=   48
   IXMIN=  -48   IYMIN=  -48   IZMIN=  -48


 serial   3D FFT for wavefunctions
 parallel 3D FFT for charge:
    minimum data exchange during FFTs selected (reduces bandwidth)


 total amount of memory used by VASP MPI-rank0  5486940. kBytes
=======================================================================

   base      :      30000. kBytes
   nonlr-proj:      17125. kBytes
   fftplans  :     924480. kBytes
   grid      :    1872000. kBytes
   one-center:        886. kBytes
   wavefun   :    2642449. kBytes
 
     INWAV:  cpu time    0.0001: real time    0.0004
 Broyden mixing: mesh for mixing (old mesh)
   NGX = 97   NGY = 97   NGZ = 97
  (NGX  =300   NGY  =300   NGZ  =300)
  gives a total of 912673 points

 initial charge density was supplied:
 charge density of overlapping atoms calculated
 number of electron     560.0000000 magnetization 
 keeping initial charge density in first step


--------------------------------------------------------------------------------------------------------


 Maximum index for non-local projection operator         1763
 Maximum index for augmentation-charges         5898 (set IRDMAX)


--------------------------------------------------------------------------------------------------------


 First call to EWALD:  gamma=   0.059
 Maximum number of real-space cells 3x 3x 3
 Maximum number of reciprocal cells 3x 3x 3

    FEWALD:  cpu time    0.0141: real time    0.0141


--------------------------------------- Iteration      1(   1)  ---------------------------------------


    POTLOK:  cpu time   11.8248: real time   11.8296
    SETDIJ:  cpu time    0.1091: real time    0.1091
     EDDAV:  cpu time  313.7717: real time  313.8028
       DOS:  cpu time    0.0012: real time    0.0012
    --------------------------------------------
      LOOP:  cpu time  325.7068: real time  325.7427

 eigenvalue-minimisations  :   688
 total energy-change (2. order) : 0.4395904E+04  (-0.1005025E+05)
 number of electron     560.0000000 magnetization 
 augmentation part      560.0000000 magnetization 

 Free energy of the ion-electron system (eV)
  ---------------------------------------------------
  alpha Z        PSCENC =        75.25431677
  Ewald energy   TEWEN  =    138308.92317540
  -Hartree energ DENC   =   -181664.30075312
  -exchange      EXHF   =         0.00000000
  -V(xc)+E(xc)   XCENC  =     -1702.59931365
  PAW double counting   =     44873.02882129   -41398.84523641
  entropy T*S    EENTRO =        -0.01780254
  eigenvalues    EBANDS =       817.95575746
  atomic energy  EATOM  =     45086.50549395
  Solvation  Ediel_sol  =         0.00000000
  ---------------------------------------------------
  free energy    TOTEN  =      4395.90445916 eV

  energy without entropy =     4395.92226170  energy(sigma->0) =     4395.90890980


--------------------------------------------------------------------------------------------------------




--------------------------------------- Iteration      1(   2)  ---------------------------------------


     EDDAV:  cpu time  496.5104: real time  496.5223
       DOS:  cpu time    0.0012: real time    0.0011
    --------------------------------------------
      LOOP:  cpu time  496.5116: real time  496.5235

 eigenvalue-minimisations  :  1208
 total energy-change (2. order) :-0.2366107E+04  (-0.2125651E+04)
 number of electron     560.0000000 magnetization 
 augmentation part      560.0000000 magnetization 

 Free energy of the ion-electron system (eV)
  ---------------------------------------------------
  alpha Z        PSCENC =        75.25431677
  Ewald energy   TEWEN  =    138308.92317540
  -Hartree energ DENC   =   -181664.30075312
  -exchange      EXHF   =         0.00000000
  -V(xc)+E(xc)   XCENC  =     -1702.59931365
  PAW double counting   =     44873.02882129   -41398.84523641
  entropy T*S    EENTRO =        -0.00081199
  eigenvalues    EBANDS =     -1548.16803803
  atomic energy  EATOM  =     45086.50549395
  Solvation  Ediel_sol  =         0.00000000
  ---------------------------------------------------
  free energy    TOTEN  =      2029.79765422 eV

  energy without entropy =     2029.79846621  energy(sigma->0) =     2029.79785722


--------------------------------------------------------------------------------------------------------




--------------------------------------- Iteration      1(   3)  ---------------------------------------


     EDDAV:  cpu time  422.2459: real time  422.2579
       DOS:  cpu time    0.0010: real time    0.0010
    --------------------------------------------
      LOOP:  cpu time  422.2468: real time  422.2589

 eigenvalue-minimisations  :  1000
 total energy-change (2. order) :-0.1789453E+04  (-0.1680706E+04)
 number of electron     560.0000000 magnetization 
 augmentation part      560.0000000 magnetization 

 Free energy of the ion-electron system (eV)
  ---------------------------------------------------
  alpha Z        PSCENC =        75.25431677
  Ewald energy   TEWEN  =    138308.92317540
  -Hartree energ DENC   =   -181664.30075312
  -exchange      EXHF   =         0.00000000
  -V(xc)+E(xc)   XCENC  =     -1702.59931365
  PAW double counting   =     44873.02882129   -41398.84523641
  entropy T*S    EENTRO =         0.00762308
  eigenvalues    EBANDS =     -3337.62927672
  atomic energy  EATOM  =     45086.50549395
  Solvation  Ediel_sol  =         0.00000000
  ---------------------------------------------------
  free energy    TOTEN  =       240.34485060 eV

  energy without entropy =      240.33722752  energy(sigma->0) =      240.34294483


--------------------------------------------------------------------------------------------------------




--------------------------------------- Iteration      1(   4)  ---------------------------------------


     EDDAV:  cpu time  365.8600: real time  365.8724
       DOS:  cpu time    0.0011: real time    0.0011
    --------------------------------------------
      LOOP:  cpu time  365.8611: real time  365.8734

 eigenvalue-minimisations  :   832
 total energy-change (2. order) :-0.3743105E+03  (-0.3166932E+03)
 number of electron     560.0000000 magnetization 
 augmentation part      560.0000000 magnetization 

 Free energy of the ion-electron system (eV)
  ---------------------------------------------------
  alpha Z        PSCENC =        75.25431677
  Ewald energy   TEWEN  =    138308.92317540
  -Hartree energ DENC   =   -181664.30075312
  -exchange      EXHF   =         0.00000000
  -V(xc)+E(xc)   XCENC  =     -1702.59931365
  PAW double counting   =     44873.02882129   -41398.84523641
  entropy T*S    EENTRO =        -0.00166491
  eigenvalues    EBANDS =     -3711.93050935
  atomic energy  EATOM  =     45086.50549395
  Solvation  Ediel_sol  =         0.00000000
  ---------------------------------------------------
  free energy    TOTEN  =      -133.96567002 eV

  energy without entropy =     -133.96400512  energy(sigma->0) =     -133.96525379


--------------------------------------------------------------------------------------------------------




--------------------------------------- Iteration      1(   5)  ---------------------------------------


     EDDAV:  cpu time  434.3545: real time  434.3693
       DOS:  cpu time    0.0013: real time    0.0013
    CHARGE:  cpu time   22.1613: real time   22.1615
    MIXING:  cpu time    0.3904: real time    0.3904
    --------------------------------------------
      LOOP:  cpu time  456.9074: real time  456.9225

 eigenvalue-minimisations  :  1040
 total energy-change (2. order) :-0.4633574E+02  (-0.3770223E+02)
 number of electron     559.9999856 magnetization 
 augmentation part      244.9013429 magnetization 

 Broyden mixing:
  rms(total) = 0.17435E+01    rms(broyden)= 0.17427E+01
  rms(prec ) = 0.18407E+01
  weight for this iteration     100.00

 Free energy of the ion-electron system (eV)
  ---------------------------------------------------
  alpha Z        PSCENC =        75.25431677
  Ewald energy   TEWEN  =    138308.92317540
  -Hartree energ DENC   =   -181664.30075312
  -exchange      EXHF   =         0.00000000
  -V(xc)+E(xc)   XCENC  =     -1702.59931365
  PAW double counting   =     44873.02882129   -41398.84523641
  entropy T*S    EENTRO =         0.47781034
  eigenvalues    EBANDS =     -3758.74572270
  atomic energy  EATOM  =     45086.50549395
  Solvation  Ediel_sol  =         0.00000000
  ---------------------------------------------------
  free energy    TOTEN  =      -180.30140811 eV

  energy without entropy =     -180.77921846  energy(sigma->0) =     -180.42086070


--------------------------------------------------------------------------------------------------------




--------------------------------------- Iteration      1(   6)  ---------------------------------------


    POTLOK:  cpu time   10.5931: real time   10.5969
    SETDIJ:  cpu time    0.1088: real time    0.1088
    EDDIAG:  cpu time   59.2724: real time   59.2739
  RMM-DIIS:  cpu time  161.6578: real time  161.6638
    ORTHCH:  cpu time   11.9549: real time   11.9552
       DOS:  cpu time    0.0014: real time    0.0013
    CHARGE:  cpu time   22.5155: real time   22.5159
    MIXING:  cpu time    0.4176: real time    0.4176
    --------------------------------------------
      LOOP:  cpu time  266.5214: real time  266.5334

 eigenvalue-minimisations  :   725
 total energy-change (2. order) : 0.1871349E-01  (-0.6758782E+01)
 number of electron     559.9999886 magnetization 
 augmentation part      240.4646788 magnetization 

 Broyden mixing:
  rms(total) = 0.23292E+01    rms(broyden)= 0.23290E+01
  rms(prec ) = 0.26382E+01
  weight for this iteration     100.00

 eigenvalues of (default mixing * dielectric matrix)
  average eigenvalue GAMMA=   0.3743
  0.3743

 Free energy of the ion-electron system (eV)
  ---------------------------------------------------
  alpha Z        PSCENC =        75.25431677
  Ewald energy   TEWEN  =    138308.92317540
  -Hartree energ DENC   =   -182059.75898501
  -exchange      EXHF   =         0.00000000
  -V(xc)+E(xc)   XCENC  =     -1696.25328559
  PAW double counting   =     45673.46764425   -42173.43428278
  entropy T*S    EENTRO =        -0.29211052
  eigenvalues    EBANDS =     -3394.69466110
  atomic energy  EATOM  =     45086.50549395
  Solvation  Ediel_sol  =         0.00000000
  ---------------------------------------------------
  free energy    TOTEN  =      -180.28269463 eV

  energy without entropy =     -179.99058411  energy(sigma->0) =     -180.20966700


--------------------------------------------------------------------------------------------------------




--------------------------------------- Iteration      1(   7)  ---------------------------------------


    POTLOK:  cpu time   10.8927: real time   10.8970
    SETDIJ:  cpu time    0.1124: real time    0.1124
    EDDIAG:  cpu time   60.2502: real time   60.2521
  RMM-DIIS:  cpu time  189.5566: real time  189.5628
    ORTHCH:  cpu time   11.8641: real time   11.8644
       DOS:  cpu time    0.0013: real time    0.0013
    CHARGE:  cpu time   22.0210: real time   22.0213
    MIXING:  cpu time    0.4316: real time    0.4316
    --------------------------------------------
      LOOP:  cpu time  295.1301: real time  295.1428

 eigenvalue-minimisations  :   842
 total energy-change (2. order) :-0.1883852E+01  (-0.2181997E+01)
 number of electron     559.9999849 magnetization 
 augmentation part      240.3902285 magnetization 

 Broyden mixing:
  rms(total) = 0.21182E+01    rms(broyden)= 0.21180E+01
  rms(prec ) = 0.24947E+01
  weight for this iteration     100.00

 eigenvalues of (default mixing * dielectric matrix)
  average eigenvalue GAMMA=   0.3917
  0.5974  0.1860

 Free energy of the ion-electron system (eV)
  ---------------------------------------------------
  alpha Z        PSCENC =        75.25431677
  Ewald energy   TEWEN  =    138308.92317540
  -Hartree energ DENC   =   -182156.14626642
  -exchange      EXHF   =         0.00000000
  -V(xc)+E(xc)   XCENC  =     -1696.53334145
  PAW double counting   =     45762.26483117   -42259.52868076
  entropy T*S    EENTRO =        -0.15426691
  eigenvalues    EBANDS =     -3302.75180818
  atomic energy  EATOM  =     45086.50549395
  Solvation  Ediel_sol  =         0.00000000
  ---------------------------------------------------
  free energy    TOTEN  =      -182.16654642 eV

  energy without entropy =     -182.01227951  energy(sigma->0) =     -182.12797970


--------------------------------------------------------------------------------------------------------




--------------------------------------- Iteration      1(   8)  ---------------------------------------


    POTLOK:  cpu time   10.5971: real time   10.6011
    SETDIJ:  cpu time    0.1088: real time    0.1088
    EDDIAG:  cpu time   59.8663: real time   59.8691
  RMM-DIIS:  cpu time  170.0896: real time  170.0966
    ORTHCH:  cpu time   11.8570: real time   11.8573
       DOS:  cpu time    0.0014: real time    0.0014
    CHARGE:  cpu time   22.1328: real time   22.1332
    MIXING:  cpu time    0.4518: real time    0.4518
    --------------------------------------------
      LOOP:  cpu time  275.1047: real time  275.1192

 eigenvalue-minimisations  :   766
 total energy-change (2. order) :-0.4194578E+01  (-0.9020753E+00)
 number of electron     559.9999831 magnetization 
 augmentation part      240.0757145 magnetization 

 Broyden mixing:
  rms(total) = 0.28882E+01    rms(broyden)= 0.28880E+01
  rms(prec ) = 0.34497E+01
  weight for this iteration     100.00

 eigenvalues of (default mixing * dielectric matrix)
  average eigenvalue GAMMA=   0.3586
  0.7489  0.1858  0.1412

 Free energy of the ion-electron system (eV)
  ---------------------------------------------------
  alpha Z        PSCENC =        75.25431677
  Ewald energy   TEWEN  =    138308.92317540
  -Hartree energ DENC   =   -182184.60902805
  -exchange      EXHF   =         0.00000000
  -V(xc)+E(xc)   XCENC  =     -1696.47185211
  PAW double counting   =     45856.68568401   -42350.85470038
  entropy T*S    EENTRO =        -0.13390326
  eigenvalues    EBANDS =     -3281.66031030
  atomic energy  EATOM  =     45086.50549395
  Solvation  Ediel_sol  =         0.00000000
  ---------------------------------------------------
  free energy    TOTEN  =      -186.36112398 eV

  energy without entropy =     -186.22722071  energy(sigma->0) =     -186.32764816


--------------------------------------------------------------------------------------------------------




--------------------------------------- Iteration      1(   9)  ---------------------------------------


    POTLOK:  cpu time   10.5684: real time   10.5724
    SETDIJ:  cpu time    0.1088: real time    0.1088
    EDDIAG:  cpu time   59.9356: real time   59.9381
  RMM-DIIS:  cpu time  163.1253: real time  163.1322
    ORTHCH:  cpu time   11.8569: real time   11.8572
       DOS:  cpu time    0.0013: real time    0.0013
    CHARGE:  cpu time   22.0998: real time   22.1002
    MIXING:  cpu time    0.4702: real time    0.4702
    --------------------------------------------
      LOOP:  cpu time  268.1663: real time  268.1805

 eigenvalue-minimisations  :   736
 total energy-change (2. order) : 0.2793860E+01  (-0.6525591E+00)
 number of electron     559.9999856 magnetization 
 augmentation part      240.8836645 magnetization 

 Broyden mixing:
  rms(total) = 0.26333E+01    rms(broyden)= 0.26330E+01
  rms(prec ) = 0.30562E+01
  weight for this iteration     100.00

 eigenvalues of (default mixing * dielectric matrix)
  average eigenvalue GAMMA=   0.3348
  0.8637  0.1812  0.1812  0.1129

 Free energy of the ion-electron system (eV)
  ---------------------------------------------------
  alpha Z        PSCENC =        75.25431677
  Ewald energy   TEWEN  =    138308.92317540
  -Hartree energ DENC   =   -182203.27679755
  -exchange      EXHF   =         0.00000000
  -V(xc)+E(xc)   XCENC  =     -1696.45053890
  PAW double counting   =     45924.10111953   -42416.27432628
  entropy T*S    EENTRO =        -0.19410806
  eigenvalues    EBANDS =     -3262.15559846
  atomic energy  EATOM  =     45086.50549395
  Solvation  Ediel_sol  =         0.00000000
  ---------------------------------------------------
  free energy    TOTEN  =      -183.56726360 eV

  energy without entropy =     -183.37315554  energy(sigma->0) =     -183.51873658


--------------------------------------------------------------------------------------------------------




--------------------------------------- Iteration      1(  10)  ---------------------------------------


    POTLOK:  cpu time   10.5947: real time   10.5983
    SETDIJ:  cpu time    0.1090: real time    0.1090
    EDDIAG:  cpu time   59.9994: real time   60.0015
  RMM-DIIS:  cpu time  163.6733: real time  163.6787
    ORTHCH:  cpu time   11.8169: real time   11.8171
       DOS:  cpu time    0.0014: real time    0.0014
    CHARGE:  cpu time   22.0694: real time   22.0697
    MIXING:  cpu time    0.4989: real time    0.4989
    --------------------------------------------
      LOOP:  cpu time  268.7630: real time  268.7746

 eigenvalue-minimisations  :   737
 total energy-change (2. order) : 0.3479842E+01  (-0.3963272E+00)
 number of electron     559.9999842 magnetization 
 augmentation part      241.4604095 magnetization 

 Broyden mixing:
  rms(total) = 0.20360E+01    rms(broyden)= 0.20356E+01
  rms(prec ) = 0.24035E+01
  weight for this iteration     100.00

 eigenvalues of (default mixing * dielectric matrix)
  average eigenvalue GAMMA=   0.3149
  0.9443  0.1976  0.1976  0.1174  0.1174

 Free energy of the ion-electron system (eV)
  ---------------------------------------------------
  alpha Z        PSCENC =        75.25431677
  Ewald energy   TEWEN  =    138308.92317540
  -Hartree energ DENC   =   -182234.65234069
  -exchange      EXHF   =         0.00000000
  -V(xc)+E(xc)   XCENC  =     -1696.31046718
  PAW double counting   =     45978.20463745   -42468.74280193
  entropy T*S    EENTRO =        -0.06487282
  eigenvalues    EBANDS =     -3229.20456224
  atomic energy  EATOM  =     45086.50549395
  Solvation  Ediel_sol  =         0.00000000
  ---------------------------------------------------
  free energy    TOTEN  =      -180.08742128 eV

  energy without entropy =     -180.02254847  energy(sigma->0) =     -180.07120308


--------------------------------------------------------------------------------------------------------




--------------------------------------- Iteration      1(  11)  ---------------------------------------


    POTLOK:  cpu time   10.5886: real time   10.5926
    SETDIJ:  cpu time    0.1089: real time    0.1089
    EDDIAG:  cpu time   59.6061: real time   59.6080
  RMM-DIIS:  cpu time  165.1197: real time  165.1252
    ORTHCH:  cpu time   12.0032: real time   12.0035
       DOS:  cpu time    0.0014: real time    0.0014
    CHARGE:  cpu time   22.4811: real time   22.4814
    MIXING:  cpu time    0.5357: real time    0.5358
    --------------------------------------------
      LOOP:  cpu time  270.4448: real time  270.4566

 eigenvalue-minimisations  :   732
 total energy-change (2. order) : 0.1750241E+01  (-0.2457850E+00)
 number of electron     559.9999864 magnetization 
 augmentation part      241.7126164 magnetization 

 Broyden mixing:
  rms(total) = 0.16442E+01    rms(broyden)= 0.16438E+01
  rms(prec ) = 0.19052E+01
  weight for this iteration     100.00

 eigenvalues of (default mixing * dielectric matrix)
  average eigenvalue GAMMA=   0.3163
  1.0631  0.2400  0.2400  0.1285  0.1285  0.0977

 Free energy of the ion-electron system (eV)
  ---------------------------------------------------
  alpha Z        PSCENC =        75.25431677
  Ewald energy   TEWEN  =    138308.92317540
  -Hartree energ DENC   =   -182257.86446290
  -exchange      EXHF   =         0.00000000
  -V(xc)+E(xc)   XCENC  =     -1696.12444648
  PAW double counting   =     46019.95200288   -42508.93598136
  entropy T*S    EENTRO =        -0.08470827
  eigenvalues    EBANDS =     -3205.96257006
  atomic energy  EATOM  =     45086.50549395
  Solvation  Ediel_sol  =         0.00000000
  ---------------------------------------------------
  free energy    TOTEN  =      -178.33718006 eV

  energy without entropy =     -178.25247180  energy(sigma->0) =     -178.31600300


--------------------------------------------------------------------------------------------------------




--------------------------------------- Iteration      1(  12)  ---------------------------------------


    POTLOK:  cpu time   10.7391: real time   10.7432
    SETDIJ:  cpu time    0.1123: real time    0.1123
    EDDIAG:  cpu time   60.9738: real time   60.9763
  RMM-DIIS:  cpu time  163.8396: real time  163.8458
    ORTHCH:  cpu time   12.2297: real time   12.2299
       DOS:  cpu time    0.0014: real time    0.0014
    CHARGE:  cpu time   22.5710: real time   22.5713
    MIXING:  cpu time    0.5532: real time    0.5532
    --------------------------------------------
      LOOP:  cpu time  271.0200: real time  271.0334

 eigenvalue-minimisations  :   718
 total energy-change (2. order) : 0.3730432E+00  (-0.2719326E+00)
 number of electron     559.9999846 magnetization 
 augmentation part      241.5800473 magnetization 

 Broyden mixing:
  rms(total) = 0.19345E+01    rms(broyden)= 0.19342E+01
  rms(prec ) = 0.23088E+01
  weight for this iteration     100.00

 eigenvalues of (default mixing * dielectric matrix)
  average eigenvalue GAMMA=   0.3144
  1.1540  0.2980  0.2980  0.1379  0.1379  0.0873  0.0873

 Free energy of the ion-electron system (eV)
  ---------------------------------------------------
  alpha Z        PSCENC =        75.25431677
  Ewald energy   TEWEN  =    138308.92317540
  -Hartree energ DENC   =   -182296.26925184
  -exchange      EXHF   =         0.00000000
  -V(xc)+E(xc)   XCENC  =     -1695.72921792
  PAW double counting   =     46081.43737739   -42568.00200950
  entropy T*S    EENTRO =         0.02083120
  eigenvalues    EBANDS =     -3170.10485234
  atomic energy  EATOM  =     45086.50549395
  Solvation  Ediel_sol  =         0.00000000
  ---------------------------------------------------
  free energy    TOTEN  =      -177.96413690 eV

  energy without entropy =     -177.98496809  energy(sigma->0) =     -177.96934469


--------------------------------------------------------------------------------------------------------




--------------------------------------- Iteration      1(  13)  ---------------------------------------


    POTLOK:  cpu time   10.5587: real time   10.5630
    SETDIJ:  cpu time    0.1088: real time    0.1088
    EDDIAG:  cpu time   59.8636: real time   59.8658
  RMM-DIIS:  cpu time  161.2238: real time  161.2302
    ORTHCH:  cpu time   11.8605: real time   11.8607
       DOS:  cpu time    0.0013: real time    0.0013
    CHARGE:  cpu time   22.1304: real time   22.1307
    MIXING:  cpu time    0.5882: real time    0.5882
    --------------------------------------------
      LOOP:  cpu time  266.3352: real time  266.3488

 eigenvalue-minimisations  :   724
 total energy-change (2. order) : 0.1058862E-01  (-0.1726285E+00)
 number of electron     559.9999836 magnetization 
 augmentation part      241.3825949 magnetization 

 Broyden mixing:
  rms(total) = 0.17001E+01    rms(broyden)= 0.16998E+01
  rms(prec ) = 0.20581E+01
  weight for this iteration     100.00

 eigenvalues of (default mixing * dielectric matrix)
  average eigenvalue GAMMA=   0.3298
  1.3245  0.4233  0.3224  0.1312  0.1312  0.1205  0.1205  0.0648

 Free energy of the ion-electron system (eV)
  ---------------------------------------------------
  alpha Z        PSCENC =        75.25431677
  Ewald energy   TEWEN  =    138308.92317540
  -Hartree energ DENC   =   -182321.39008970
  -exchange      EXHF   =         0.00000000
  -V(xc)+E(xc)   XCENC  =     -1695.41114161
  PAW double counting   =     46123.35591442   -42608.20445672
  entropy T*S    EENTRO =        -0.08620191
  eigenvalues    EBANDS =     -3146.90055887
  atomic energy  EATOM  =     45086.50549395
  Solvation  Ediel_sol  =         0.00000000
  ---------------------------------------------------
  free energy    TOTEN  =      -177.95354828 eV

  energy without entropy =     -177.86734636  energy(sigma->0) =     -177.93199780


--------------------------------------------------------------------------------------------------------




--------------------------------------- Iteration      1(  14)  ---------------------------------------


    POTLOK:  cpu time   10.5725: real time   10.5752
    SETDIJ:  cpu time    0.1087: real time    0.1087
    EDDIAG:  cpu time   60.1163: real time   60.1197
  RMM-DIIS:  cpu time  159.2181: real time  159.2221
    ORTHCH:  cpu time   11.8533: real time   11.8534
       DOS:  cpu time    0.0014: real time    0.0014
    CHARGE:  cpu time   22.1061: real time   22.1063
    MIXING:  cpu time    0.6175: real time    0.6175
    --------------------------------------------
      LOOP:  cpu time  264.5940: real time  264.6043

 eigenvalue-minimisations  :   714
 total energy-change (2. order) :-0.2317785E+00  (-0.1809038E+00)
 number of electron     559.9999852 magnetization 
 augmentation part      241.1522631 magnetization 

 Broyden mixing:
  rms(total) = 0.20917E+01    rms(broyden)= 0.20914E+01
  rms(prec ) = 0.24598E+01
  weight for this iteration     100.00

 eigenvalues of (default mixing * dielectric matrix)
  average eigenvalue GAMMA=   0.3236
  1.4178  0.5181  0.2967  0.1626  0.1626  0.1004  0.1004  0.0876  0.0658

 Free energy of the ion-electron system (eV)
  ---------------------------------------------------
  alpha Z        PSCENC =        75.25431677
  Ewald energy   TEWEN  =    138308.92317540
  -Hartree energ DENC   =   -182359.92836884
  -exchange      EXHF   =         0.00000000
  -V(xc)+E(xc)   XCENC  =     -1694.82035991
  PAW double counting   =     46193.37154531   -42675.25560031
  entropy T*S    EENTRO =        -0.13788023
  eigenvalues    EBANDS =     -3112.09764888
  atomic energy  EATOM  =     45086.50549395
  Solvation  Ediel_sol  =         0.00000000
  ---------------------------------------------------
  free energy    TOTEN  =      -178.18532673 eV

  energy without entropy =     -178.04744651  energy(sigma->0) =     -178.15085668


--------------------------------------------------------------------------------------------------------




--------------------------------------- Iteration      1(  15)  ---------------------------------------


    POTLOK:  cpu time   10.5764: real time   10.5800
    SETDIJ:  cpu time    0.1087: real time    0.1087
    EDDIAG:  cpu time   60.0232: real time   60.0260
  RMM-DIIS:  cpu time  159.5625: real time  159.5674
    ORTHCH:  cpu time   11.8523: real time   11.8524
       DOS:  cpu time    0.0014: real time    0.0014
    CHARGE:  cpu time   22.0838: real time   22.0840
    MIXING:  cpu time    0.6577: real time    0.6577
    --------------------------------------------
      LOOP:  cpu time  264.8661: real time  264.8776

 eigenvalue-minimisations  :   717
 total energy-change (2. order) : 0.1410202E+01  (-0.1195149E+00)
 number of electron     559.9999877 magnetization 
 augmentation part      241.0939969 magnetization 

 Broyden mixing:
  rms(total) = 0.13823E+01    rms(broyden)= 0.13819E+01
  rms(prec ) = 0.15973E+01
  weight for this iteration     100.00

 eigenvalues of (default mixing * dielectric matrix)
  average eigenvalue GAMMA=   0.3188
  1.5398  0.5623  0.2211  0.1921  0.1921  0.1284  0.1052  0.1052  0.0754  0.0658

 Free energy of the ion-electron system (eV)
  ---------------------------------------------------
  alpha Z        PSCENC =        75.25431677
  Ewald energy   TEWEN  =    138308.92317540
  -Hartree energ DENC   =   -182386.72273532
  -exchange      EXHF   =         0.00000000
  -V(xc)+E(xc)   XCENC  =     -1694.54101862
  PAW double counting   =     46229.86627774   -42710.24404329
  entropy T*S    EENTRO =        -0.07664545
  eigenvalues    EBANDS =     -3085.73994559
  atomic energy  EATOM  =     45086.50549395
  Solvation  Ediel_sol  =         0.00000000
  ---------------------------------------------------
  free energy    TOTEN  =      -176.77512441 eV

  energy without entropy =     -176.69847896  energy(sigma->0) =     -176.75596305


--------------------------------------------------------------------------------------------------------




--------------------------------------- Iteration      1(  16)  ---------------------------------------


    POTLOK:  cpu time   10.5634: real time   10.5670
    SETDIJ:  cpu time    0.1087: real time    0.1087
    EDDIAG:  cpu time   60.1347: real time   60.1361
  RMM-DIIS:  cpu time  157.9663: real time  157.9715
    ORTHCH:  cpu time   11.8532: real time   11.8533
       DOS:  cpu time    0.0014: real time    0.0014
    CHARGE:  cpu time   22.1295: real time   22.1297
    MIXING:  cpu time    0.6922: real time    0.6923
    --------------------------------------------
      LOOP:  cpu time  263.4493: real time  263.4599

 eigenvalue-minimisations  :   704
 total energy-change (2. order) : 0.5545813E+00  (-0.8887234E-01)
 number of electron     559.9999875 magnetization 
 augmentation part      241.2269785 magnetization 

 Broyden mixing:
  rms(total) = 0.12327E+01    rms(broyden)= 0.12324E+01
  rms(prec ) = 0.15082E+01
  weight for this iteration     100.00

 eigenvalues of (default mixing * dielectric matrix)
  average eigenvalue GAMMA=   0.3102
  1.5810  0.5917  0.2440  0.2440  0.1600  0.1600  0.1062  0.1062  0.0965  0.0612
  0.0612

 Free energy of the ion-electron system (eV)
  ---------------------------------------------------
  alpha Z        PSCENC =        75.25431677
  Ewald energy   TEWEN  =    138308.92317540
  -Hartree energ DENC   =   -182400.14859028
  -exchange      EXHF   =         0.00000000
  -V(xc)+E(xc)   XCENC  =     -1694.28786990
  PAW double counting   =     46259.39692273   -42738.50419954
  entropy T*S    EENTRO =         0.00135182
  eigenvalues    EBANDS =     -3073.36114406
  atomic energy  EATOM  =     45086.50549395
  Solvation  Ediel_sol  =         0.00000000
  ---------------------------------------------------
  free energy    TOTEN  =      -176.22054309 eV

  energy without entropy =     -176.22189492  energy(sigma->0) =     -176.22088105


--------------------------------------------------------------------------------------------------------




--------------------------------------- Iteration      1(  17)  ---------------------------------------


    POTLOK:  cpu time   10.5654: real time   10.5695
    SETDIJ:  cpu time    0.1089: real time    0.1089
    EDDIAG:  cpu time   60.1180: real time   60.1195
  RMM-DIIS:  cpu time  159.0867: real time  159.0916
    ORTHCH:  cpu time   11.9610: real time   11.9612
       DOS:  cpu time    0.0014: real time    0.0014
    CHARGE:  cpu time   22.3949: real time   22.3952
    MIXING:  cpu time    0.7550: real time    0.7550
    --------------------------------------------
      LOOP:  cpu time  264.9913: real time  265.0022

 eigenvalue-minimisations  :   711
 total energy-change (2. order) : 0.4455551E+00  (-0.3973121E-01)
 number of electron     559.9999861 magnetization 
 augmentation part      241.3120194 magnetization 

 Broyden mixing:
  rms(total) = 0.88931E+00    rms(broyden)= 0.88904E+00
  rms(prec ) = 0.10278E+01
  weight for this iteration     100.00

 eigenvalues of (default mixing * dielectric matrix)
  average eigenvalue GAMMA=   0.3246
  1.6488  0.7284  0.3341  0.3341  0.1620  0.1620  0.1027  0.1027  0.1015  0.1015
  0.0649  0.0519

 Free energy of the ion-electron system (eV)
  ---------------------------------------------------
  alpha Z        PSCENC =        75.25431677
  Ewald energy   TEWEN  =    138308.92317540
  -Hartree energ DENC   =   -182410.10812424
  -exchange      EXHF   =         0.00000000
  -V(xc)+E(xc)   XCENC  =     -1694.12753862
  PAW double counting   =     46272.38829592   -42750.76140272
  entropy T*S    EENTRO =        -0.01992723
  eigenvalues    EBANDS =     -3063.82927726
  atomic energy  EATOM  =     45086.50549395
  Solvation  Ediel_sol  =         0.00000000
  ---------------------------------------------------
  free energy    TOTEN  =      -175.77498802 eV

  energy without entropy =     -175.75506080  energy(sigma->0) =     -175.77000622


--------------------------------------------------------------------------------------------------------




--------------------------------------- Iteration      1(  18)  ---------------------------------------


    POTLOK:  cpu time   10.8714: real time   10.8756
    SETDIJ:  cpu time    0.1121: real time    0.1121
    EDDIAG:  cpu time   60.3070: real time   60.3089
  RMM-DIIS:  cpu time  158.4645: real time  158.4699
    ORTHCH:  cpu time   12.0523: real time   12.0526
       DOS:  cpu time    0.0014: real time    0.0014
    CHARGE:  cpu time   22.4756: real time   22.4759
    MIXING:  cpu time    0.8001: real time    0.8001
    --------------------------------------------
      LOOP:  cpu time  265.0844: real time  265.0965

 eigenvalue-minimisations  :   699
 total energy-change (2. order) :-0.1435134E-01  (-0.4348374E-01)
 number of electron     559.9999847 magnetization 
 augmentation part      241.1279144 magnetization 

 Broyden mixing:
  rms(total) = 0.95294E+00    rms(broyden)= 0.95272E+00
  rms(prec ) = 0.11173E+01
  weight for this iteration     100.00

 eigenvalues of (default mixing * dielectric matrix)
  average eigenvalue GAMMA=   0.3387
  1.7482  0.8831  0.3955  0.3955  0.1728  0.1728  0.1045  0.1045  0.1137  0.1137
  0.0833  0.0642  0.0506

 Free energy of the ion-electron system (eV)
  ---------------------------------------------------
  alpha Z        PSCENC =        75.25431677
  Ewald energy   TEWEN  =    138308.92317540
  -Hartree energ DENC   =   -182437.51812019
  -exchange      EXHF   =         0.00000000
  -V(xc)+E(xc)   XCENC  =     -1693.78706074
  PAW double counting   =     46297.29858301   -42774.08273998
  entropy T*S    EENTRO =         0.01569601
  eigenvalues    EBANDS =     -3038.39868358
  atomic energy  EATOM  =     45086.50549395
  Solvation  Ediel_sol  =         0.00000000
  ---------------------------------------------------
  free energy    TOTEN  =      -175.78933936 eV

  energy without entropy =     -175.80503537  energy(sigma->0) =     -175.79326336


--------------------------------------------------------------------------------------------------------




--------------------------------------- Iteration      1(  19)  ---------------------------------------


    POTLOK:  cpu time   10.9974: real time   11.0004
    SETDIJ:  cpu time    0.1125: real time    0.1125
    EDDIAG:  cpu time   60.4988: real time   60.5013
  RMM-DIIS:  cpu time  159.1813: real time  159.1874
    ORTHCH:  cpu time   12.1621: real time   12.1623
       DOS:  cpu time    0.0014: real time    0.0014
    CHARGE:  cpu time   22.4497: real time   22.4500
    MIXING:  cpu time    0.8064: real time    0.8064
    --------------------------------------------
      LOOP:  cpu time  266.2096: real time  266.2217

 eigenvalue-minimisations  :   697
 total energy-change (2. order) : 0.1714493E+00  (-0.3164815E-01)
 number of electron     559.9999863 magnetization 
 augmentation part      241.1322333 magnetization 

 Broyden mixing:
  rms(total) = 0.83437E+00    rms(broyden)= 0.83413E+00
  rms(prec ) = 0.97422E+00
  weight for this iteration     100.00

 eigenvalues of (default mixing * dielectric matrix)
  average eigenvalue GAMMA=   0.3469
  1.8166  1.0754  0.4221  0.4221  0.1778  0.1778  0.1429  0.1088  0.1088  0.1068
  0.1068  0.0771  0.0643  0.0499

 Free energy of the ion-electron system (eV)
  ---------------------------------------------------
  alpha Z        PSCENC =        75.25431677
  Ewald energy   TEWEN  =    138308.92317540
  -Hartree energ DENC   =   -182460.00629002
  -exchange      EXHF   =         0.00000000
  -V(xc)+E(xc)   XCENC  =     -1693.45054315
  PAW double counting   =     46316.09485956   -42791.37806334
  entropy T*S    EENTRO =        -0.02443020
  eigenvalues    EBANDS =     -3017.53640899
  atomic energy  EATOM  =     45086.50549395
  Solvation  Ediel_sol  =         0.00000000
  ---------------------------------------------------
  free energy    TOTEN  =      -175.61789002 eV

  energy without entropy =     -175.59345982  energy(sigma->0) =     -175.61178247


--------------------------------------------------------------------------------------------------------




--------------------------------------- Iteration      1(  20)  ---------------------------------------


    POTLOK:  cpu time   10.5333: real time   10.5377
    SETDIJ:  cpu time    0.1088: real time    0.1088
    EDDIAG:  cpu time   59.8364: real time   59.8382
  RMM-DIIS:  cpu time  155.6235: real time  155.6286
    ORTHCH:  cpu time   11.8585: real time   11.8586
       DOS:  cpu time    0.0014: real time    0.0014
    CHARGE:  cpu time   22.1547: real time   22.1550
    MIXING:  cpu time    0.8639: real time    0.8639
    --------------------------------------------
      LOOP:  cpu time  260.9805: real time  260.9924

 eigenvalue-minimisations  :   697
 total energy-change (2. order) : 0.6025925E-01  (-0.2772365E-01)
 number of electron     559.9999869 magnetization 
 augmentation part      241.0798358 magnetization 

 Broyden mixing:
  rms(total) = 0.74010E+00    rms(broyden)= 0.73988E+00
  rms(prec ) = 0.85594E+00
  weight for this iteration     100.00

 eigenvalues of (default mixing * dielectric matrix)
  average eigenvalue GAMMA=   0.3487
  1.8864  1.1204  0.4596  0.4596  0.2235  0.1740  0.1740  0.1368  0.1041  0.1041
  0.0995  0.0995  0.0743  0.0644  0.0500

 Free energy of the ion-electron system (eV)
  ---------------------------------------------------
  alpha Z        PSCENC =        75.25431677
  Ewald energy   TEWEN  =    138308.92317540
  -Hartree energ DENC   =   -182479.92872560
  -exchange      EXHF   =         0.00000000
  -V(xc)+E(xc)   XCENC  =     -1693.20376457
  PAW double counting   =     46325.79286187   -42799.99633569
  entropy T*S    EENTRO =        -0.03681976
  eigenvalues    EBANDS =     -2998.86783315
  atomic energy  EATOM  =     45086.50549395
  Solvation  Ediel_sol  =         0.00000000
  ---------------------------------------------------
  free energy    TOTEN  =      -175.55763077 eV

  energy without entropy =     -175.52081102  energy(sigma->0) =     -175.54842583


--------------------------------------------------------------------------------------------------------




--------------------------------------- Iteration      1(  21)  ---------------------------------------


    POTLOK:  cpu time   10.5470: real time   10.5511
    SETDIJ:  cpu time    0.1087: real time    0.1087
    EDDIAG:  cpu time   60.1391: real time   60.1410
  RMM-DIIS:  cpu time  155.0097: real time  155.0161
    ORTHCH:  cpu time   11.8517: real time   11.8520
       DOS:  cpu time    0.0014: real time    0.0014
    CHARGE:  cpu time   22.1239: real time   22.1243
    MIXING:  cpu time    0.9066: real time    0.9066
    --------------------------------------------
      LOOP:  cpu time  260.6881: real time  260.7011

 eigenvalue-minimisations  :   696
 total energy-change (2. order) : 0.8798944E-01  (-0.1990958E-01)
 number of electron     559.9999872 magnetization 
 augmentation part      241.0787568 magnetization 

 Broyden mixing:
  rms(total) = 0.69414E+00    rms(broyden)= 0.69393E+00
  rms(prec ) = 0.80886E+00
  weight for this iteration     100.00

 eigenvalues of (default mixing * dielectric matrix)
  average eigenvalue GAMMA=   0.3618
  1.9555  1.2463  0.6609  0.3749  0.3749  0.1739  0.1739  0.1043  0.1043  0.1249
  0.1130  0.1130  0.0834  0.0701  0.0647  0.0499

 Free energy of the ion-electron system (eV)
  ---------------------------------------------------
  alpha Z        PSCENC =        75.25431677
  Ewald energy   TEWEN  =    138308.92317540
  -Hartree energ DENC   =   -182494.03194767
  -exchange      EXHF   =         0.00000000
  -V(xc)+E(xc)   XCENC  =     -1693.03299298
  PAW double counting   =     46329.95050689   -42803.45363270
  entropy T*S    EENTRO =        -0.02381159
  eigenvalues    EBANDS =     -2985.56074940
  atomic energy  EATOM  =     45086.50549395
  Solvation  Ediel_sol  =         0.00000000
  ---------------------------------------------------
  free energy    TOTEN  =      -175.46964134 eV

  energy without entropy =     -175.44582975  energy(sigma->0) =     -175.46368844


--------------------------------------------------------------------------------------------------------




--------------------------------------- Iteration      1(  22)  ---------------------------------------


    POTLOK:  cpu time   10.6781: real time   10.6824
    SETDIJ:  cpu time    0.1087: real time    0.1087
    EDDIAG:  cpu time   60.1528: real time   60.1555
  RMM-DIIS:  cpu time  154.8849: real time  154.8909
    ORTHCH:  cpu time   11.8585: real time   11.8586
       DOS:  cpu time    0.0014: real time    0.0014
    CHARGE:  cpu time   22.1692: real time   22.1696
    MIXING:  cpu time    0.9599: real time    0.9600
    --------------------------------------------
      LOOP:  cpu time  260.8136: real time  260.8271

 eigenvalue-minimisations  :   694
 total energy-change (2. order) : 0.4972381E-01  (-0.1956802E-01)
 number of electron     559.9999854 magnetization 
 augmentation part      241.0368348 magnetization 

 Broyden mixing:
  rms(total) = 0.57395E+00    rms(broyden)= 0.57373E+00
  rms(prec ) = 0.66277E+00
  weight for this iteration     100.00

 eigenvalues of (default mixing * dielectric matrix)
  average eigenvalue GAMMA=   0.3748
  2.0623  1.3731  0.8235  0.3909  0.3909  0.1757  0.1757  0.1511  0.1511  0.1054
  0.1054  0.1038  0.1038  0.0786  0.0648  0.0648  0.0499

 Free energy of the ion-electron system (eV)
  ---------------------------------------------------
  alpha Z        PSCENC =        75.25431677
  Ewald energy   TEWEN  =    138308.92317540
  -Hartree energ DENC   =   -182511.91373452
  -exchange      EXHF   =         0.00000000
  -V(xc)+E(xc)   XCENC  =     -1692.83377663
  PAW double counting   =     46330.19201820   -42802.94735277
  entropy T*S    EENTRO =        -0.11777617
  eigenvalues    EBANDS =     -2968.48228175
  atomic energy  EATOM  =     45086.50549395
  Solvation  Ediel_sol  =         0.00000000
  ---------------------------------------------------
  free energy    TOTEN  =      -175.41991753 eV

  energy without entropy =     -175.30214135  energy(sigma->0) =     -175.39047348


--------------------------------------------------------------------------------------------------------




--------------------------------------- Iteration      1(  23)  ---------------------------------------


    POTLOK:  cpu time   10.5731: real time   10.5779
    SETDIJ:  cpu time    0.1088: real time    0.1089
    EDDIAG:  cpu time   60.0093: real time   60.0124
  RMM-DIIS:  cpu time  155.3311: real time  155.3368
    ORTHCH:  cpu time   11.8363: real time   11.8365
       DOS:  cpu time    0.0014: real time    0.0014
    CHARGE:  cpu time   22.0805: real time   22.0810
    MIXING:  cpu time    1.0078: real time    1.0078
    --------------------------------------------
      LOOP:  cpu time  260.9485: real time  260.9626

 eigenvalue-minimisations  :   699
 total energy-change (2. order) : 0.7212993E-01  (-0.1535913E-01)
 number of electron     559.9999867 magnetization 
 augmentation part      241.0413200 magnetization 

 Broyden mixing:
  rms(total) = 0.53969E+00    rms(broyden)= 0.53952E+00
  rms(prec ) = 0.62965E+00
  weight for this iteration     100.00

 eigenvalues of (default mixing * dielectric matrix)
  average eigenvalue GAMMA=   0.3750
  2.1787  1.4511  0.8292  0.4001  0.4001  0.2092  0.1746  0.1746  0.1371  0.1371
[...]
 -0.006  -0.012   0.004   0.004   0.005  -0.006  -0.011   0.004
 -0.011  -0.020   0.007   0.007   0.009  -0.010  -0.019   0.006
 -0.015  -0.005   0.012   0.000   0.022  -0.014  -0.005   0.012
  0.000  -0.023  -0.006  -0.015  -0.000   0.000  -0.022  -0.006
 -0.022   0.000   0.009  -0.005  -0.016  -0.021   0.000   0.008
 -0.018  -0.006   0.015   0.000   0.027  -0.017  -0.006   0.015
  0.000  -0.027  -0.008  -0.018  -0.000   0.000  -0.027  -0.007
 -0.027   0.000   0.010  -0.006  -0.019  -0.026   0.000   0.010
 total augmentation occupancy for first ion, spin component:           1
  1.537  -0.031   0.004   0.015   0.022   0.076  -0.007  -0.002   0.036  -0.010   0.089  -0.030   0.011   0.003   0.003  -0.019
 -0.031   1.399   0.028   0.068  -0.002  -0.006   0.072   0.011  -0.014  -0.007   0.212  -0.064   0.019   0.002   0.003  -0.006
  0.004   0.028   1.543   0.001   0.001  -0.002   0.013   0.074  -0.012   0.017  -0.056   0.019  -0.003  -0.006  -0.005   0.016
  0.015   0.068   0.001   1.336   0.044   0.034  -0.013  -0.012   0.092  -0.022  -0.086   0.023  -0.001  -0.008  -0.003   0.001
  0.022  -0.002   0.001   0.044   1.439  -0.010  -0.008   0.016  -0.022   0.068  -0.095   0.030  -0.003  -0.009  -0.009   0.026
  0.076  -0.006  -0.002   0.034  -0.010   0.217   0.019  -0.002  -0.045   0.003  -0.048   0.002   0.017  -0.010   0.034  -0.004
 -0.007   0.072   0.013  -0.013  -0.008   0.019   0.262  -0.023  -0.004   0.005  -0.108   0.007  -0.001   0.051  -0.010  -0.001
 -0.002   0.011   0.074  -0.012   0.016  -0.002  -0.023   0.215   0.014  -0.020   0.028  -0.001  -0.012   0.009  -0.018   0.003
  0.036  -0.014  -0.012   0.092  -0.022  -0.045  -0.004   0.014   0.261   0.007   0.044  -0.004  -0.009   0.036   0.004   0.000
 -0.010  -0.007   0.017  -0.022   0.068   0.003   0.005  -0.020   0.007   0.258   0.047  -0.003  -0.038   0.002   0.049   0.007
  0.089   0.212  -0.056  -0.086  -0.095  -0.048  -0.108   0.028   0.044   0.047   0.948  -0.141   0.084   0.014   0.064  -0.013
 -0.030  -0.064   0.019   0.023   0.030   0.002   0.007  -0.001  -0.004  -0.003  -0.141   0.023  -0.014  -0.003  -0.010   0.003
  0.011   0.019  -0.003  -0.001  -0.003   0.017  -0.001  -0.012  -0.009  -0.038   0.084  -0.014   0.029  -0.008  -0.004  -0.003
  0.003   0.002  -0.006  -0.008  -0.009  -0.010   0.051   0.009   0.036   0.002   0.014  -0.003  -0.008   0.036   0.004   0.000
  0.003   0.003  -0.005  -0.003  -0.009   0.034  -0.010  -0.018   0.004   0.049   0.064  -0.010  -0.004   0.004   0.034  -0.000
 -0.019  -0.006   0.016   0.001   0.026  -0.004  -0.001   0.003   0.000   0.007  -0.013   0.003  -0.003   0.000  -0.000   0.001
  0.001  -0.028  -0.007  -0.018   0.001   0.001  -0.008  -0.002  -0.006  -0.000  -0.003   0.001   0.000  -0.003  -0.000   0.000
 -0.028   0.001   0.012  -0.005  -0.020  -0.006   0.001   0.003  -0.001  -0.007  -0.008   0.001  -0.000  -0.000  -0.003   0.000


------------------------ aborting loop because EDIFF is reached ----------------------------------------


    CHARGE:  cpu time   22.2058: real time   22.2057
    FORLOC:  cpu time    6.1798: real time    6.1798
    FORNL :  cpu time   57.9285: real time   57.9281
    STRESS:  cpu time  175.8879: real time  175.8871
    FORCOR:  cpu time   18.6927: real time   18.6926
    FORHAR:  cpu time    8.4069: real time    8.4069
    MIXING:  cpu time    2.7426: real time    2.7426
    OFIELD:  cpu time    0.0000: real time    0.0000

  FORCE on cell =-STRESS in cart. coord.  units (eV):
  Direction    XX          YY          ZZ          XY          YZ          ZX
  --------------------------------------------------------------------------------------
  Alpha Z    75.25432    75.25432    75.25432
  Ewald   44321.30391 45690.35009 48297.16358   317.13286  2046.99386   596.48877
  Hartree 59178.54312 60547.67188 62928.59910   271.86281  1847.93012   501.50895
  E(xc)   -2905.72611 -2905.88343 -2904.41190     0.30764     1.09742     0.57507
  Local  ************************************  -581.27404 -3872.22261 -1084.39959
  n-local  -879.63331  -879.89738  -879.10859     0.89178    -1.32118     2.51767
  augment  4104.68185  4105.37020  4099.90531    -1.83614    -2.98962    -3.55929
  Kinetic  7813.34270  7812.13527  7793.12982    -5.65522   -15.70427   -10.39374
  Fock        0.00000     0.00000     0.00000     0.00000     0.00000     0.00000
  -------------------------------------------------------------------------------------
  Total    -113.03543  -110.97617  -107.24290     1.42969     3.78373     2.73785
  in kB      -6.70751    -6.58531    -6.36378     0.08484     0.22453     0.16246
  external pressure =       -6.55 kB  Pullay stress =        0.00 kB


 VOLUME and BASIS-vectors are now :
 -----------------------------------------------------------------------------
  energy-cutoff  :      400.00
  volume of cell :    27000.00
      direct lattice vectors                 reciprocal lattice vectors
    30.000000000  0.000000000  0.000000000     0.033333333  0.000000000  0.000000000
     0.000000000 30.000000000  0.000000000     0.000000000  0.033333333  0.000000000
     0.000000000  0.000000000 30.000000000     0.000000000  0.000000000  0.033333333

  length of vectors
    30.000000000 30.000000000 30.000000000     0.033333333  0.033333333  0.033333333


 FORCES acting on ions
    electron-ion (+dipol)            ewald-force                    non-local-force                 convergence-correction
 -----------------------------------------------------------------------------------------------
   0.395E+03 0.974E+03 0.419E+03   -.393E+03 -.971E+03 -.419E+03   -.151E+01 -.183E+01 -.230E+00   0.561E-02 -.368E-02 -.121E-01
   -.975E+03 -.390E+03 0.425E+03   0.972E+03 0.388E+03 -.425E+03   0.181E+01 0.151E+01 -.200E+00   -.833E-02 -.134E-01 -.289E-02
   -.394E+03 0.974E+03 0.420E+03   0.392E+03 -.971E+03 -.419E+03   0.150E+01 -.183E+01 -.225E+00   0.461E-02 0.183E-02 -.123E-01
   0.975E+03 -.391E+03 0.422E+03   -.972E+03 0.389E+03 -.422E+03   -.183E+01 0.152E+01 -.202E+00   0.645E-02 0.287E-02 -.139E-02
   0.561E+00 0.589E+03 0.967E+03   -.556E+00 -.588E+03 -.963E+03   -.688E-02 -.301E+00 -.237E+01   0.882E-02 0.621E-02 -.149E-02
   0.274E+01 0.604E+03 -.959E+03   -.274E+01 -.603E+03 0.955E+03   -.320E-02 -.330E+00 0.236E+01   0.290E-02 -.797E-03 0.388E-02
   0.676E+00 0.114E+04 0.359E+01   -.681E+00 -.113E+04 -.357E+01   0.787E-03 -.311E+01 -.574E-02   0.482E-02 -.257E-02 -.616E-02
   0.114E+04 0.393E+01 0.560E+01   -.113E+04 -.394E+01 -.562E+01   -.311E+01 0.740E-02 0.151E-01   -.213E-02 -.130E-02 -.224E-02
   -.114E+04 0.619E+01 0.893E+01   0.113E+04 -.620E+01 -.895E+01   0.307E+01 0.646E-02 0.921E-02   -.845E-02 0.181E-02 -.101E-01
   0.447E+01 -.114E+04 0.249E+02   -.440E+01 0.114E+04 -.249E+02   -.460E-01 0.314E+01 -.206E-01   0.560E-02 -.335E-02 -.356E-02
   -.578E+03 0.581E+03 0.815E+03   0.576E+03 -.578E+03 -.812E+03   0.155E+01 -.156E+01 -.220E+01   0.496E-02 0.149E-01 0.439E-02
   -.583E+03 0.595E+03 -.807E+03   0.580E+03 -.592E+03 0.804E+03   0.154E+01 -.156E+01 0.221E+01   0.106E-02 0.358E-02 -.519E-03
   0.581E+03 -.577E+03 0.817E+03   -.578E+03 0.574E+03 -.814E+03   -.156E+01 0.157E+01 -.221E+01   0.186E-01 0.471E-02 -.516E-02
   0.628E+03 -.566E+03 -.791E+03   -.626E+03 0.563E+03 0.788E+03   -.164E+01 0.162E+01 0.236E+01   0.473E-02 0.481E-02 0.110E-03
   0.579E+03 0.580E+03 0.814E+03   -.577E+03 -.578E+03 -.811E+03   -.156E+01 -.156E+01 -.221E+01   0.185E-02 -.506E-02 -.547E-02
   0.585E+03 0.590E+03 -.808E+03   -.583E+03 -.588E+03 0.805E+03   -.156E+01 -.155E+01 0.221E+01   0.290E-02 -.435E-02 0.881E-02
   -.579E+03 -.576E+03 0.818E+03   0.577E+03 0.574E+03 -.815E+03   0.155E+01 0.156E+01 -.220E+01   -.950E-02 -.138E-01 0.866E-02
   -.686E+03 -.527E+03 -.725E+03   0.683E+03 0.525E+03 0.723E+03   0.163E+01 0.122E+01 0.161E+01   0.245E-02 -.319E-02 -.577E-02
   0.396E+03 0.978E+03 -.411E+03   -.394E+03 -.976E+03 0.411E+03   -.150E+01 -.181E+01 0.215E+00   0.436E-02 -.714E-03 0.108E-01
   -.991E+03 -.379E+03 -.394E+03   0.988E+03 0.377E+03 0.394E+03   0.188E+01 0.151E+01 0.226E+00   0.800E-03 -.519E-02 -.885E-02
   -.321E+03 0.326E+03 0.460E+03   0.321E+03 -.327E+03 -.461E+03   -.365E+00 0.386E+00 0.525E+00   0.164E-01 0.192E-01 -.166E-01
   0.974E+03 0.397E+03 0.420E+03   -.971E+03 -.395E+03 -.420E+03   -.182E+01 -.151E+01 -.246E+00   -.179E-02 -.735E-02 -.795E-02
   -.394E+03 -.971E+03 0.430E+03   0.392E+03 0.968E+03 -.430E+03   0.149E+01 0.181E+01 -.236E+00   0.130E-02 -.139E-01 -.761E-02
   -.394E+03 0.979E+03 -.411E+03   0.392E+03 -.977E+03 0.410E+03   0.151E+01 -.180E+01 0.210E+00   0.320E-02 0.539E-03 0.871E-02
   0.986E+03 -.386E+03 -.405E+03   -.983E+03 0.384E+03 0.405E+03   -.185E+01 0.149E+01 0.219E+00   0.252E-02 0.583E-02 0.205E-03
   -.973E+03 0.398E+03 0.422E+03   0.970E+03 -.396E+03 -.421E+03   0.182E+01 -.151E+01 -.210E+00   0.353E-03 0.174E-01 -.765E-02
   0.398E+03 -.971E+03 0.428E+03   -.396E+03 0.968E+03 -.428E+03   -.149E+01 0.182E+01 -.216E+00   0.163E-01 -.761E-02 -.506E-02
   0.323E+03 0.325E+03 0.459E+03   -.323E+03 -.326E+03 -.460E+03   0.358E+00 0.367E+00 0.500E+00   0.122E-01 0.623E-02 -.124E-01
   0.131E+01 0.646E+03 0.726E+01   -.133E+01 -.647E+03 -.726E+01   0.358E-02 0.740E+00 0.927E-02   0.912E-02 0.307E-02 -.545E-02
   -.587E+03 0.296E+01 0.969E+03   0.586E+03 -.296E+01 -.965E+03   0.294E+00 -.551E-02 -.236E+01   -.122E-02 0.407E-02 0.118E-01
   -.607E+03 0.400E+02 -.947E+03   0.607E+03 -.402E+02 0.944E+03   0.278E+00 0.879E-01 0.241E+01   0.546E-02 0.221E-02 -.783E-02
   0.588E+03 0.255E+01 0.968E+03   -.587E+03 -.252E+01 -.964E+03   -.309E+00 -.207E-01 -.237E+01   0.140E-01 -.140E-02 -.457E-02
   0.607E+03 0.202E+02 -.955E+03   -.606E+03 -.202E+02 0.952E+03   -.333E+00 -.108E-01 0.237E+01   0.269E-02 -.388E-02 0.465E-02
   0.763E+03 0.766E+03 0.539E+01   -.761E+03 -.764E+03 -.539E+01   -.114E+01 -.115E+01 0.572E-02   0.104E-03 -.108E-02 -.522E-02
   -.769E+03 -.756E+03 0.250E+02   0.767E+03 0.754E+03 -.250E+02   0.117E+01 0.117E+01 -.302E-01   -.742E-03 -.111E-01 -.108E-01
   -.762E+03 0.767E+03 0.674E+01   0.760E+03 -.765E+03 -.675E+01   0.115E+01 -.113E+01 0.195E-01   0.730E-02 0.136E-01 -.953E-02
   0.771E+03 -.757E+03 0.161E+02   -.769E+03 0.755E+03 -.160E+02   -.117E+01 0.113E+01 -.581E-01   0.108E-01 0.439E-02 -.104E-02
   0.776E+00 0.301E+01 0.107E+04   -.800E+00 -.300E+01 -.107E+04   0.339E-02 -.188E-01 -.162E+01   0.207E-01 0.137E-01 0.117E-02
   0.139E+02 0.539E+02 -.105E+04   -.140E+02 -.542E+02 0.105E+04   0.612E-01 0.190E+00 0.171E+01   0.853E-02 -.300E-03 -.287E-02
   0.979E+03 0.402E+03 -.410E+03   -.976E+03 -.400E+03 0.409E+03   -.183E+01 -.150E+01 0.214E+00   0.799E-03 -.254E-02 0.719E-02
   -.403E+03 -.984E+03 -.338E+03   0.401E+03 0.982E+03 0.337E+03   0.142E+01 0.167E+01 0.586E+00   0.141E-02 -.373E-02 -.473E-02
   -.322E+03 0.340E+03 -.439E+03   0.323E+03 -.341E+03 0.440E+03   -.355E+00 0.317E+00 -.541E+00   0.814E-02 0.886E-02 0.242E-02
   0.324E+03 -.317E+03 0.463E+03   -.325E+03 0.317E+03 -.464E+03   0.377E+00 -.349E+00 0.549E+00   0.270E-01 0.736E-02 -.786E-02
   0.328E+03 0.336E+03 -.441E+03   -.328E+03 -.337E+03 0.442E+03   0.344E+00 0.343E+00 -.535E+00   0.848E-02 0.200E-02 0.663E-02
   -.979E+03 0.407E+03 -.406E+03   0.976E+03 -.405E+03 0.406E+03   0.185E+01 -.153E+01 0.175E+00   0.457E-02 0.128E-01 -.468E-02
   0.424E+03 -.979E+03 -.370E+03   -.422E+03 0.975E+03 0.370E+03   -.149E+01 0.198E+01 0.304E+00   0.685E-02 0.123E-02 -.512E-02
   -.321E+03 -.316E+03 0.465E+03   0.322E+03 0.317E+03 -.466E+03   -.364E+00 -.361E+00 0.538E+00   0.725E-02 -.661E-03 -.140E-01
   0.645E+03 0.734E+01 0.107E+02   -.646E+03 -.740E+01 -.107E+02   0.751E+00 0.410E-01 0.350E-01   0.101E-01 0.794E-02 -.305E-02
   -.643E+03 0.104E+02 0.151E+02   0.644E+03 -.103E+02 -.151E+02   -.712E+00 -.249E-01 -.512E-01   0.112E-01 0.106E-01 -.143E-01
   0.101E+01 -.585E+03 0.970E+03   -.102E+01 0.584E+03 -.967E+03   -.483E-03 0.325E+00 -.234E+01   0.138E-01 -.979E-02 0.203E-02
   0.159E+03 -.477E+03 -.737E+03   -.155E+03 0.479E+03 0.740E+03   -.585E+01 -.316E+01 -.640E+01   0.682E-02 0.214E-02 -.384E-02
   0.298E+01 0.115E+02 0.167E+02   -.298E+01 -.114E+02 -.167E+02   -.864E-02 -.149E-01 -.242E-01   0.161E-01 0.140E-01 -.895E-02
   0.342E+03 -.300E+03 -.421E+03   -.343E+03 0.301E+03 0.422E+03   0.265E+00 -.605E+00 -.730E+00   0.110E-01 0.594E-02 -.662E-02
   -.328E+03 -.290E+03 -.405E+03   0.328E+03 0.290E+03 0.405E+03   -.372E+00 -.183E+00 -.226E+00   0.896E-02 0.463E-03 -.727E-02
   0.508E+01 -.633E+03 0.289E+02   -.509E+01 0.634E+03 -.288E+02   -.692E-02 -.744E+00 -.551E-01   0.101E-01 -.247E-02 -.101E-01
   -.731E+02 -.129E+03 -.270E+03   0.711E+02 0.119E+03 0.255E+03   0.220E+01 0.868E+01 0.123E+02   0.870E-03 -.461E-03 -.208E-02
   -.108E+03 -.426E+03 -.671E+03   0.118E+03 0.463E+03 0.726E+03   -.807E+01 -.336E+02 -.495E+02   0.149E-02 -.483E-03 -.168E-02
 -----------------------------------------------------------------------------------------------
   0.116E+02 0.284E+02 0.461E+02   0.341E-12 0.341E-12 -.796E-12   -.119E+02 -.285E+02 -.459E+02   0.334E+00 0.803E-01 -.195E+00
 
 
 POSITION                                       TOTAL-FORCE (eV/Angst)
 -----------------------------------------------------------------------------------
     13.37281      9.84801     12.50759         0.705880      1.106666      0.296598
     20.15199     16.62719     12.50759        -1.111163     -0.711505      0.288345
     16.62719      9.84801     12.50759        -0.703107      1.103886      0.288807
      9.84801     16.62719     12.50759         1.100978     -0.712178      0.284079
     15.00000     11.47521     10.20639         0.006432      0.408142      1.282848
     15.00000     11.47521     19.79360        -0.002707      0.406742     -1.287602
     15.00000      8.28283     15.00000         0.000322      1.513798      0.004911
      8.28283     15.00000     15.00000         1.519128     -0.004011     -0.009959
     21.71717     15.00000     15.00000        -1.507943     -0.001565     -0.020544
     15.00000     21.71717     15.00000         0.032231     -1.530054      0.023157
     18.35858     11.64142     10.25025        -0.751780      0.758970      1.074951
     18.35858     11.64142     19.74975        -0.755731      0.757990     -1.075838
     11.64142     18.35858     10.25025         0.754771     -0.758098      1.072358
     11.64142     18.35858     19.74975         0.756865     -0.759220     -1.088839
     11.64142     11.64142     10.25025         0.749373      0.754494      1.072352
     11.64142     11.64142     19.74975         0.757869      0.755660     -1.074121
     18.35858     18.35858     10.25025        -0.754044     -0.761432      1.074055
     18.35858     18.35858     19.74975        -1.152972     -0.579800     -0.752277
     13.37281      9.84801     17.49241         0.705135      1.107485     -0.290974
     20.15199     16.62719     17.49241        -1.062833     -0.758934     -0.316618
     16.73751     13.26249     12.54279         0.112490     -0.108646     -0.155211
      9.84801     13.37281     12.50759         1.101743      0.709397      0.304377
     16.62719     20.15199     12.50759        -0.703151     -1.109249      0.291868
     16.62719      9.84801     17.49241        -0.711650      1.104155     -0.290621
      9.84801     16.62719     17.49241         1.107541     -0.698518     -0.289173
     20.15199     13.37281     12.50759        -1.107907      0.709102      0.285451
     13.37281     20.15199     12.50759         0.702038     -1.110903      0.290611
     13.26249     13.26249     12.54279        -0.107850     -0.113129     -0.154300
     15.00000     11.52498     15.00000        -0.007775     -0.220982      0.001956
     18.52479     15.00000     10.20639        -0.408067      0.004596      1.282347
     18.52479     15.00000     19.79360        -0.372778     -0.062365     -1.304471
     11.47521     15.00000     10.20640         0.414035      0.014916      1.282713
     11.47521     15.00000     19.79360         0.407371     -0.007171     -1.292019
     11.49535     11.49535     15.00000         0.827468      0.825107     -0.000075
     18.50465     18.50465     15.00000        -0.829113     -0.827491     -0.016268
     18.50465     11.49535     15.00000        -0.832373      0.824772     -0.003655
     11.49535     18.50465     15.00000         0.840837     -0.818832      0.017413
     15.00000     15.00000     10.04368         0.001010      0.005910      1.178119
     15.00000     15.00000     19.95633        -0.019835     -0.075263     -1.174777
      9.84801     13.37281     17.49241         1.110951      0.703128     -0.288150
     16.62719     20.15199     17.49241        -0.724768     -1.013404     -0.398365
     16.73751     13.26249     17.45721         0.118858     -0.113388      0.152072
     13.26249     16.73751     12.54279        -0.112836      0.103156     -0.163234
     13.26249     13.26249     17.45721        -0.113169     -0.108718      0.159834
     20.15199     13.37281     17.49241        -1.111708      0.722269     -0.269301
     13.37281     20.15199     17.49241         0.638126     -1.130018     -0.357423
     16.73751     16.73751     12.54279         0.115433      0.112187     -0.155924
     11.52498     15.00000     15.00000        -0.255896     -0.014429     -0.030109
     18.47502     15.00000     15.00000         0.224636      0.001143     -0.006641
     15.00000     18.52480     10.20639        -0.000225     -0.416789      1.280145
     15.00000     18.52480     19.79360        -0.960605     -1.086132     -2.596675
     15.00000     15.00000     15.00000         0.006849      0.019100      0.012848
     13.26249     16.73751     17.45721        -0.099104      0.135702      0.167226
     16.73751     16.73751     17.45721         0.131170      0.024840      0.048939
     15.00000     18.47502     15.00000        -0.007631      0.222617      0.011022
     16.05803     19.10582     21.10446         0.201090     -2.200914     -3.300579
     16.21861     19.72895     22.03092         1.138089      2.897205      4.634341
 -----------------------------------------------------------------------------------
    total drift:                                0.001202     -0.000205      0.000294


--------------------------------------------------------------------------------------------------------



  FREE ENERGIE OF THE ION-ELECTRON SYSTEM (eV)
  ---------------------------------------------------
  free  energy   TOTEN  =      -175.17200025 eV

  energy  without entropy=     -175.08114534  energy(sigma->0) =     -175.14928652
 


--------------------------------------------------------------------------------------------------------


    POTLOK:  cpu time   11.2338: real time   11.2342


--------------------------------------------------------------------------------------------------------


     LOOP+:  cpu time14821.4378: real time14822.1716
    4ORBIT:  cpu time    0.0000: real time    0.0000

 total amount of memory used by VASP MPI-rank0  5486940. kBytes
=======================================================================

   base      :      30000. kBytes
   nonlr-proj:      17125. kBytes
   fftplans  :     924480. kBytes
   grid      :    1872000. kBytes
   one-center:        886. kBytes
   wavefun   :    2642449. kBytes
 
  
  
 General timing and accounting informations for this job:
 ========================================================
  
                  Total CPU time used (sec):    14888.282
                            User time (sec):    14055.196
                          System time (sec):      833.087
                         Elapsed time (sec):    14889.127
  
                   Maximum memory used (kb):     7178744.
                   Average memory used (kb):           0.
  
                          Minor page faults:    769186208
                          Major page faults:            0
                 Voluntary context switches:          701
