  57  57   0   0
  0.4736842E+03  0.3000000E-08  0.3000000E-08  0.3000000E-08  0.5000000E-15
  1.000000000000000E-004
  CAR 
 6_Pd100_top_free_z(O)                   
      1.34459012    -30.63929154  301     -4.13157615      1.00000000
    -30.639  0.0000E+00  0.0000E+00
    -30.533  0.0000E+00  0.0000E+00
    -30.426  0.0000E+00  0.0000E+00
    -30.319  0.3340E-27  0.3561E-28
    -30.213  0.1590E-23  0.1695E-24
    -30.106  0.4221E-20  0.4502E-21
    -30.000  0.6232E-17  0.6649E-18
    -29.893  0.5100E-14  0.5444E-15
    -29.786  0.2307E-11  0.2465E-12
    -29.680  0.5707E-09  0.6109E-10
    -29.573  0.7663E-07  0.8231E-08
    -29.467  0.5499E-05  0.5945E-06
    -29.360  0.2055E-03  0.2250E-04
    -29.253  0.3802E-02  0.4278E-03
    -29.147  0.3069E-01  0.3699E-02
    -29.040  0.5773E-01  0.9854E-02
    -28.933 -0.3382E+00 -0.2621E-01
    -28.827 -0.7198E+00 -0.1030E+00
    -28.720  0.3250E+01  0.2436E+00
    -28.614  0.9608E+01  0.1268E+01
    -28.507  0.7048E+01  0.2019E+01
    -28.400  0.5374E+00  0.2077E+01
    -28.294 -0.7355E+00  0.1998E+01
    -28.187 -0.5384E-01  0.1992E+01
    -28.081  0.5745E-01  0.1999E+01
    -27.974  0.1265E-01  0.2000E+01
    -27.867  0.1025E-02  0.2000E+01
    -27.761  0.3914E-04  0.2000E+01
    -27.654  0.7620E-06  0.2000E+01
    -27.548  0.7836E-08  0.2000E+01
    -27.441  0.4342E-10  0.2000E+01
    -27.334  0.1312E-12  0.2000E+01
    -27.228  0.0000E+00  0.2000E+01
    -27.121  0.0000E+00  0.2000E+01
    -27.014  0.0000E+00  0.2000E+01
    -26.908  0.0000E+00  0.2000E+01
    -26.801  0.0000E+00  0.2000E+01
    -26.695  0.0000E+00  0.2000E+01
    -26.588  0.0000E+00  0.2000E+01
    -26.481  0.0000E+00  0.2000E+01
    -26.375  0.0000E+00  0.2000E+01
    -26.268  0.0000E+00  0.2000E+01
    -26.162  0.0000E+00  0.2000E+01
    -26.055  0.0000E+00  0.2000E+01
    -25.948  0.0000E+00  0.2000E+01
    -25.842  0.0000E+00  0.2000E+01
    -25.735  0.0000E+00  0.2000E+01
    -25.628  0.0000E+00  0.2000E+01
    -25.522  0.0000E+00  0.2000E+01
    -25.415  0.0000E+00  0.2000E+01
    -25.309  0.0000E+00  0.2000E+01
    -25.202  0.0000E+00  0.2000E+01
    -25.095  0.0000E+00  0.2000E+01
    -24.989  0.0000E+00  0.2000E+01
    -24.882  0.0000E+00  0.2000E+01
    -24.776  0.0000E+00  0.2000E+01
    -24.669  0.0000E+00  0.2000E+01
    -24.562  0.0000E+00  0.2000E+01
    -24.456  0.0000E+00  0.2000E+01
    -24.349  0.0000E+00  0.2000E+01
    -24.243  0.0000E+00  0.2000E+01
    -24.136  0.0000E+00  0.2000E+01
    -24.029  0.0000E+00  0.2000E+01
    -23.923  0.0000E+00  0.2000E+01
    -23.816  0.0000E+00  0.2000E+01
    -23.709  0.0000E+00  0.2000E+01
    -23.603  0.0000E+00  0.2000E+01
    -23.496  0.0000E+00  0.2000E+01
    -23.390  0.0000E+00  0.2000E+01
    -23.283  0.0000E+00  0.2000E+01
    -23.176  0.0000E+00  0.2000E+01
    -23.070  0.0000E+00  0.2000E+01
    -22.963  0.0000E+00  0.2000E+01
    -22.857  0.0000E+00  0.2000E+01
    -22.750  0.0000E+00  0.2000E+01
    -22.643  0.0000E+00  0.2000E+01
    -22.537  0.0000E+00  0.2000E+01
    -22.430  0.0000E+00  0.2000E+01
    -22.323  0.0000E+00  0.2000E+01
    -22.217  0.0000E+00  0.2000E+01
    -22.110  0.0000E+00  0.2000E+01
    -22.004  0.0000E+00  0.2000E+01
    -21.897  0.0000E+00  0.2000E+01
    -21.790  0.0000E+00  0.2000E+01
    -21.684  0.0000E+00  0.2000E+01
    -21.577  0.0000E+00  0.2000E+01
    -21.471  0.0000E+00  0.2000E+01
    -21.364  0.0000E+00  0.2000E+01
    -21.257  0.0000E+00  0.2000E+01
    -21.151  0.0000E+00  0.2000E+01
    -21.044  0.0000E+00  0.2000E+01
    -20.938  0.0000E+00  0.2000E+01
    -20.831  0.0000E+00  0.2000E+01
    -20.724  0.0000E+00  0.2000E+01
    -20.618  0.0000E+00  0.2000E+01
    -20.511  0.0000E+00  0.2000E+01
    -20.404  0.0000E+00  0.2000E+01
    -20.298  0.0000E+00  0.2000E+01
    -20.191  0.0000E+00  0.2000E+01
    -20.085  0.0000E+00  0.2000E+01
    -19.978  0.0000E+00  0.2000E+01
    -19.871  0.0000E+00  0.2000E+01
    -19.765  0.0000E+00  0.2000E+01
    -19.658  0.0000E+00  0.2000E+01
    -19.552  0.0000E+00  0.2000E+01
    -19.445  0.0000E+00  0.2000E+01
    -19.338  0.0000E+00  0.2000E+01
    -19.232  0.0000E+00  0.2000E+01
    -19.125  0.0000E+00  0.2000E+01
    -19.018  0.0000E+00  0.2000E+01
    -18.912  0.0000E+00  0.2000E+01
    -18.805  0.0000E+00  0.2000E+01
    -18.699  0.0000E+00  0.2000E+01
    -18.592  0.0000E+00  0.2000E+01
    -18.485  0.0000E+00  0.2000E+01
    -18.379  0.0000E+00  0.2000E+01
    -18.272  0.0000E+00  0.2000E+01
    -18.166  0.0000E+00  0.2000E+01
    -18.059  0.0000E+00  0.2000E+01
    -17.952  0.0000E+00  0.2000E+01
    -17.846  0.0000E+00  0.2000E+01
    -17.739  0.0000E+00  0.2000E+01
    -17.633  0.0000E+00  0.2000E+01
    -17.526  0.0000E+00  0.2000E+01
    -17.419  0.0000E+00  0.2000E+01
    -17.313  0.0000E+00  0.2000E+01
    -17.206  0.0000E+00  0.2000E+01
    -17.099  0.0000E+00  0.2000E+01
    -16.993  0.0000E+00  0.2000E+01
    -16.886  0.0000E+00  0.2000E+01
    -16.780  0.0000E+00  0.2000E+01
    -16.673  0.0000E+00  0.2000E+01
    -16.566  0.0000E+00  0.2000E+01
    -16.460  0.0000E+00  0.2000E+01
    -16.353  0.0000E+00  0.2000E+01
    -16.247  0.0000E+00  0.2000E+01
    -16.140  0.0000E+00  0.2000E+01
    -16.033  0.0000E+00  0.2000E+01
    -15.927  0.0000E+00  0.2000E+01
    -15.820  0.0000E+00  0.2000E+01
    -15.713  0.0000E+00  0.2000E+01
    -15.607  0.0000E+00  0.2000E+01
    -15.500  0.0000E+00  0.2000E+01
    -15.394  0.0000E+00  0.2000E+01
    -15.287  0.2848E-27  0.2000E+01
    -15.180  0.1370E-23  0.2000E+01
    -15.074  0.3677E-20  0.2000E+01
    -14.967  0.5487E-17  0.2000E+01
    -14.861  0.4539E-14  0.2000E+01
    -14.754  0.2075E-11  0.2000E+01
    -14.647  0.5191E-09  0.2000E+01
    -14.541  0.7049E-07  0.2000E+01
    -14.434  0.5117E-05  0.2000E+01
    -14.328  0.1936E-03  0.2000E+01
    -14.221  0.3630E-02  0.2000E+01
    -14.114  0.2981E-01  0.2004E+01
    -14.008  0.5891E-01  0.2010E+01
    -13.901 -0.3244E+00  0.1975E+01
    -13.794 -0.7358E+00  0.1897E+01
    -13.688  0.3125E+01  0.2230E+01
    -13.581  0.9549E+01  0.3248E+01
    -13.475  0.7174E+01  0.4013E+01
    -13.368  0.6132E+00  0.4078E+01
    -13.261 -0.7460E+00  0.3999E+01
    -13.155 -0.6118E-01  0.3992E+01
    -13.048  0.5823E-01  0.3998E+01
    -12.942  0.1314E-01  0.4000E+01
    -12.835  0.1084E-02  0.4000E+01
    -12.728  0.1980E-03  0.4000E+01
    -12.622  0.3073E-02  0.4000E+01
    -12.515  0.2682E-01  0.4003E+01
    -12.408  0.6210E-01  0.4010E+01
    -12.302 -0.2769E+00  0.3980E+01
    -12.195 -0.7803E+00  0.3897E+01
    -12.089  0.2690E+01  0.4184E+01
    -11.982  0.9319E+01  0.5177E+01
    -11.875  0.7650E+01  0.5993E+01
    -11.769  0.9405E+00  0.6093E+01
    -11.662 -0.1254E+01  0.5960E+01
    -11.556 -0.5735E+00  0.5898E+01
    -11.449  0.4555E+01  0.6384E+01
    -11.342  0.9984E+01  0.7449E+01
    -11.236  0.5796E+01  0.8067E+01
    -11.129 -0.6981E-01  0.8059E+01
    -11.023 -0.6154E+00  0.7994E+01
    -10.916  0.8185E-02  0.7994E+01
    -10.809  0.8611E-01  0.8004E+01
    -10.703  0.5381E-01  0.8009E+01
    -10.596 -0.4395E+00  0.7962E+01
    -10.489 -0.5590E+00  0.7903E+01
    -10.383  0.4172E+01  0.8348E+01
    -10.276  0.9911E+01  0.9404E+01
    -10.170  0.6120E+01  0.1006E+02
    -10.063  0.6494E-01  0.1006E+02
     -9.956 -0.6488E+00  0.9994E+01
     -9.850 -0.9307E-02  0.9993E+01
     -9.743  0.5121E-01  0.9999E+01
     -9.637  0.9596E-02  0.1000E+02
     -9.530  0.7004E-03  0.1000E+02
     -9.423  0.2445E-04  0.1000E+02
     -9.317  0.4378E-06  0.1000E+02
     -9.210  0.4154E-08  0.1000E+02
     -9.103  0.2127E-10  0.1000E+02
     -8.997  0.6040E-13  0.1000E+02
     -8.890  0.0000E+00  0.1000E+02
     -8.784  0.0000E+00  0.1000E+02
     -8.677  0.0000E+00  0.1000E+02
     -8.570  0.0000E+00  0.1000E+02
     -8.464  0.1785E-24  0.1000E+02
     -8.357  0.5532E-21  0.1000E+02
     -8.251  0.9545E-18  0.1000E+02
     -8.144  0.9137E-15  0.1000E+02
     -8.037  0.4841E-12  0.1000E+02
     -7.931  0.1405E-09  0.1000E+02
     -7.824  0.2222E-07  0.1000E+02
     -7.718  0.1886E-05  0.1000E+02
     -7.611  0.8408E-04  0.1000E+02
     -7.504  0.1888E-02  0.1000E+02
     -7.398  0.1942E-01  0.1000E+02
     -7.291  0.6446E-01  0.1001E+02
     -7.184 -0.1521E+00  0.9993E+01
     -7.078 -0.7730E+00  0.9911E+01
     -6.971  0.1610E+01  0.1008E+02
     -6.865  0.7898E+01  0.1092E+02
     -6.758  0.8396E+01  0.1182E+02
     -6.651  0.7002E+01  0.1257E+02
     -6.545  0.9028E+01  0.1353E+02
     -6.438  0.4002E+01  0.1396E+02
     -6.332  0.1079E+01  0.1407E+02
     -6.225  0.1329E+02  0.1549E+02
     -6.118  0.2947E+02  0.1863E+02
     -6.012  0.2790E+02  0.2160E+02
     -5.905  0.2424E+02  0.2419E+02
     -5.798  0.4089E+02  0.2855E+02
     -5.692  0.7395E+02  0.3643E+02
     -5.585  0.1469E+03  0.5210E+02
     -5.479  0.2518E+03  0.7894E+02
     -5.372  0.2857E+03  0.1094E+03
     -5.265  0.2309E+03  0.1340E+03
     -5.159  0.2187E+03  0.1573E+03
     -5.052  0.2995E+03  0.1893E+03
     -4.946  0.3608E+03  0.2277E+03
     -4.839  0.3203E+03  0.2619E+03
     -4.732  0.2919E+03  0.2930E+03
     -4.626  0.3654E+03  0.3319E+03
     -4.519  0.4197E+03  0.3767E+03
     -4.413  0.4232E+03  0.4218E+03
     -4.306  0.4983E+03  0.4749E+03
     -4.199  0.5419E+03  0.5327E+03
     -4.093  0.3491E+03  0.5699E+03
     -3.986  0.9421E+02  0.5800E+03
     -3.879  0.1605E+02  0.5817E+03
     -3.773  0.3053E+02  0.5850E+03
     -3.666  0.2323E+02  0.5874E+03
     -3.560  0.1156E+02  0.5887E+03
     -3.453  0.1717E+02  0.5905E+03
     -3.346  0.1493E+02  0.5921E+03
     -3.240  0.5703E+01  0.5927E+03
     -3.133  0.1575E+02  0.5944E+03
     -3.027  0.5106E+02  0.5998E+03
     -2.920  0.6030E+02  0.6062E+03
     -2.813  0.2803E+02  0.6092E+03
     -2.707  0.5030E+01  0.6098E+03
     -2.600  0.6034E+01  0.6104E+03
     -2.493  0.2049E+02  0.6126E+03
     -2.387  0.2217E+02  0.6150E+03
     -2.280  0.1202E+02  0.6162E+03
     -2.174  0.1894E+02  0.6183E+03
     -2.067  0.3415E+02  0.6219E+03
     -1.960  0.3960E+02  0.6261E+03
     -1.854  0.4264E+02  0.6307E+03
     -1.747  0.3946E+02  0.6349E+03
     -1.641  0.3466E+02  0.6386E+03
     -1.534  0.3639E+02  0.6424E+03
     -1.427  0.3115E+02  0.6458E+03
     -1.321  0.2143E+02  0.6481E+03
     -1.214  0.1552E+02  0.6497E+03
     -1.108  0.1671E+02  0.6515E+03
     -1.001  0.3892E+02  0.6556E+03
     -0.894  0.6465E+02  0.6625E+03
     -0.788  0.5408E+02  0.6683E+03
     -0.681  0.2525E+02  0.6710E+03
     -0.574  0.8715E+01  0.6719E+03
     -0.468  0.1440E+01  0.6721E+03
     -0.361 -0.6861E+00  0.6720E+03
     -0.255 -0.1444E+00  0.6720E+03
     -0.148  0.9979E-01  0.6720E+03
     -0.041  0.3441E-01  0.6720E+03
      0.065  0.3963E-02  0.6720E+03
      0.172  0.2091E-03  0.6720E+03
      0.278  0.5542E-05  0.6720E+03
      0.385  0.7691E-07  0.6720E+03
      0.492  0.5717E-09  0.6720E+03
      0.598  0.2310E-11  0.6720E+03
      0.705  0.4165E-14  0.6720E+03
      0.812  0.0000E+00  0.6720E+03
      0.918  0.0000E+00  0.6720E+03
      1.025  0.0000E+00  0.6720E+03
      1.131  0.0000E+00  0.6720E+03
      1.238  0.0000E+00  0.6720E+03
      1.345  0.0000E+00  0.6720E+03
