   57   57    1    1
  0.4736842E+03  0.3000000E-08  0.3000000E-08  0.3000000E-08  0.5000000E-15
  1.000000000000000E-004
  CAR 
 6_Pd100_top_free_z(O)                   
    560      1    336
 
  0.0000000E+00  0.0000000E+00  0.0000000E+00  0.1000000E+01
    1      -29.225406   1.000000
    2      -13.752887   1.000000
    3      -11.543166   1.000000
    4      -11.531724   1.000000
    5       -9.422857   1.000000
    6       -6.627255   1.000000
    7       -6.108575   1.000000
    8       -6.108299   1.000000
    9       -6.101749   1.000000
   10       -5.794059   1.000000
   11       -5.793042   1.000000
   12       -5.789215   1.000000
   13       -5.725811   1.000000
   14       -5.678543   1.000000
   15       -5.670132   1.000000
   16       -5.666232   1.000000
   17       -5.664637   1.000000
   18       -5.605072   1.000000
   19       -5.601694   1.000000
   20       -5.591152   1.000000
   21       -5.581791   1.000000
   22       -5.577421   1.000000
   23       -5.574950   1.000000
   24       -5.532343   1.000000
   25       -5.529670   1.000000
   26       -5.527793   1.000000
   27       -5.526859   1.000000
   28       -5.502682   1.000000
   29       -5.501952   1.000000
   30       -5.501382   1.000000
   31       -5.498486   1.000000
   32       -5.497089   1.000000
   33       -5.494688   1.000000
   34       -5.494536   1.000000
   35       -5.491041   1.000000
   36       -5.462660   1.000000
   37       -5.459443   1.000000
   38       -5.452820   1.000000
   39       -5.451442   1.000000
   40       -5.450025   1.000000
   41       -5.449473   1.000000
   42       -5.448853   1.000000
   43       -5.448686   1.000000
   44       -5.415750   1.000000
   45       -5.411872   1.000000
   46       -5.411253   1.000000
   47       -5.408955   1.000000
   48       -5.408581   1.000000
   49       -5.404180   1.000000
   50       -5.402402   1.000000
   51       -5.402072   1.000000
   52       -5.386754   1.000000
   53       -5.386361   1.000000
   54       -5.385509   1.000000
   55       -5.370530   1.000000
   56       -5.319568   1.000000
   57       -5.309320   1.000000
   58       -5.308615   1.000000
   59       -5.307661   1.000000
   60       -5.300408   1.000000
   61       -5.299427   1.000000
   62       -5.297831   1.000000
   63       -5.282173   1.000000
   64       -5.281948   1.000000
   65       -5.281234   1.000000
   66       -5.269802   1.000000
   67       -5.268262   1.000000
   68       -5.198775   1.000000
   69       -5.186272   1.000000
   70       -5.185520   1.000000
   71       -5.184846   1.000000
   72       -5.173176   1.000000
   73       -5.166249   1.000000
   74       -5.162072   1.000000
   75       -5.160736   1.000000
   76       -5.158702   1.000000
   77       -5.143794   1.000000
   78       -5.143113   1.000000
   79       -5.142750   1.000000
   80       -5.130254   1.000000
   81       -5.114874   1.000000
   82       -5.105452   1.000000
   83       -5.104104   1.000000
   84       -5.093565   1.000000
   85       -5.088171   1.000000
   86       -5.085809   1.000000
   87       -5.083639   1.000000
   88       -5.061470   1.000000
   89       -5.046399   1.000000
   90       -5.040353   1.000000
   91       -5.036544   1.000000
   92       -5.035117   1.000000
   93       -5.032606   1.000000
   94       -5.030969   1.000000
   95       -5.029572   1.000000
   96       -5.011575   1.000000
   97       -5.010555   1.000000
   98       -5.009952   1.000000
   99       -4.999545   1.000000
  100       -4.998093   1.000000
  101       -4.992638   1.000000
  102       -4.987680   1.000000
  103       -4.985374   1.000000
  104       -4.973978   1.000000
  105       -4.972227   1.000000
  106       -4.971235   1.000000
  107       -4.965461   1.000000
  108       -4.963895   1.000000
  109       -4.960472   1.000000
  110       -4.949692   1.000000
  111       -4.949546   1.000000
  112       -4.940784   0.999999
  113       -4.937592   0.999999
  114       -4.934695   0.999999
  115       -4.934331   0.999999
  116       -4.932182   0.999999
  117       -4.918398   0.999999
  118       -4.907335   0.999998
  119       -4.898814   0.999998
  120       -4.897636   0.999998
  121       -4.887574   0.999997
  122       -4.884703   0.999996
  123       -4.882590   0.999996
  124       -4.881509   0.999996
  125       -4.880791   0.999996
  126       -4.880688   0.999996
  127       -4.833064   0.999981
  128       -4.825576   0.999976
  129       -4.823982   0.999975
  130       -4.822155   0.999974
  131       -4.821727   0.999974
  132       -4.821027   0.999973
  133       -4.814264   0.999967
  134       -4.811693   0.999965
  135       -4.810353   0.999963
  136       -4.776677   0.999908
  137       -4.773913   0.999901
  138       -4.773126   0.999898
  139       -4.772580   0.999897
  140       -4.750098   0.999818
  141       -4.747545   0.999806
  142       -4.745359   0.999795
  143       -4.736873   0.999749
  144       -4.725131   0.999670
  145       -4.720639   0.999635
  146       -4.708149   0.999519
  147       -4.705079   0.999486
  148       -4.700095   0.999428
  149       -4.693458   0.999343
  150       -4.671230   0.998982
  151       -4.667460   0.998908
  152       -4.666840   0.998895
  153       -4.665924   0.998876
  154       -4.663734   0.998830
  155       -4.661927   0.998791
  156       -4.656816   0.998676
  157       -4.653503   0.998597
  158       -4.652489   0.998572
  159       -4.647786   0.998453
  160       -4.638438   0.998195
  161       -4.633864   0.998060
  162       -4.630559   0.997959
  163       -4.628304   0.997888
  164       -4.627665   0.997867
  165       -4.627433   0.997860
  166       -4.626947   0.997844
  167       -4.626241   0.997821
  168       -4.624034   0.997749
  169       -4.620315   0.997625
  170       -4.610723   0.997290
  171       -4.598159   0.996828
  172       -4.586989   0.996408
  173       -4.581499   0.996204
  174       -4.576845   0.996035
  175       -4.576719   0.996031
  176       -4.575859   0.996000
  177       -4.574261   0.995944
  178       -4.572164   0.995872
  179       -4.556171   0.995386
  180       -4.555735   0.995375
  181       -4.555607   0.995372
  182       -4.545504   0.995164
  183       -4.541783   0.995114
  184       -4.537771   0.995078
  185       -4.533521   0.995065
  186       -4.532720   0.995065
  187       -4.531800   0.995067
  188       -4.528860   0.995082
  189       -4.528756   0.995083
  190       -4.528380   0.995086
  191       -4.488459   0.997241
  192       -4.486629   0.997451
  193       -4.485287   0.997612
  194       -4.484589   0.997698
  195       -4.484041   0.997767
  196       -4.476609   0.998814
  197       -4.469765   0.999970
  198       -4.464541   1.000983
  199       -4.461818   1.001557
  200       -4.449384   1.004597
  201       -4.448664   1.004794
  202       -4.441721   1.006820
  203       -4.439769   1.007429
  204       -4.438112   1.007960
  205       -4.434422   1.009186
  206       -4.428551   1.011262
  207       -4.427459   1.011664
  208       -4.423120   1.013313
  209       -4.421064   1.014122
  210       -4.420620   1.014298
  211       -4.406704   1.020202
  212       -4.403428   1.021682
  213       -4.395947   1.025158
  214       -4.390473   1.027762
  215       -4.389627   1.028168
  216       -4.389291   1.028329
  217       -4.384535   1.030617
  218       -4.381927   1.031873
  219       -4.379688   1.032949
  220       -4.349585   1.046011
  221       -4.348455   1.046404
  222       -4.347220   1.046821
  223       -4.329895   1.051015
  224       -4.322510   1.051610
  225       -4.321203   1.051625
  226       -4.317937   1.051533
  227       -4.317673   1.051517
  228       -4.315548   1.051344
  229       -4.314754   1.051257
  230       -4.313786   1.051135
  231       -4.311947   1.050852
  232       -4.307058   1.049761
  233       -4.305887   1.049424
  234       -4.305158   1.049198
  235       -4.301999   1.048080
  236       -4.301007   1.047681
  237       -4.300935   1.047651
  238       -4.297913   1.046282
  239       -4.297645   1.046150
  240       -4.295937   1.045264
  241       -4.281554   1.034669
  242       -4.280947   1.034090
  243       -4.265838   1.015907
  244       -4.264976   1.014641
  245       -4.264374   1.013741
  246       -4.263716   1.012744
  247       -4.263280   1.012074
  248       -4.262969   1.011592
  249       -4.257409   1.002399
  250       -4.244919   0.977620
  251       -4.244225   0.976070
  252       -4.240408   0.967223
  253       -4.233837   0.950675
  254       -4.233484   0.949739
  255       -4.229397   0.938547
  256       -4.228294   0.935415
  257       -4.227828   0.934079
  258       -4.225123   0.926150
  259       -4.223509   0.921286
  260       -4.222971   0.919641
  261       -4.219942   0.910177
  262       -4.218824   0.906594
  263       -4.217950   0.903761
  264       -4.216977   0.900572
  265       -4.214916   0.893701
  266       -4.212620   0.885856
  267       -4.201841   0.846434
  268       -4.198888   0.834909
  269       -4.197584   0.829724
  270       -4.197524   0.829484
  271       -4.195451   0.821118
  272       -4.194042   0.815349
  273       -4.175641   0.734376
  274       -4.173685   0.725207
  275       -4.165950   0.688051
  276       -4.159645   0.656811
  277       -4.157638   0.646717
  278       -4.156637   0.641653
  279       -4.150970   0.612704
  280       -4.150514   0.610354
  281       -4.150233   0.608904
  282       -4.135796   0.533434
  283       -4.108697   0.391045
  284       -4.107243   0.383555
  285       -4.106233   0.378374
  286       -4.105904   0.376691
  287       -4.095605   0.324811
  288       -4.091439   0.304392
  289       -4.089370   0.294391
  290       -3.950264  -0.050178
  291       -3.877314  -0.032018
  292       -3.795181  -0.001144
  293       -3.795012  -0.001109
  294       -3.750293   0.004362
  295       -3.471429   0.000069
  296       -3.469751   0.000066
  297       -3.452198   0.000041
  298       -3.037131   0.000000
  299       -3.036056   0.000000
  300       -3.018875   0.000000
  301       -3.004957   0.000000
  302       -2.990933   0.000000
  303       -2.960780   0.000000
  304       -2.911580   0.000000
  305       -2.853712   0.000000
  306       -2.512114   0.000000
  307       -2.501516   0.000000
  308       -2.494149   0.000000
  309       -2.326086   0.000000
  310       -2.173600   0.000000
  311       -2.096078   0.000000
  312       -2.082706   0.000000
  313       -2.008916   0.000000
  314       -1.968317   0.000000
  315       -1.909041   0.000000
  316       -1.858231   0.000000
  317       -1.850033   0.000000
  318       -1.813257   0.000000
  319       -1.704693   0.000000
  320       -1.640262   0.000000
  321       -1.615538   0.000000
  322       -1.577793   0.000000
  323       -1.536890   0.000000
  324       -1.485070   0.000000
  325       -1.382314   0.000000
  326       -1.217424   0.000000
  327       -1.213430   0.000000
  328       -1.191606   0.000000
  329       -0.966208   0.000000
  330       -0.956387   0.000000
  331       -0.931651   0.000000
  332       -0.910199   0.000000
  333       -0.892960   0.000000
  334       -0.855492   0.000000
  335       -0.811926   0.000000
  336       -0.608632   0.000000
