 vasp.5.4.4.18Apr17-6-g9f103f2a35 (build Sep 03 2018 23:53:05) complex          
  
 executed on             LinuxIFC date 2021.11.27  13:53:08
 running on    1 total cores
 distrk:  each k-point on    1 cores,    1 groups
 distr:  one band on NCORES_PER_BAND=   1 cores,    1 groups


--------------------------------------------------------------------------------------------------------


 INCAR:
 POTCAR:    PAW_PBE Pd 04Jan2005                  
 POTCAR:    PAW_PBE C 08Apr2002                   
 POTCAR:    PAW_PBE O 08Apr2002                   
 POTCAR:    PAW_PBE Pd 04Jan2005                  
   VRHFIN =Pd : s1 d9                                                           
   LEXCH  = PE                                                                  
   EATOM  =   809.7530 eV,   59.5152 Ry                                         
                                                                                
   TITEL  = PAW_PBE Pd 04Jan2005                                                
   LULTRA =        F    use ultrasoft PP ?                                      
   IUNSCR =        1    unscreen: 0-lin 1-nonlin 2-no                           
   RPACOR =    2.000    partial core radius                                     
   POMASS =  106.420; ZVAL   =   10.000    mass and valenz                      
   RCORE  =    2.600    outmost cutoff radius                                   
   RWIGS  =    2.710; RWIGS  =    1.434    wigner-seitz radius (au A)           
   ENMAX  =  250.925; ENMIN  =  188.194 eV                                      
   ICORE  =        3    local potential                                         
   LCOR   =        T    correct aug charges                                     
   LPAW   =        T    paw PP                                                  
   EAUG   =  416.230                                                            
   DEXC   =    0.000                                                            
   RMAX   =    2.653    core radius for proj-oper                               
   RAUG   =    1.300    factor for augmentation sphere                          
   RDEP   =    2.734    radius for radial grids                                 
   RDEPT  =    2.103    core radius for aug-charge                              
                                                                                
   Atomic configuration                                                         
   12 entries                                                                   
     n  l   j            E        occ.                                          
     1  0  0.50    -24164.6631   2.0000                                         
     2  0  0.50     -3530.9218   2.0000                                         
     2  1  1.50     -3165.6822   6.0000                                         
     3  0  0.50      -639.4577   2.0000                                         
     3  1  1.50      -519.4532   6.0000                                         
     3  2  2.50      -328.9757  10.0000                                         
     4  0  0.50       -88.7014   2.0000                                         
     4  1  1.50       -54.4540   6.0000                                         
     4  2  2.50        -6.6878   9.0000                                         
     5  0  0.50        -4.3543   1.0000                                         
     5  1  0.50        -1.3606   0.0000                                         
     4  3  2.50        -1.3606   0.0000                                         
   Description                                                                  
     l       E           TYP  RCUT    TYP  RCUT                                 
     2     -6.6878251     23  2.400                                             
     2     -8.0484077     23  2.400                                             
     0     -4.3542939     23  2.400                                             
     0      4.3406793     23  2.400                                             
     1     -4.0817478     23  2.600                                             
     1     15.8380318     23  2.600                                             
     3     -4.0817478     23  2.400                                             
  local pseudopotential read in
  partial core-charges read in
  partial kinetic energy density read in
  atomic valenz-charges read in
  non local Contribution for L=           2  read in
    real space projection operators read in
  non local Contribution for L=           2  read in
    real space projection operators read in
  non local Contribution for L=           0  read in
    real space projection operators read in
  non local Contribution for L=           0  read in
    real space projection operators read in
  non local Contribution for L=           1  read in
    real space projection operators read in
  non local Contribution for L=           1  read in
    real space projection operators read in
    PAW grid and wavefunctions read in
 
   number of l-projection  operators is LMAX  =           6
   number of lm-projection operators is LMMAX =          18
 
 POTCAR:    PAW_PBE C 08Apr2002                   
   VRHFIN =C: s2p2                                                              
   LEXCH  = PE                                                                  
   EATOM  =   147.1560 eV,   10.8157 Ry                                         
                                                                                
   TITEL  = PAW_PBE C 08Apr2002                                                 
   LULTRA =        F    use ultrasoft PP ?                                      
   IUNSCR =        1    unscreen: 0-lin 1-nonlin 2-no                           
   RPACOR =    1.200    partial core radius                                     
   POMASS =   12.011; ZVAL   =    4.000    mass and valenz                      
   RCORE  =    1.500    outmost cutoff radius                                   
   RWIGS  =    1.630; RWIGS  =    0.863    wigner-seitz radius (au A)           
   ENMAX  =  400.000; ENMIN  =  300.000 eV                                      
   ICORE  =        2    local potential                                         
   LCOR   =        T    correct aug charges                                     
   LPAW   =        T    paw PP                                                  
   EAUG   =  644.873                                                            
   DEXC   =    0.000                                                            
   RMAX   =    1.529    core radius for proj-oper                               
   RAUG   =    1.300    factor for augmentation sphere                          
   RDEP   =    1.501    radius for radial grids                                 
   RDEPT  =    1.300    core radius for aug-charge                              
                                                                                
   Atomic configuration                                                         
    4 entries                                                                   
     n  l   j            E        occ.                                          
     1  0  0.50      -273.3789   2.0000                                         
     2  0  0.50       -13.7508   2.0000                                         
     2  1  0.50        -5.2854   2.0000                                         
     3  2  1.50        -5.4423   0.0000                                         
   Description                                                                  
     l       E           TYP  RCUT    TYP  RCUT                                 
     0    -13.7508458     23  1.200                                             
     0     -8.2022199     23  1.200                                             
     1     -5.2854383     23  1.500                                             
     1     34.0145650     23  1.500                                             
     2     -5.4423304      7  1.500                                             
  local pseudopotential read in
  partial core-charges read in
  partial kinetic energy density read in
  atomic valenz-charges read in
  non local Contribution for L=           0  read in
    real space projection operators read in
  non local Contribution for L=           0  read in
    real space projection operators read in
  non local Contribution for L=           1  read in
    real space projection operators read in
  non local Contribution for L=           1  read in
    real space projection operators read in
    PAW grid and wavefunctions read in
 
   number of l-projection  operators is LMAX  =           4
   number of lm-projection operators is LMMAX =           8
 
 POTCAR:    PAW_PBE O 08Apr2002                   
   VRHFIN =O: s2p4                                                              
   LEXCH  = PE                                                                  
   EATOM  =   432.3788 eV,   31.7789 Ry                                         
                                                                                
   TITEL  = PAW_PBE O 08Apr2002                                                 
   LULTRA =        F    use ultrasoft PP ?                                      
   IUNSCR =        1    unscreen: 0-lin 1-nonlin 2-no                           
   RPACOR =    1.200    partial core radius                                     
   POMASS =   16.000; ZVAL   =    6.000    mass and valenz                      
   RCORE  =    1.520    outmost cutoff radius                                   
   RWIGS  =    1.550; RWIGS  =    0.820    wigner-seitz radius (au A)           
   ENMAX  =  400.000; ENMIN  =  300.000 eV                                      
   ICORE  =        2    local potential                                         
   LCOR   =        T    correct aug charges                                     
   LPAW   =        T    paw PP                                                  
   EAUG   =  605.392                                                            
   DEXC   =    0.000                                                            
   RMAX   =    1.553    core radius for proj-oper                               
   RAUG   =    1.300    factor for augmentation sphere                          
   RDEP   =    1.550    radius for radial grids                                 
   RDEPT  =    1.329    core radius for aug-charge                              
                                                                                
   Atomic configuration                                                         
    4 entries                                                                   
     n  l   j            E        occ.                                          
     1  0  0.50      -514.6923   2.0000                                         
     2  0  0.50       -23.9615   2.0000                                         
     2  1  0.50        -9.0305   4.0000                                         
     3  2  1.50        -9.5241   0.0000                                         
   Description                                                                  
     l       E           TYP  RCUT    TYP  RCUT                                 
     0    -23.9615318     23  1.200                                             
     0     -9.5240782     23  1.200                                             
     1     -9.0304911     23  1.520                                             
     1      8.1634956     23  1.520                                             
     2     -9.5240782      7  1.500                                             
  local pseudopotential read in
  partial core-charges read in
  partial kinetic energy density read in
  kinetic energy density of atom read in
  atomic valenz-charges read in
  non local Contribution for L=           0  read in
    real space projection operators read in
  non local Contribution for L=           0  read in
    real space projection operators read in
  non local Contribution for L=           1  read in
    real space projection operators read in
  non local Contribution for L=           1  read in
    real space projection operators read in
    PAW grid and wavefunctions read in
 
   number of l-projection  operators is LMAX  =           4
   number of lm-projection operators is LMMAX =           8
 
 Optimization of the real space projectors (new method)

 maximal supplied QI-value         = 14.36
 optimisation between [QCUT,QGAM] = [ 10.20, 20.39] = [ 29.12,116.47] Ry 
 Optimized for a Real-space Cutoff    1.51 Angstroem

   l    n(q)    QCUT    max X(q) W(low)/X(q) W(high)/X(q)  e(spline) 
   2      8    10.197    59.108    0.26E-03    0.14E-03    0.96E-07
   2      8    10.197    58.101    0.27E-03    0.14E-03    0.98E-07
   0      9    10.197   102.235    0.54E-04    0.60E-05    0.72E-07
   0      9    10.197    58.388    0.52E-04    0.60E-05    0.68E-07
   1      9    10.197    22.191    0.18E-03    0.25E-03    0.79E-07
   1      9    10.197    15.590    0.15E-03    0.21E-03    0.69E-07
 Optimization of the real space projectors (new method)

 maximal supplied QI-value         = 25.13
 optimisation between [QCUT,QGAM] = [ 10.05, 20.36] = [ 28.30,116.06] Ry 
 Optimized for a Real-space Cutoff    1.30 Angstroem

   l    n(q)    QCUT    max X(q) W(low)/X(q) W(high)/X(q)  e(spline) 
   0      8    10.053   115.676    0.49E-03    0.72E-03    0.18E-06
   0      8    10.053    87.132    0.49E-03    0.71E-03    0.18E-06
   1      7    10.053     4.429    0.32E-03    0.31E-03    0.18E-06
   1      7    10.053     2.733    0.23E-03    0.19E-03    0.20E-06
 Optimization of the real space projectors (new method)

 maximal supplied QI-value         = 24.76
 optimisation between [QCUT,QGAM] = [ 10.15, 20.30] = [ 28.85,115.39] Ry 
 Optimized for a Real-space Cutoff    1.38 Angstroem

   l    n(q)    QCUT    max X(q) W(low)/X(q) W(high)/X(q)  e(spline) 
   0      8    10.150    20.381    0.22E-03    0.32E-03    0.29E-06
   0      8    10.150    15.268    0.23E-03    0.35E-03    0.30E-06
   1      8    10.150     5.964    0.46E-03    0.53E-03    0.21E-06
   1      8    10.150     5.382    0.38E-03    0.45E-03    0.19E-06

 ----------------------------------------------------------------------------- 
|                                                                             |
|  ADVICE TO THIS USER RUNNING 'VASP/VAMP'   (HEAR YOUR MASTER'S VOICE ...):  |
|                                                                             |
|      You enforced a specific xc-type in the INCAR file,                     |
|      a different type was found on the POTCAR file                          |
|          I HOPE YOU KNOW, WHAT YOU ARE  DOING                               |
|                                                                             |
 ----------------------------------------------------------------------------- 

  PAW_PBE Pd 04Jan2005                  :
 energy of atom  1       EATOM= -809.7530
 kinetic energy error for atom=    0.0091 (will be added to EATOM!!)
  PAW_PBE C 08Apr2002                   :
 energy of atom  2       EATOM= -147.1560
 kinetic energy error for atom=    0.0288 (will be added to EATOM!!)
  PAW_PBE O 08Apr2002                   :
 energy of atom  3       EATOM= -432.3788
 kinetic energy error for atom=    0.1156 (will be added to EATOM!!)
 
 
 POSCAR: Pd55PES                                 
  positions in cartesian coordinates
  No initial velocities read in
 exchange correlation table for  LEXCH =        9
   RHO(1)=    0.500       N(1)  =     2000
   RHO(2)=  100.500       N(2)  =     4000
 


--------------------------------------------------------------------------------------------------------


 ion  position               nearest neighbor table
   1  0.446  0.328  0.417-   3 3.25   5 3.25   7 3.36  15 3.36  29 3.42  28 3.42
   2  0.672  0.554  0.417-  26 3.25  30 3.25  17 3.36   9 3.36  47 3.42  49 3.42
   3  0.554  0.328  0.417-   1 3.25   5 3.25   7 3.36  11 3.36  29 3.42  21 3.42
   4  0.328  0.554  0.417-  32 3.25  22 3.25  13 3.36   8 3.36  43 3.42  48 3.42
   5  0.500  0.383  0.340-   1 3.25   3 3.25  11 3.36  15 3.36  21 3.42  28 3.42
   6  0.500  0.383  0.660-  24 3.25  19 3.25  16 3.36  12 3.36  42 3.42  44 3.42
   7  0.500  0.276  0.500-  29 3.24   3 3.36   1 3.36  19 3.36  24 3.36
   8  0.276  0.500  0.500-  48 3.24  22 3.36  40 3.36   4 3.36  25 3.36
   9  0.724  0.500  0.500-  49 3.24  26 3.36  45 3.36   2 3.36  20 3.36
  10  0.500  0.724  0.500-  55 3.24  27 3.36  23 3.36  46 3.36  41 3.36
  11  0.612  0.388  0.342-  21 3.24   5 3.36   3 3.36  30 3.36  26 3.36
  12  0.612  0.388  0.658-  42 3.24  24 3.36  45 3.36   6 3.36  31 3.36
  13  0.388  0.612  0.342-  43 3.24  32 3.36  50 3.36   4 3.36  27 3.36
  14  0.388  0.612  0.658-  53 3.24  25 3.36  33 3.36  51 3.36  46 3.36
  15  0.388  0.388  0.342-  28 3.24   5 3.36   1 3.36  32 3.36  22 3.36
  16  0.388  0.388  0.658-  44 3.24  19 3.36  40 3.36   6 3.36  33 3.36
  17  0.612  0.612  0.342-  47 3.24  30 3.36  50 3.36   2 3.36  23 3.36
  18  0.612  0.612  0.658-  56 2.60  54 3.24  31 3.36  20 3.36  51 3.36  41 3.36
  19  0.446  0.328  0.583-   6 3.25  24 3.25  16 3.36   7 3.36  44 3.42  29 3.42
  20  0.672  0.554  0.583-  31 3.25  45 3.25  18 3.36   9 3.36  54 3.42  49 3.42
  21  0.558  0.442  0.418-  11 3.24   5 3.42   3 3.42  30 3.42  26 3.42
  22  0.328  0.446  0.417-   4 3.25  32 3.25   8 3.36  15 3.36  48 3.42  28 3.42
  23  0.554  0.672  0.417-  27 3.25  50 3.25  10 3.36  17 3.36  55 3.42  47 3.42
  24  0.554  0.328  0.583-   6 3.25  19 3.25  12 3.36   7 3.36  42 3.42  29 3.42
  25  0.328  0.554  0.583-  33 3.25  40 3.25  14 3.36   8 3.36  53 3.42  48 3.42
  26  0.672  0.446  0.417-   2 3.25  30 3.25   9 3.36  11 3.36  49 3.42  21 3.42
  27  0.446  0.672  0.417-  23 3.25  50 3.25  10 3.36  13 3.36  55 3.42  43 3.42
  28  0.442  0.442  0.418-  15 3.24   5 3.42   1 3.42  32 3.42  22 3.42
  29  0.500  0.384  0.500-   7 3.24   3 3.42   1 3.42  24 3.42  19 3.42
  30  0.617  0.500  0.340-   2 3.25  26 3.25  17 3.36  11 3.36  47 3.42  21 3.42
  31  0.617  0.500  0.660-  20 3.25  45 3.25  18 3.36  12 3.36  54 3.42  42 3.42
  32  0.383  0.500  0.340-   4 3.25  22 3.25  13 3.36  15 3.36  43 3.42  28 3.42
  33  0.383  0.500  0.660-  25 3.25  40 3.25  14 3.36  16 3.36  53 3.42  44 3.42
  34  0.383  0.383  0.500-
  35  0.617  0.617  0.500-
  36  0.617  0.383  0.500-
  37  0.383  0.617  0.500-
  38  0.500  0.500  0.335-
  39  0.500  0.500  0.665-
  40  0.328  0.446  0.583-  33 3.25  25 3.25  16 3.36   8 3.36  44 3.42  48 3.42
  41  0.554  0.672  0.583-  46 3.25  51 3.25  10 3.36  18 3.36  54 3.42  55 3.42
  42  0.558  0.442  0.582-  12 3.24   6 3.42  24 3.42  31 3.42  45 3.42
  43  0.442  0.558  0.418-  13 3.24   4 3.42  32 3.42  27 3.42  50 3.42
  44  0.442  0.442  0.582-  16 3.24   6 3.42  19 3.42  33 3.42  40 3.42
  45  0.672  0.446  0.583-  20 3.25  31 3.25   9 3.36  12 3.36  49 3.42  42 3.42
  46  0.446  0.672  0.583-  41 3.25  51 3.25  10 3.36  14 3.36  53 3.42  55 3.42
  47  0.558  0.558  0.418-  17 3.24   2 3.42  30 3.42  23 3.42  50 3.42
  48  0.384  0.500  0.500-   8 3.24   4 3.42  22 3.42  25 3.42  40 3.42
  49  0.616  0.500  0.500-   9 3.24   2 3.42  26 3.42  20 3.42  45 3.42
  50  0.500  0.617  0.340-  27 3.25  23 3.25  13 3.36  17 3.36  43 3.42  47 3.42
  51  0.500  0.617  0.660-  41 3.25  46 3.25  14 3.36  18 3.36  53 3.42  54 3.42
  52  0.500  0.500  0.500-
  53  0.442  0.558  0.582-  14 3.24  25 3.42  33 3.42  51 3.42  46 3.42
  54  0.558  0.558  0.582-  18 3.24  31 3.42  20 3.42  51 3.42  41 3.42
  55  0.500  0.616  0.500-  10 3.24  23 3.42  27 3.42  41 3.42  46 3.42
  56  0.691  0.640  0.679-  57 1.13  18 2.60
  57  0.716  0.657  0.701-  56 1.13
 
  LATTYP: Found a simple cubic cell.
 ALAT       =    30.0000000000
  
  Lattice vectors:
  
 A1 = (  30.0000000000,   0.0000000000,   0.0000000000)
 A2 = (   0.0000000000,  30.0000000000,   0.0000000000)
 A3 = (   0.0000000000,   0.0000000000,  30.0000000000)


Analysis of symmetry for initial positions (statically):
=====================================================================
 Subroutine PRICEL returns:
 Original cell was already a primitive cell.
 

 Routine SETGRP: Setting up the symmetry group for a 
 simple cubic supercell.


 Subroutine GETGRP returns: Found  1 space group operations
 (whereof  1 operations were pure point group operations)
 out of a pool of 48 trial point group operations.


The static configuration has the point symmetry C_1 .


Analysis of symmetry for dynamics (positions and initial velocities):
=====================================================================
 Subroutine PRICEL returns:
 Original cell was already a primitive cell.
 

 Routine SETGRP: Setting up the symmetry group for a 
 simple cubic supercell.


 Subroutine GETGRP returns: Found  1 space group operations
 (whereof  1 operations were pure point group operations)
 out of a pool of 48 trial point group operations.


The dynamic configuration has the point symmetry C_1 .


Analysis of constrained symmetry for selective dynamics:
=====================================================================
 Subroutine PRICEL returns:
 Original cell was already a primitive cell.
 

 Routine SETGRP: Setting up the symmetry group for a 
 simple cubic supercell.


 Subroutine GETGRP returns: Found  1 space group operations
 (whereof  1 operations were pure point group operations)
 out of a pool of 48 trial point group operations.


The constrained configuration has the point symmetry C_1 .


 Subroutine INISYM returns: Found  1 space group operations
 (whereof  1 operations are pure point group operations),
 and found     1 'primitive' translations

 
 
 KPOINTS: K-points                                

Automatic generation of k-mesh.
Space group operators:
 irot       det(A)        alpha          n_x          n_y          n_z        tau_x        tau_y        tau_z
    1     1.000000     0.000000     1.000000     0.000000     0.000000     0.000000     0.000000     0.000000
 
 Subroutine IBZKPT returns following result:
 ===========================================
 
 Found      1 irreducible k-points:
 
 Following reciprocal coordinates:
            Coordinates               Weight
  0.000000  0.000000  0.000000      1.000000
 
 Following cartesian coordinates:
            Coordinates               Weight
  0.000000  0.000000  0.000000      1.000000
 


--------------------------------------------------------------------------------------------------------




 Dimension of arrays:
   k-points           NKPTS =      1   k-points in BZ     NKDIM =      1   number of bands    NBANDS=    336
   number of dos      NEDOS =    301   number of ions     NIONS =     57
   non local maximal  LDIM  =      6   non local SUM 2l+1 LMDIM =     18
   total plane-waves  NPLWV = ******
   max r-space proj   IRMAX =   1847   max aug-charges    IRDMAX=   6262
   dimension x,y,z NGX =   150 NGY =  150 NGZ =  150
   dimension x,y,z NGXF=   300 NGYF=  300 NGZF=  300
   support grid    NGXF=   300 NGYF=  300 NGZF=  300
   ions per type =              55   1   1
   NGX,Y,Z   is equivalent  to a cutoff of   8.31,  8.31,  8.31 a.u.
   NGXF,Y,Z  is equivalent  to a cutoff of  16.62, 16.62, 16.62 a.u.

 SYSTEM =  6_Pd100_top_free_z(O)                   
 POSCAR =  Pd55PES                                 

 Startparameter for this run:
   NWRITE =      2    write-flag & timer
   PREC   = normal    normal or accurate (medium, high low for compatibility)
   ISTART =      0    job   : 0-new  1-cont  2-samecut
   ICHARG =      2    charge: 1-file 2-atom 10-const
   ISPIN  =      1    spin polarized calculation?
   LNONCOLLINEAR =      F non collinear calculations
   LSORBIT =      F    spin-orbit coupling
   INIWAV =      1    electr: 0-lowe 1-rand  2-diag
   LASPH  =      F    aspherical Exc in radial PAW
   METAGGA=      F    non-selfconsistent MetaGGA calc.

 Electronic Relaxation 1
   ENCUT  =  400.0 eV  29.40 Ry    5.42 a.u.  48.92 48.92 48.92*2*pi/ulx,y,z
   ENINI  =  400.0     initial cutoff
   ENAUG  =  644.9 eV  augmentation charge cutoff
   NELM   =    100;   NELMIN=  6; NELMDL= -5     # of ELM steps 
   EDIFF  = 0.1E-03   stopping-criterion for ELM
   LREAL  =      T    real-space projection
   NLSPLINE    = F    spline interpolate recip. space projectors
   LCOMPAT=      F    compatible to vasp.4.4
   GGA_COMPAT  = T    GGA compatible to vasp.4.4-vasp.4.6
   LMAXPAW     = -100 max onsite density
   LMAXMIX     =    2 max onsite mixed and CHGCAR
   VOSKOWN=      0    Vosko Wilk Nusair interpolation
   ROPT   =   -0.00050  -0.00050  -0.00050
 Ionic relaxation
   EDIFFG = -.5E-01   stopping-criterion for IOM
   NSW    =      0    number of steps for IOM
   NBLOCK =      1;   KBLOCK =      1    inner block; outer block 
   IBRION =     -1    ionic relax: 0-MD 1-quasi-New 2-CG
   NFREE  =      1    steps in history (QN), initial steepest desc. (CG)
   ISIF   =      2    stress and relaxation
   IWAVPR =     10    prediction:  0-non 1-charg 2-wave 3-comb
   ISYM   =      2    0-nonsym 1-usesym 2-fastsym
   LCORR  =      T    Harris-Foulkes like correction to forces

   POTIM  = 0.5000    time-step for ionic-motion
   TEIN   =    0.0    initial temperature
   TEBEG  =    0.0;   TEEND  =   0.0 temperature during run
   SMASS  =  -3.00    Nose mass-parameter (am)
   estimated Nose-frequenzy (Omega)   =  0.10E-29 period in steps =****** mass=  -0.206E-25a.u.
   SCALEE = 1.0000    scale energy and forces
   NPACO  =    256;   APACO  = 16.0  distance and # of slots for P.C.
   PSTRESS=    0.0 pullay stress

  Mass of Ions in am
   POMASS = 106.42 12.01 16.00
  Ionic Valenz
   ZVAL   =  10.00  4.00  6.00
  Atomic Wigner-Seitz radii
   RWIGS  =  -1.00 -1.00 -1.00
  virtual crystal weights 
   VCA    =   1.00  1.00  1.00
   NELECT =     560.0000    total number of electrons
   NUPDOWN=      -1.0000    fix difference up-down

 DOS related values:
   EMIN   =  10.00;   EMAX   =-10.00  energy-range for DOS
   EFERMI =   0.00
   ISMEAR =     2;   SIGMA  =   0.20  broadening in eV -4-tet -1-fermi 0-gaus

 Electronic relaxation 2 (details)
   IALGO  =     68    algorithm
   LDIAG  =      T    sub-space diagonalisation (order eigenvalues)
   LSUBROT=      F    optimize rotation matrix (better conditioning)
   TURBO    =      0    0=normal 1=particle mesh
   IRESTART =      0    0=no restart 2=restart with 2 vectors
   NREBOOT  =      0    no. of reboots
   NMIN     =      0    reboot dimension
   EREF     =   0.00    reference energy to select bands
   IMIX   =      4    mixing-type and parameters
     AMIX     =   0.40;   BMIX     =  1.00
     AMIX_MAG =   1.60;   BMIX_MAG =  1.00
     AMIN     =   0.10
     WC   =   100.;   INIMIX=   1;  MIXPRE=   1;  MAXMIX= -45

 Intra band minimization:
   WEIMIN = 0.0000     energy-eigenvalue tresh-hold
   EBREAK =  0.74E-07  absolut break condition
   DEPER  =   0.30     relativ break condition  

   TIME   =   0.40     timestep for ELM

  volume/ion in A,a.u.               =     473.68      3196.58
  Fermi-wavevector in a.u.,A,eV,Ry     =   0.449797  0.849992  2.752691  0.202317
  Thomas-Fermi vector in A             =   1.430086
 
 Write flags
   LWAVE        =      F    write WAVECAR
   LDOWNSAMPLE  =      F    k-point downsampling of WAVECAR
   LCHARG       =      F    write CHGCAR
   LVTOT        =      F    write LOCPOT, total local potential
   LVHAR        =      F    write LOCPOT, Hartree potential only
   LELF         =      F    write electronic localiz. function (ELF)
   LORBIT       =      0    0 simple, 1 ext, 2 COOP (PROOUT), +10 PAW based schemes


 Dipole corrections
   LMONO  =      F    monopole corrections only (constant potential shift)
   LDIPOL =      F    correct potential (dipole corrections)
   IDIPOL =      0    1-x, 2-y, 3-z, 4-all directions 
   EPSILON=  1.0000000 bulk dielectric constant

 Exchange correlation treatment:
   GGA     =    RP    GGA type
   LEXCH   =     9    internal setting for exchange type
   VOSKOWN=      0    Vosko Wilk Nusair interpolation
   LHFCALC =     F    Hartree Fock is set to
   LHFONE  =     F    Hartree Fock one center treatment
   AEXX    =    0.0000 exact exchange contribution

 Linear response parameters
   LEPSILON=     F    determine dielectric tensor
   LRPA    =     F    only Hartree local field effects (RPA)
   LNABLA  =     F    use nabla operator in PAW spheres
   LVEL    =     F    velocity operator in full k-point grid
   LINTERFAST=   F  fast interpolation
   KINTER  =     0    interpolate to denser k-point grid
   CSHIFT  =0.1000    complex shift for real part using Kramers Kronig
   OMEGAMAX=  -1.0    maximum frequency
   DEG_THRESHOLD= 0.2000000E-02 threshold for treating states as degnerate
   RTIME   =   -0.100 relaxation time in fs
  (WPLASMAI=    0.000 imaginary part of plasma frequency in eV, 0.658/RTIME)
   DFIELD  = 0.0000000 0.0000000 0.0000000 field for delta impulse in time
 
 Orbital magnetization related:
   ORBITALMAG=     F  switch on orbital magnetization
   LCHIMAG   =     F  perturbation theory with respect to B field
   DQ        =  0.001000  dq finite difference perturbation B field
   LLRAUG    =     F  two centre corrections for induced B field



--------------------------------------------------------------------------------------------------------


 Static calculation
 charge density and potential will be updated during run
 non-spin polarized calculation
 RMM-DIIS sequential band-by-band and
  variant of blocked Davidson during initial phase
 perform sub-space diagonalisation
    before iterative eigenvector-optimisation
 modified Broyden-mixing scheme, WC =      100.0
 initial mixing is a Kerker type mixing with AMIX =  0.4000 and BMIX =      1.0000
 Hartree-type preconditioning will be used
 using additional bands           56
 real space projection scheme for non local part
 use partial core corrections
 calculate Harris-corrections to forces 
   (improved forces if not selfconsistent)
 use gradient corrections 
 use of overlap-Matrix (Vanderbilt PP)
 Methfessel and Paxton  Order N= 2 SIGMA  =   0.20


--------------------------------------------------------------------------------------------------------


  energy-cutoff  :      400.00
  volume of cell :    27000.00
      direct lattice vectors                 reciprocal lattice vectors
    30.000000000  0.000000000  0.000000000     0.033333333  0.000000000  0.000000000
     0.000000000 30.000000000  0.000000000     0.000000000  0.033333333  0.000000000
     0.000000000  0.000000000 30.000000000     0.000000000  0.000000000  0.033333333

  length of vectors
    30.000000000 30.000000000 30.000000000     0.033333333  0.033333333  0.033333333


 
 k-points in units of 2pi/SCALE and weight: K-points                                
   0.00000000  0.00000000  0.00000000       1.000
 
 k-points in reciprocal lattice and weights: K-points                                
   0.00000000  0.00000000  0.00000000       1.000
 
 position of ions in fractional coordinates (direct lattice) 
   0.44576020  0.32826710  0.41691983
   0.67173288  0.55423978  0.41691983
   0.55423980  0.32826710  0.41691983
   0.32826712  0.55423978  0.41691983
   0.50000000  0.38250690  0.34021317
   0.50000000  0.38250690  0.65978680
   0.50000000  0.27609440  0.50000000
   0.27609443  0.49999998  0.50000000
   0.72390557  0.49999998  0.50000000
   0.50000000  0.72390555  0.50000000
   0.61195280  0.38804720  0.34167483
   0.61195280  0.38804720  0.65832513
   0.38804722  0.61195278  0.34167483
   0.38804722  0.61195278  0.65832513
   0.38804720  0.38804720  0.34167483
   0.38804720  0.38804720  0.65832513
   0.61195278  0.61195278  0.34167483
   0.61195278  0.61195278  0.65832513
   0.44576020  0.32826710  0.58308023
   0.67173288  0.55423978  0.58308023
   0.55791699  0.44208301  0.41809300
   0.32826705  0.44576024  0.41691983
   0.55423973  0.67173293  0.41691983
   0.55423980  0.32826710  0.58308023
   0.32826712  0.55423978  0.58308023
   0.67173295  0.44576024  0.41691983
   0.44576027  0.67173293  0.41691983
   0.44208301  0.44208301  0.41809300
   0.50000000  0.38416601  0.50000000
   0.61749315  0.50000005  0.34021317
   0.61749315  0.50000005  0.65978680
   0.38250685  0.50000005  0.34021317
   0.38250685  0.50000005  0.65978680
   0.38317830  0.38317830  0.50000000
   0.61682172  0.61682172  0.50000000
   0.61682170  0.38317830  0.50000000
   0.38317828  0.61682172  0.50000000
   0.50000000  0.50000000  0.33478917
   0.50000000  0.50000000  0.66521087
   0.32826705  0.44576024  0.58308023
   0.55423973  0.67173293  0.58308023
   0.55791699  0.44208301  0.58190703
   0.44208298  0.55791702  0.41809300
   0.44208301  0.44208301  0.58190703
   0.67173295  0.44576024  0.58308023
   0.44576027  0.67173293  0.58308023
   0.55791702  0.55791702  0.41809300
   0.38416599  0.50000002  0.50000000
   0.61583401  0.50000002  0.50000000
   0.50000000  0.61749319  0.34021317
   0.50000000  0.61749319  0.65978680
   0.50000000  0.50000000  0.50000000
   0.44208298  0.55791702  0.58190703
   0.55791702  0.55791702  0.58190703
   0.50000000  0.61583404  0.50000000
   0.69142933  0.63951100  0.67870420
   0.71568690  0.65718957  0.70134927
 
 position of ions in cartesian coordinates  (Angst):
  13.37280588  9.84801292 12.50759500
  20.15198637 16.62719342 12.50759500
  16.62719412  9.84801292 12.50759500
   9.84801363 16.62719342 12.50759500
  15.00000000 11.47520705 10.20639500
  15.00000000 11.47520705 19.79360400
  15.00000000  8.28283206 15.00000000
   8.28283277 14.99999929 15.00000000
  21.71716723 14.99999929 15.00000000
  15.00000000 21.71716652 14.99999999
  18.35858397 11.64141603 10.25024500
  18.35858397 11.64141603 19.74975399
  11.64141674 18.35858326 10.25024500
  11.64141674 18.35858326 19.74975400
  11.64141603 11.64141603 10.25024500
  11.64141603 11.64141603 19.74975400
  18.35858326 18.35858326 10.25024500
  18.35858326 18.35858326 19.74975400
  13.37280588  9.84801291 17.49240700
  20.15198638 16.62719341 17.49240700
  16.73750985 13.26249015 12.54279000
   9.84801151 13.37280729 12.50759500
  16.62719200 20.15198779 12.50759500
  16.62719412  9.84801292 17.49240700
   9.84801363 16.62719342 17.49240700
  20.15198849 13.37280729 12.50759500
  13.37280800 20.15198779 12.50759500
  13.26249015 13.26249015 12.54279000
  15.00000000 11.52498029 15.00000000
  18.52479437 15.00000140 10.20639500
  18.52479437 15.00000141 19.79360400
  11.47520562 15.00000141 10.20639501
  11.47520563 15.00000141 19.79360400
  11.49534898 11.49534898 15.00000000
  18.50465172 18.50465172 15.00000000
  18.50465102 11.49534898 15.00000000
  11.49534828 18.50465172 15.00000000
  15.00000000 15.00000000 10.04367500
  15.00000000 15.00000000 19.95632599
   9.84801151 13.37280729 17.49240700
  16.62719200 20.15198779 17.49240700
  16.73750985 13.26249015 17.45721100
  13.26248944 16.73751056 12.54279001
  13.26249015 13.26249015 17.45721100
  20.15198849 13.37280729 17.49240699
  13.37280800 20.15198779 17.49240700
  16.73751056 16.73751056 12.54279000
  11.52497959 15.00000071 15.00000000
  18.47502041 15.00000071 15.00000000
  14.99999999 18.52479579 10.20639500
  15.00000000 18.52479578 19.79360400
  15.00000000 15.00000000 15.00000000
  13.26248944 16.73751057 17.45721101
  16.73751056 16.73751057 17.45721100
  15.00000000 18.47502112 15.00000000
  20.74288000 19.18533000 20.36112600
  21.47060700 19.71568700 21.04047800
 


--------------------------------------------------------------------------------------------------------


 k-point  1 :   0.0000 0.0000 0.0000  plane waves:  490521

 maximum and minimum number of plane-waves per node :    490521   490521

 maximum number of plane-waves:    490521
 maximum index in each direction: 
   IXMAX=   48   IYMAX=   48   IZMAX=   48
   IXMIN=  -48   IYMIN=  -48   IZMIN=  -48


 serial   3D FFT for wavefunctions
 parallel 3D FFT for charge:
    minimum data exchange during FFTs selected (reduces bandwidth)


 total amount of memory used by VASP MPI-rank0  5486942. kBytes
=======================================================================

   base      :      30000. kBytes
   nonlr-proj:      17127. kBytes
   fftplans  :     924480. kBytes
   grid      :    1872000. kBytes
   one-center:        886. kBytes
   wavefun   :    2642449. kBytes
 
     INWAV:  cpu time    0.0001: real time    0.0005
 Broyden mixing: mesh for mixing (old mesh)
   NGX = 97   NGY = 97   NGZ = 97
  (NGX  =300   NGY  =300   NGZ  =300)
  gives a total of 912673 points

 initial charge density was supplied:
 charge density of overlapping atoms calculated
 number of electron     560.0000000 magnetization 
 keeping initial charge density in first step


--------------------------------------------------------------------------------------------------------


 Maximum index for non-local projection operator         1763
 Maximum index for augmentation-charges         5898 (set IRDMAX)


--------------------------------------------------------------------------------------------------------


 First call to EWALD:  gamma=   0.059
 Maximum number of real-space cells 3x 3x 3
 Maximum number of reciprocal cells 3x 3x 3

    FEWALD:  cpu time    0.0152: real time    0.0152


--------------------------------------- Iteration      1(   1)  ---------------------------------------


    POTLOK:  cpu time   14.8375: real time   14.8424
    SETDIJ:  cpu time    0.1267: real time    0.1267
     EDDAV:  cpu time  369.2253: real time  369.3014
       DOS:  cpu time    0.0013: real time    0.0013
    --------------------------------------------
      LOOP:  cpu time  384.1908: real time  384.2718

 eigenvalue-minimisations  :   688
 total energy-change (2. order) : 0.4379074E+04  (-0.1005068E+05)
 number of electron     560.0000000 magnetization 
 augmentation part      560.0000000 magnetization 

 Free energy of the ion-electron system (eV)
  ---------------------------------------------------
  alpha Z        PSCENC =        75.25431677
  Ewald energy   TEWEN  =    136930.26232604
  -Hartree energ DENC   =   -180298.01753849
  -exchange      EXHF   =         0.00000000
  -V(xc)+E(xc)   XCENC  =     -1703.96932593
  PAW double counting   =     44873.02882129   -41398.84523641
  entropy T*S    EENTRO =         0.00649363
  eigenvalues    EBANDS =       814.84884745
  atomic energy  EATOM  =     45086.50549395
  Solvation  Ediel_sol  =         0.00000000
  ---------------------------------------------------
  free energy    TOTEN  =      4379.07419831 eV

  energy without entropy =     4379.06770469  energy(sigma->0) =     4379.07257491


--------------------------------------------------------------------------------------------------------




--------------------------------------- Iteration      1(   2)  ---------------------------------------


     EDDAV:  cpu time  584.1829: real time  584.2407
       DOS:  cpu time    0.0013: real time    0.0013
    --------------------------------------------
      LOOP:  cpu time  584.1841: real time  584.2420

 eigenvalue-minimisations  :  1208
 total energy-change (2. order) :-0.2352174E+04  (-0.2113319E+04)
 number of electron     560.0000000 magnetization 
 augmentation part      560.0000000 magnetization 

 Free energy of the ion-electron system (eV)
  ---------------------------------------------------
  alpha Z        PSCENC =        75.25431677
  Ewald energy   TEWEN  =    136930.26232604
  -Hartree energ DENC   =   -180298.01753849
  -exchange      EXHF   =         0.00000000
  -V(xc)+E(xc)   XCENC  =     -1703.96932593
  PAW double counting   =     44873.02882129   -41398.84523641
  entropy T*S    EENTRO =        -0.01397943
  eigenvalues    EBANDS =     -1537.30474473
  atomic energy  EATOM  =     45086.50549395
  Solvation  Ediel_sol  =         0.00000000
  ---------------------------------------------------
  free energy    TOTEN  =      2026.90013308 eV

  energy without entropy =     2026.91411250  energy(sigma->0) =     2026.90362793


--------------------------------------------------------------------------------------------------------




--------------------------------------- Iteration      1(   3)  ---------------------------------------


     EDDAV:  cpu time  498.8570: real time  498.9164
       DOS:  cpu time    0.0011: real time    0.0011
    --------------------------------------------
      LOOP:  cpu time  498.8581: real time  498.9174

 eigenvalue-minimisations  :  1000
 total energy-change (2. order) :-0.1782541E+04  (-0.1673173E+04)
 number of electron     560.0000000 magnetization 
 augmentation part      560.0000000 magnetization 

 Free energy of the ion-electron system (eV)
  ---------------------------------------------------
  alpha Z        PSCENC =        75.25431677
  Ewald energy   TEWEN  =    136930.26232604
  -Hartree energ DENC   =   -180298.01753849
  -exchange      EXHF   =         0.00000000
  -V(xc)+E(xc)   XCENC  =     -1703.96932593
  PAW double counting   =     44873.02882129   -41398.84523641
  entropy T*S    EENTRO =        -0.04135273
  eigenvalues    EBANDS =     -3319.81838846
  atomic energy  EATOM  =     45086.50549395
  Solvation  Ediel_sol  =         0.00000000
  ---------------------------------------------------
  free energy    TOTEN  =       244.35911604 eV

  energy without entropy =      244.40046877  energy(sigma->0) =      244.36945422


--------------------------------------------------------------------------------------------------------




--------------------------------------- Iteration      1(   4)  ---------------------------------------


     EDDAV:  cpu time  428.7897: real time  428.8251
       DOS:  cpu time    0.0012: real time    0.0012
    --------------------------------------------
      LOOP:  cpu time  428.7910: real time  428.8263

 eigenvalue-minimisations  :   832
 total energy-change (2. order) :-0.3763989E+03  (-0.3210874E+03)
 number of electron     560.0000000 magnetization 
 augmentation part      560.0000000 magnetization 

 Free energy of the ion-electron system (eV)
  ---------------------------------------------------
  alpha Z        PSCENC =        75.25431677
  Ewald energy   TEWEN  =    136930.26232604
  -Hartree energ DENC   =   -180298.01753849
  -exchange      EXHF   =         0.00000000
  -V(xc)+E(xc)   XCENC  =     -1703.96932593
  PAW double counting   =     44873.02882129   -41398.84523641
  entropy T*S    EENTRO =        -0.01371264
  eigenvalues    EBANDS =     -3696.24489665
  atomic energy  EATOM  =     45086.50549395
  Solvation  Ediel_sol  =         0.00000000
  ---------------------------------------------------
  free energy    TOTEN  =      -132.03975206 eV

  energy without entropy =     -132.02603942  energy(sigma->0) =     -132.03632390


--------------------------------------------------------------------------------------------------------




--------------------------------------- Iteration      1(   5)  ---------------------------------------


     EDDAV:  cpu time  514.7844: real time  514.8250
       DOS:  cpu time    0.0014: real time    0.0014
    CHARGE:  cpu time   25.4709: real time   25.4722
    MIXING:  cpu time    0.4421: real time    0.4421
    --------------------------------------------
      LOOP:  cpu time  540.6988: real time  540.7408

 eigenvalue-minimisations  :  1040
 total energy-change (2. order) :-0.4664385E+02  (-0.3882954E+02)
 number of electron     559.9999852 magnetization 
 augmentation part      245.2439632 magnetization 

 Broyden mixing:
  rms(total) = 0.13840E+01    rms(broyden)= 0.13831E+01
  rms(prec ) = 0.14889E+01
  weight for this iteration     100.00

 Free energy of the ion-electron system (eV)
  ---------------------------------------------------
  alpha Z        PSCENC =        75.25431677
  Ewald energy   TEWEN  =    136930.26232604
  -Hartree energ DENC   =   -180298.01753849
  -exchange      EXHF   =         0.00000000
  -V(xc)+E(xc)   XCENC  =     -1703.96932593
  PAW double counting   =     44873.02882129   -41398.84523641
  entropy T*S    EENTRO =         0.55010204
  eigenvalues    EBANDS =     -3743.45255638
  atomic energy  EATOM  =     45086.50549395
  Solvation  Ediel_sol  =         0.00000000
  ---------------------------------------------------
  free energy    TOTEN  =      -178.68359711 eV

  energy without entropy =     -179.23369915  energy(sigma->0) =     -178.82112262


--------------------------------------------------------------------------------------------------------




--------------------------------------- Iteration      1(   6)  ---------------------------------------


    POTLOK:  cpu time   13.6556: real time   13.6583
    SETDIJ:  cpu time    0.1283: real time    0.1283
    EDDIAG:  cpu time   68.9607: real time   68.9688
  RMM-DIIS:  cpu time  188.4684: real time  188.4813
    ORTHCH:  cpu time   13.4003: real time   13.4006
       DOS:  cpu time    0.0014: real time    0.0014
    CHARGE:  cpu time   25.1957: real time   25.1962
    MIXING:  cpu time    0.4571: real time    0.4571
    --------------------------------------------
      LOOP:  cpu time  310.2676: real time  310.2919

 eigenvalue-minimisations  :   719
 total energy-change (2. order) : 0.1902129E+00  (-0.5203893E+01)
 number of electron     559.9999874 magnetization 
 augmentation part      240.7228445 magnetization 

 Broyden mixing:
  rms(total) = 0.21785E+01    rms(broyden)= 0.21784E+01
  rms(prec ) = 0.25602E+01
  weight for this iteration     100.00

 eigenvalues of (default mixing * dielectric matrix)
  average eigenvalue GAMMA=   0.3266
  0.3266

 Free energy of the ion-electron system (eV)
  ---------------------------------------------------
  alpha Z        PSCENC =        75.25431677
  Ewald energy   TEWEN  =    136930.26232604
  -Hartree energ DENC   =   -180710.30604741
  -exchange      EXHF   =         0.00000000
  -V(xc)+E(xc)   XCENC  =     -1697.69596143
  PAW double counting   =     45615.00724111   -42113.58244772
  entropy T*S    EENTRO =        -0.16181965
  eigenvalues    EBANDS =     -3363.77648583
  atomic energy  EATOM  =     45086.50549395
  Solvation  Ediel_sol  =         0.00000000
  ---------------------------------------------------
  free energy    TOTEN  =      -178.49338417 eV

  energy without entropy =     -178.33156452  energy(sigma->0) =     -178.45292926


--------------------------------------------------------------------------------------------------------




--------------------------------------- Iteration      1(   7)  ---------------------------------------


    POTLOK:  cpu time   13.4373: real time   13.4399
    SETDIJ:  cpu time    0.1172: real time    0.1172
    EDDIAG:  cpu time   68.4656: real time   68.4739
  RMM-DIIS:  cpu time  222.4837: real time  222.5004
    ORTHCH:  cpu time   13.2895: real time   13.2897
       DOS:  cpu time    0.0015: real time    0.0015
    CHARGE:  cpu time   25.6158: real time   25.6182
    MIXING:  cpu time    0.4771: real time    0.4771
    --------------------------------------------
      LOOP:  cpu time  343.8876: real time  343.9178

 eigenvalue-minimisations  :   859
 total energy-change (2. order) :-0.2714537E+01  (-0.1778633E+01)
 number of electron     559.9999831 magnetization 
 augmentation part      240.3393358 magnetization 

 Broyden mixing:
  rms(total) = 0.21510E+01    rms(broyden)= 0.21507E+01
  rms(prec ) = 0.26422E+01
  weight for this iteration     100.00

 eigenvalues of (default mixing * dielectric matrix)
  average eigenvalue GAMMA=   0.3267
  0.5117  0.1416

 Free energy of the ion-electron system (eV)
  ---------------------------------------------------
  alpha Z        PSCENC =        75.25431677
  Ewald energy   TEWEN  =    136930.26232604
  -Hartree energ DENC   =   -180792.13412698
  -exchange      EXHF   =         0.00000000
  -V(xc)+E(xc)   XCENC  =     -1697.82243612
  PAW double counting   =     45672.22297178   -42168.17957768
  entropy T*S    EENTRO =        -0.20435836
  eigenvalues    EBANDS =     -3287.11253091
  atomic energy  EATOM  =     45086.50549395
  Solvation  Ediel_sol  =         0.00000000
  ---------------------------------------------------
  free energy    TOTEN  =      -181.20792151 eV

  energy without entropy =     -181.00356315  energy(sigma->0) =     -181.15683192


--------------------------------------------------------------------------------------------------------




--------------------------------------- Iteration      1(   8)  ---------------------------------------


    POTLOK:  cpu time   13.6065: real time   13.6083
    SETDIJ:  cpu time    0.1260: real time    0.1260
    EDDIAG:  cpu time   68.9441: real time   68.9571
  RMM-DIIS:  cpu time  201.2983: real time  201.3106
    ORTHCH:  cpu time   13.2726: real time   13.2729
       DOS:  cpu time    0.0014: real time    0.0014
    CHARGE:  cpu time   26.2234: real time   26.2239
    MIXING:  cpu time    0.5351: real time    0.5352
    --------------------------------------------
      LOOP:  cpu time  324.0075: real time  324.0353

 eigenvalue-minimisations  :   769
 total energy-change (2. order) :-0.1949811E+01  (-0.6434966E+00)
 number of electron     559.9999826 magnetization 
 augmentation part      240.0833245 magnetization 

 Broyden mixing:
  rms(total) = 0.27384E+01    rms(broyden)= 0.27382E+01
  rms(prec ) = 0.32175E+01
  weight for this iteration     100.00

 eigenvalues of (default mixing * dielectric matrix)
  average eigenvalue GAMMA=   0.3188
  0.7002  0.1281  0.1281

 Free energy of the ion-electron system (eV)
  ---------------------------------------------------
  alpha Z        PSCENC =        75.25431677
  Ewald energy   TEWEN  =    136930.26232604
  -Hartree energ DENC   =   -180839.65794516
  -exchange      EXHF   =         0.00000000
  -V(xc)+E(xc)   XCENC  =     -1697.85332567
  PAW double counting   =     45730.04065158   -42223.26642105
  entropy T*S    EENTRO =        -0.07397121
  eigenvalues    EBANDS =     -3244.36885800
  atomic energy  EATOM  =     45086.50549395
  Solvation  Ediel_sol  =         0.00000000
  ---------------------------------------------------
  free energy    TOTEN  =      -183.15773275 eV

  energy without entropy =     -183.08376154  energy(sigma->0) =     -183.13923995


--------------------------------------------------------------------------------------------------------




--------------------------------------- Iteration      1(   9)  ---------------------------------------


    POTLOK:  cpu time   13.4841: real time   13.4867
    SETDIJ:  cpu time    0.1264: real time    0.1264
    EDDIAG:  cpu time   67.8737: real time   67.8784
  RMM-DIIS:  cpu time  191.9958: real time  192.0193
    ORTHCH:  cpu time   13.4971: real time   13.4973
       DOS:  cpu time    0.0014: real time    0.0014
    CHARGE:  cpu time   25.4733: real time   25.4757
    MIXING:  cpu time    0.5468: real time    0.5468
    --------------------------------------------
      LOOP:  cpu time  312.9985: real time  313.0321

 eigenvalue-minimisations  :   732
 total energy-change (2. order) : 0.2072982E+01  (-0.4947374E+00)
 number of electron     559.9999841 magnetization 
 augmentation part      241.0425687 magnetization 

 Broyden mixing:
  rms(total) = 0.23204E+01    rms(broyden)= 0.23201E+01
  rms(prec ) = 0.26826E+01
  weight for this iteration     100.00

 eigenvalues of (default mixing * dielectric matrix)
  average eigenvalue GAMMA=   0.2999
  0.7947  0.1548  0.1548  0.0950

 Free energy of the ion-electron system (eV)
  ---------------------------------------------------
  alpha Z        PSCENC =        75.25431677
  Ewald energy   TEWEN  =    136930.26232604
  -Hartree energ DENC   =   -180856.06854227
  -exchange      EXHF   =         0.00000000
  -V(xc)+E(xc)   XCENC  =     -1697.81232298
  PAW double counting   =     45787.60379589   -42278.11194186
  entropy T*S    EENTRO =        -0.11227084
  eigenvalues    EBANDS =     -3228.60560552
  atomic energy  EATOM  =     45086.50549395
  Solvation  Ediel_sol  =         0.00000000
  ---------------------------------------------------
  free energy    TOTEN  =      -181.08475081 eV

  energy without entropy =     -180.97247998  energy(sigma->0) =     -181.05668310


--------------------------------------------------------------------------------------------------------




--------------------------------------- Iteration      1(  10)  ---------------------------------------


    POTLOK:  cpu time   13.5033: real time   13.5071
    SETDIJ:  cpu time    0.1224: real time    0.1224
    EDDIAG:  cpu time   68.7699: real time   68.7739
  RMM-DIIS:  cpu time  191.2521: real time  191.2683
    ORTHCH:  cpu time   13.5275: real time   13.5278
       DOS:  cpu time    0.0015: real time    0.0015
    CHARGE:  cpu time   25.9652: real time   25.9657
    MIXING:  cpu time    0.5872: real time    0.5872
    --------------------------------------------
      LOOP:  cpu time  313.7289: real time  313.7539

 eigenvalue-minimisations  :   734
 total energy-change (2. order) : 0.1519342E+01  (-0.2660643E+00)
 number of electron     559.9999848 magnetization 
 augmentation part      241.2376654 magnetization 

 Broyden mixing:
  rms(total) = 0.23582E+01    rms(broyden)= 0.23578E+01
  rms(prec ) = 0.28232E+01
  weight for this iteration     100.00

 eigenvalues of (default mixing * dielectric matrix)
  average eigenvalue GAMMA=   0.2719
  0.8463  0.1718  0.1718  0.0848  0.0848

 Free energy of the ion-electron system (eV)
  ---------------------------------------------------
  alpha Z        PSCENC =        75.25431677
  Ewald energy   TEWEN  =    136930.26232604
  -Hartree energ DENC   =   -180887.65902963
  -exchange      EXHF   =         0.00000000
  -V(xc)+E(xc)   XCENC  =     -1697.66553865
  PAW double counting   =     45828.90125549   -42317.60241724
  entropy T*S    EENTRO =        -0.07291915
  eigenvalues    EBANDS =     -3197.48889603
  atomic energy  EATOM  =     45086.50549395
  Solvation  Ediel_sol  =         0.00000000
  ---------------------------------------------------
  free energy    TOTEN  =      -179.56540845 eV

  energy without entropy =     -179.49248930  energy(sigma->0) =     -179.54717866


--------------------------------------------------------------------------------------------------------




--------------------------------------- Iteration      1(  11)  ---------------------------------------


    POTLOK:  cpu time   13.5816: real time   13.5853
    SETDIJ:  cpu time    0.1230: real time    0.1230
    EDDIAG:  cpu time   67.8903: real time   67.8961
  RMM-DIIS:  cpu time  193.2119: real time  193.2203
    ORTHCH:  cpu time   13.6592: real time   13.6604
       DOS:  cpu time    0.0015: real time    0.0015
    CHARGE:  cpu time   25.5614: real time   25.5663
    MIXING:  cpu time    0.5984: real time    0.5984
    --------------------------------------------
      LOOP:  cpu time  314.6273: real time  314.6514

 eigenvalue-minimisations  :   739
 total energy-change (2. order) : 0.2077761E+01  (-0.1425913E+00)
 number of electron     559.9999857 magnetization 
 augmentation part      241.5291071 magnetization 

 Broyden mixing:
  rms(total) = 0.19711E+01    rms(broyden)= 0.19708E+01
  rms(prec ) = 0.23059E+01
  weight for this iteration     100.00

 eigenvalues of (default mixing * dielectric matrix)
  average eigenvalue GAMMA=   0.2523
  0.8900  0.1846  0.1846  0.0960  0.0960  0.0624

 Free energy of the ion-electron system (eV)
  ---------------------------------------------------
  alpha Z        PSCENC =        75.25431677
  Ewald energy   TEWEN  =    136930.26232604
  -Hartree energ DENC   =   -180901.68377503
  -exchange      EXHF   =         0.00000000
  -V(xc)+E(xc)   XCENC  =     -1697.56359422
  PAW double counting   =     45853.90299138   -42341.39655553
  entropy T*S    EENTRO =        -0.04425530
  eigenvalues    EBANDS =     -3182.72459589
  atomic energy  EATOM  =     45086.50549395
  Solvation  Ediel_sol  =         0.00000000
  ---------------------------------------------------
  free energy    TOTEN  =      -177.48764783 eV

  energy without entropy =     -177.44339253  energy(sigma->0) =     -177.47658400


--------------------------------------------------------------------------------------------------------




--------------------------------------- Iteration      1(  12)  ---------------------------------------


    POTLOK:  cpu time   13.1551: real time   13.1568
    SETDIJ:  cpu time    0.1200: real time    0.1200
    EDDIAG:  cpu time   68.3059: real time   68.3094
  RMM-DIIS:  cpu time  190.4858: real time  190.5049
    ORTHCH:  cpu time   13.5830: real time   13.5832
       DOS:  cpu time    0.0014: real time    0.0014
    CHARGE:  cpu time   25.3797: real time   25.3812
    MIXING:  cpu time    0.6472: real time    0.6472
    --------------------------------------------
      LOOP:  cpu time  311.6781: real time  311.7042

 eigenvalue-minimisations  :   731
 total energy-change (2. order) : 0.1162286E+01  (-0.1054999E+00)
 number of electron     559.9999859 magnetization 
 augmentation part      241.6847244 magnetization 

 Broyden mixing:
  rms(total) = 0.14401E+01    rms(broyden)= 0.14398E+01
  rms(prec ) = 0.16814E+01
  weight for this iteration     100.00

 eigenvalues of (default mixing * dielectric matrix)
  average eigenvalue GAMMA=   0.2462
  0.9357  0.2165  0.2165  0.1063  0.1063  0.0847  0.0575

 Free energy of the ion-electron system (eV)
  ---------------------------------------------------
  alpha Z        PSCENC =        75.25431677
  Ewald energy   TEWEN  =    136930.26232604
  -Hartree energ DENC   =   -180913.19914395
  -exchange      EXHF   =         0.00000000
  -V(xc)+E(xc)   XCENC  =     -1697.40180285
  PAW double counting   =     45875.51718841   -42361.93575826
  entropy T*S    EENTRO =        -0.15351124
  eigenvalues    EBANDS =     -3171.17447093
  atomic energy  EATOM  =     45086.50549395
  Solvation  Ediel_sol  =         0.00000000
  ---------------------------------------------------
  free energy    TOTEN  =      -176.32536206 eV

  energy without entropy =     -176.17185082  energy(sigma->0) =     -176.28698425


--------------------------------------------------------------------------------------------------------




--------------------------------------- Iteration      1(  13)  ---------------------------------------


    POTLOK:  cpu time   13.2966: real time   13.3012
    SETDIJ:  cpu time    0.1223: real time    0.1223
    EDDIAG:  cpu time   68.1465: real time   68.1550
  RMM-DIIS:  cpu time  188.1354: real time  188.1640
    ORTHCH:  cpu time   13.6275: real time   13.6278
       DOS:  cpu time    0.0015: real time    0.0015
    CHARGE:  cpu time   25.4497: real time   25.4530
    MIXING:  cpu time    0.6876: real time    0.6876
    --------------------------------------------
      LOOP:  cpu time  309.4670: real time  309.5124

 eigenvalue-minimisations  :   723
 total energy-change (2. order) : 0.3796918E+00  (-0.9312050E-01)
 number of electron     559.9999849 magnetization 
 augmentation part      241.6446389 magnetization 

 Broyden mixing:
  rms(total) = 0.14689E+01    rms(broyden)= 0.14686E+01
  rms(prec ) = 0.17599E+01
  weight for this iteration     100.00

 eigenvalues of (default mixing * dielectric matrix)
  average eigenvalue GAMMA=   0.2524
  0.9883  0.2854  0.2854  0.1257  0.1257  0.0800  0.0800  0.0488

 Free energy of the ion-electron system (eV)
  ---------------------------------------------------
  alpha Z        PSCENC =        75.25431677
  Ewald energy   TEWEN  =    136930.26232604
  -Hartree energ DENC   =   -180932.64635951
  -exchange      EXHF   =         0.00000000
  -V(xc)+E(xc)   XCENC  =     -1697.18394187
  PAW double counting   =     45901.66276373   -42386.68996145
  entropy T*S    EENTRO =        -0.07434153
  eigenvalues    EBANDS =     -3153.03596645
  atomic energy  EATOM  =     45086.50549395
  Solvation  Ediel_sol  =         0.00000000
  ---------------------------------------------------
  free energy    TOTEN  =      -175.94567031 eV

  energy without entropy =     -175.87132878  energy(sigma->0) =     -175.92708493


--------------------------------------------------------------------------------------------------------




--------------------------------------- Iteration      1(  14)  ---------------------------------------


    POTLOK:  cpu time   13.2511: real time   13.2538
    SETDIJ:  cpu time    0.1237: real time    0.1237
    EDDIAG:  cpu time   67.5744: real time   67.5853
  RMM-DIIS:  cpu time  187.8055: real time  187.8224
    ORTHCH:  cpu time   13.4583: real time   13.4594
       DOS:  cpu time    0.0015: real time    0.0015
    CHARGE:  cpu time   25.2152: real time   25.2158
    MIXING:  cpu time    0.7176: real time    0.7176
    --------------------------------------------
      LOOP:  cpu time  308.1472: real time  308.1795

 eigenvalue-minimisations  :   719
 total energy-change (2. order) :-0.3777201E+00  (-0.7485369E-01)
 number of electron     559.9999823 magnetization 
 augmentation part      241.6589107 magnetization 

 Broyden mixing:
  rms(total) = 0.26304E+01    rms(broyden)= 0.26302E+01
  rms(prec ) = 0.30883E+01
  weight for this iteration     100.00

 eigenvalues of (default mixing * dielectric matrix)
  average eigenvalue GAMMA=   0.2571
  1.0675  0.3590  0.3590  0.1304  0.1304  0.0875  0.0875  0.0514  0.0412

 Free energy of the ion-electron system (eV)
  ---------------------------------------------------
  alpha Z        PSCENC =        75.25431677
  Ewald energy   TEWEN  =    136930.26232604
  -Hartree energ DENC   =   -180953.56081116
  -exchange      EXHF   =         0.00000000
  -V(xc)+E(xc)   XCENC  =     -1696.84817802
  PAW double counting   =     45933.09711931   -42416.37864211
  entropy T*S    EENTRO =         0.13201525
  eigenvalues    EBANDS =     -3134.78703040
  atomic energy  EATOM  =     45086.50549395
  Solvation  Ediel_sol  =         0.00000000
  ---------------------------------------------------
  free energy    TOTEN  =      -176.32339037 eV

  energy without entropy =     -176.45540562  energy(sigma->0) =     -176.35639418


--------------------------------------------------------------------------------------------------------




--------------------------------------- Iteration      1(  15)  ---------------------------------------


    POTLOK:  cpu time   13.3286: real time   13.3298
    SETDIJ:  cpu time    0.1202: real time    0.1202
    EDDIAG:  cpu time   67.8427: real time   67.8491
  RMM-DIIS:  cpu time  187.8027: real time  187.8169
    ORTHCH:  cpu time   13.3538: real time   13.3560
       DOS:  cpu time    0.0015: real time    0.0015
    CHARGE:  cpu time   25.1407: real time   25.1430
    MIXING:  cpu time    0.7726: real time    0.7726
    --------------------------------------------
      LOOP:  cpu time  308.3628: real time  308.3890

 eigenvalue-minimisations  :   718
 total energy-change (2. order) : 0.6278349E+00  (-0.1007888E+00)
 number of electron     559.9999829 magnetization 
 augmentation part      241.4896567 magnetization 

 Broyden mixing:
  rms(total) = 0.16804E+01    rms(broyden)= 0.16803E+01
  rms(prec ) = 0.19176E+01
  weight for this iteration     100.00

 eigenvalues of (default mixing * dielectric matrix)
  average eigenvalue GAMMA=   0.2739
  1.2175  0.6224  0.2563  0.1412  0.1412  0.0868  0.0868  0.0922  0.0532  0.0411

 Free energy of the ion-electron system (eV)
  ---------------------------------------------------
  alpha Z        PSCENC =        75.25431677
  Ewald energy   TEWEN  =    136930.26232604
  -Hartree energ DENC   =   -180983.18763694
  -exchange      EXHF   =         0.00000000
  -V(xc)+E(xc)   XCENC  =     -1696.39378634
  PAW double counting   =     45973.94832499   -42454.91353956
  entropy T*S    EENTRO =        -0.09219453
  eigenvalues    EBANDS =     -3107.07885981
  atomic energy  EATOM  =     45086.50549395
  Solvation  Ediel_sol  =         0.00000000
  ---------------------------------------------------
  free energy    TOTEN  =      -175.69555544 eV

  energy without entropy =     -175.60336090  energy(sigma->0) =     -175.67250680


--------------------------------------------------------------------------------------------------------




--------------------------------------- Iteration      1(  16)  ---------------------------------------


    POTLOK:  cpu time   13.1321: real time   13.1344
    SETDIJ:  cpu time    0.1201: real time    0.1201
    EDDIAG:  cpu time   67.9942: real time   67.9986
  RMM-DIIS:  cpu time  188.1275: real time  188.1389
    ORTHCH:  cpu time   13.1462: real time   13.1465
       DOS:  cpu time    0.0015: real time    0.0015
    CHARGE:  cpu time   25.2278: real time   25.2297
    MIXING:  cpu time    0.8440: real time    0.8441
    --------------------------------------------
      LOOP:  cpu time  308.5935: real time  308.6139

 eigenvalue-minimisations  :   713
 total energy-change (2. order) : 0.3567293E+00  (-0.1014476E+00)
 number of electron     559.9999846 magnetization 
 augmentation part      241.1367131 magnetization 

 Broyden mixing:
  rms(total) = 0.15703E+01    rms(broyden)= 0.15701E+01
  rms(prec ) = 0.18382E+01
  weight for this iteration     100.00

 eigenvalues of (default mixing * dielectric matrix)
  average eigenvalue GAMMA=   0.2756
  1.3183  0.7184  0.2023  0.1829  0.1829  0.0871  0.0871  0.0836  0.0710  0.0557
  0.0426

 Free energy of the ion-electron system (eV)
  ---------------------------------------------------
  alpha Z        PSCENC =        75.25431677
  Ewald energy   TEWEN  =    136930.26232604
  -Hartree energ DENC   =   -181031.14628933
  -exchange      EXHF   =         0.00000000
  -V(xc)+E(xc)   XCENC  =     -1695.74826831
  PAW double counting   =     46031.55352944   -42509.33326907
  entropy T*S    EENTRO =        -0.07621090
  eigenvalues    EBANDS =     -3062.61045474
  atomic energy  EATOM  =     45086.50549395
  Solvation  Ediel_sol  =         0.00000000
  ---------------------------------------------------
  free energy    TOTEN  =      -175.33882615 eV

  energy without entropy =     -175.26261525  energy(sigma->0) =     -175.31977343


--------------------------------------------------------------------------------------------------------




--------------------------------------- Iteration      1(  17)  ---------------------------------------


    POTLOK:  cpu time   13.0168: real time   13.0196
    SETDIJ:  cpu time    0.1195: real time    0.1195
    EDDIAG:  cpu time   67.8272: real time   67.8299
  RMM-DIIS:  cpu time  189.2659: real time  189.2750
    ORTHCH:  cpu time   13.3722: real time   13.3723
       DOS:  cpu time    0.0015: real time    0.0015
    CHARGE:  cpu time   25.5200: real time   25.5242
    MIXING:  cpu time    0.8263: real time    0.8263
    --------------------------------------------
      LOOP:  cpu time  309.9494: real time  309.9683

 eigenvalue-minimisations  :   713
 total energy-change (2. order) : 0.3289552E+00  (-0.5921426E-01)
 number of electron     559.9999856 magnetization 
 augmentation part      241.0119014 magnetization 

 Broyden mixing:
  rms(total) = 0.12308E+01    rms(broyden)= 0.12305E+01
  rms(prec ) = 0.14140E+01
  weight for this iteration     100.00

 eigenvalues of (default mixing * dielectric matrix)
  average eigenvalue GAMMA=   0.2934
  1.5211  0.8180  0.2501  0.2501  0.1557  0.0922  0.0922  0.0953  0.0953  0.0539
  0.0539  0.0433

 Free energy of the ion-electron system (eV)
  ---------------------------------------------------
  alpha Z        PSCENC =        75.25431677
  Ewald energy   TEWEN  =    136930.26232604
  -Hartree energ DENC   =   -181048.92621322
  -exchange      EXHF   =         0.00000000
  -V(xc)+E(xc)   XCENC  =     -1695.50443383
  PAW double counting   =     46052.98090215   -42529.50900838
  entropy T*S    EENTRO =        -0.00257251
  eigenvalues    EBANDS =     -3046.07068193
  atomic energy  EATOM  =     45086.50549395
  Solvation  Ediel_sol  =         0.00000000
  ---------------------------------------------------
  free energy    TOTEN  =      -175.00987096 eV

  energy without entropy =     -175.00729845  energy(sigma->0) =     -175.00922783


--------------------------------------------------------------------------------------------------------




--------------------------------------- Iteration      1(  18)  ---------------------------------------


    POTLOK:  cpu time   13.2322: real time   13.2340
    SETDIJ:  cpu time    0.1247: real time    0.1247
    EDDIAG:  cpu time   67.8575: real time   67.8583
  RMM-DIIS:  cpu time  190.0454: real time  190.0489
    ORTHCH:  cpu time   13.6604: real time   13.6603
       DOS:  cpu time    0.0015: real time    0.0015
    CHARGE:  cpu time   25.3150: real time   25.3171
    MIXING:  cpu time    0.9426: real time    0.9426
    --------------------------------------------
      LOOP:  cpu time  311.1792: real time  311.1875

 eigenvalue-minimisations  :   715
 total energy-change (2. order) :-0.2588565E-01  (-0.6139313E-01)
 number of electron     559.9999847 magnetization 
 augmentation part      241.0101170 magnetization 

 Broyden mixing:
  rms(total) = 0.13643E+01    rms(broyden)= 0.13641E+01
  rms(prec ) = 0.15939E+01
  weight for this iteration     100.00

 eigenvalues of (default mixing * dielectric matrix)
  average eigenvalue GAMMA=   0.3026
  1.6292  0.9373  0.3038  0.3038  0.1224  0.1224  0.0982  0.0982  0.0860  0.0860
  0.0508  0.0508  0.0445

 Free energy of the ion-electron system (eV)
  ---------------------------------------------------
  alpha Z        PSCENC =        75.25431677
  Ewald energy   TEWEN  =    136930.26232604
  -Hartree energ DENC   =   -181072.44976499
  -exchange      EXHF   =         0.00000000
  -V(xc)+E(xc)   XCENC  =     -1695.17891101
  PAW double counting   =     46080.48883782   -42555.28821235
  entropy T*S    EENTRO =         0.01928216
  eigenvalues    EBANDS =     -3024.64912500
  atomic energy  EATOM  =     45086.50549395
  Solvation  Ediel_sol  =         0.00000000
  ---------------------------------------------------
  free energy    TOTEN  =      -175.03575661 eV

  energy without entropy =     -175.05503877  energy(sigma->0) =     -175.04057715


--------------------------------------------------------------------------------------------------------




--------------------------------------- Iteration      1(  19)  ---------------------------------------


    POTLOK:  cpu time   13.2726: real time   13.2741
    SETDIJ:  cpu time    0.1242: real time    0.1241
    EDDIAG:  cpu time   67.7890: real time   67.7899
  RMM-DIIS:  cpu time  189.5312: real time  189.5351
    ORTHCH:  cpu time   13.6290: real time   13.6290
       DOS:  cpu time    0.0016: real time    0.0015
    CHARGE:  cpu time   25.2432: real time   25.2432
    MIXING:  cpu time    0.9911: real time    0.9911
    --------------------------------------------
      LOOP:  cpu time  310.5818: real time  310.5881

 eigenvalue-minimisations  :   718
 total energy-change (2. order) : 0.1482052E+00  (-0.4790519E-01)
 number of electron     559.9999871 magnetization 
 augmentation part      240.9924142 magnetization 

 Broyden mixing:
  rms(total) = 0.12533E+01    rms(broyden)= 0.12532E+01
  rms(prec ) = 0.14522E+01
  weight for this iteration     100.00

 eigenvalues of (default mixing * dielectric matrix)
  average eigenvalue GAMMA=   0.3076
  1.7238  1.0080  0.3480  0.3480  0.1466  0.1466  0.0996  0.0996  0.0834  0.0834
  0.0750  0.0483  0.0483  0.0475

 Free energy of the ion-electron system (eV)
  ---------------------------------------------------
  alpha Z        PSCENC =        75.25431677
  Ewald energy   TEWEN  =    136930.26232604
  -Hartree energ DENC   =   -181092.07747550
  -exchange      EXHF   =         0.00000000
  -V(xc)+E(xc)   XCENC  =     -1694.98534377
  PAW double counting   =     46094.23073969   -42567.91543877
  entropy T*S    EENTRO =         0.02215459
  eigenvalues    EBANDS =     -3006.18432445
  atomic energy  EATOM  =     45086.50549395
  Solvation  Ediel_sol  =         0.00000000
  ---------------------------------------------------
  free energy    TOTEN  =      -174.88755145 eV

  energy without entropy =     -174.90970604  energy(sigma->0) =     -174.89309010


--------------------------------------------------------------------------------------------------------




--------------------------------------- Iteration      1(  20)  ---------------------------------------


    POTLOK:  cpu time   13.3488: real time   13.3520
    SETDIJ:  cpu time    0.1242: real time    0.1242
    EDDIAG:  cpu time   67.7950: real time   67.7964
  RMM-DIIS:  cpu time  189.8056: real time  189.8085
    ORTHCH:  cpu time   13.7767: real time   13.7767
       DOS:  cpu time    0.0015: real time    0.0015
    CHARGE:  cpu time   25.2196: real time   25.2195
    MIXING:  cpu time    1.0896: real time    1.0896
    --------------------------------------------
      LOOP:  cpu time  311.1610: real time  311.1685

 eigenvalue-minimisations  :   719
 total energy-change (2. order) : 0.3924481E-01  (-0.3540329E-01)
 number of electron     559.9999866 magnetization 
 augmentation part      241.0733660 magnetization 

 Broyden mixing:
  rms(total) = 0.11735E+01    rms(broyden)= 0.11734E+01
  rms(prec ) = 0.13870E+01
  weight for this iteration     100.00

 eigenvalues of (default mixing * dielectric matrix)
  average eigenvalue GAMMA=   0.3083
  1.7888  1.0880  0.3728  0.3728  0.1691  0.1691  0.1019  0.1019  0.0858  0.0858
  0.0730  0.0730  0.0483  0.0472  0.0472

 Free energy of the ion-electron system (eV)
  ---------------------------------------------------
  alpha Z        PSCENC =        75.25431677
  Ewald energy   TEWEN  =    136930.26232604
  -Hartree energ DENC   =   -181102.16255836
  -exchange      EXHF   =         0.00000000
  -V(xc)+E(xc)   XCENC  =     -1694.91295532
  PAW double counting   =     46097.41359204   -42570.51146935
  entropy T*S    EENTRO =         0.04697597
  eigenvalues    EBANDS =     -2996.74402838
  atomic energy  EATOM  =     45086.50549395
  Solvation  Ediel_sol  =         0.00000000
  ---------------------------------------------------
  free energy    TOTEN  =      -174.84830664 eV

  energy without entropy =     -174.89528260  energy(sigma->0) =     -174.86005063


--------------------------------------------------------------------------------------------------------




--------------------------------------- Iteration      1(  21)  ---------------------------------------


    POTLOK:  cpu time   13.2391: real time   13.2407
    SETDIJ:  cpu time    0.1251: real time    0.1251
    EDDIAG:  cpu time   67.7971: real time   67.7987
  RMM-DIIS:  cpu time  191.7306: real time  191.7322
    ORTHCH:  cpu time   13.9604: real time   13.9606
       DOS:  cpu time    0.0016: real time    0.0016
    CHARGE:  cpu time   25.4247: real time   25.4247
    MIXING:  cpu time    1.1070: real time    1.1070
    --------------------------------------------
      LOOP:  cpu time  313.3856: real time  313.3905

 eigenvalue-minimisations  :   725
 total energy-change (2. order) : 0.2183231E+00  (-0.2519243E-01)
 number of electron     559.9999864 magnetization 
 augmentation part      241.1038120 magnetization 

 Broyden mixing:
  rms(total) = 0.99015E+00    rms(broyden)= 0.99000E+00
  rms(prec ) = 0.11652E+01
  weight for this iteration     100.00

 eigenvalues of (default mixing * dielectric matrix)
  average eigenvalue GAMMA=   0.3053
  1.8539  1.1230  0.3819  0.3819  0.1931  0.1931  0.0993  0.0993  0.0936  0.0936
  0.0854  0.0854  0.0578  0.0532  0.0451  0.0451

 Free energy of the ion-electron system (eV)
  ---------------------------------------------------
  alpha Z        PSCENC =        75.25431677
  Ewald energy   TEWEN  =    136930.26232604
  -Hartree energ DENC   =   -181117.03825566
  -exchange      EXHF   =         0.00000000
  -V(xc)+E(xc)   XCENC  =     -1694.81459415
  PAW double counting   =     46100.53959597   -42573.00362235
  entropy T*S    EENTRO =        -0.03108124
  eigenvalues    EBANDS =     -2982.30416291
  atomic energy  EATOM  =     45086.50549395
  Solvation  Ediel_sol  =         0.00000000
  ---------------------------------------------------
  free energy    TOTEN  =      -174.62998358 eV

  energy without entropy =     -174.59890234  energy(sigma->0) =     -174.62221327


--------------------------------------------------------------------------------------------------------




--------------------------------------- Iteration      1(  22)  ---------------------------------------


    POTLOK:  cpu time   13.3134: real time   13.3149
    SETDIJ:  cpu time    0.1215: real time    0.1215
    EDDIAG:  cpu time   68.4918: real time   68.4921
  RMM-DIIS:  cpu time  189.2660: real time  189.2662
    ORTHCH:  cpu time   13.7973: real time   13.7972
       DOS:  cpu time    0.0015: real time    0.0015
    CHARGE:  cpu time   25.3756: real time   25.3754
    MIXING:  cpu time    1.2019: real time    1.2019
    --------------------------------------------
      LOOP:  cpu time  311.5689: real time  311.5707

 eigenvalue-minimisations  :   715
 total energy-change (2. order) : 0.1845245E+00  (-0.1800090E-01)
 number of electron     559.9999864 magnetization 
 augmentation part      241.1538641 magnetization 

 Broyden mixing:
  rms(total) = 0.72544E+00    rms(broyden)= 0.72529E+00
  rms(prec ) = 0.83409E+00
  weight for this iteration     100.00

 eigenvalues of (default mixing * dielectric matrix)
  average eigenvalue GAMMA=   0.3057
  1.9646  1.1196  0.3461  0.3461  0.3407  0.1693  0.1693  0.1045  0.1045  0.0865
  0.0865  0.0828  0.0828  0.0522  0.0522  0.0448  0.0448

 Free energy of the ion-electron system (eV)
  ---------------------------------------------------
  alpha Z        PSCENC =        75.25431677
  Ewald energy   TEWEN  =    136930.26232604
  -Hartree energ DENC   =   -181126.23250566
  -exchange      EXHF   =         0.00000000
  -V(xc)+E(xc)   XCENC  =     -1694.72761152
  PAW double counting   =     46101.34550522   -42573.36170735
  entropy T*S    EENTRO =        -0.08871677
  eigenvalues    EBANDS =     -2973.40255979
  atomic energy  EATOM  =     45086.50549395
  Solvation  Ediel_sol  =         0.00000000
  ---------------------------------------------------
  free energy    TOTEN  =      -174.44545910 eV

  energy without entropy =     -174.35674233  energy(sigma->0) =     -174.42327991


--------------------------------------------------------------------------------------------------------




--------------------------------------- Iteration      1(  23)  ---------------------------------------


    POTLOK:  cpu time   13.3394: real time   13.3420
    SETDIJ:  cpu time    0.1214: real time    0.1214
    EDDIAG:  cpu time   69.1134: real time   69.1133
  RMM-DIIS:  cpu time  188.8344: real time  188.8368
    ORTHCH:  cpu time   13.5276: real time   13.5276
       DOS:  cpu time    0.0015: real time    0.0015
    CHARGE:  cpu time   25.6615: real time   25.6614
    MIXING:  cpu time    1.3235: real time    1.3235
    --------------------------------------------
      LOOP:  cpu time  311.9226: real time  311.9274

 eigenvalue-minimisations  :   714
 total energy-change (2. order) : 0.1540754E+00  (-0.1658075E-01)
 number of electron     559.9999862 magnetization 
 augmentation part      241.1751418 magnetization 

 Broyden mixing:
  rms(total) = 0.62843E+00    rms(broyden)= 0.62831E+00
  rms(prec ) = 0.74232E+00
  weight for this iteration     100.00

 eigenvalues of (default mixing * dielectric matrix)
  average eigenvalue GAMMA=   0.3225
  2.0571  1.2625  0.6122  0.3376  0.3376  0.1614  0.1614  0.1508  0.1033  0.1033
[...]
 -0.006  -0.012   0.004   0.004   0.005  -0.006  -0.011   0.004
 -0.011  -0.020   0.006   0.007   0.009  -0.010  -0.019   0.006
 -0.015  -0.005   0.013   0.000   0.022  -0.014  -0.005   0.012
  0.000  -0.023  -0.006  -0.015  -0.000   0.000  -0.022  -0.006
 -0.022   0.000   0.009  -0.005  -0.016  -0.022   0.000   0.008
 -0.018  -0.006   0.015   0.000   0.027  -0.017  -0.006   0.015
  0.000  -0.027  -0.007  -0.018   0.000   0.000  -0.027  -0.007
 -0.027   0.000   0.010  -0.006  -0.019  -0.026   0.000   0.010
 total augmentation occupancy for first ion, spin component:           1
  1.536  -0.032   0.005   0.016   0.023   0.076  -0.008  -0.002   0.036  -0.010   0.089  -0.030   0.012   0.002   0.002  -0.019
 -0.032   1.401   0.029   0.070  -0.001  -0.007   0.071   0.011  -0.014  -0.008   0.214  -0.064   0.019   0.001   0.003  -0.006
  0.005   0.029   1.544   0.002   0.002  -0.002   0.012   0.073  -0.013   0.017  -0.052   0.018  -0.003  -0.007  -0.005   0.016
  0.016   0.070   0.002   1.339   0.045   0.033  -0.013  -0.012   0.091  -0.023  -0.084   0.022  -0.001  -0.009  -0.004   0.001
  0.023  -0.001   0.002   0.045   1.442  -0.010  -0.008   0.016  -0.022   0.067  -0.096   0.031  -0.002  -0.010  -0.010   0.026
  0.076  -0.007  -0.002   0.033  -0.010   0.217   0.018  -0.002  -0.045   0.004  -0.048   0.002   0.017  -0.010   0.035  -0.004
 -0.008   0.071   0.012  -0.013  -0.008   0.018   0.262  -0.023  -0.003   0.006  -0.109   0.007  -0.001   0.051  -0.010  -0.000
 -0.002   0.011   0.073  -0.012   0.016  -0.002  -0.023   0.215   0.014  -0.020   0.028  -0.001  -0.012   0.009  -0.018   0.003
  0.036  -0.014  -0.013   0.091  -0.022  -0.045  -0.003   0.014   0.260   0.007   0.043  -0.004  -0.009   0.036   0.004   0.000
 -0.010  -0.008   0.017  -0.023   0.067   0.004   0.006  -0.020   0.007   0.258   0.047  -0.003  -0.038   0.002   0.049   0.007
  0.089   0.214  -0.052  -0.084  -0.096  -0.048  -0.109   0.028   0.043   0.047   0.947  -0.140   0.084   0.014   0.064  -0.013
 -0.030  -0.064   0.018   0.022   0.031   0.002   0.007  -0.001  -0.004  -0.003  -0.140   0.023  -0.014  -0.003  -0.010   0.003
  0.012   0.019  -0.003  -0.001  -0.002   0.017  -0.001  -0.012  -0.009  -0.038   0.084  -0.014   0.029  -0.008  -0.004  -0.003
  0.002   0.001  -0.007  -0.009  -0.010  -0.010   0.051   0.009   0.036   0.002   0.014  -0.003  -0.008   0.036   0.005   0.000
  0.002   0.003  -0.005  -0.004  -0.010   0.035  -0.010  -0.018   0.004   0.049   0.064  -0.010  -0.004   0.005   0.035  -0.000
 -0.019  -0.006   0.016   0.001   0.026  -0.004  -0.000   0.003   0.000   0.007  -0.013   0.003  -0.003   0.000  -0.000   0.001
  0.001  -0.028  -0.007  -0.018   0.001   0.001  -0.008  -0.002  -0.006  -0.000  -0.003   0.001   0.000  -0.003  -0.000   0.000
 -0.028   0.001   0.012  -0.005  -0.020  -0.006   0.001   0.003  -0.001  -0.007  -0.008   0.001  -0.000  -0.000  -0.003   0.000


------------------------ aborting loop because EDIFF is reached ----------------------------------------


    CHARGE:  cpu time   26.5512: real time   26.5510
    FORLOC:  cpu time    6.7297: real time    6.7296
    FORNL :  cpu time   66.1881: real time   66.1875
    STRESS:  cpu time  205.2786: real time  205.2941
    FORCOR:  cpu time   22.8982: real time   22.8987
    FORHAR:  cpu time    9.9964: real time    9.9966
    MIXING:  cpu time    3.7503: real time    3.7503
    OFIELD:  cpu time    0.0000: real time    0.0000

  FORCE on cell =-STRESS in cart. coord.  units (eV):
  Direction    XX          YY          ZZ          XY          YZ          ZX
  --------------------------------------------------------------------------------------
  Alpha Z    75.25432    75.25432    75.25432
  Ewald   46333.57374 44888.84360 45707.73949  1370.73623  1323.89947  1735.21473
  Hartree 61062.28973 59726.62487 60513.27014  1252.99619  1221.24175  1595.54398
  E(xc)   -2903.54687 -2904.49343 -2904.35682     0.74146     0.47926     0.73834
  Local  ************************************ -2613.06720 -2536.70099 -3319.04735
  n-local  -887.83096  -884.13315  -885.14333    -3.52467    -3.13150    -3.68986
  augment  4103.24368  4103.99826  4104.11459    -0.65086    -0.03718    -0.34808
  Kinetic  7798.98145  7806.13724  7804.32287    -7.09356    -4.94474    -7.58304
  Fock        0.00000     0.00000     0.00000     0.00000     0.00000     0.00000
  -------------------------------------------------------------------------------------
  Total    -114.92406  -113.28850  -112.71051     0.13761     0.80607     0.82873
  in kB      -6.81958    -6.72253    -6.68823     0.00817     0.04783     0.04918
  external pressure =       -6.74 kB  Pullay stress =        0.00 kB


 VOLUME and BASIS-vectors are now :
 -----------------------------------------------------------------------------
  energy-cutoff  :      400.00
  volume of cell :    27000.00
      direct lattice vectors                 reciprocal lattice vectors
    30.000000000  0.000000000  0.000000000     0.033333333  0.000000000  0.000000000
     0.000000000 30.000000000  0.000000000     0.000000000  0.033333333  0.000000000
     0.000000000  0.000000000 30.000000000     0.000000000  0.000000000  0.033333333

  length of vectors
    30.000000000 30.000000000 30.000000000     0.033333333  0.033333333  0.033333333


 FORCES acting on ions
    electron-ion (+dipol)            ewald-force                    non-local-force                 convergence-correction
 -----------------------------------------------------------------------------------------------
   0.396E+03 0.973E+03 0.418E+03   -.394E+03 -.970E+03 -.418E+03   -.150E+01 -.182E+01 -.227E+00   -.725E-02 0.270E-02 0.174E-02
   -.968E+03 -.388E+03 0.431E+03   0.965E+03 0.386E+03 -.430E+03   0.182E+01 0.149E+01 -.227E+00   -.206E-02 0.652E-02 0.436E-02
   -.391E+03 0.974E+03 0.419E+03   0.389E+03 -.971E+03 -.419E+03   0.150E+01 -.182E+01 -.227E+00   -.252E-02 -.131E-02 0.204E-03
   0.973E+03 -.392E+03 0.419E+03   -.970E+03 0.390E+03 -.418E+03   -.182E+01 0.149E+01 -.227E+00   0.517E-02 0.259E-02 0.778E-02
   0.229E+01 0.588E+03 0.966E+03   -.228E+01 -.588E+03 -.963E+03   -.371E-02 -.316E+00 -.235E+01   -.632E-02 0.287E-02 -.195E-02
   0.737E+01 0.595E+03 -.962E+03   -.737E+01 -.594E+03 0.959E+03   0.319E-02 -.314E+00 0.234E+01   -.476E-02 0.842E-02 0.225E-02
   0.266E+01 0.114E+04 0.250E+01   -.265E+01 -.113E+04 -.251E+01   -.164E-02 -.311E+01 0.371E-03   -.567E-02 -.432E-02 -.149E-03
   0.113E+04 0.187E+01 0.232E+01   -.113E+04 -.188E+01 -.232E+01   -.311E+01 0.331E-03 -.248E-02   0.814E-02 0.448E-02 0.232E-02
   -.113E+04 0.156E+02 0.198E+02   0.113E+04 -.156E+02 -.198E+02   0.312E+01 -.105E-01 -.153E-01   -.167E-02 0.278E-02 0.121E-02
   0.121E+02 -.114E+04 0.113E+02   -.121E+02 0.113E+04 -.113E+02   0.313E-02 0.310E+01 -.783E-02   -.140E-02 -.105E-01 0.456E-02
   -.576E+03 0.581E+03 0.815E+03   0.574E+03 -.579E+03 -.812E+03   0.156E+01 -.156E+01 -.220E+01   0.126E-02 -.511E-03 -.250E-02
   -.571E+03 0.595E+03 -.809E+03   0.569E+03 -.592E+03 0.806E+03   0.155E+01 -.157E+01 0.219E+01   0.180E-02 0.481E-02 0.340E-02
   0.581E+03 -.577E+03 0.815E+03   -.578E+03 0.575E+03 -.811E+03   -.156E+01 0.156E+01 -.220E+01   0.664E-03 0.268E-02 0.838E-02
   0.590E+03 -.576E+03 -.810E+03   -.588E+03 0.573E+03 0.807E+03   -.153E+01 0.156E+01 0.220E+01   0.391E-02 -.954E-03 -.880E-02
   0.579E+03 0.579E+03 0.813E+03   -.577E+03 -.577E+03 -.810E+03   -.156E+01 -.156E+01 -.220E+01   -.498E-02 0.360E-02 0.204E-02
   0.583E+03 0.582E+03 -.811E+03   -.580E+03 -.580E+03 0.808E+03   -.156E+01 -.155E+01 0.220E+01   -.311E-02 0.759E-02 -.254E-02
   -.575E+03 -.576E+03 0.820E+03   0.572E+03 0.574E+03 -.817E+03   0.156E+01 0.156E+01 -.220E+01   -.306E-02 0.794E-02 0.337E-02
   -.442E+03 -.525E+03 -.767E+03   0.441E+03 0.524E+03 0.765E+03   0.849E+00 0.107E+01 0.149E+01   -.116E-01 0.568E-02 -.731E-02
   0.398E+03 0.975E+03 -.414E+03   -.395E+03 -.972E+03 0.413E+03   -.149E+01 -.182E+01 0.227E+00   -.785E-02 0.301E-02 -.231E-02
   -.955E+03 -.346E+03 -.362E+03   0.952E+03 0.344E+03 0.361E+03   0.173E+01 0.164E+01 0.419E+00   -.927E-02 0.547E-02 -.871E-03
   -.316E+03 0.326E+03 0.459E+03   0.317E+03 -.326E+03 -.460E+03   -.360E+00 0.369E+00 0.527E+00   -.712E-02 0.985E-02 0.778E-02
   0.972E+03 0.396E+03 0.418E+03   -.969E+03 -.393E+03 -.418E+03   -.182E+01 -.150E+01 -.220E+00   0.936E-03 0.538E-02 0.553E-02
   -.386E+03 -.971E+03 0.428E+03   0.384E+03 0.968E+03 -.427E+03   0.149E+01 0.182E+01 -.224E+00   -.944E-02 0.197E-02 0.116E-01
   -.389E+03 0.978E+03 -.413E+03   0.387E+03 -.975E+03 0.412E+03   0.150E+01 -.181E+01 0.224E+00   -.305E-02 0.117E-02 0.583E-03
   0.976E+03 -.391E+03 -.413E+03   -.973E+03 0.389E+03 0.413E+03   -.182E+01 0.150E+01 0.222E+00   0.836E-02 0.372E-02 -.259E-02
   -.969E+03 0.401E+03 0.425E+03   0.966E+03 -.398E+03 -.424E+03   0.181E+01 -.149E+01 -.218E+00   0.264E-02 0.351E-02 0.379E-02
   0.400E+03 -.971E+03 0.422E+03   -.398E+03 0.968E+03 -.422E+03   -.149E+01 0.182E+01 -.212E+00   0.215E-02 -.202E-02 0.128E-01
   0.324E+03 0.324E+03 0.456E+03   -.325E+03 -.324E+03 -.457E+03   0.368E+00 0.365E+00 0.523E+00   -.683E-02 0.105E-01 0.836E-02
   0.475E+01 0.643E+03 0.446E+01   -.474E+01 -.644E+03 -.447E+01   0.522E-02 0.730E+00 0.458E-02   -.954E-02 0.122E-01 0.147E-02
   -.583E+03 0.351E+01 0.970E+03   0.583E+03 -.352E+01 -.966E+03   0.316E+00 0.755E-03 -.234E+01   -.814E-03 0.632E-02 0.134E-02
   -.561E+03 0.430E+02 -.955E+03   0.560E+03 -.432E+02 0.951E+03   0.371E+00 0.118E+00 0.235E+01   -.693E-02 0.821E-02 -.308E-02
   0.588E+03 0.162E+01 0.966E+03   -.587E+03 -.163E+01 -.962E+03   -.312E+00 0.356E-02 -.235E+01   -.275E-02 0.446E-02 0.706E-02
   0.594E+03 0.467E+01 -.962E+03   -.594E+03 -.468E+01 0.959E+03   -.307E+00 -.236E-03 0.235E+01   0.756E-03 0.110E-01 -.766E-02
   0.763E+03 0.763E+03 0.256E+01   -.761E+03 -.761E+03 -.256E+01   -.115E+01 -.114E+01 -.230E-02   -.385E-02 0.986E-02 0.102E-02
   -.745E+03 -.754E+03 0.304E+02   0.743E+03 0.752E+03 -.304E+02   0.115E+01 0.114E+01 0.104E-01   -.154E-01 0.513E-02 0.641E-02
   -.756E+03 0.768E+03 0.683E+01   0.754E+03 -.766E+03 -.683E+01   0.114E+01 -.114E+01 -.335E-02   0.155E-02 0.733E-02 0.121E-02
   0.767E+03 -.759E+03 0.494E+01   -.765E+03 0.757E+03 -.496E+01   -.114E+01 0.115E+01 0.677E-02   0.819E-02 -.127E-02 0.440E-02
   0.325E+01 0.245E+01 0.107E+04   -.324E+01 -.246E+01 -.107E+04   -.405E-02 0.183E-04 -.161E+01   -.702E-02 0.601E-02 0.435E-02
   0.184E+02 0.135E+02 -.107E+04   -.184E+02 -.135E+02 0.106E+04   -.148E-01 -.194E-01 0.161E+01   -.544E-02 0.124E-01 -.715E-02
   0.974E+03 0.397E+03 -.414E+03   -.971E+03 -.395E+03 0.413E+03   -.182E+01 -.150E+01 0.222E+00   0.277E-02 0.108E-01 -.385E-02
   -.358E+03 -.976E+03 -.390E+03   0.355E+03 0.973E+03 0.389E+03   0.156E+01 0.183E+01 0.267E+00   -.107E-01 -.336E-02 -.560E-02
   -.310E+03 0.335E+03 -.445E+03   0.311E+03 -.335E+03 0.445E+03   -.380E+00 0.345E+00 -.533E+00   -.719E-02 0.180E-01 -.254E-02
   0.326E+03 -.318E+03 0.458E+03   -.326E+03 0.319E+03 -.459E+03   0.368E+00 -.368E+00 0.522E+00   -.289E-02 0.789E-02 0.141E-01
   0.328E+03 0.327E+03 -.449E+03   -.329E+03 -.327E+03 0.450E+03   0.368E+00 0.373E+00 -.520E+00   -.425E-02 0.161E-01 -.506E-02
   -.966E+03 0.418E+03 -.403E+03   0.963E+03 -.416E+03 0.402E+03   0.182E+01 -.150E+01 0.239E+00   -.156E-03 0.446E-02 -.111E-03
   0.410E+03 -.972E+03 -.408E+03   -.408E+03 0.969E+03 0.408E+03   -.152E+01 0.181E+01 0.226E+00   0.701E-02 -.662E-02 -.680E-02
   -.314E+03 -.316E+03 0.463E+03   0.315E+03 0.317E+03 -.464E+03   -.368E+00 -.367E+00 0.522E+00   -.986E-02 0.966E-02 0.129E-01
   0.643E+03 0.316E+01 0.395E+01   -.644E+03 -.316E+01 -.395E+01   0.729E+00 -.365E-02 -.297E-02   0.236E-02 0.957E-02 0.424E-02
   -.630E+03 0.130E+02 0.165E+02   0.631E+03 -.130E+02 -.165E+02   -.743E+00 -.736E-02 -.155E-01   -.101E-01 0.955E-02 0.539E-02
   0.408E+01 -.585E+03 0.969E+03   -.408E+01 0.584E+03 -.965E+03   0.179E-02 0.310E+00 -.234E+01   -.457E-02 0.574E-02 0.883E-02
   0.341E+02 -.580E+03 -.958E+03   -.340E+02 0.580E+03 0.955E+03   -.128E+00 0.370E+00 0.240E+01   -.252E-02 0.196E-02 -.127E-01
   0.901E+01 0.667E+01 0.844E+01   -.903E+01 -.671E+01 -.848E+01   0.152E-01 0.122E-01 0.152E-01   -.742E-02 0.154E-01 0.703E-02
   0.334E+03 -.315E+03 -.446E+03   -.335E+03 0.316E+03 0.447E+03   0.345E+00 -.374E+00 -.529E+00   0.104E-02 0.818E-02 -.529E-02
   -.294E+03 -.304E+03 -.432E+03   0.294E+03 0.304E+03 0.433E+03   -.322E+00 -.397E+00 -.578E+00   -.136E-01 0.117E-01 -.470E-02
   0.133E+02 -.635E+03 0.124E+02   -.133E+02 0.636E+03 -.124E+02   -.178E-01 -.730E+00 -.182E-01   -.539E-02 0.563E-02 0.878E-02
   -.112E+03 -.715E+02 -.654E+02   0.943E+02 0.584E+02 0.488E+02   0.152E+02 0.114E+02 0.148E+02   -.176E-02 0.132E-02 -.486E-03
   -.418E+03 -.305E+03 -.372E+03   0.459E+03 0.335E+03 0.410E+03   -.392E+02 -.286E+02 -.368E+02   -.178E-02 0.137E-02 -.632E-03
 -----------------------------------------------------------------------------------------------
   0.249E+02 0.172E+02 0.224E+02   0.512E-12 -.739E-12 -.125E-11   -.248E+02 -.175E+02 -.225E+02   -.173E+00 0.296E+00 0.858E-01
 
 
 POSITION                                       TOTAL-FORCE (eV/Angst)
 -----------------------------------------------------------------------------------
     13.37281      9.84801     12.50759         0.704255      1.107471      0.295288
     20.15199     16.62719     12.50759        -1.108524     -0.703127      0.293126
     16.62719      9.84801     12.50759        -0.702483      1.105127      0.291535
      9.84801     16.62719     12.50759         1.107204     -0.702396      0.292277
     15.00000     11.47521     10.20639         0.002133      0.416435      1.280661
     15.00000     11.47521     19.79360        -0.000266      0.413781     -1.281352
     15.00000      8.28283     15.00000         0.000608      1.517096     -0.000103
      8.28283     15.00000     15.00000         1.517921      0.000571      0.001139
     21.71717     15.00000     15.00000        -1.517321      0.002708      0.003219
     15.00000     21.71717     15.00000        -0.001811     -1.514428     -0.002298
     18.35858     11.64142     10.25025        -0.757055      0.756270      1.072604
     18.35858     11.64142     19.74975        -0.756467      0.764155     -1.064972
     11.64142     18.35858     10.25025         0.757391     -0.755782      1.072752
     11.64142     18.35858     19.74975         0.739317     -0.761352     -1.072407
     11.64142     11.64142     10.25025         0.756769      0.758299      1.073047
     11.64142     11.64142     19.74975         0.756674      0.756007     -1.072297
     18.35858     18.35858     10.25025        -0.755836     -0.755574      1.072466
     18.35858     18.35858     19.74975         0.354333     -0.292402     -0.761960
     13.37281      9.84801     17.49241         0.702948      1.107726     -0.292730
     20.15199     16.62719     17.49241        -1.068721     -0.747743     -0.325452
     16.73751     13.26249     12.54279         0.112907     -0.114879     -0.161273
      9.84801     13.37281     12.50759         1.108920      0.703613      0.291354
     16.62719     20.15199     12.50759        -0.704113     -1.108759      0.292472
     16.62719      9.84801     17.49241        -0.705637      1.106233     -0.294598
      9.84801     16.62719     17.49241         1.110322     -0.706608     -0.290829
     20.15199     13.37281     12.50759        -1.110375      0.703396      0.294322
     13.37281     20.15199     12.50759         0.705311     -1.111432      0.290348
     13.26249     13.26249     12.54279        -0.113767     -0.110972     -0.155840
     15.00000     11.52498     15.00000        -0.000845     -0.233141     -0.001540
     18.52479     15.00000     10.20639        -0.415649     -0.000296      1.279841
     18.52479     15.00000     19.79360        -0.406494     -0.061056     -1.288683
     11.47521     15.00000     10.20640         0.414635     -0.000542      1.281362
     11.47521     15.00000     19.79360         0.412618      0.000602     -1.282637
     11.49535     11.49535     15.00000         0.829885      0.829359      0.000647
     18.50465     18.50465     15.00000        -0.834214     -0.828051     -0.007751
     18.50465     11.49535     15.00000        -0.827792      0.833364      0.001846
     11.49535     18.50465     15.00000         0.828502     -0.831522     -0.003789
     15.00000     15.00000     10.04368         0.000536      0.000672      1.178818
     15.00000     15.00000     19.95633         0.001370      0.002707     -1.180684
      9.84801     13.37281     17.49241         1.107857      0.704937     -0.291159
     16.62719     20.15199     17.49241        -0.746457     -1.099988     -0.311648
     16.73751     13.26249     17.45721         0.108834     -0.107306      0.158530
     13.26249     16.73751     12.54279        -0.112837      0.112796     -0.160988
     13.26249     13.26249     17.45721        -0.111270     -0.110515      0.157286
     20.15199     13.37281     17.49241        -1.110026      0.706601     -0.297479
     13.37281     20.15199     17.49241         0.718275     -1.103939     -0.290916
     16.73751     16.73751     12.54279         0.112016      0.111897     -0.155729
     11.52498     15.00000     15.00000        -0.231840      0.000419      0.000619
     18.47502     15.00000     15.00000         0.230345      0.004466      0.005410
     15.00000     18.52480     10.20639        -0.000556     -0.414167      1.280705
     15.00000     18.52480     19.79360         0.019914     -0.420792     -1.287852
     15.00000     15.00000     15.00000        -0.010561     -0.012507     -0.017645
     13.26249     16.73751     17.45721        -0.101417      0.111619      0.162300
     16.73751     16.73751     17.45721         0.061161      0.101994      0.142021
     15.00000     18.47502     15.00000         0.001488      0.227962      0.002238
     20.74288     19.18533     20.36113        -2.978538     -1.705671     -1.883912
     21.47061     19.71569     21.04048         1.906426      1.346660      1.670287
 -----------------------------------------------------------------------------------
    total drift:                               -0.005669     -0.001159     -0.005327


--------------------------------------------------------------------------------------------------------



  FREE ENERGIE OF THE ION-ELECTRON SYSTEM (eV)
  ---------------------------------------------------
  free  energy   TOTEN  =      -173.98916087 eV

  energy  without entropy=     -173.88424802  energy(sigma->0) =     -173.96293266
 


--------------------------------------------------------------------------------------------------------


    POTLOK:  cpu time   14.1463: real time   14.1466


--------------------------------------------------------------------------------------------------------


     LOOP+:  cpu time18384.4867: real time18385.5497
    4ORBIT:  cpu time    0.0000: real time    0.0000

 total amount of memory used by VASP MPI-rank0  5486942. kBytes
=======================================================================

   base      :      30000. kBytes
   nonlr-proj:      17127. kBytes
   fftplans  :     924480. kBytes
   grid      :    1872000. kBytes
   one-center:        886. kBytes
   wavefun   :    2642449. kBytes
 
  
  
 General timing and accounting informations for this job:
 ========================================================
  
                  Total CPU time used (sec):    18460.947
                            User time (sec):    17414.073
                          System time (sec):     1046.873
                         Elapsed time (sec):    18462.108
  
                   Maximum memory used (kb):     7179128.
                   Average memory used (kb):           0.
  
                          Minor page faults:    817753053
                          Major page faults:            0
                 Voluntary context switches:          570
