   57   57    1    1
  0.4736842E+03  0.3000000E-08  0.3000000E-08  0.3000000E-08  0.5000000E-15
  1.000000000000000E-004
  CAR 
 6_Pd100_top_free_z(O)                   
    560      1    336
 
  0.0000000E+00  0.0000000E+00  0.0000000E+00  0.1000000E+01
    1      -28.155166   1.000000
    2      -13.354770   1.000000
    3      -11.143261   1.000000
    4      -10.797496   1.000000
    5      -10.532454   1.000000
    6       -6.673261   1.000000
    7       -6.397637   1.000000
    8       -6.323726   1.000000
    9       -6.156751   1.000000
   10       -6.145718   1.000000
   11       -6.127252   1.000000
   12       -5.884593   1.000000
   13       -5.859258   1.000000
   14       -5.828970   1.000000
   15       -5.793071   1.000000
   16       -5.765958   1.000000
   17       -5.734292   1.000000
   18       -5.708300   1.000000
   19       -5.700711   1.000000
   20       -5.694426   1.000000
   21       -5.691463   1.000000
   22       -5.685141   1.000000
   23       -5.644473   1.000000
   24       -5.628818   1.000000
   25       -5.621027   1.000000
   26       -5.610157   1.000000
   27       -5.597550   1.000000
   28       -5.592762   1.000000
   29       -5.573064   1.000000
   30       -5.564252   1.000000
   31       -5.562801   1.000000
   32       -5.551672   1.000000
   33       -5.545905   1.000000
   34       -5.535119   1.000000
   35       -5.533679   1.000000
   36       -5.532798   1.000000
   37       -5.528141   1.000000
   38       -5.522242   1.000000
   39       -5.507124   1.000000
   40       -5.502125   1.000000
   41       -5.490237   1.000000
   42       -5.488636   1.000000
   43       -5.485781   1.000000
   44       -5.483252   1.000000
   45       -5.481708   1.000000
   46       -5.479745   1.000000
   47       -5.470089   1.000000
   48       -5.457496   1.000000
   49       -5.446317   1.000000
   50       -5.445208   1.000000
   51       -5.441967   1.000000
   52       -5.434385   1.000000
   53       -5.423890   1.000000
   54       -5.419981   1.000000
   55       -5.417799   1.000000
   56       -5.416496   1.000000
   57       -5.405204   1.000000
   58       -5.394416   1.000000
   59       -5.365050   1.000000
   60       -5.349147   1.000000
   61       -5.344102   1.000000
   62       -5.341194   1.000000
   63       -5.332627   1.000000
   64       -5.331392   1.000000
   65       -5.325716   1.000000
   66       -5.316563   1.000000
   67       -5.313534   1.000000
   68       -5.306295   1.000000
   69       -5.297498   1.000000
   70       -5.276331   1.000000
   71       -5.253620   1.000000
   72       -5.227020   1.000000
   73       -5.221580   1.000000
   74       -5.215160   1.000000
   75       -5.210946   1.000000
   76       -5.203391   1.000000
   77       -5.191816   1.000000
   78       -5.190534   1.000000
   79       -5.188767   1.000000
   80       -5.180600   1.000000
   81       -5.179485   1.000000
   82       -5.176960   1.000000
   83       -5.166585   1.000000
   84       -5.160010   1.000000
   85       -5.146958   1.000000
   86       -5.141319   1.000000
   87       -5.132311   1.000000
   88       -5.121835   1.000000
   89       -5.115382   1.000000
   90       -5.098042   1.000000
   91       -5.092735   1.000000
   92       -5.083381   1.000000
   93       -5.070238   1.000000
   94       -5.068578   1.000000
   95       -5.066896   1.000000
   96       -5.065172   1.000000
   97       -5.063929   1.000000
   98       -5.054144   1.000000
   99       -5.052802   1.000000
  100       -5.049429   1.000000
  101       -5.045971   1.000000
  102       -5.042259   1.000000
  103       -5.035002   1.000000
  104       -5.029576   1.000000
  105       -5.020116   1.000000
  106       -5.018213   1.000000
  107       -5.012578   1.000000
  108       -5.010460   1.000000
  109       -5.005423   1.000000
  110       -4.998827   1.000000
  111       -4.994095   1.000000
  112       -4.990180   1.000000
  113       -4.980559   1.000000
  114       -4.977230   0.999999
  115       -4.973113   0.999999
  116       -4.967686   0.999999
  117       -4.961272   0.999999
  118       -4.953522   0.999999
  119       -4.949413   0.999999
  120       -4.940660   0.999998
  121       -4.928882   0.999997
  122       -4.925456   0.999997
  123       -4.923657   0.999997
  124       -4.920371   0.999996
  125       -4.918043   0.999996
  126       -4.914819   0.999995
  127       -4.905084   0.999994
  128       -4.894797   0.999991
  129       -4.871021   0.999982
  130       -4.870450   0.999982
  131       -4.863679   0.999978
  132       -4.857744   0.999974
  133       -4.854359   0.999971
  134       -4.849974   0.999967
  135       -4.848033   0.999965
  136       -4.841205   0.999957
  137       -4.824722   0.999933
  138       -4.822142   0.999928
  139       -4.810438   0.999902
  140       -4.801312   0.999875
  141       -4.794554   0.999852
  142       -4.784911   0.999812
  143       -4.781124   0.999794
  144       -4.761547   0.999673
  145       -4.757648   0.999642
  146       -4.755894   0.999628
  147       -4.753335   0.999606
  148       -4.747632   0.999553
  149       -4.735730   0.999423
  150       -4.718606   0.999181
  151       -4.716817   0.999152
  152       -4.710525   0.999042
  153       -4.698844   0.998809
  154       -4.695633   0.998738
  155       -4.692388   0.998664
  156       -4.688034   0.998558
  157       -4.684444   0.998467
  158       -4.680552   0.998364
  159       -4.680125   0.998352
  160       -4.678952   0.998320
  161       -4.674045   0.998181
  162       -4.667164   0.997975
  163       -4.663379   0.997855
  164       -4.661517   0.997795
  165       -4.659046   0.997714
  166       -4.657766   0.997671
  167       -4.657279   0.997655
  168       -4.655829   0.997605
  169       -4.650188   0.997410
  170       -4.646123   0.997265
  171       -4.631737   0.996733
  172       -4.622524   0.996387
  173       -4.616990   0.996182
  174       -4.616700   0.996171
  175       -4.614460   0.996090
  176       -4.610271   0.995941
  177       -4.608742   0.995888
  178       -4.602884   0.995693
  179       -4.600404   0.995616
  180       -4.593756   0.995425
  181       -4.589145   0.995310
  182       -4.587647   0.995277
  183       -4.584809   0.995219
  184       -4.573520   0.995076
  185       -4.572348   0.995071
  186       -4.568699   0.995066
  187       -4.568380   0.995066
  188       -4.563827   0.995092
  189       -4.561142   0.995123
  190       -4.557987   0.995178
  191       -4.553061   0.995303
  192       -4.538123   0.996031
  193       -4.523307   0.997383
  194       -4.521813   0.997559
  195       -4.520111   0.997770
  196       -4.511877   0.998944
  197       -4.508658   0.999474
  198       -4.506091   0.999928
  199       -4.495389   1.002118
  200       -4.491924   1.002934
  201       -4.489568   1.003520
  202       -4.483329   1.005193
  203       -4.479077   1.006435
  204       -4.471427   1.008877
  205       -4.469130   1.009662
  206       -4.463935   1.011523
  207       -4.462849   1.011926
  208       -4.458666   1.013527
  209       -4.456978   1.014193
  210       -4.450001   1.017063
  211       -4.440367   1.021298
  212       -4.438815   1.022005
  213       -4.430288   1.025987
  214       -4.426409   1.027838
  215       -4.424425   1.028790
  216       -4.420091   1.030877
  217       -4.419472   1.031175
  218       -4.418164   1.031804
  219       -4.414832   1.033404
  220       -4.411105   1.035178
  221       -4.390845   1.044089
  222       -4.388998   1.044798
  223       -4.384348   1.046473
  224       -4.377896   1.048488
  225       -4.370945   1.050175
  226       -4.362154   1.051429
  227       -4.360963   1.051512
  228       -4.353166   1.051477
  229       -4.351870   1.051366
  230       -4.348964   1.051002
  231       -4.347868   1.050822
  232       -4.347138   1.050688
  233       -4.346023   1.050463
  234       -4.340728   1.049029
  235       -4.340043   1.048798
  236       -4.338812   1.048355
  237       -4.337773   1.047954
  238       -4.336274   1.047330
  239       -4.332964   1.045757
  240       -4.325459   1.041141
  241       -4.322696   1.039054
  242       -4.322281   1.038722
  243       -4.307538   1.023526
  244       -4.305211   1.020493
  245       -4.303801   1.018567
  246       -4.302554   1.016806
  247       -4.298956   1.011425
  248       -4.296425   1.007368
  249       -4.289967   0.995972
  250       -4.287438   0.991093
  251       -4.283387   0.982780
  252       -4.279073   0.973244
  253       -4.278096   0.970985
  254       -4.275321   0.964370
  255       -4.273130   0.958939
  256       -4.267700   0.944675
  257       -4.267155   0.943182
  258       -4.263555   0.933019
  259       -4.261212   0.926135
  260       -4.259836   0.921993
  261       -4.258262   0.917164
  262       -4.257120   0.913605
  263       -4.253245   0.901145
  264       -4.252569   0.898914
  265       -4.251324   0.894756
  266       -4.240637   0.856708
  267       -4.239774   0.853455
  268       -4.239269   0.851537
  269       -4.234108   0.831437
  270       -4.232042   0.823134
  271       -4.230111   0.815243
  272       -4.218478   0.765198
  273       -4.213914   0.744468
  274       -4.206981   0.711925
  275       -4.198821   0.672177
  276       -4.195779   0.657010
  277       -4.193997   0.648052
  278       -4.189482   0.625112
  279       -4.188935   0.622311
  280       -4.186717   0.610913
  281       -4.174604   0.547740
  282       -4.155577   0.447277
  283       -4.148842   0.412032
  284       -4.147064   0.402797
  285       -4.144421   0.389136
  286       -4.141508   0.374182
  287       -4.134145   0.336965
  288       -4.131679   0.324710
  289       -4.128478   0.308992
  290       -3.976099  -0.051581
  291       -3.850507  -0.005975
  292       -3.845488  -0.004553
  293       -3.829355  -0.000752
  294       -3.682741   0.002654
  295       -3.520987   0.000099
  296       -3.506726   0.000068
  297       -3.313292   0.000000
  298       -3.103314   0.000000
  299       -3.073196   0.000000
  300       -3.071250   0.000000
  301       -3.045179   0.000000
  302       -3.041775   0.000000
  303       -2.956460   0.000000
  304       -2.953907   0.000000
  305       -2.692751   0.000000
  306       -2.614420   0.000000
  307       -2.541761   0.000000
  308       -2.531324   0.000000
  309       -2.284687   0.000000
  310       -2.126530   0.000000
  311       -2.125339   0.000000
  312       -2.083256   0.000000
  313       -2.046178   0.000000
  314       -2.005600   0.000000
  315       -1.938622   0.000000
  316       -1.895114   0.000000
  317       -1.810369   0.000000
  318       -1.686582   0.000000
  319       -1.659201   0.000000
  320       -1.654412   0.000000
  321       -1.607809   0.000000
  322       -1.606066   0.000000
  323       -1.562416   0.000000
  324       -1.384325   0.000000
  325       -1.264006   0.000000
  326       -1.137059   0.000000
  327       -1.096703   0.000000
  328       -1.008673   0.000000
  329       -0.991456   0.000000
  330       -0.979619   0.000000
  331       -0.951252   0.000000
  332       -0.938948   0.000000
  333       -0.923713   0.000000
  334       -0.889792   0.000000
  335       -0.824074   0.000000
  336       -0.659857   0.000000
