<?xml version="1.0" encoding="ISO-8859-1"?>
<modeling>
 <generator>
  <i name="program" type="string">vasp </i>
  <i name="version" type="string">5.4.4.18Apr17-6-g9f103f2a35  </i>
  <i name="subversion" type="string">(build Sep 03 2018 23:53:05) complex            parallel </i>
  <i name="platform" type="string">LinuxIFC </i>
  <i name="date" type="string">2021 11 26 </i>
  <i name="time" type="string">23:17:53 </i>
 </generator>
 <incar>
  <i type="string" name="SYSTEM"> 6_Pd100_top_free_z(O)</i>
  <i type="int" name="ISTART">     0</i>
  <i type="string" name="PREC">normal   			! encut=max(enmax), ngx,y,z</i>
  <i type="string" name="ALGO"> Fast     			! Mix RMM-DIIS and Dav</i>
  <i type="logical" name="ADDGRID"> F  </i>
  <i type="int" name="ISPIN">     1</i>
  <i type="int" name="ICHARG">     2</i>
  <i type="int" name="NELM">   100</i>
  <i type="int" name="NELMIN">     6</i>
  <i type="int" name="IBRION">     2</i>
  <i name="EDIFF">      0.00010000</i>
  <i name="EDIFFG">     -0.05000000</i>
  <i type="int" name="NSW">     0</i>
  <i type="int" name="ISIF">     2</i>
  <i type="int" name="ISYM">     2</i>
  <i name="ENCUT">    400.00000000</i>
  <i type="string" name="LREAL"> Auto     			! Auto or A projection done</i>
  <i type="int" name="ISMEAR">     2</i>
  <i name="SIGMA">      0.20000000</i>
  <i type="logical" name="LWAVE"> F  </i>
  <i type="logical" name="LCHARG"> F  </i>
  <v type="int" name="KPOINT_BSE">    -1     0     0     0</v>
  <i type="int" name="MAXMEM"> 10000</i>
  <i type="int" name="NELM">   100</i>
  <i type="string" name="GGA"> RP         			! Revised PBE</i>
 </incar>
 <structure name="primitive_cell" >
  <crystal>
   <varray name="basis" >
    <v>      30.00000000       0.00000000       0.00000000 </v>
    <v>       0.00000000      30.00000000       0.00000000 </v>
    <v>       0.00000000       0.00000000      30.00000000 </v>
   </varray>
   <i name="volume">  27000.00000000 </i>
   <varray name="rec_basis" >
    <v>       0.03333333       0.00000000       0.00000000 </v>
    <v>       0.00000000       0.03333333       0.00000000 </v>
    <v>       0.00000000       0.00000000       0.03333333 </v>
   </varray>
  </crystal>
  <varray name="positions" >
   <v>       0.44576020       0.32826710       0.41691983 </v>
   <v>      -0.49047593       0.29431103       0.38904853 </v>
   <v>      -0.48894490       0.26124593       0.37121277 </v>
   <v>      -0.44576020       0.32826710       0.41691983 </v>
   <v>      -0.50000000       0.38250690       0.34021317 </v>
   <v>      -0.50000000       0.27609440      -0.50000000 </v>
   <v>       0.38804720       0.38804720       0.34167483 </v>
   <v>      -0.50000000       0.38416601      -0.50000000 </v>
   <v>       0.44208300       0.44208300       0.41809300 </v>
   <v>       0.38317830       0.38317830      -0.50000000 </v>
   <v>      -0.44208300       0.44208300       0.41809300 </v>
   <v>       0.44576020       0.32826710      -0.41691977 </v>
   <v>       0.32826705       0.44576024       0.41691983 </v>
   <v>      -0.38804720       0.38804720       0.34167483 </v>
   <v>      -0.38317830       0.38317830      -0.50000000 </v>
   <v>      -0.50000000      -0.50000000       0.33478917 </v>
   <v>      -0.50000000      -0.50000000      -0.50000000 </v>
   <v>      -0.44576020       0.32826710      -0.41691977 </v>
   <v>       0.38250685      -0.49999995       0.34021317 </v>
   <v>       0.44208300       0.44208300      -0.41809297 </v>
   <v>       0.38416599      -0.49999998      -0.50000000 </v>
   <v>      -0.44208300       0.44208300      -0.41809297 </v>
   <v>       0.44208298      -0.44208298       0.41809300 </v>
   <v>       0.32826705       0.44576024      -0.41691977 </v>
   <v>      -0.50000000       0.38250690      -0.34021320 </v>
   <v>       0.32826712      -0.44576022       0.41691983 </v>
   <v>      -0.38250685      -0.49999995       0.34021317 </v>
   <v>      -0.32826705       0.44576024       0.41691983 </v>
   <v>       0.27609443       0.49999998      -0.50000000 </v>
   <v>       0.38804720       0.38804720      -0.34167487 </v>
   <v>      -0.38416599      -0.49999998      -0.50000000 </v>
   <v>      -0.44208298      -0.44208298       0.41809300 </v>
   <v>       0.44208298      -0.44208298      -0.41809297 </v>
   <v>      -0.38804720       0.38804720      -0.34167487 </v>
   <v>       0.38804722      -0.38804722       0.34167483 </v>
   <v>       0.38250685      -0.49999995      -0.34021320 </v>
   <v>       0.32826712      -0.44576022      -0.41691977 </v>
   <v>      -0.32826705       0.44576024      -0.41691977 </v>
   <v>       0.50000000      -0.38250681       0.34021317 </v>
   <v>      -0.50000000      -0.38416596      -0.50000000 </v>
   <v>      -0.44208298      -0.44208298      -0.41809297 </v>
   <v>      -0.50000000      -0.50000000      -0.33478913 </v>
   <v>       0.38317828      -0.38317828      -0.50000000 </v>
   <v>      -0.32826712      -0.44576022       0.41691983 </v>
   <v>      -0.27609443       0.49999998      -0.50000000 </v>
   <v>      -0.38804722      -0.38804722       0.34167483 </v>
   <v>      -0.38250685      -0.49999995      -0.34021320 </v>
   <v>       0.44576027      -0.32826707       0.41691983 </v>
   <v>      -0.38317828      -0.38317828      -0.50000000 </v>
   <v>      -0.32826712      -0.44576022      -0.41691977 </v>
   <v>      -0.44576027      -0.32826707       0.41691983 </v>
   <v>       0.38804722      -0.38804722      -0.34167487 </v>
   <v>      -0.50000000      -0.38250681      -0.34021320 </v>
   <v>       0.44576027      -0.32826707      -0.41691977 </v>
   <v>      -0.44576027      -0.32826707      -0.41691977 </v>
   <v>      -0.50000000      -0.27609445       0.50000000 </v>
   <v>      -0.38804722      -0.38804722      -0.34167487 </v>
  </varray>
 </structure>
 <varray name="primitive_index" >
  <v type="int" >        1 </v>
  <v type="int" >       56 </v>
  <v type="int" >       57 </v>
  <v type="int" >        3 </v>
  <v type="int" >        5 </v>
  <v type="int" >        7 </v>
  <v type="int" >       15 </v>
  <v type="int" >       29 </v>
  <v type="int" >       28 </v>
  <v type="int" >       34 </v>
  <v type="int" >       21 </v>
  <v type="int" >       19 </v>
  <v type="int" >       22 </v>
  <v type="int" >       11 </v>
  <v type="int" >       36 </v>
  <v type="int" >       38 </v>
  <v type="int" >       52 </v>
  <v type="int" >       24 </v>
  <v type="int" >       32 </v>
  <v type="int" >       44 </v>
  <v type="int" >       48 </v>
  <v type="int" >       42 </v>
  <v type="int" >       43 </v>
  <v type="int" >       40 </v>
  <v type="int" >        6 </v>
  <v type="int" >        4 </v>
  <v type="int" >       30 </v>
  <v type="int" >       26 </v>
  <v type="int" >        8 </v>
  <v type="int" >       16 </v>
  <v type="int" >       49 </v>
  <v type="int" >       47 </v>
  <v type="int" >       53 </v>
  <v type="int" >       12 </v>
  <v type="int" >       13 </v>
  <v type="int" >       33 </v>
  <v type="int" >       25 </v>
  <v type="int" >       45 </v>
  <v type="int" >       50 </v>
  <v type="int" >       55 </v>
  <v type="int" >       54 </v>
  <v type="int" >       39 </v>
  <v type="int" >       37 </v>
  <v type="int" >        2 </v>
  <v type="int" >        9 </v>
  <v type="int" >       17 </v>
  <v type="int" >       31 </v>
  <v type="int" >       27 </v>
  <v type="int" >       35 </v>
  <v type="int" >       20 </v>
  <v type="int" >       23 </v>
  <v type="int" >       14 </v>
  <v type="int" >       51 </v>
  <v type="int" >       46 </v>
  <v type="int" >       41 </v>
  <v type="int" >       10 </v>
  <v type="int" >       18 </v>
 </varray>
 <kpoints>
  <generation param="Monkhorst-Pack">
   <v type="int" name="divisions">       1        1        1 </v>
   <v name="usershift">      0.00000000       0.00000000       0.00000000 </v>
   <v name="genvec1">      1.00000000       0.00000000       0.00000000 </v>
   <v name="genvec2">      0.00000000       1.00000000       0.00000000 </v>
   <v name="genvec3">      0.00000000       0.00000000       1.00000000 </v>
   <v name="shift">      0.00000000       0.00000000       0.00000000 </v>
  </generation>
  <varray name="kpointlist" >
   <v>       0.00000000       0.00000000       0.00000000 </v>
  </varray>
  <varray name="weights" >
   <v>       1.00000000 </v>
  </varray>
 </kpoints>
 <parameters>
  <separator name="general" >
   <i type="string" name="SYSTEM">6_Pd100_top_free_z(O)</i>
   <i type="logical" name="LCOMPAT"> F  </i>
  </separator>
  <separator name="electronic" >
   <i type="string" name="PREC">normal</i>
   <i name="ENMAX">    400.00000000</i>
   <i name="ENAUG">    644.87300000</i>
   <i name="EDIFF">      0.00010000</i>
   <i type="int" name="IALGO">    68</i>
   <i type="int" name="IWAVPR">    10</i>
   <i type="int" name="NBANDS">   336</i>
   <i name="NELECT">    560.00000000</i>
   <i type="int" name="TURBO">     0</i>
   <i type="int" name="IRESTART">     0</i>
   <i type="int" name="NREBOOT">     0</i>
   <i type="int" name="NMIN">     0</i>
   <i name="EREF">      0.00000000</i>
   <separator name="electronic smearing" >
    <i type="int" name="ISMEAR">     2</i>
    <i name="SIGMA">      0.20000000</i>
    <i name="KSPACING">      0.50000000</i>
    <i type="logical" name="KGAMMA"> T  </i>
   </separator>
   <separator name="electronic projectors" >
    <i type="logical" name="LREAL"> T  </i>
    <v name="ROPT">     -0.00050000     -0.00050000     -0.00050000</v>
    <i type="int" name="LMAXPAW">  -100</i>
    <i type="int" name="LMAXMIX">     2</i>
    <i type="logical" name="NLSPLINE"> F  </i>
   </separator>
   <separator name="electronic startup" >
    <i type="int" name="ISTART">     0</i>
    <i type="int" name="ICHARG">     2</i>
    <i type="int" name="INIWAV">     1</i>
   </separator>
   <separator name="electronic spin" >
    <i type="int" name="ISPIN">     1</i>
    <i type="logical" name="LNONCOLLINEAR"> F  </i>
    <v name="MAGMOM">      1.00000000      1.00000000      1.00000000      1.00000000      1.00000000      1.00000000      1.00000000      1.00000000      1.00000000      1.00000000      1.00000000      1.00000000      1.00000000      1.00000000      1.00000000      1.00000000      1.00000000      1.00000000      1.00000000      1.00000000
      1.00000000      1.00000000      1.00000000      1.00000000      1.00000000      1.00000000      1.00000000      1.00000000      1.00000000      1.00000000      1.00000000      1.00000000      1.00000000      1.00000000      1.00000000      1.00000000      1.00000000      1.00000000      1.00000000      1.00000000
      1.00000000      1.00000000      1.00000000      1.00000000      1.00000000      1.00000000      1.00000000      1.00000000      1.00000000      1.00000000      1.00000000      1.00000000      1.00000000      1.00000000      1.00000000      1.00000000      1.00000000</v>
    <i name="NUPDOWN">     -1.00000000</i>
    <i type="logical" name="LSORBIT"> F  </i>
    <v name="SAXIS">      0.00000000      0.00000000      1.00000000</v>
    <i type="logical" name="LSPIRAL"> F  </i>
    <v name="QSPIRAL">      0.00000000      0.00000000      0.00000000</v>
    <i type="logical" name="LZEROZ"> F  </i>
   </separator>
   <separator name="electronic exchange-correlation" >
    <i type="logical" name="LASPH"> F  </i>
    <i type="logical" name="LMETAGGA"> F  </i>
   </separator>
   <separator name="electronic convergence" >
    <i type="int" name="NELM">   100</i>
    <i type="int" name="NELMDL">    -5</i>
    <i type="int" name="NELMIN">     6</i>
    <i name="ENINI">    400.00000000</i>
    <separator name="electronic convergence detail" >
     <i type="logical" name="LDIAG"> T  </i>
     <i type="logical" name="LSUBROT"> F  </i>
     <i name="WEIMIN">      0.00000000</i>
     <i name="EBREAK">      0.00000007</i>
     <i name="DEPER">      0.30000000</i>
     <i type="int" name="NRMM">     4</i>
     <i name="TIME">      0.40000000</i>
    </separator>
   </separator>
   <separator name="electronic mixer" >
    <i name="AMIX">      0.40000000</i>
    <i name="BMIX">      1.00000000</i>
    <i name="AMIN">      0.10000000</i>
    <i name="AMIX_MAG">      1.60000000</i>
    <i name="BMIX_MAG">      1.00000000</i>
    <separator name="electronic mixer details" >
     <i type="int" name="IMIX">     4</i>
     <i type="logical" name="MIXFIRST"> F  </i>
     <i type="int" name="MAXMIX">   -45</i>
     <i name="WC">    100.00000000</i>
     <i type="int" name="INIMIX">     1</i>
     <i type="int" name="MIXPRE">     1</i>
     <i type="int" name="MREMOVE">     5</i>
    </separator>
   </separator>
   <separator name="electronic dipolcorrection" >
    <i type="logical" name="LDIPOL"> F  </i>
    <i type="logical" name="LMONO"> F  </i>
    <i type="int" name="IDIPOL">     0</i>
    <i name="EPSILON">      1.00000000</i>
    <v name="DIPOL">   -100.00000000   -100.00000000   -100.00000000</v>
    <i name="EFIELD">      0.00000000</i>
   </separator>
  </separator>
  <separator name="grids" >
   <i type="int" name="NGX">   150</i>
   <i type="int" name="NGY">   150</i>
   <i type="int" name="NGZ">   150</i>
   <i type="int" name="NGXF">   300</i>
   <i type="int" name="NGYF">   300</i>
   <i type="int" name="NGZF">   300</i>
   <i type="logical" name="ADDGRID"> F  </i>
  </separator>
  <separator name="ionic" >
   <i type="int" name="NSW">     0</i>
   <i type="int" name="IBRION">    -1</i>
   <i type="int" name="MDALGO">     0</i>
   <i type="int" name="ISIF">     2</i>
   <i name="PSTRESS">      0.00000000</i>
   <i name="EDIFFG">     -0.05000000</i>
   <i type="int" name="NFREE">     1</i>
   <i name="POTIM">      0.50000000</i>
   <i name="SMASS">     -3.00000000</i>
   <i name="SCALEE">      1.00000000</i>
  </separator>
  <separator name="ionic md" >
   <i name="TEBEG">      0.00010000</i>
   <i name="TEEND">      0.00010000</i>
   <i type="int" name="NBLOCK">     1</i>
   <i type="int" name="KBLOCK">     1</i>
   <i type="int" name="NPACO">   256</i>
   <i name="APACO">     16.00000000</i>
  </separator>
  <separator name="symmetry" >
   <i type="int" name="ISYM">     2</i>
   <i name="SYMPREC">      0.00001000</i>
  </separator>
  <separator name="dos" >
   <i type="int" name="LORBIT">     0</i>
   <v name="RWIGS">     -1.00000000     -1.00000000     -1.00000000</v>
   <i type="int" name="NEDOS">   301</i>
   <i name="EMIN">     10.00000000</i>
   <i name="EMAX">    -10.00000000</i>
   <i name="EFERMI">      0.00000000</i>
  </separator>
  <separator name="writing" >
   <i type="int" name="NWRITE">     2</i>
   <i type="logical" name="LWAVE"> F  </i>
   <i type="logical" name="LDOWNSAMPLE"> F  </i>
   <i type="logical" name="LCHARG"> F  </i>
   <i type="logical" name="LPARD"> F  </i>
   <i type="logical" name="LVTOT"> F  </i>
   <i type="logical" name="LVHAR"> F  </i>
   <i type="logical" name="LELF"> F  </i>
   <i type="logical" name="LOPTICS"> F  </i>
   <v name="STM">      0.00000000      0.00000000      0.00000000      0.00000000      0.00000000      0.00000000      0.00000000</v>
  </separator>
  <separator name="performance" >
   <i type="int" name="NPAR">     1</i>
   <i type="int" name="NSIM">     4</i>
   <i type="int" name="NBLK">    -1</i>
   <i type="logical" name="LPLANE"> T  </i>
   <i type="logical" name="LSCALAPACK"> T  </i>
   <i type="logical" name="LSCAAWARE"> F  </i>
   <i type="logical" name="LSCALU"> F  </i>
   <i type="logical" name="LASYNC"> F  </i>
   <i type="logical" name="LORBITALREAL"> F  </i>
  </separator>
  <separator name="miscellaneous" >
   <i type="int" name="IDIOT">     3</i>
   <i type="int" name="ISPECIAL">     0</i>
   <i type="logical" name="LMUSIC"> F  </i>
   <v name="POMASS">    106.42000000     12.01100000     16.00000000</v>
   <v name="DARWINR">      0.00000000      0.00000000      0.00000000</v>
   <v name="DARWINV">      1.00000000      1.00000000      1.00000000</v>
   <i type="logical" name="LCORR"> T  </i>
  </separator>
  <i type="logical" name="GGA_COMPAT"> T  </i>
  <i type="logical" name="LBERRY"> F  </i>
  <i type="int" name="ICORELEVEL">     0</i>
  <i type="logical" name="LDAU"> F  </i>
  <i type="int" name="I_CONSTRAINED_M">     0</i>
  <separator name="electronic exchange-correlation" >
   <i type="string" name="GGA">RP</i>
   <i type="int" name="VOSKOWN">     0</i>
   <i type="logical" name="LHFCALC"> F  </i>
   <i type="string" name="PRECFOCK"></i>
   <i type="logical" name="LSYMGRAD"> F  </i>
   <i type="logical" name="LHFONE"> F  </i>
   <i type="logical" name="LRHFCALC"> F  </i>
   <i type="logical" name="LTHOMAS"> F  </i>
   <i type="logical" name="LMODELHF"> F  </i>
   <i name="ENCUT4O">     -1.00000000</i>
   <i type="int" name="EXXOEP">     0</i>
   <i type="int" name="FOURORBIT">     0</i>
   <i name="AEXX">      0.00000000</i>
   <i name="HFALPHA">      0.00000000</i>
   <i name="MCALPHA">      0.00000000</i>
   <i name="ALDAX">      1.00000000</i>
   <i name="AGGAX">      1.00000000</i>
   <i name="ALDAC">      1.00000000</i>
   <i name="AGGAC">      1.00000000</i>
   <i type="int" name="NKREDX">     1</i>
   <i type="int" name="NKREDY">     1</i>
   <i type="int" name="NKREDZ">     1</i>
   <i type="logical" name="SHIFTRED"> F  </i>
   <i type="logical" name="ODDONLY"> F  </i>
   <i type="logical" name="EVENONLY"> F  </i>
   <i type="int" name="LMAXFOCK">     0</i>
   <i type="int" name="NMAXFOCKAE">     0</i>
   <i type="logical" name="LFOCKAEDFT"> F  </i>
   <i name="HFSCREEN">      0.00000000</i>
   <i name="HFSCREENC">      0.00000000</i>
   <i type="int" name="NBANDSGWLOW">     0</i>
  </separator>
  <separator name="vdW DFT" >
   <i type="logical" name="LUSE_VDW"> F  </i>
   <i name="Zab_VDW">     -0.84910000</i>
   <i name="PARAM1">      0.12340000</i>
   <i name="PARAM2">      1.00000000</i>
   <i name="PARAM3">      0.00000000</i>
  </separator>
  <separator name="model GW" >
   <i type="int" name="MODEL_GW">     0</i>
   <i name="MODEL_EPS0">    284.21052632</i>
   <i name="MODEL_ALPHA">      1.00000000</i>
  </separator>
  <separator name="linear response parameters" >
   <i type="logical" name="LEPSILON"> F  </i>
   <i type="logical" name="LRPA"> F  </i>
   <i type="logical" name="LNABLA"> F  </i>
   <i type="logical" name="LVEL"> F  </i>
   <i type="int" name="KINTER">     0</i>
   <i name="CSHIFT">      0.10000000</i>
   <i name="OMEGAMAX">     -1.00000000</i>
   <i name="DEG_THRESHOLD">      0.00200000</i>
   <i name="RTIME">     -0.10000000</i>
   <i name="WPLASMAI">      0.00000000</i>
   <v name="DFIELD">      0.00000000      0.00000000      0.00000000</v>
   <v name="WPLASMA">      0.00000000      0.00000000      0.00000000      0.00000000      0.00000000      0.00000000      0.00000000      0.00000000      0.00000000</v>
  </separator>
  <separator name="orbital magnetization" >
   <i type="logical" name="NUCIND"> F  </i>
   <v name="MAGPOS">      0.00000000      0.00000000      0.00000000</v>
   <i type="logical" name="LNICSALL"> T  </i>
   <i type="logical" name="ORBITALMAG"> F  </i>
   <i type="logical" name="LMAGBLOCH"> F  </i>
   <i type="logical" name="LCHIMAG"> F  </i>
   <i type="logical" name="LGAUGE"> T  </i>
   <i type="int" name="MAGATOM">     0</i>
   <v name="MAGDIPOL">      0.00000000      0.00000000      0.00000000</v>
   <v name="AVECCONST">      0.00000000      0.00000000      0.00000000</v>
  </separator>
  <separator name="response functions" >
   <i type="logical" name="LADDER"> F  </i>
   <i type="logical" name="LRPAFORCE"> F  </i>
   <i type="logical" name="LFXC"> F  </i>
   <i type="logical" name="LHARTREE"> T  </i>
   <i type="int" name="IBSE">     0</i>
   <v type="int" name="KPOINT">    -1     0     0     0</v>
   <i type="logical" name="LTCTE"> F  </i>
   <i type="logical" name="LTETE"> F  </i>
   <i type="logical" name="LTRIPLET"> F  </i>
   <i type="logical" name="LFXCEPS"> F  </i>
   <i type="logical" name="LFXHEG"> F  </i>
   <i type="int" name="NATURALO">     2</i>
   <i type="logical" name="L2ORDER"> F  </i>
   <i type="logical" name="LMP2LT"> F  </i>
   <i type="logical" name="LUSEW"> F  </i>
   <i name="ENCUTGW">     -2.00000000</i>
   <i name="ENCUTGWSOFT">     -2.00000000</i>
   <i name="ENCUTLF">     -1.00000000</i>
   <i type="int" name="LMAXMP2">    -1</i>
   <i name="SCISSOR">      0.00000000</i>
   <i type="int" name="NOMEGA">     0</i>
   <i type="int" name="NOMEGAR">     0</i>
   <i type="int" name="NBANDSGW">    -1</i>
   <i type="int" name="NBANDSO">    -1</i>
   <i type="int" name="NBANDSV">    -1</i>
   <i type="int" name="NELM">   100</i>
   <i type="int" name="NELMHF">     1</i>
   <i type="int" name="DIM">     3</i>
   <i type="int" name="ANTIRES">     0</i>
   <i name="OMEGAMAX">    -30.00000000</i>
   <i name="OMEGAMIN">    -30.00000000</i>
   <i name="OMEGATL">   -200.00000000</i>
   <i type="int" name="OMEGAGRID">   140</i>
   <i name="CSHIFT">     -0.10000000</i>
   <i type="logical" name="SELFENERGY"> F  </i>
   <i type="logical" name="LSPECTRAL"> F  </i>
   <i type="logical" name="LSPECTRALGW"> F  </i>
   <i type="logical" name="LSINGLES"> F  </i>
   <i type="logical" name="LFERMIGW"> F  </i>
   <i type="logical" name="ODDONLYGW"> F  </i>
   <i type="logical" name="EVENONLYGW"> F  </i>
   <i type="int" name="NKREDLFX">     1</i>
   <i type="int" name="NKREDLFY">     1</i>
   <i type="int" name="NKREDLFZ">     1</i>
   <i type="int" name="MAXMEM"> 10000</i>
   <i type="int" name="TELESCOPE">     0</i>
   <i type="int" name="TAUPAR">     1</i>
   <i type="int" name="OMEGAPAR">    -1</i>
   <i name="LAMBDA">      1.00000000</i>
  </separator>
  <separator name="External order field" >
   <i name="OFIELD_KAPPA">      0.00000000</i>
   <v name="OFIELD_K">      0.00000000      0.00000000      0.00000000</v>
   <i name="OFIELD_Q6_NEAR">      0.00000000</i>
   <i name="OFIELD_Q6_FAR">      0.00000000</i>
   <i name="OFIELD_A">      0.00000000</i>
  </separator>
 </parameters>
 <atominfo>
  <atoms>      57 </atoms>
  <types>       3 </types>
  <array name="atoms" >
   <dimension dim="1">ion</dimension>
   <field type="string">element</field>
   <field type="int">atomtype</field>
   <set>
    <rc><c>Pd</c><c>   1</c></rc>
    <rc><c>Pd</c><c>   1</c></rc>
    <rc><c>Pd</c><c>   1</c></rc>
    <rc><c>Pd</c><c>   1</c></rc>
    <rc><c>Pd</c><c>   1</c></rc>
    <rc><c>Pd</c><c>   1</c></rc>
    <rc><c>Pd</c><c>   1</c></rc>
    <rc><c>Pd</c><c>   1</c></rc>
    <rc><c>Pd</c><c>   1</c></rc>
    <rc><c>Pd</c><c>   1</c></rc>
    <rc><c>Pd</c><c>   1</c></rc>
    <rc><c>Pd</c><c>   1</c></rc>
    <rc><c>Pd</c><c>   1</c></rc>
    <rc><c>Pd</c><c>   1</c></rc>
    <rc><c>Pd</c><c>   1</c></rc>
    <rc><c>Pd</c><c>   1</c></rc>
    <rc><c>Pd</c><c>   1</c></rc>
    <rc><c>Pd</c><c>   1</c></rc>
    <rc><c>Pd</c><c>   1</c></rc>
    <rc><c>Pd</c><c>   1</c></rc>
    <rc><c>Pd</c><c>   1</c></rc>
    <rc><c>Pd</c><c>   1</c></rc>
    <rc><c>Pd</c><c>   1</c></rc>
    <rc><c>Pd</c><c>   1</c></rc>
    <rc><c>Pd</c><c>   1</c></rc>
    <rc><c>Pd</c><c>   1</c></rc>
    <rc><c>Pd</c><c>   1</c></rc>
    <rc><c>Pd</c><c>   1</c></rc>
    <rc><c>Pd</c><c>   1</c></rc>
    <rc><c>Pd</c><c>   1</c></rc>
    <rc><c>Pd</c><c>   1</c></rc>
    <rc><c>Pd</c><c>   1</c></rc>
    <rc><c>Pd</c><c>   1</c></rc>
    <rc><c>Pd</c><c>   1</c></rc>
    <rc><c>Pd</c><c>   1</c></rc>
    <rc><c>Pd</c><c>   1</c></rc>
    <rc><c>Pd</c><c>   1</c></rc>
    <rc><c>Pd</c><c>   1</c></rc>
    <rc><c>Pd</c><c>   1</c></rc>
    <rc><c>Pd</c><c>   1</c></rc>
    <rc><c>Pd</c><c>   1</c></rc>
    <rc><c>Pd</c><c>   1</c></rc>
    <rc><c>Pd</c><c>   1</c></rc>
    <rc><c>Pd</c><c>   1</c></rc>
    <rc><c>Pd</c><c>   1</c></rc>
    <rc><c>Pd</c><c>   1</c></rc>
    <rc><c>Pd</c><c>   1</c></rc>
    <rc><c>Pd</c><c>   1</c></rc>
    <rc><c>Pd</c><c>   1</c></rc>
    <rc><c>Pd</c><c>   1</c></rc>
    <rc><c>Pd</c><c>   1</c></rc>
    <rc><c>Pd</c><c>   1</c></rc>
    <rc><c>Pd</c><c>   1</c></rc>
    <rc><c>Pd</c><c>   1</c></rc>
    <rc><c>Pd</c><c>   1</c></rc>
    <rc><c>C </c><c>   2</c></rc>
    <rc><c>O </c><c>   3</c></rc>
   </set>
  </array>
  <array name="atomtypes" >
   <dimension dim="1">type</dimension>
   <field type="int">atomspertype</field>
   <field type="string">element</field>
   <field>mass</field>
   <field>valence</field>
   <field type="string">pseudopotential</field>
   <set>
    <rc><c>  55</c><c>Pd</c><c>    106.42000000</c><c>     10.00000000</c><c>  PAW_PBE Pd 04Jan2005                  </c></rc>
    <rc><c>   1</c><c>C </c><c>     12.01100000</c><c>      4.00000000</c><c>  PAW_PBE C 08Apr2002                   </c></rc>
    <rc><c>   1</c><c>O </c><c>     16.00000000</c><c>      6.00000000</c><c>  PAW_PBE O 08Apr2002                   </c></rc>
   </set>
  </array>
 </atominfo>
 <structure name="initialpos" >
  <crystal>
   <varray name="basis" >
    <v>      30.00000000       0.00000000       0.00000000 </v>
    <v>       0.00000000      30.00000000       0.00000000 </v>
    <v>       0.00000000       0.00000000      30.00000000 </v>
   </varray>
   <i name="volume">  27000.00000000 </i>
   <varray name="rec_basis" >
    <v>       0.03333333       0.00000000       0.00000000 </v>
    <v>       0.00000000       0.03333333       0.00000000 </v>
    <v>       0.00000000       0.00000000       0.03333333 </v>
   </varray>
  </crystal>
  <varray name="positions" >
   <v>       0.44576020       0.32826710       0.41691983 </v>
   <v>       0.67173288       0.55423978       0.41691983 </v>
   <v>       0.55423980       0.32826710       0.41691983 </v>
   <v>       0.32826712       0.55423978       0.41691983 </v>
   <v>       0.50000000       0.38250690       0.34021317 </v>
   <v>       0.50000000       0.38250690       0.65978680 </v>
   <v>       0.50000000       0.27609440       0.50000000 </v>
   <v>       0.27609443       0.49999998       0.50000000 </v>
   <v>       0.72390557       0.49999998       0.50000000 </v>
   <v>       0.50000000       0.72390555       0.50000000 </v>
   <v>       0.61195280       0.38804720       0.34167483 </v>
   <v>       0.61195280       0.38804720       0.65832513 </v>
   <v>       0.38804722       0.61195278       0.34167483 </v>
   <v>       0.38804722       0.61195278       0.65832513 </v>
   <v>       0.38804720       0.38804720       0.34167483 </v>
   <v>       0.38804720       0.38804720       0.65832513 </v>
   <v>       0.61195278       0.61195278       0.34167483 </v>
   <v>       0.61195278       0.61195278       0.65832513 </v>
   <v>       0.44576020       0.32826710       0.58308023 </v>
   <v>       0.67173288       0.55423978       0.58308023 </v>
   <v>       0.55791699       0.44208301       0.41809300 </v>
   <v>       0.32826705       0.44576024       0.41691983 </v>
   <v>       0.55423973       0.67173293       0.41691983 </v>
   <v>       0.55423980       0.32826710       0.58308023 </v>
   <v>       0.32826712       0.55423978       0.58308023 </v>
   <v>       0.67173295       0.44576024       0.41691983 </v>
   <v>       0.44576027       0.67173293       0.41691983 </v>
   <v>       0.44208301       0.44208301       0.41809300 </v>
   <v>       0.50000000       0.38416601       0.50000000 </v>
   <v>       0.61749315       0.50000005       0.34021317 </v>
   <v>       0.61749315       0.50000005       0.65978680 </v>
   <v>       0.38250685       0.50000005       0.34021317 </v>
   <v>       0.38250685       0.50000005       0.65978680 </v>
   <v>       0.38317830       0.38317830       0.50000000 </v>
   <v>       0.61682172       0.61682172       0.50000000 </v>
   <v>       0.61682170       0.38317830       0.50000000 </v>
   <v>       0.38317828       0.61682172       0.50000000 </v>
   <v>       0.50000000       0.50000000       0.33478917 </v>
   <v>       0.50000000       0.50000000       0.66521087 </v>
   <v>       0.32826705       0.44576024       0.58308023 </v>
   <v>       0.55423973       0.67173293       0.58308023 </v>
   <v>       0.55791699       0.44208301       0.58190703 </v>
   <v>       0.44208298       0.55791702       0.41809300 </v>
   <v>       0.44208301       0.44208301       0.58190703 </v>
   <v>       0.67173295       0.44576024       0.58308023 </v>
   <v>       0.44576027       0.67173293       0.58308023 </v>
   <v>       0.55791702       0.55791702       0.41809300 </v>
   <v>       0.38416599       0.50000002       0.50000000 </v>
   <v>       0.61583401       0.50000002       0.50000000 </v>
   <v>       0.50000000       0.61749319       0.34021317 </v>
   <v>       0.50000000       0.61749319       0.65978680 </v>
   <v>       0.50000000       0.50000000       0.50000000 </v>
   <v>       0.44208298       0.55791702       0.58190703 </v>
   <v>       0.55791702       0.55791702       0.58190703 </v>
   <v>       0.50000000       0.61583404       0.50000000 </v>
   <v>       0.50952407       0.29431103       0.38904853 </v>
   <v>       0.51105510       0.26124593       0.37121277 </v>
  </varray>
  <varray name="selective"  type="logical" >
   <v type="logical" >  F  F  F </v>
   <v type="logical" >  F  F  F </v>
   <v type="logical" >  F  F  F </v>
   <v type="logical" >  F  F  F </v>
   <v type="logical" >  F  F  F </v>
   <v type="logical" >  F  F  F </v>
   <v type="logical" >  F  F  F </v>
   <v type="logical" >  F  F  F </v>
   <v type="logical" >  F  F  F </v>
   <v type="logical" >  F  F  F </v>
   <v type="logical" >  F  F  F </v>
   <v type="logical" >  F  F  F </v>
   <v type="logical" >  F  F  F </v>
   <v type="logical" >  F  F  F </v>
   <v type="logical" >  F  F  F </v>
   <v type="logical" >  F  F  F </v>
   <v type="logical" >  F  F  F </v>
   <v type="logical" >  F  F  F </v>
   <v type="logical" >  F  F  F </v>
   <v type="logical" >  F  F  F </v>
   <v type="logical" >  F  F  F </v>
   <v type="logical" >  F  F  F </v>
   <v type="logical" >  F  F  F </v>
   <v type="logical" >  F  F  F </v>
   <v type="logical" >  F  F  F </v>
   <v type="logical" >  F  F  F </v>
   <v type="logical" >  F  F  F </v>
   <v type="logical" >  F  F  F </v>
   <v type="logical" >  F  F  F </v>
   <v type="logical" >  F  F  F </v>
   <v type="logical" >  F  F  F </v>
   <v type="logical" >  F  F  F </v>
   <v type="logical" >  F  F  F </v>
   <v type="logical" >  F  F  F </v>
   <v type="logical" >  F  F  F </v>
   <v type="logical" >  F  F  F </v>
   <v type="logical" >  F  F  F </v>
   <v type="logical" >  F  F  F </v>
   <v type="logical" >  F  F  F </v>
   <v type="logical" >  F  F  F </v>
   <v type="logical" >  F  F  F </v>
   <v type="logical" >  F  F  F </v>
   <v type="logical" >  F  F  F </v>
   <v type="logical" >  F  F  F </v>
   <v type="logical" >  F  F  F </v>
   <v type="logical" >  F  F  F </v>
   <v type="logical" >  F  F  F </v>
   <v type="logical" >  F  F  F </v>
   <v type="logical" >  F  F  F </v>
   <v type="logical" >  F  F  F </v>
   <v type="logical" >  F  F  F </v>
   <v type="logical" >  F  F  F </v>
   <v type="logical" >  F  F  F </v>
   <v type="logical" >  F  F  F </v>
   <v type="logical" >  F  F  F </v>
   <v type="logical" >  F  F  F </v>
   <v type="logical" >  F  F  F </v>
  </varray>
  <nose>
   <v>      -3.00000000       0.00000000       0.00010000       0.00010000 </v>
  </nose>
 </structure>
 <calculation>
  <scstep>
   <time name="dav">  363.52  363.60</time>
   <time name="total">  378.16  378.25</time>
   <energy>
    <i name="alphaZ">     75.25431677 </i>
    <i name="ewald"> 138809.96473588 </i>
    <i name="hartreedc">-182165.44167638 </i>
    <i name="XCdc">  -1702.33060715 </i>
    <i name="pawpsdc">  44873.02882129 </i>
    <i name="pawaedc"> -41398.84523641 </i>
    <i name="eentropy">      0.00689811 </i>
    <i name="bandstr">    816.38325148 </i>
    <i name="atom">  45086.50549395 </i>
    <i name="e_fr_energy">   4394.52599754 </i>
    <i name="e_wo_entrp">   4394.51909943 </i>
    <i name="e_0_energy">   4394.52427301 </i>
   </energy>
  </scstep>
  <scstep>
   <time name="dav">  585.45  585.47</time>
   <time name="total">  585.45  585.47</time>
   <energy>
    <i name="e_fr_energy">   2011.37225889 </i>
    <i name="e_wo_entrp">   2011.40026300 </i>
    <i name="e_0_energy">   2011.37925992 </i>
   </energy>
  </scstep>
  <scstep>
   <time name="dav">  500.40  500.41</time>
   <time name="total">  500.40  500.41</time>
   <energy>
    <i name="e_fr_energy">    226.71625072 </i>
    <i name="e_wo_entrp">    226.73419925 </i>
    <i name="e_0_energy">    226.72073785 </i>
   </energy>
  </scstep>
  <scstep>
   <time name="dav">  428.91  428.91</time>
   <time name="total">  428.91  428.92</time>
   <energy>
    <i name="e_fr_energy">   -136.34111084 </i>
    <i name="e_wo_entrp">   -136.28665013 </i>
    <i name="e_0_energy">   -136.32749566 </i>
   </energy>
  </scstep>
  <scstep>
   <time name="dav">  517.52  517.53</time>
   <time name="total">  543.49  543.49</time>
   <energy>
    <i name="e_fr_energy">   -180.96750684 </i>
    <i name="e_wo_entrp">   -181.44919807 </i>
    <i name="e_0_energy">   -181.08792964 </i>
   </energy>
  </scstep>
  <scstep>
   <time name="diag">   69.21   69.21</time>
   <time name="diis">  188.85  188.85</time>
   <time name="orth">   13.36   13.36</time>
   <time name="total">  310.95  310.95</time>
   <energy>
    <i name="e_fr_energy">   -180.63243052 </i>
    <i name="e_wo_entrp">   -180.47694041 </i>
    <i name="e_0_energy">   -180.59355799 </i>
   </energy>
  </scstep>
  <scstep>
   <time name="diag">   69.39   69.39</time>
   <time name="diis">  217.57  217.56</time>
   <time name="orth">   13.68   13.68</time>
   <time name="total">  340.85  340.85</time>
   <energy>
    <i name="e_fr_energy">   -183.76261248 </i>
    <i name="e_wo_entrp">   -183.62060202 </i>
    <i name="e_0_energy">   -183.72710986 </i>
   </energy>
  </scstep>
  <scstep>
   <time name="diag">   69.54   69.54</time>
   <time name="diis">  201.59  201.60</time>
   <time name="orth">   13.70   13.70</time>
   <time name="total">  325.03  325.03</time>
   <energy>
    <i name="e_fr_energy">   -185.27519280 </i>
    <i name="e_wo_entrp">   -185.14781387 </i>
    <i name="e_0_energy">   -185.24334806 </i>
   </energy>
  </scstep>
  <scstep>
   <time name="diag">   69.22   69.22</time>
   <time name="diis">  188.65  188.66</time>
   <time name="orth">   13.74   13.74</time>
   <time name="total">  311.97  311.98</time>
   <energy>
    <i name="e_fr_energy">   -181.67584298 </i>
    <i name="e_wo_entrp">   -181.54143066 </i>
    <i name="e_0_energy">   -181.64223990 </i>
   </energy>
  </scstep>
  <scstep>
   <time name="diag">   69.47   69.47</time>
   <time name="diis">  194.01  194.01</time>
   <time name="orth">   13.65   13.65</time>
   <time name="total">  317.70  317.71</time>
   <energy>
    <i name="e_fr_energy">   -179.13083063 </i>
    <i name="e_wo_entrp">   -179.02252832 </i>
    <i name="e_0_energy">   -179.10375506 </i>
   </energy>
  </scstep>
  <scstep>
   <time name="diag">   68.76   68.76</time>
   <time name="diis">  194.89  194.89</time>
   <time name="orth">   14.10   14.10</time>
   <time name="total">  318.11  318.12</time>
   <energy>
    <i name="e_fr_energy">   -177.86728230 </i>
    <i name="e_wo_entrp">   -177.77181622 </i>
    <i name="e_0_energy">   -177.84341578 </i>
   </energy>
  </scstep>
  <scstep>
   <time name="diag">   69.16   69.16</time>
   <time name="diis">  191.33  191.33</time>
   <time name="orth">   14.29   14.29</time>
   <time name="total">  316.19  316.19</time>
   <energy>
    <i name="e_fr_energy">   -178.01093267 </i>
    <i name="e_wo_entrp">   -177.89109357 </i>
    <i name="e_0_energy">   -177.98097289 </i>
   </energy>
  </scstep>
  <scstep>
   <time name="diag">   69.08   69.08</time>
   <time name="diis">  191.61  191.61</time>
   <time name="orth">   14.19   14.19</time>
   <time name="total">  316.15  316.16</time>
   <energy>
    <i name="e_fr_energy">   -178.40716787 </i>
    <i name="e_wo_entrp">   -178.34259043 </i>
    <i name="e_0_energy">   -178.39102351 </i>
   </energy>
  </scstep>
  <scstep>
   <time name="diag">   69.24   69.25</time>
   <time name="diis">  187.29  187.31</time>
   <time name="orth">   14.19   14.19</time>
   <time name="total">  312.49  312.52</time>
   <energy>
    <i name="e_fr_energy">   -177.40180596 </i>
    <i name="e_wo_entrp">   -177.32460549 </i>
    <i name="e_0_energy">   -177.38250584 </i>
   </energy>
  </scstep>
  <scstep>
   <time name="diag">   69.18   69.19</time>
   <time name="diis">  189.64  189.66</time>
   <time name="orth">   14.29   14.30</time>
   <time name="total">  314.92  314.97</time>
   <energy>
    <i name="e_fr_energy">   -177.11918078 </i>
    <i name="e_wo_entrp">   -177.13651689 </i>
    <i name="e_0_energy">   -177.12351481 </i>
   </energy>
  </scstep>
  <scstep>
   <time name="diag">   69.03   69.04</time>
   <time name="diis">  189.92  189.93</time>
   <time name="orth">   14.16   14.16</time>
   <time name="total">  315.26  315.29</time>
   <energy>
    <i name="e_fr_energy">   -176.31149852 </i>
    <i name="e_wo_entrp">   -176.33985837 </i>
    <i name="e_0_energy">   -176.31858849 </i>
   </energy>
  </scstep>
  <scstep>
   <time name="diag">   68.77   68.77</time>
   <time name="diis">  186.39  186.41</time>
   <time name="orth">   13.73   13.74</time>
   <time name="total">  310.60  310.63</time>
   <energy>
    <i name="e_fr_energy">   -176.07136656 </i>
    <i name="e_wo_entrp">   -176.01361538 </i>
    <i name="e_0_energy">   -176.05692877 </i>
   </energy>
  </scstep>
  <scstep>
   <time name="diag">   68.15   68.15</time>
   <time name="diis">  186.46  186.48</time>
   <time name="orth">   13.72   13.72</time>
   <time name="total">  309.41  309.44</time>
   <energy>
    <i name="e_fr_energy">   -176.23624909 </i>
    <i name="e_wo_entrp">   -176.24390555 </i>
    <i name="e_0_energy">   -176.23816321 </i>
   </energy>
  </scstep>
  <scstep>
   <time name="diag">   68.16   68.17</time>
   <time name="diis">  183.98  184.00</time>
   <time name="orth">   13.64   13.64</time>
   <time name="total">  306.23  306.27</time>
   <energy>
    <i name="e_fr_energy">   -175.85427831 </i>
    <i name="e_wo_entrp">   -175.73576164 </i>
    <i name="e_0_energy">   -175.82464914 </i>
   </energy>
  </scstep>
  <scstep>
   <time name="diag">   69.53   69.54</time>
   <time name="diis">  181.33  181.35</time>
   <time name="orth">   14.10   14.10</time>
   <time name="total">  306.31  306.34</time>
   <energy>
    <i name="e_fr_energy">   -175.62117838 </i>
    <i name="e_wo_entrp">   -175.51709737 </i>
    <i name="e_0_energy">   -175.59515813 </i>
   </energy>
  </scstep>
  <scstep>
   <time name="diag">   69.95   69.96</time>
   <time name="diis">  182.44  182.45</time>
   <time name="orth">   14.14   14.14</time>
   <time name="total">  307.81  307.84</time>
   <energy>
    <i name="e_fr_energy">   -175.65828792 </i>
    <i name="e_wo_entrp">   -175.59382483 </i>
    <i name="e_0_energy">   -175.64217215 </i>
   </energy>
  </scstep>
  <scstep>
   <time name="diag">   69.55   69.55</time>
   <time name="diis">  183.86  183.88</time>
   <time name="orth">   13.77   13.77</time>
   <time name="total">  308.07  308.09</time>
   <energy>
    <i name="e_fr_energy">   -175.56399184 </i>
    <i name="e_wo_entrp">   -175.49299372 </i>
    <i name="e_0_energy">   -175.54624231 </i>
   </energy>
  </scstep>
  <scstep>
   <time name="diag">   69.17   69.17</time>
   <time name="diis">  182.49  182.50</time>
   <time name="orth">   13.62   13.62</time>
   <time name="total">  306.33  306.34</time>
   <energy>
    <i name="e_fr_energy">   -175.51044830 </i>
    <i name="e_wo_entrp">   -175.43003375 </i>
    <i name="e_0_energy">   -175.49034466 </i>
   </energy>
  </scstep>
  <scstep>
   <time name="diag">   70.03   70.03</time>
   <time name="diis">  181.00  181.00</time>
   <time name="orth">   13.89   13.89</time>
   <time name="total">  306.55  306.56</time>
   <energy>
    <i name="e_fr_energy">   -175.43016544 </i>
    <i name="e_wo_entrp">   -175.32528626 </i>
    <i name="e_0_energy">   -175.40394565 </i>
   </energy>
  </scstep>
  <scstep>
   <time name="diag">   70.01   70.01</time>
   <time name="diis">  181.88  181.88</time>
   <time name="orth">   13.69   13.69</time>
   <time name="total">  307.40  307.40</time>
   <energy>
    <i name="e_fr_energy">   -175.40321361 </i>
    <i name="e_wo_entrp">   -175.28169353 </i>
    <i name="e_0_energy">   -175.37283359 </i>
   </energy>
  </scstep>
  <scstep>
   <time name="diag">   69.13   69.13</time>
   <time name="diis">  181.26  181.26</time>
   <time name="orth">   13.55   13.55</time>
   <time name="total">  305.60  305.60</time>
   <energy>
    <i name="e_fr_energy">   -175.37877002 </i>
    <i name="e_wo_entrp">   -175.26471684 </i>
    <i name="e_0_energy">   -175.35025672 </i>
   </energy>
  </scstep>
  <scstep>
   <time name="diag">   69.20   69.20</time>
   <time name="diis">  181.51  181.52</time>
   <time name="orth">   14.44   14.44</time>
   <time name="total">  306.44  306.45</time>
   <energy>
    <i name="e_fr_energy">   -175.35612642 </i>
    <i name="e_wo_entrp">   -175.24380040 </i>
    <i name="e_0_energy">   -175.32804491 </i>
   </energy>
  </scstep>
  <scstep>
   <time name="diag">   69.33   69.34</time>
   <time name="diis">  180.40  180.43</time>
   <time name="orth">   13.96   13.96</time>
   <time name="total">  305.70  305.74</time>
   <energy>
    <i name="e_fr_energy">   -175.34237277 </i>
    <i name="e_wo_entrp">   -175.22757489 </i>
    <i name="e_0_energy">   -175.31367330 </i>
   </energy>
  </scstep>
  <scstep>
   <time name="diag">   68.94   68.94</time>
   <time name="diis">  181.67  181.69</time>
   <time name="orth">   13.88   13.88</time>
   <time name="total">  306.20  306.24</time>
   <energy>
    <i name="e_fr_energy">   -175.33359083 </i>
    <i name="e_wo_entrp">   -175.22871337 </i>
    <i name="e_0_energy">   -175.30737146 </i>
   </energy>
  </scstep>
  <scstep>
   <time name="diag">   69.17   69.18</time>
   <time name="diis">  180.53  180.54</time>
   <time name="orth">   13.74   13.74</time>
   <time name="total">  304.98  305.01</time>
   <energy>
    <i name="e_fr_energy">   -175.32801343 </i>
    <i name="e_wo_entrp">   -175.22300121 </i>
    <i name="e_0_energy">   -175.30176038 </i>
   </energy>
  </scstep>
  <scstep>
   <time name="diag">   69.04   69.06</time>
   <time name="diis">  179.96  179.99</time>
   <time name="orth">   13.86   13.86</time>
   <time name="total">  304.35  304.39</time>
   <energy>
    <i name="e_fr_energy">   -175.32517161 </i>
    <i name="e_wo_entrp">   -175.21241874 </i>
    <i name="e_0_energy">   -175.29698339 </i>
   </energy>
  </scstep>
  <scstep>
   <time name="diag">   68.43   68.44</time>
   <time name="diis">  179.50  179.51</time>
   <time name="orth">   13.72   13.72</time>
   <time name="total">  303.38  303.39</time>
   <energy>
    <i name="e_fr_energy">   -175.32183973 </i>
    <i name="e_wo_entrp">   -175.21172219 </i>
    <i name="e_0_energy">   -175.29431034 </i>
   </energy>
  </scstep>
  <scstep>
   <time name="diag">   68.63   68.63</time>
   <time name="diis">  178.16  178.17</time>
   <time name="orth">   13.71   13.71</time>
   <time name="total">  302.25  302.26</time>
   <energy>
    <i name="e_fr_energy">   -175.32133980 </i>
    <i name="e_wo_entrp">   -175.20903795 </i>
    <i name="e_0_energy">   -175.29326434 </i>
   </energy>
  </scstep>
  <scstep>
   <time name="diag">   68.68   68.68</time>
   <time name="diis">  180.33  180.34</time>
   <time name="orth">   13.83   13.83</time>
   <time name="total">  304.87  304.88</time>
   <energy>
    <i name="e_fr_energy">   -175.32181522 </i>
    <i name="e_wo_entrp">   -175.21115164 </i>
    <i name="e_0_energy">   -175.29414932 </i>
   </energy>
  </scstep>
  <scstep>
   <time name="diag">   68.81   68.82</time>
   <time name="diis">  179.34  179.34</time>
   <time name="orth">   13.73   13.73</time>
   <time name="total">  304.13  304.14</time>
   <energy>
    <i name="e_fr_energy">   -175.32230514 </i>
    <i name="e_wo_entrp">   -175.21288528 </i>
    <i name="e_0_energy">   -175.29495018 </i>
   </energy>
  </scstep>
  <scstep>
   <time name="diag">   68.91   68.91</time>
   <time name="diis">  178.37  178.37</time>
   <time name="orth">   13.76   13.76</time>
   <time name="total">  303.16  303.16</time>
   <energy>
    <i name="e_fr_energy">   -175.32339344 </i>
    <i name="e_wo_entrp">   -175.21276999 </i>
    <i name="e_0_energy">   -175.29573758 </i>
   </energy>
  </scstep>
  <scstep>
   <time name="diag">   68.10   68.10</time>
   <time name="diis">  177.70  177.70</time>
   <time name="orth">   13.66   13.66</time>
   <time name="total">  301.16  301.16</time>
   <energy>
    <i name="e_fr_energy">   -175.32496760 </i>
    <i name="e_wo_entrp">   -175.21258166 </i>
    <i name="e_0_energy">   -175.29687112 </i>
   </energy>
  </scstep>
  <scstep>
   <time name="diag">   68.02   68.02</time>
   <time name="diis">  178.43  178.44</time>
   <time name="orth">   13.66   13.66</time>
   <time name="total">  301.87  301.88</time>
   <energy>
    <i name="e_fr_energy">   -175.32846833 </i>
    <i name="e_wo_entrp">   -175.21651471 </i>
    <i name="e_0_energy">   -175.30047993 </i>
   </energy>
  </scstep>
  <scstep>
   <time name="diag">   68.54   68.54</time>
   <time name="diis">  166.53  166.53</time>
   <time name="orth">   13.60   13.60</time>
   <time name="total">  290.84  290.84</time>
   <energy>
    <i name="e_fr_energy">   -175.33075973 </i>
    <i name="e_wo_entrp">   -175.21988423 </i>
    <i name="e_0_energy">   -175.30304086 </i>
   </energy>
  </scstep>
  <scstep>
   <time name="diag">   68.85   68.85</time>
   <time name="diis">  148.49  148.50</time>
   <time name="orth">   13.86   13.86</time>
   <time name="total">  274.06  274.07</time>
   <energy>
    <i name="e_fr_energy">   -175.33325754 </i>
    <i name="e_wo_entrp">   -175.22194563 </i>
    <i name="e_0_energy">   -175.30542956 </i>
   </energy>
  </scstep>
  <scstep>
   <time name="diag">   70.43   70.43</time>
   <time name="diis">  144.07  144.07</time>
   <time name="orth">   13.36   13.36</time>
   <time name="total">  271.10  271.10</time>
   <energy>
    <i name="e_fr_energy">   -175.33584991 </i>
    <i name="e_wo_entrp">   -175.22542058 </i>
    <i name="e_0_energy">   -175.30824258 </i>
   </energy>
  </scstep>
  <scstep>
   <time name="diag">   70.94   70.94</time>
   <time name="diis">  124.37  124.37</time>
   <time name="orth">   13.66   13.66</time>
   <time name="total">  251.30  251.31</time>
   <energy>
    <i name="e_fr_energy">   -175.33752167 </i>
    <i name="e_wo_entrp">   -175.22646214 </i>
    <i name="e_0_energy">   -175.30975679 </i>
   </energy>
  </scstep>
  <scstep>
   <time name="diag">   69.22   69.22</time>
   <time name="diis">  136.57  136.57</time>
   <time name="orth">   13.71   13.71</time>
   <time name="total">  262.60  262.61</time>
   <energy>
    <i name="e_fr_energy">   -175.33983698 </i>
    <i name="e_wo_entrp">   -175.22864564 </i>
    <i name="e_0_energy">   -175.31203915 </i>
   </energy>
  </scstep>
  <scstep>
   <time name="diag">   67.93   67.93</time>
   <time name="diis">  124.08  124.08</time>
   <time name="orth">   13.88   13.88</time>
   <time name="total">  249.28  249.28</time>
   <energy>
    <i name="e_fr_energy">   -175.34130273 </i>
    <i name="e_wo_entrp">   -175.22938957 </i>
    <i name="e_0_energy">   -175.31332444 </i>
   </energy>
  </scstep>
  <scstep>
   <time name="diag">   68.57   68.57</time>
   <time name="diis">  120.30  120.30</time>
   <time name="orth">   14.18   14.18</time>
   <time name="total">  247.14  247.14</time>
   <energy>
    <i name="e_fr_energy">   -175.34306078 </i>
    <i name="e_wo_entrp">   -175.23152826 </i>
    <i name="e_0_energy">   -175.31517765 </i>
   </energy>
  </scstep>
  <scstep>
   <time name="diag">   68.22   68.22</time>
   <time name="diis">  116.35  116.35</time>
   <time name="orth">   13.89   13.89</time>
   <time name="total">  242.61  242.62</time>
   <energy>
    <i name="e_fr_energy">   -175.34400371 </i>
    <i name="e_wo_entrp">   -175.23288426 </i>
    <i name="e_0_energy">   -175.31622385 </i>
   </energy>
  </scstep>
  <scstep>
   <time name="diag">   69.57   69.57</time>
   <time name="diis">  115.18  115.19</time>
   <time name="orth">   13.95   13.95</time>
   <time name="total">  242.12  242.13</time>
   <energy>
    <i name="e_fr_energy">   -175.34459200 </i>
    <i name="e_wo_entrp">   -175.23347865 </i>
    <i name="e_0_energy">   -175.31681366 </i>
   </energy>
  </scstep>
  <scstep>
   <time name="diag">   69.20   69.20</time>
   <time name="diis">  115.49  115.50</time>
   <time name="orth">   13.16   13.16</time>
   <time name="total">  241.38  241.40</time>
   <energy>
    <i name="e_fr_energy">   -175.34608650 </i>
    <i name="e_wo_entrp">   -175.23486429 </i>
    <i name="e_0_energy">   -175.31828094 </i>
   </energy>
  </scstep>
  <scstep>
   <time name="diag">   68.92   68.93</time>
   <time name="diis">  115.11  115.12</time>
   <time name="orth">   13.43   13.43</time>
   <time name="total">  240.63  240.64</time>
   <energy>
    <i name="e_fr_energy">   -175.34659136 </i>
    <i name="e_wo_entrp">   -175.23573968 </i>
    <i name="e_0_energy">   -175.31887844 </i>
   </energy>
  </scstep>
  <scstep>
   <time name="diag">   67.95   67.95</time>
   <time name="diis">  110.53  110.53</time>
   <time name="orth">   13.31   13.31</time>
   <time name="total">  234.50  234.50</time>
   <energy>
    <i name="e_fr_energy">   -175.34713251 </i>
    <i name="e_wo_entrp">   -175.23603365 </i>
    <i name="e_0_energy">   -175.31935780 </i>
   </energy>
  </scstep>
  <scstep>
   <time name="diag">   67.84   67.84</time>
   <time name="diis">  109.82  109.82</time>
   <time name="orth">   13.86   13.86</time>
   <time name="total">  234.15  234.15</time>
   <energy>
    <i name="e_fr_energy">   -175.34793370 </i>
    <i name="e_wo_entrp">   -175.23685925 </i>
    <i name="e_0_energy">   -175.32016509 </i>
   </energy>
  </scstep>
  <scstep>
   <time name="diag">   67.39   67.39</time>
   <time name="diis">   89.73   89.73</time>
   <time name="orth">   13.34   13.34</time>
   <time name="total">  214.14  214.16</time>
   <energy>
    <i name="e_fr_energy">   -175.34817523 </i>
    <i name="e_wo_entrp">   -175.23718607 </i>
    <i name="e_0_energy">   -175.32042794 </i>
   </energy>
  </scstep>
  <scstep>
   <time name="diag">   67.95   67.96</time>
   <time name="diis">  105.11  105.11</time>
   <time name="orth">   13.92   13.92</time>
   <time name="total">  230.28  230.29</time>
   <energy>
    <i name="e_fr_energy">   -175.34888745 </i>
    <i name="e_wo_entrp">   -175.23783741 </i>
    <i name="e_0_energy">   -175.32112494 </i>
   </energy>
  </scstep>
  <scstep>
   <time name="diag">   67.69   67.69</time>
   <time name="diis">   89.77   89.77</time>
   <time name="orth">   13.67   13.67</time>
   <time name="total">  215.40  215.41</time>
   <energy>
    <i name="e_fr_energy">   -175.34910754 </i>
    <i name="e_wo_entrp">   -175.23808904 </i>
    <i name="e_0_energy">   -175.32135291 </i>
   </energy>
  </scstep>
  <scstep>
   <time name="diag">   68.59   68.59</time>
   <time name="diis">   90.33   90.34</time>
   <time name="orth">   13.47   13.47</time>
   <time name="total">  216.38  216.40</time>
   <energy>
    <i name="e_fr_energy">   -175.34930489 </i>
    <i name="e_wo_entrp">   -175.23831128 </i>
    <i name="e_0_energy">   -175.32155649 </i>
   </energy>
  </scstep>
  <scstep>
   <time name="diag">   68.10   68.11</time>
   <time name="diis">   83.62   83.63</time>
   <time name="orth">   13.33   13.33</time>
   <time name="total">  208.54  208.57</time>
   <energy>
    <i name="e_fr_energy">   -175.34945117 </i>
    <i name="e_wo_entrp">   -175.23841511 </i>
    <i name="e_0_energy">   -175.32169215 </i>
   </energy>
  </scstep>
  <scstep>
   <time name="diag">   68.55   68.55</time>
   <time name="diis">   81.86   81.86</time>
   <time name="orth">   13.42   13.42</time>
   <time name="total">  207.01  207.01</time>
   <energy>
    <i name="e_fr_energy">   -175.34955802 </i>
    <i name="e_wo_entrp">   -175.23856920 </i>
    <i name="e_0_energy">   -175.32181082 </i>
   </energy>
  </scstep>
  <scstep>
   <time name="diag">   69.28   69.29</time>
   <time name="diis">   82.24   82.24</time>
   <time name="orth">   13.51   13.51</time>
   <time name="total">  178.85  178.86</time>
   <energy>
    <i name="alphaZ">     75.25431677 </i>
    <i name="ewald"> 138809.96473588 </i>
    <i name="hartreedc">-183157.65969363 </i>
    <i name="XCdc">  -1691.71138970 </i>
    <i name="pawpsdc">  46231.40904328 </i>
    <i name="pawaedc"> -42702.72144131 </i>
    <i name="eentropy">     -0.11100090 </i>
    <i name="bandstr">  -2826.27971862 </i>
    <i name="atom">  45086.50549395 </i>
    <i name="e_fr_energy">   -175.34965428 </i>
    <i name="e_wo_entrp">   -175.23865337 </i>
    <i name="e_0_energy">   -175.32190405 </i>
   </energy>
  </scstep>
  <structure>
   <crystal>
    <varray name="basis" >
     <v>      30.00000000       0.00000000       0.00000000 </v>
     <v>       0.00000000      30.00000000       0.00000000 </v>
     <v>       0.00000000       0.00000000      30.00000000 </v>
    </varray>
    <i name="volume">  27000.00000000 </i>
    <varray name="rec_basis" >
     <v>       0.03333333       0.00000000       0.00000000 </v>
     <v>       0.00000000       0.03333333       0.00000000 </v>
     <v>       0.00000000       0.00000000       0.03333333 </v>
    </varray>
   </crystal>
   <varray name="positions" >
    <v>       0.44576020       0.32826710       0.41691983 </v>
    <v>       0.67173288       0.55423978       0.41691983 </v>
    <v>       0.55423980       0.32826710       0.41691983 </v>
    <v>       0.32826712       0.55423978       0.41691983 </v>
    <v>       0.50000000       0.38250690       0.34021317 </v>
    <v>       0.50000000       0.38250690       0.65978680 </v>
    <v>       0.50000000       0.27609440       0.50000000 </v>
    <v>       0.27609443       0.49999998       0.50000000 </v>
    <v>       0.72390557       0.49999998       0.50000000 </v>
    <v>       0.50000000       0.72390555       0.50000000 </v>
    <v>       0.61195280       0.38804720       0.34167483 </v>
    <v>       0.61195280       0.38804720       0.65832513 </v>
    <v>       0.38804722       0.61195278       0.34167483 </v>
    <v>       0.38804722       0.61195278       0.65832513 </v>
    <v>       0.38804720       0.38804720       0.34167483 </v>
    <v>       0.38804720       0.38804720       0.65832513 </v>
    <v>       0.61195278       0.61195278       0.34167483 </v>
    <v>       0.61195278       0.61195278       0.65832513 </v>
    <v>       0.44576020       0.32826710       0.58308023 </v>
    <v>       0.67173288       0.55423978       0.58308023 </v>
    <v>       0.55791699       0.44208301       0.41809300 </v>
    <v>       0.32826705       0.44576024       0.41691983 </v>
    <v>       0.55423973       0.67173293       0.41691983 </v>
    <v>       0.55423980       0.32826710       0.58308023 </v>
    <v>       0.32826712       0.55423978       0.58308023 </v>
    <v>       0.67173295       0.44576024       0.41691983 </v>
    <v>       0.44576027       0.67173293       0.41691983 </v>
    <v>       0.44208301       0.44208301       0.41809300 </v>
    <v>       0.50000000       0.38416601       0.50000000 </v>
    <v>       0.61749315       0.50000005       0.34021317 </v>
    <v>       0.61749315       0.50000005       0.65978680 </v>
    <v>       0.38250685       0.50000005       0.34021317 </v>
    <v>       0.38250685       0.50000005       0.65978680 </v>
    <v>       0.38317830       0.38317830       0.50000000 </v>
    <v>       0.61682172       0.61682172       0.50000000 </v>
    <v>       0.61682170       0.38317830       0.50000000 </v>
    <v>       0.38317828       0.61682172       0.50000000 </v>
    <v>       0.50000000       0.50000000       0.33478917 </v>
    <v>       0.50000000       0.50000000       0.66521087 </v>
    <v>       0.32826705       0.44576024       0.58308023 </v>
    <v>       0.55423973       0.67173293       0.58308023 </v>
    <v>       0.55791699       0.44208301       0.58190703 </v>
    <v>       0.44208298       0.55791702       0.41809300 </v>
    <v>       0.44208301       0.44208301       0.58190703 </v>
    <v>       0.67173295       0.44576024       0.58308023 </v>
    <v>       0.44576027       0.67173293       0.58308023 </v>
    <v>       0.55791702       0.55791702       0.41809300 </v>
    <v>       0.38416599       0.50000002       0.50000000 </v>
    <v>       0.61583401       0.50000002       0.50000000 </v>
    <v>       0.50000000       0.61749319       0.34021317 </v>
    <v>       0.50000000       0.61749319       0.65978680 </v>
    <v>       0.50000000       0.50000000       0.50000000 </v>
    <v>       0.44208298       0.55791702       0.58190703 </v>
    <v>       0.55791702       0.55791702       0.58190703 </v>
    <v>       0.50000000       0.61583404       0.50000000 </v>
    <v>       0.50952407       0.29431103       0.38904853 </v>
    <v>       0.51105510       0.26124593       0.37121277 </v>
   </varray>
  </structure>
  <varray name="forces" >
   <v>       1.61413933       0.50267047      -0.19799886 </v>
   <v>      -1.10877559      -0.70659086       0.29355153 </v>
   <v>      -0.33181138       1.54223290       0.58304818 </v>
   <v>       1.10908137      -0.70373182       0.29431898 </v>
   <v>      -0.00181338       0.40597545       1.21385299 </v>
   <v>       0.00076788       0.40609862      -1.29011736 </v>
   <v>       0.00165399       1.45401909       0.05258494 </v>
   <v>       1.52062693       0.00366640       0.00789461 </v>
   <v>      -1.52001936       0.00500347       0.00591802 </v>
   <v>       0.00022613      -1.51918968      -0.00749728 </v>
   <v>      -0.70759735       0.79818572       1.05845951 </v>
   <v>      -0.75637772       0.76219885      -1.07011147 </v>
   <v>       0.76385046      -0.75112740       1.07733495 </v>
   <v>       0.75261596      -0.76503388      -1.07528168 </v>
   <v>       0.72808398       0.79287247       1.07364226 </v>
   <v>       0.75369431       0.76480339      -1.07029962 </v>
   <v>      -0.76399277      -0.75038656       1.07733270 </v>
   <v>      -0.75201874      -0.76501061      -1.07506555 </v>
   <v>       0.71049173       1.11318621      -0.27066925 </v>
   <v>      -1.10878087      -0.71436104      -0.28472327 </v>
   <v>       0.13466633      -0.05225456      -0.12825956 </v>
   <v>       1.11339595       0.69644002       0.28519694 </v>
   <v>      -0.70531061      -1.11572635       0.28009722 </v>
   <v>      -0.70951795       1.11173374      -0.27208394 </v>
   <v>       1.10730952      -0.71496880      -0.28718679 </v>
   <v>      -1.11433491       0.69700801       0.28600495 </v>
   <v>       0.70535711      -1.11638444       0.28023046 </v>
   <v>      -0.12895962      -0.06778193      -0.14288562 </v>
   <v>      -0.00245038      -0.13825185       0.08348919 </v>
   <v>      -0.41103935      -0.01081472       1.28096839 </v>
   <v>      -0.40337634       0.00175016      -1.29005180 </v>
   <v>       0.41285793      -0.01352130       1.27804492 </v>
   <v>       0.40440112      -0.00125154      -1.28881284 </v>
   <v>       0.80567823       0.85471781       0.00770467 </v>
   <v>      -0.82586864      -0.82859361       0.00139065 </v>
   <v>      -0.80795115       0.85720633       0.00510957 </v>
   <v>       0.82533944      -0.82870438       0.00073826 </v>
   <v>      -0.00445538      -0.00830533       1.17536605 </v>
   <v>       0.00005386       0.00060454      -1.17727816 </v>
   <v>       1.10725166       0.73714048      -0.27021794 </v>
   <v>      -0.70788828      -1.10945145      -0.28838287 </v>
   <v>       0.11037182      -0.11576148       0.15620959 </v>
   <v>      -0.10964428       0.12438387      -0.15886300 </v>
   <v>      -0.11591312      -0.10927283       0.16021776 </v>
   <v>      -1.10428130       0.74671276      -0.26179056 </v>
   <v>       0.70821545      -1.10905729      -0.28763158 </v>
   <v>       0.10906234       0.13032559      -0.16031076 </v>
   <v>      -0.23263915      -0.00471479      -0.00259342 </v>
   <v>       0.23269688      -0.00645401      -0.00598556 </v>
   <v>       0.00052631      -0.39343583       1.29504361 </v>
   <v>       0.00001498      -0.40960300      -1.28368610 </v>
   <v>      -0.00245006      -0.00905399      -0.00812006 </v>
   <v>      -0.11245567       0.10814506       0.15568835 </v>
   <v>       0.11283060       0.10600973       0.15374709 </v>
   <v>       0.00043490       0.22728935       0.00233393 </v>
   <v>      -1.15311532       5.56444633       3.34467180 </v>
   <v>      -0.14285788      -5.67603151      -3.31428720 </v>
  </varray>
  <varray name="stress" >
   <v>      -6.80958723       0.08966774       0.06643846 </v>
   <v>       0.08966776      -6.37624907       0.20040346 </v>
   <v>       0.06643844       0.20040345      -6.60926193 </v>
  </varray>
  <energy>
   <i name="e_fr_energy">   -175.34965428 </i>
   <i name="e_wo_entrp">   -175.32190405 </i>
   <i name="e_0_energy">     -0.11100090 </i>
  </energy>
  <time name="totalsc">17762.1017763.01</time>
  <eigenvalues>
   <array>
    <dimension dim="1">band</dimension>
    <dimension dim="2">kpoint</dimension>
    <dimension dim="3">spin</dimension>
    <field>eigene</field>
    <field>occ</field>
    <set>
     <set comment="spin 1">
      <set comment="kpoint 1">
       <r>  -28.1552    1.0000 </r>
       <r>  -13.3548    1.0000 </r>
       <r>  -11.1433    1.0000 </r>
       <r>  -10.7975    1.0000 </r>
       <r>  -10.5325    1.0000 </r>
       <r>   -6.6733    1.0000 </r>
       <r>   -6.3976    1.0000 </r>
       <r>   -6.3237    1.0000 </r>
       <r>   -6.1568    1.0000 </r>
       <r>   -6.1457    1.0000 </r>
       <r>   -6.1273    1.0000 </r>
       <r>   -5.8846    1.0000 </r>
       <r>   -5.8593    1.0000 </r>
       <r>   -5.8290    1.0000 </r>
       <r>   -5.7931    1.0000 </r>
       <r>   -5.7660    1.0000 </r>
       <r>   -5.7343    1.0000 </r>
       <r>   -5.7083    1.0000 </r>
       <r>   -5.7007    1.0000 </r>
       <r>   -5.6944    1.0000 </r>
       <r>   -5.6915    1.0000 </r>
       <r>   -5.6851    1.0000 </r>
       <r>   -5.6445    1.0000 </r>
       <r>   -5.6288    1.0000 </r>
       <r>   -5.6210    1.0000 </r>
       <r>   -5.6102    1.0000 </r>
       <r>   -5.5976    1.0000 </r>
       <r>   -5.5928    1.0000 </r>
       <r>   -5.5731    1.0000 </r>
       <r>   -5.5643    1.0000 </r>
       <r>   -5.5628    1.0000 </r>
       <r>   -5.5517    1.0000 </r>
       <r>   -5.5459    1.0000 </r>
       <r>   -5.5351    1.0000 </r>
       <r>   -5.5337    1.0000 </r>
       <r>   -5.5328    1.0000 </r>
       <r>   -5.5281    1.0000 </r>
       <r>   -5.5222    1.0000 </r>
       <r>   -5.5071    1.0000 </r>
       <r>   -5.5021    1.0000 </r>
       <r>   -5.4902    1.0000 </r>
       <r>   -5.4886    1.0000 </r>
       <r>   -5.4858    1.0000 </r>
       <r>   -5.4833    1.0000 </r>
       <r>   -5.4817    1.0000 </r>
       <r>   -5.4797    1.0000 </r>
       <r>   -5.4701    1.0000 </r>
       <r>   -5.4575    1.0000 </r>
       <r>   -5.4463    1.0000 </r>
       <r>   -5.4452    1.0000 </r>
       <r>   -5.4420    1.0000 </r>
       <r>   -5.4344    1.0000 </r>
       <r>   -5.4239    1.0000 </r>
       <r>   -5.4200    1.0000 </r>
       <r>   -5.4178    1.0000 </r>
       <r>   -5.4165    1.0000 </r>
       <r>   -5.4052    1.0000 </r>
       <r>   -5.3944    1.0000 </r>
       <r>   -5.3650    1.0000 </r>
       <r>   -5.3491    1.0000 </r>
       <r>   -5.3441    1.0000 </r>
       <r>   -5.3412    1.0000 </r>
       <r>   -5.3326    1.0000 </r>
       <r>   -5.3314    1.0000 </r>
       <r>   -5.3257    1.0000 </r>
       <r>   -5.3166    1.0000 </r>
       <r>   -5.3135    1.0000 </r>
       <r>   -5.3063    1.0000 </r>
       <r>   -5.2975    1.0000 </r>
       <r>   -5.2763    1.0000 </r>
       <r>   -5.2536    1.0000 </r>
       <r>   -5.2270    1.0000 </r>
       <r>   -5.2216    1.0000 </r>
       <r>   -5.2152    1.0000 </r>
       <r>   -5.2109    1.0000 </r>
       <r>   -5.2034    1.0000 </r>
       <r>   -5.1918    1.0000 </r>
       <r>   -5.1905    1.0000 </r>
       <r>   -5.1888    1.0000 </r>
       <r>   -5.1806    1.0000 </r>
       <r>   -5.1795    1.0000 </r>
       <r>   -5.1770    1.0000 </r>
       <r>   -5.1666    1.0000 </r>
       <r>   -5.1600    1.0000 </r>
       <r>   -5.1470    1.0000 </r>
       <r>   -5.1413    1.0000 </r>
       <r>   -5.1323    1.0000 </r>
       <r>   -5.1218    1.0000 </r>
       <r>   -5.1154    1.0000 </r>
       <r>   -5.0980    1.0000 </r>
       <r>   -5.0927    1.0000 </r>
       <r>   -5.0834    1.0000 </r>
       <r>   -5.0702    1.0000 </r>
       <r>   -5.0686    1.0000 </r>
       <r>   -5.0669    1.0000 </r>
       <r>   -5.0652    1.0000 </r>
       <r>   -5.0639    1.0000 </r>
       <r>   -5.0541    1.0000 </r>
       <r>   -5.0528    1.0000 </r>
       <r>   -5.0494    1.0000 </r>
       <r>   -5.0460    1.0000 </r>
       <r>   -5.0423    1.0000 </r>
       <r>   -5.0350    1.0000 </r>
       <r>   -5.0296    1.0000 </r>
       <r>   -5.0201    1.0000 </r>
       <r>   -5.0182    1.0000 </r>
       <r>   -5.0126    1.0000 </r>
       <r>   -5.0105    1.0000 </r>
       <r>   -5.0054    1.0000 </r>
       <r>   -4.9988    1.0000 </r>
       <r>   -4.9941    1.0000 </r>
       <r>   -4.9902    1.0000 </r>
       <r>   -4.9806    1.0000 </r>
       <r>   -4.9772    1.0000 </r>
       <r>   -4.9731    1.0000 </r>
       <r>   -4.9677    1.0000 </r>
       <r>   -4.9613    1.0000 </r>
       <r>   -4.9535    1.0000 </r>
       <r>   -4.9494    1.0000 </r>
       <r>   -4.9407    1.0000 </r>
       <r>   -4.9289    1.0000 </r>
       <r>   -4.9255    1.0000 </r>
       <r>   -4.9237    1.0000 </r>
       <r>   -4.9204    1.0000 </r>
       <r>   -4.9180    1.0000 </r>
       <r>   -4.9148    1.0000 </r>
       <r>   -4.9051    1.0000 </r>
       <r>   -4.8948    1.0000 </r>
       <r>   -4.8710    1.0000 </r>
       <r>   -4.8704    1.0000 </r>
       <r>   -4.8637    1.0000 </r>
       <r>   -4.8577    1.0000 </r>
       <r>   -4.8544    1.0000 </r>
       <r>   -4.8500    1.0000 </r>
       <r>   -4.8480    1.0000 </r>
       <r>   -4.8412    1.0000 </r>
       <r>   -4.8247    0.9999 </r>
       <r>   -4.8221    0.9999 </r>
       <r>   -4.8104    0.9999 </r>
       <r>   -4.8013    0.9999 </r>
       <r>   -4.7946    0.9999 </r>
       <r>   -4.7849    0.9998 </r>
       <r>   -4.7811    0.9998 </r>
       <r>   -4.7615    0.9997 </r>
       <r>   -4.7576    0.9996 </r>
       <r>   -4.7559    0.9996 </r>
       <r>   -4.7533    0.9996 </r>
       <r>   -4.7476    0.9996 </r>
       <r>   -4.7357    0.9994 </r>
       <r>   -4.7186    0.9992 </r>
       <r>   -4.7168    0.9992 </r>
       <r>   -4.7105    0.9990 </r>
       <r>   -4.6988    0.9988 </r>
       <r>   -4.6956    0.9987 </r>
       <r>   -4.6924    0.9987 </r>
       <r>   -4.6880    0.9986 </r>
       <r>   -4.6844    0.9985 </r>
       <r>   -4.6806    0.9984 </r>
       <r>   -4.6801    0.9984 </r>
       <r>   -4.6790    0.9983 </r>
       <r>   -4.6740    0.9982 </r>
       <r>   -4.6672    0.9980 </r>
       <r>   -4.6634    0.9979 </r>
       <r>   -4.6615    0.9978 </r>
       <r>   -4.6590    0.9977 </r>
       <r>   -4.6578    0.9977 </r>
       <r>   -4.6573    0.9977 </r>
       <r>   -4.6558    0.9976 </r>
       <r>   -4.6502    0.9974 </r>
       <r>   -4.6461    0.9973 </r>
       <r>   -4.6317    0.9967 </r>
       <r>   -4.6225    0.9964 </r>
       <r>   -4.6170    0.9962 </r>
       <r>   -4.6167    0.9962 </r>
       <r>   -4.6145    0.9961 </r>
       <r>   -4.6103    0.9959 </r>
       <r>   -4.6087    0.9959 </r>
       <r>   -4.6029    0.9957 </r>
       <r>   -4.6004    0.9956 </r>
       <r>   -4.5938    0.9954 </r>
       <r>   -4.5891    0.9953 </r>
       <r>   -4.5876    0.9953 </r>
       <r>   -4.5848    0.9952 </r>
       <r>   -4.5735    0.9951 </r>
       <r>   -4.5723    0.9951 </r>
       <r>   -4.5687    0.9951 </r>
       <r>   -4.5684    0.9951 </r>
       <r>   -4.5638    0.9951 </r>
       <r>   -4.5611    0.9951 </r>
       <r>   -4.5580    0.9952 </r>
       <r>   -4.5531    0.9953 </r>
       <r>   -4.5381    0.9960 </r>
       <r>   -4.5233    0.9974 </r>
       <r>   -4.5218    0.9976 </r>
       <r>   -4.5201    0.9978 </r>
       <r>   -4.5119    0.9989 </r>
       <r>   -4.5087    0.9995 </r>
       <r>   -4.5061    0.9999 </r>
       <r>   -4.4954    1.0021 </r>
       <r>   -4.4919    1.0029 </r>
       <r>   -4.4896    1.0035 </r>
       <r>   -4.4833    1.0052 </r>
       <r>   -4.4791    1.0064 </r>
       <r>   -4.4714    1.0089 </r>
       <r>   -4.4691    1.0097 </r>
       <r>   -4.4639    1.0115 </r>
       <r>   -4.4628    1.0119 </r>
       <r>   -4.4587    1.0135 </r>
       <r>   -4.4570    1.0142 </r>
       <r>   -4.4500    1.0171 </r>
       <r>   -4.4404    1.0213 </r>
       <r>   -4.4388    1.0220 </r>
       <r>   -4.4303    1.0260 </r>
       <r>   -4.4264    1.0278 </r>
       <r>   -4.4244    1.0288 </r>
       <r>   -4.4201    1.0309 </r>
       <r>   -4.4195    1.0312 </r>
       <r>   -4.4182    1.0318 </r>
       <r>   -4.4148    1.0334 </r>
       <r>   -4.4111    1.0352 </r>
       <r>   -4.3908    1.0441 </r>
       <r>   -4.3890    1.0448 </r>
       <r>   -4.3843    1.0465 </r>
       <r>   -4.3779    1.0485 </r>
       <r>   -4.3709    1.0502 </r>
       <r>   -4.3622    1.0514 </r>
       <r>   -4.3610    1.0515 </r>
       <r>   -4.3532    1.0515 </r>
       <r>   -4.3519    1.0514 </r>
       <r>   -4.3490    1.0510 </r>
       <r>   -4.3479    1.0508 </r>
       <r>   -4.3471    1.0507 </r>
       <r>   -4.3460    1.0505 </r>
       <r>   -4.3407    1.0490 </r>
       <r>   -4.3400    1.0488 </r>
       <r>   -4.3388    1.0484 </r>
       <r>   -4.3378    1.0480 </r>
       <r>   -4.3363    1.0473 </r>
       <r>   -4.3330    1.0458 </r>
       <r>   -4.3255    1.0411 </r>
       <r>   -4.3227    1.0391 </r>
       <r>   -4.3223    1.0387 </r>
       <r>   -4.3075    1.0235 </r>
       <r>   -4.3052    1.0205 </r>
       <r>   -4.3038    1.0186 </r>
       <r>   -4.3026    1.0168 </r>
       <r>   -4.2990    1.0114 </r>
       <r>   -4.2964    1.0074 </r>
       <r>   -4.2900    0.9960 </r>
       <r>   -4.2874    0.9911 </r>
       <r>   -4.2834    0.9828 </r>
       <r>   -4.2791    0.9732 </r>
       <r>   -4.2781    0.9710 </r>
       <r>   -4.2753    0.9644 </r>
       <r>   -4.2731    0.9589 </r>
       <r>   -4.2677    0.9447 </r>
       <r>   -4.2672    0.9432 </r>
       <r>   -4.2636    0.9330 </r>
       <r>   -4.2612    0.9261 </r>
       <r>   -4.2598    0.9220 </r>
       <r>   -4.2583    0.9172 </r>
       <r>   -4.2571    0.9136 </r>
       <r>   -4.2532    0.9011 </r>
       <r>   -4.2526    0.8989 </r>
       <r>   -4.2513    0.8948 </r>
       <r>   -4.2406    0.8567 </r>
       <r>   -4.2398    0.8535 </r>
       <r>   -4.2393    0.8515 </r>
       <r>   -4.2341    0.8314 </r>
       <r>   -4.2320    0.8231 </r>
       <r>   -4.2301    0.8152 </r>
       <r>   -4.2185    0.7652 </r>
       <r>   -4.2139    0.7445 </r>
       <r>   -4.2070    0.7119 </r>
       <r>   -4.1988    0.6722 </r>
       <r>   -4.1958    0.6570 </r>
       <r>   -4.1940    0.6481 </r>
       <r>   -4.1895    0.6251 </r>
       <r>   -4.1889    0.6223 </r>
       <r>   -4.1867    0.6109 </r>
       <r>   -4.1746    0.5477 </r>
       <r>   -4.1556    0.4473 </r>
       <r>   -4.1488    0.4120 </r>
       <r>   -4.1471    0.4028 </r>
       <r>   -4.1444    0.3891 </r>
       <r>   -4.1415    0.3742 </r>
       <r>   -4.1341    0.3370 </r>
       <r>   -4.1317    0.3247 </r>
       <r>   -4.1285    0.3090 </r>
       <r>   -3.9761   -0.0516 </r>
       <r>   -3.8505   -0.0060 </r>
       <r>   -3.8455   -0.0046 </r>
       <r>   -3.8294   -0.0008 </r>
       <r>   -3.6827    0.0027 </r>
       <r>   -3.5210    0.0001 </r>
       <r>   -3.5067    0.0001 </r>
       <r>   -3.3133    0.0000 </r>
       <r>   -3.1033    0.0000 </r>
       <r>   -3.0732    0.0000 </r>
       <r>   -3.0713    0.0000 </r>
       <r>   -3.0452    0.0000 </r>
       <r>   -3.0418    0.0000 </r>
       <r>   -2.9565    0.0000 </r>
       <r>   -2.9539    0.0000 </r>
       <r>   -2.6928    0.0000 </r>
       <r>   -2.6144    0.0000 </r>
       <r>   -2.5418    0.0000 </r>
       <r>   -2.5313    0.0000 </r>
       <r>   -2.2847    0.0000 </r>
       <r>   -2.1265    0.0000 </r>
       <r>   -2.1253    0.0000 </r>
       <r>   -2.0833    0.0000 </r>
       <r>   -2.0462    0.0000 </r>
       <r>   -2.0056    0.0000 </r>
       <r>   -1.9386    0.0000 </r>
       <r>   -1.8951    0.0000 </r>
       <r>   -1.8104    0.0000 </r>
       <r>   -1.6866    0.0000 </r>
       <r>   -1.6592    0.0000 </r>
       <r>   -1.6544    0.0000 </r>
       <r>   -1.6078    0.0000 </r>
       <r>   -1.6061    0.0000 </r>
       <r>   -1.5624    0.0000 </r>
       <r>   -1.3843    0.0000 </r>
       <r>   -1.2640    0.0000 </r>
       <r>   -1.1371    0.0000 </r>
       <r>   -1.0967    0.0000 </r>
       <r>   -1.0087    0.0000 </r>
       <r>   -0.9915    0.0000 </r>
       <r>   -0.9796    0.0000 </r>
       <r>   -0.9513    0.0000 </r>
       <r>   -0.9389    0.0000 </r>
       <r>   -0.9237    0.0000 </r>
       <r>   -0.8898    0.0000 </r>
       <r>   -0.8241    0.0000 </r>
       <r>   -0.6599    0.0000 </r>
      </set>
     </set>
    </set>
   </array>
  </eigenvalues>
  <separator name="orbital magnetization" >
   <v name="MAGDIPOLOUT">      0.00000000      0.00000000      0.00000000</v>
  </separator>
  <dos>
   <i name="efermi">     -4.16556418 </i>
   <total>
    <array>
     <dimension dim="1">gridpoints</dimension>
     <dimension dim="2">spin</dimension>
     <field>energy</field>
     <field>total</field>
     <field>integrated</field>
     <set>
      <set comment="spin 1">
       <r>   -30.1552     0.0000     0.0000 </r>
       <r>   -30.0502     0.0000     0.0000 </r>
       <r>   -29.9452     0.0000     0.0000 </r>
       <r>   -29.8402     0.0000     0.0000 </r>
       <r>   -29.7352     0.0000     0.0000 </r>
       <r>   -29.6302     0.0000     0.0000 </r>
       <r>   -29.5253     0.0000     0.0000 </r>
       <r>   -29.4203     0.0000     0.0000 </r>
       <r>   -29.3153     0.0000     0.0000 </r>
       <r>   -29.2103     0.0000     0.0000 </r>
       <r>   -29.1053     0.0000     0.0000 </r>
       <r>   -29.0003     0.0000     0.0000 </r>
       <r>   -28.8954     0.0001     0.0000 </r>
       <r>   -28.7904     0.0023     0.0003 </r>
       <r>   -28.6854     0.0216     0.0025 </r>
       <r>   -28.5804     0.0646     0.0093 </r>
       <r>   -28.4754    -0.1744    -0.0090 </r>
       <r>   -28.3704    -0.8214    -0.0952 </r>
       <r>   -28.2654     1.5617     0.0687 </r>
       <r>   -28.1605     8.3373     0.9440 </r>
       <r>   -28.0555     8.8751     1.8757 </r>
       <r>   -27.9505     2.1421     2.1006 </r>
       <r>   -27.8455    -0.8131     2.0153 </r>
       <r>   -27.7405    -0.2379     1.9903 </r>
       <r>   -27.6355     0.0637     1.9970 </r>
       <r>   -27.5306     0.0257     1.9997 </r>
       <r>   -27.4256     0.0030     2.0000 </r>
       <r>   -27.3206     0.0002     2.0000 </r>
       <r>   -27.2156     0.0000     2.0000 </r>
       <r>   -27.1106     0.0000     2.0000 </r>
       <r>   -27.0056     0.0000     2.0000 </r>
       <r>   -26.9007     0.0000     2.0000 </r>
       <r>   -26.7957     0.0000     2.0000 </r>
       <r>   -26.6907     0.0000     2.0000 </r>
       <r>   -26.5857     0.0000     2.0000 </r>
       <r>   -26.4807     0.0000     2.0000 </r>
       <r>   -26.3757     0.0000     2.0000 </r>
       <r>   -26.2707     0.0000     2.0000 </r>
       <r>   -26.1658     0.0000     2.0000 </r>
       <r>   -26.0608     0.0000     2.0000 </r>
       <r>   -25.9558     0.0000     2.0000 </r>
       <r>   -25.8508     0.0000     2.0000 </r>
       <r>   -25.7458     0.0000     2.0000 </r>
       <r>   -25.6408     0.0000     2.0000 </r>
       <r>   -25.5359     0.0000     2.0000 </r>
       <r>   -25.4309     0.0000     2.0000 </r>
       <r>   -25.3259     0.0000     2.0000 </r>
       <r>   -25.2209     0.0000     2.0000 </r>
       <r>   -25.1159     0.0000     2.0000 </r>
       <r>   -25.0109     0.0000     2.0000 </r>
       <r>   -24.9059     0.0000     2.0000 </r>
       <r>   -24.8010     0.0000     2.0000 </r>
       <r>   -24.6960     0.0000     2.0000 </r>
       <r>   -24.5910     0.0000     2.0000 </r>
       <r>   -24.4860     0.0000     2.0000 </r>
       <r>   -24.3810     0.0000     2.0000 </r>
       <r>   -24.2760     0.0000     2.0000 </r>
       <r>   -24.1711     0.0000     2.0000 </r>
       <r>   -24.0661     0.0000     2.0000 </r>
       <r>   -23.9611     0.0000     2.0000 </r>
       <r>   -23.8561     0.0000     2.0000 </r>
       <r>   -23.7511     0.0000     2.0000 </r>
       <r>   -23.6461     0.0000     2.0000 </r>
       <r>   -23.5412     0.0000     2.0000 </r>
       <r>   -23.4362     0.0000     2.0000 </r>
       <r>   -23.3312     0.0000     2.0000 </r>
       <r>   -23.2262     0.0000     2.0000 </r>
       <r>   -23.1212     0.0000     2.0000 </r>
       <r>   -23.0162     0.0000     2.0000 </r>
       <r>   -22.9112     0.0000     2.0000 </r>
       <r>   -22.8063     0.0000     2.0000 </r>
       <r>   -22.7013     0.0000     2.0000 </r>
       <r>   -22.5963     0.0000     2.0000 </r>
       <r>   -22.4913     0.0000     2.0000 </r>
       <r>   -22.3863     0.0000     2.0000 </r>
       <r>   -22.2813     0.0000     2.0000 </r>
       <r>   -22.1764     0.0000     2.0000 </r>
       <r>   -22.0714     0.0000     2.0000 </r>
       <r>   -21.9664     0.0000     2.0000 </r>
       <r>   -21.8614     0.0000     2.0000 </r>
       <r>   -21.7564     0.0000     2.0000 </r>
       <r>   -21.6514     0.0000     2.0000 </r>
       <r>   -21.5464     0.0000     2.0000 </r>
       <r>   -21.4415     0.0000     2.0000 </r>
       <r>   -21.3365     0.0000     2.0000 </r>
       <r>   -21.2315     0.0000     2.0000 </r>
       <r>   -21.1265     0.0000     2.0000 </r>
       <r>   -21.0215     0.0000     2.0000 </r>
       <r>   -20.9165     0.0000     2.0000 </r>
       <r>   -20.8116     0.0000     2.0000 </r>
       <r>   -20.7066     0.0000     2.0000 </r>
       <r>   -20.6016     0.0000     2.0000 </r>
       <r>   -20.4966     0.0000     2.0000 </r>
       <r>   -20.3916     0.0000     2.0000 </r>
       <r>   -20.2866     0.0000     2.0000 </r>
       <r>   -20.1817     0.0000     2.0000 </r>
       <r>   -20.0767     0.0000     2.0000 </r>
       <r>   -19.9717     0.0000     2.0000 </r>
       <r>   -19.8667     0.0000     2.0000 </r>
       <r>   -19.7617     0.0000     2.0000 </r>
       <r>   -19.6567     0.0000     2.0000 </r>
       <r>   -19.5517     0.0000     2.0000 </r>
       <r>   -19.4468     0.0000     2.0000 </r>
       <r>   -19.3418     0.0000     2.0000 </r>
       <r>   -19.2368     0.0000     2.0000 </r>
       <r>   -19.1318     0.0000     2.0000 </r>
       <r>   -19.0268     0.0000     2.0000 </r>
       <r>   -18.9218     0.0000     2.0000 </r>
       <r>   -18.8169     0.0000     2.0000 </r>
       <r>   -18.7119     0.0000     2.0000 </r>
       <r>   -18.6069     0.0000     2.0000 </r>
       <r>   -18.5019     0.0000     2.0000 </r>
       <r>   -18.3969     0.0000     2.0000 </r>
       <r>   -18.2919     0.0000     2.0000 </r>
       <r>   -18.1869     0.0000     2.0000 </r>
       <r>   -18.0820     0.0000     2.0000 </r>
       <r>   -17.9770     0.0000     2.0000 </r>
       <r>   -17.8720     0.0000     2.0000 </r>
       <r>   -17.7670     0.0000     2.0000 </r>
       <r>   -17.6620     0.0000     2.0000 </r>
       <r>   -17.5570     0.0000     2.0000 </r>
       <r>   -17.4521     0.0000     2.0000 </r>
       <r>   -17.3471     0.0000     2.0000 </r>
       <r>   -17.2421     0.0000     2.0000 </r>
       <r>   -17.1371     0.0000     2.0000 </r>
       <r>   -17.0321     0.0000     2.0000 </r>
       <r>   -16.9271     0.0000     2.0000 </r>
       <r>   -16.8222     0.0000     2.0000 </r>
       <r>   -16.7172     0.0000     2.0000 </r>
       <r>   -16.6122     0.0000     2.0000 </r>
       <r>   -16.5072     0.0000     2.0000 </r>
       <r>   -16.4022     0.0000     2.0000 </r>
       <r>   -16.2972     0.0000     2.0000 </r>
       <r>   -16.1922     0.0000     2.0000 </r>
       <r>   -16.0873     0.0000     2.0000 </r>
       <r>   -15.9823     0.0000     2.0000 </r>
       <r>   -15.8773     0.0000     2.0000 </r>
       <r>   -15.7723     0.0000     2.0000 </r>
       <r>   -15.6673     0.0000     2.0000 </r>
       <r>   -15.5623     0.0000     2.0000 </r>
       <r>   -15.4574     0.0000     2.0000 </r>
       <r>   -15.3524     0.0000     2.0000 </r>
       <r>   -15.2474     0.0000     2.0000 </r>
       <r>   -15.1424     0.0000     2.0000 </r>
       <r>   -15.0374     0.0000     2.0000 </r>
       <r>   -14.9324     0.0000     2.0000 </r>
       <r>   -14.8274     0.0000     2.0000 </r>
       <r>   -14.7225     0.0000     2.0000 </r>
       <r>   -14.6175     0.0000     2.0000 </r>
       <r>   -14.5125     0.0000     2.0000 </r>
       <r>   -14.4075     0.0000     2.0000 </r>
       <r>   -14.3025     0.0000     2.0000 </r>
       <r>   -14.1975     0.0000     2.0000 </r>
       <r>   -14.0926     0.0001     2.0000 </r>
       <r>   -13.9876     0.0024     2.0003 </r>
       <r>   -13.8826     0.0225     2.0026 </r>
       <r>   -13.7776     0.0646     2.0094 </r>
       <r>   -13.6726    -0.1881     1.9897 </r>
       <r>   -13.5676    -0.8224     1.9033 </r>
       <r>   -13.4627     1.6879     2.0805 </r>
       <r>   -13.3577     8.4662     2.9694 </r>
       <r>   -13.2527     8.7607     3.8891 </r>
       <r>   -13.1477     2.0055     4.0996 </r>
       <r>   -13.0427    -0.8180     4.0138 </r>
       <r>   -12.9377    -0.2229     3.9904 </r>
       <r>   -12.8327     0.0641     3.9971 </r>
       <r>   -12.7278     0.0247     3.9997 </r>
       <r>   -12.6228     0.0028     4.0000 </r>
       <r>   -12.5178     0.0001     4.0000 </r>
       <r>   -12.4128     0.0000     4.0000 </r>
       <r>   -12.3078     0.0000     4.0000 </r>
       <r>   -12.2028     0.0000     4.0000 </r>
       <r>   -12.0979     0.0000     4.0000 </r>
       <r>   -11.9929     0.0000     4.0000 </r>
       <r>   -11.8879     0.0001     4.0000 </r>
       <r>   -11.7829     0.0020     4.0002 </r>
       <r>   -11.6779     0.0200     4.0023 </r>
       <r>   -11.5729     0.0643     4.0091 </r>
       <r>   -11.4679    -0.1493     3.9934 </r>
       <r>   -11.3630    -0.8043     3.9090 </r>
       <r>   -11.2580     1.3910     4.0550 </r>
       <r>   -11.1530     8.0705     4.9023 </r>
       <r>   -11.0480     8.4322     5.7875 </r>
       <r>   -10.9430     2.5598     6.0563 </r>
       <r>   -10.8380     5.0339     6.5847 </r>
       <r>   -10.7331     8.8876     7.5178 </r>
       <r>   -10.6281     6.8614     8.2381 </r>
       <r>   -10.5231     8.6046     9.1415 </r>
       <r>   -10.4181     7.6208     9.9415 </r>
       <r>   -10.3131     1.3890    10.0874 </r>
       <r>   -10.2081    -0.7739    10.0061 </r>
       <r>   -10.1032    -0.1454     9.9909 </r>
       <r>    -9.9982     0.0648     9.9977 </r>
       <r>    -9.8932     0.0201     9.9998 </r>
       <r>    -9.7882     0.0021    10.0000 </r>
       <r>    -9.6832     0.0001    10.0000 </r>
       <r>    -9.5782     0.0000    10.0000 </r>
       <r>    -9.4732     0.0000    10.0000 </r>
       <r>    -9.3683     0.0000    10.0000 </r>
       <r>    -9.2633     0.0000    10.0000 </r>
       <r>    -9.1583     0.0000    10.0000 </r>
       <r>    -9.0533     0.0000    10.0000 </r>
       <r>    -8.9483     0.0000    10.0000 </r>
       <r>    -8.8433     0.0000    10.0000 </r>
       <r>    -8.7384     0.0000    10.0000 </r>
       <r>    -8.6334     0.0000    10.0000 </r>
       <r>    -8.5284     0.0000    10.0000 </r>
       <r>    -8.4234     0.0000    10.0000 </r>
       <r>    -8.3184     0.0000    10.0000 </r>
       <r>    -8.2134     0.0000    10.0000 </r>
       <r>    -8.1084     0.0000    10.0000 </r>
       <r>    -8.0035     0.0000    10.0000 </r>
       <r>    -7.8985     0.0000    10.0000 </r>
       <r>    -7.7935     0.0000    10.0000 </r>
       <r>    -7.6885     0.0000    10.0000 </r>
       <r>    -7.5835     0.0000    10.0000 </r>
       <r>    -7.4785     0.0000    10.0000 </r>
       <r>    -7.3736     0.0004    10.0000 </r>
       <r>    -7.2686     0.0059    10.0007 </r>
       <r>    -7.1636     0.0393    10.0048 </r>
       <r>    -7.0586     0.0439    10.0094 </r>
       <r>    -6.9536    -0.4305     9.9642 </r>
       <r>    -6.8486    -0.4939     9.9123 </r>
       <r>    -6.7437     4.0344    10.3359 </r>
       <r>    -6.6387     9.0349    11.2844 </r>
       <r>    -6.5337     6.2422    11.9398 </r>
       <r>    -6.4287     7.6898    12.7471 </r>
       <r>    -6.3237    16.0711    14.4343 </r>
       <r>    -6.2187    23.6564    16.9178 </r>
       <r>    -6.1137    28.9424    19.9563 </r>
       <r>    -6.0088    17.4686    21.7903 </r>
       <r>    -5.9038    14.4328    23.3055 </r>
       <r>    -5.7988    45.0958    28.0398 </r>
       <r>    -5.6938    95.8502    38.1026 </r>
       <r>    -5.5888   180.3058    57.0319 </r>
       <r>    -5.4838   274.2471    85.8235 </r>
       <r>    -5.3789   278.8901   115.1026 </r>
       <r>    -5.2739   219.9144   138.1902 </r>
       <r>    -5.1689   226.9408   162.0155 </r>
       <r>    -5.0639   308.2827   194.3803 </r>
       <r>    -4.9589   353.6770   231.5109 </r>
       <r>    -4.8539   309.6781   264.0222 </r>
       <r>    -4.7490   295.8969   295.0868 </r>
       <r>    -4.6440   379.9592   334.9766 </r>
       <r>    -4.5390   427.2661   379.8328 </r>
       <r>    -4.4340   430.6455   425.0439 </r>
       <r>    -4.3290   513.9576   479.0014 </r>
       <r>    -4.2240   545.0939   536.2277 </r>
       <r>    -4.1190   341.2078   572.0492 </r>
       <r>    -4.0141    84.5922   580.9300 </r>
       <r>    -3.9091     3.1905   581.2650 </r>
       <r>    -3.8041    25.0663   583.8966 </r>
       <r>    -3.6991    26.3555   586.6635 </r>
       <r>    -3.5941    17.0956   588.4582 </r>
       <r>    -3.4891    19.9395   590.5516 </r>
       <r>    -3.3842    16.5709   592.2913 </r>
       <r>    -3.2792     7.0294   593.0293 </r>
       <r>    -3.1742    12.7888   594.3719 </r>
       <r>    -3.0692    44.6346   599.0578 </r>
       <r>    -2.9642    57.9962   605.1465 </r>
       <r>    -2.8592    27.1173   607.9934 </r>
       <r>    -2.7542     4.3852   608.4538 </r>
       <r>    -2.6493    16.6710   610.2040 </r>
       <r>    -2.5443    31.5487   613.5161 </r>
       <r>    -2.4393    21.7913   615.8038 </r>
       <r>    -2.3343     6.2099   616.4558 </r>
       <r>    -2.2293    10.0698   617.5129 </r>
       <r>    -2.1243    31.2496   620.7937 </r>
       <r>    -2.0194    47.8931   625.8217 </r>
       <r>    -1.9144    40.2140   630.0435 </r>
       <r>    -1.8094    24.9560   632.6635 </r>
       <r>    -1.7044    33.3296   636.1626 </r>
       <r>    -1.5994    52.9948   641.7262 </r>
       <r>    -1.4944    39.0070   645.8214 </r>
       <r>    -1.3895    14.1514   647.3070 </r>
       <r>    -1.2845    10.9861   648.4604 </r>
       <r>    -1.1795    15.5491   650.0928 </r>
       <r>    -1.0745    31.9899   653.4512 </r>
       <r>    -0.9695    62.8982   660.0546 </r>
       <r>    -0.8645    65.7762   666.9600 </r>
       <r>    -0.7595    31.7092   670.2890 </r>
       <r>    -0.6546     9.8677   671.3250 </r>
       <r>    -0.5496     5.6633   671.9195 </r>
       <r>    -0.4446     1.3274   672.0589 </r>
       <r>    -0.3396    -0.5640   671.9997 </r>
       <r>    -0.2346    -0.0955   671.9896 </r>
       <r>    -0.1296     0.0741   671.9974 </r>
       <r>    -0.0247     0.0221   671.9997 </r>
       <r>     0.0803     0.0023   672.0000 </r>
       <r>     0.1853     0.0001   672.0000 </r>
       <r>     0.2903     0.0000   672.0000 </r>
       <r>     0.3953     0.0000   672.0000 </r>
       <r>     0.5003     0.0000   672.0000 </r>
       <r>     0.6053     0.0000   672.0000 </r>
       <r>     0.7102     0.0000   672.0000 </r>
       <r>     0.8152     0.0000   672.0000 </r>
       <r>     0.9202     0.0000   672.0000 </r>
       <r>     1.0252     0.0000   672.0000 </r>
       <r>     1.1302     0.0000   672.0000 </r>
       <r>     1.2352     0.0000   672.0000 </r>
       <r>     1.3401     0.0000   672.0000 </r>
      </set>
     </set>
    </array>
   </total>
  </dos>
 </calculation>
 <structure name="finalpos" >
  <crystal>
   <varray name="basis" >
    <v>      30.00000000       0.00000000       0.00000000 </v>
    <v>       0.00000000      30.00000000       0.00000000 </v>
    <v>       0.00000000       0.00000000      30.00000000 </v>
   </varray>
   <i name="volume">  27000.00000000 </i>
   <varray name="rec_basis" >
    <v>       0.03333333       0.00000000       0.00000000 </v>
    <v>       0.00000000       0.03333333       0.00000000 </v>
    <v>       0.00000000       0.00000000       0.03333333 </v>
   </varray>
  </crystal>
  <varray name="positions" >
   <v>       0.44576020       0.32826710       0.41691983 </v>
   <v>       0.67173288       0.55423978       0.41691983 </v>
   <v>       0.55423980       0.32826710       0.41691983 </v>
   <v>       0.32826712       0.55423978       0.41691983 </v>
   <v>       0.50000000       0.38250690       0.34021317 </v>
   <v>       0.50000000       0.38250690       0.65978680 </v>
   <v>       0.50000000       0.27609440       0.50000000 </v>
   <v>       0.27609443       0.49999998       0.50000000 </v>
   <v>       0.72390557       0.49999998       0.50000000 </v>
   <v>       0.50000000       0.72390555       0.50000000 </v>
   <v>       0.61195280       0.38804720       0.34167483 </v>
   <v>       0.61195280       0.38804720       0.65832513 </v>
   <v>       0.38804722       0.61195278       0.34167483 </v>
   <v>       0.38804722       0.61195278       0.65832513 </v>
   <v>       0.38804720       0.38804720       0.34167483 </v>
   <v>       0.38804720       0.38804720       0.65832513 </v>
   <v>       0.61195278       0.61195278       0.34167483 </v>
   <v>       0.61195278       0.61195278       0.65832513 </v>
   <v>       0.44576020       0.32826710       0.58308023 </v>
   <v>       0.67173288       0.55423978       0.58308023 </v>
   <v>       0.55791699       0.44208301       0.41809300 </v>
   <v>       0.32826705       0.44576024       0.41691983 </v>
   <v>       0.55423973       0.67173293       0.41691983 </v>
   <v>       0.55423980       0.32826710       0.58308023 </v>
   <v>       0.32826712       0.55423978       0.58308023 </v>
   <v>       0.67173295       0.44576024       0.41691983 </v>
   <v>       0.44576027       0.67173293       0.41691983 </v>
   <v>       0.44208301       0.44208301       0.41809300 </v>
   <v>       0.50000000       0.38416601       0.50000000 </v>
   <v>       0.61749315       0.50000005       0.34021317 </v>
   <v>       0.61749315       0.50000005       0.65978680 </v>
   <v>       0.38250685       0.50000005       0.34021317 </v>
   <v>       0.38250685       0.50000005       0.65978680 </v>
   <v>       0.38317830       0.38317830       0.50000000 </v>
   <v>       0.61682172       0.61682172       0.50000000 </v>
   <v>       0.61682170       0.38317830       0.50000000 </v>
   <v>       0.38317828       0.61682172       0.50000000 </v>
   <v>       0.50000000       0.50000000       0.33478917 </v>
   <v>       0.50000000       0.50000000       0.66521087 </v>
   <v>       0.32826705       0.44576024       0.58308023 </v>
   <v>       0.55423973       0.67173293       0.58308023 </v>
   <v>       0.55791699       0.44208301       0.58190703 </v>
   <v>       0.44208298       0.55791702       0.41809300 </v>
   <v>       0.44208301       0.44208301       0.58190703 </v>
   <v>       0.67173295       0.44576024       0.58308023 </v>
   <v>       0.44576027       0.67173293       0.58308023 </v>
   <v>       0.55791702       0.55791702       0.41809300 </v>
   <v>       0.38416599       0.50000002       0.50000000 </v>
   <v>       0.61583401       0.50000002       0.50000000 </v>
   <v>       0.50000000       0.61749319       0.34021317 </v>
   <v>       0.50000000       0.61749319       0.65978680 </v>
   <v>       0.50000000       0.50000000       0.50000000 </v>
   <v>       0.44208298       0.55791702       0.58190703 </v>
   <v>       0.55791702       0.55791702       0.58190703 </v>
   <v>       0.50000000       0.61583404       0.50000000 </v>
   <v>       0.50952407       0.29431103       0.38904853 </v>
   <v>       0.51105510       0.26124593       0.37121277 </v>
  </varray>
  <varray name="selective"  type="logical" >
   <v type="logical" >  F  F  F </v>
   <v type="logical" >  F  F  F </v>
   <v type="logical" >  F  F  F </v>
   <v type="logical" >  F  F  F </v>
   <v type="logical" >  F  F  F </v>
   <v type="logical" >  F  F  F </v>
   <v type="logical" >  F  F  F </v>
   <v type="logical" >  F  F  F </v>
   <v type="logical" >  F  F  F </v>
   <v type="logical" >  F  F  F </v>
   <v type="logical" >  F  F  F </v>
   <v type="logical" >  F  F  F </v>
   <v type="logical" >  F  F  F </v>
   <v type="logical" >  F  F  F </v>
   <v type="logical" >  F  F  F </v>
   <v type="logical" >  F  F  F </v>
   <v type="logical" >  F  F  F </v>
   <v type="logical" >  F  F  F </v>
   <v type="logical" >  F  F  F </v>
   <v type="logical" >  F  F  F </v>
   <v type="logical" >  F  F  F </v>
   <v type="logical" >  F  F  F </v>
   <v type="logical" >  F  F  F </v>
   <v type="logical" >  F  F  F </v>
   <v type="logical" >  F  F  F </v>
   <v type="logical" >  F  F  F </v>
   <v type="logical" >  F  F  F </v>
   <v type="logical" >  F  F  F </v>
   <v type="logical" >  F  F  F </v>
   <v type="logical" >  F  F  F </v>
   <v type="logical" >  F  F  F </v>
   <v type="logical" >  F  F  F </v>
   <v type="logical" >  F  F  F </v>
   <v type="logical" >  F  F  F </v>
   <v type="logical" >  F  F  F </v>
   <v type="logical" >  F  F  F </v>
   <v type="logical" >  F  F  F </v>
   <v type="logical" >  F  F  F </v>
   <v type="logical" >  F  F  F </v>
   <v type="logical" >  F  F  F </v>
   <v type="logical" >  F  F  F </v>
   <v type="logical" >  F  F  F </v>
   <v type="logical" >  F  F  F </v>
   <v type="logical" >  F  F  F </v>
   <v type="logical" >  F  F  F </v>
   <v type="logical" >  F  F  F </v>
   <v type="logical" >  F  F  F </v>
   <v type="logical" >  F  F  F </v>
   <v type="logical" >  F  F  F </v>
   <v type="logical" >  F  F  F </v>
   <v type="logical" >  F  F  F </v>
   <v type="logical" >  F  F  F </v>
   <v type="logical" >  F  F  F </v>
   <v type="logical" >  F  F  F </v>
   <v type="logical" >  F  F  F </v>
   <v type="logical" >  F  F  F </v>
   <v type="logical" >  F  F  F </v>
  </varray>
  <nose>
   <v>      -3.00000000       0.00000000       0.00010000       0.00010000 </v>
  </nose>
 </structure>
</modeling>
