   57   57    1    1
  0.4736842E+03  0.3000000E-08  0.3000000E-08  0.3000000E-08  0.5000000E-15
  1.000000000000000E-004
  CAR 
 6_Pd100_top_free_z(O)                   
    560      1    336
 
  0.0000000E+00  0.0000000E+00  0.0000000E+00  0.1000000E+01
    1      -29.188044   1.000000
    2      -13.713519   1.000000
    3      -11.487981   1.000000
    4      -11.487577   1.000000
    5       -9.477127   1.000000
    6       -6.623102   1.000000
    7       -6.106121   1.000000
    8       -6.105807   1.000000
    9       -6.098642   1.000000
   10       -5.792010   1.000000
   11       -5.791785   1.000000
   12       -5.789725   1.000000
   13       -5.723044   1.000000
   14       -5.671181   1.000000
   15       -5.662694   1.000000
   16       -5.662643   1.000000
   17       -5.662364   1.000000
   18       -5.600730   1.000000
   19       -5.599020   1.000000
   20       -5.584767   1.000000
   21       -5.574598   1.000000
   22       -5.574569   1.000000
   23       -5.573614   1.000000
   24       -5.532923   1.000000
   25       -5.531091   1.000000
   26       -5.529984   1.000000
   27       -5.526023   1.000000
   28       -5.499021   1.000000
   29       -5.498874   1.000000
   30       -5.497676   1.000000
   31       -5.494238   1.000000
   32       -5.492691   1.000000
   33       -5.492505   1.000000
   34       -5.491941   1.000000
   35       -5.489590   1.000000
   36       -5.456277   1.000000
   37       -5.455684   1.000000
   38       -5.449827   1.000000
   39       -5.449214   1.000000
   40       -5.445887   1.000000
   41       -5.444943   1.000000
   42       -5.444747   1.000000
   43       -5.444656   1.000000
   44       -5.413471   1.000000
   45       -5.411968   1.000000
   46       -5.406890   1.000000
   47       -5.406336   1.000000
   48       -5.404552   1.000000
   49       -5.404132   1.000000
   50       -5.403807   1.000000
   51       -5.400408   1.000000
   52       -5.386580   1.000000
   53       -5.384184   1.000000
   54       -5.384117   1.000000
   55       -5.369333   1.000000
   56       -5.308853   1.000000
   57       -5.308666   1.000000
   58       -5.308197   1.000000
   59       -5.305276   1.000000
   60       -5.294026   1.000000
   61       -5.293643   1.000000
   62       -5.293594   1.000000
   63       -5.281557   1.000000
   64       -5.280621   1.000000
   65       -5.278536   1.000000
   66       -5.269597   1.000000
   67       -5.265949   1.000000
   68       -5.196001   1.000000
   69       -5.192236   1.000000
   70       -5.188205   1.000000
   71       -5.186015   1.000000
   72       -5.158372   1.000000
   73       -5.157227   1.000000
   74       -5.156528   1.000000
   75       -5.154580   1.000000
   76       -5.151353   1.000000
   77       -5.143116   1.000000
   78       -5.141322   1.000000
   79       -5.141215   1.000000
   80       -5.124694   1.000000
   81       -5.104877   1.000000
   82       -5.101274   1.000000
   83       -5.101114   1.000000
   84       -5.093054   1.000000
   85       -5.081859   1.000000
   86       -5.081719   1.000000
   87       -5.079706   1.000000
   88       -5.041104   1.000000
   89       -5.037599   1.000000
   90       -5.036134   1.000000
   91       -5.035791   1.000000
   92       -5.032871   1.000000
   93       -5.031570   1.000000
   94       -5.025422   1.000000
   95       -5.025299   1.000000
   96       -5.024265   1.000000
   97       -5.022167   1.000000
   98       -5.004582   1.000000
   99       -4.995401   1.000000
  100       -4.995052   1.000000
  101       -4.982865   1.000000
  102       -4.982464   1.000000
  103       -4.982449   1.000000
  104       -4.973885   1.000000
  105       -4.973813   1.000000
  106       -4.968182   1.000000
  107       -4.957622   1.000000
  108       -4.956990   1.000000
  109       -4.956899   1.000000
  110       -4.950258   1.000000
  111       -4.945855   1.000000
  112       -4.945786   1.000000
  113       -4.940373   1.000000
  114       -4.933738   0.999999
  115       -4.930463   0.999999
  116       -4.930392   0.999999
  117       -4.918378   0.999999
  118       -4.895821   0.999998
  119       -4.894914   0.999998
  120       -4.894312   0.999998
  121       -4.891779   0.999997
  122       -4.889862   0.999997
  123       -4.884538   0.999997
  124       -4.881523   0.999996
  125       -4.878966   0.999996
  126       -4.878873   0.999996
  127       -4.833311   0.999984
  128       -4.830155   0.999982
  129       -4.826462   0.999980
  130       -4.821636   0.999977
  131       -4.820171   0.999976
  132       -4.818237   0.999974
  133       -4.808569   0.999966
  134       -4.808507   0.999966
  135       -4.807248   0.999965
  136       -4.783695   0.999932
  137       -4.774401   0.999913
  138       -4.771117   0.999905
  139       -4.768369   0.999898
  140       -4.765298   0.999890
  141       -4.757935   0.999867
  142       -4.737485   0.999779
  143       -4.714514   0.999623
  144       -4.714464   0.999622
  145       -4.713706   0.999616
  146       -4.709016   0.999573
  147       -4.704879   0.999533
  148       -4.685759   0.999301
  149       -4.685399   0.999296
  150       -4.681802   0.999243
  151       -4.669444   0.999036
  152       -4.659647   0.998842
  153       -4.655332   0.998748
  154       -4.652609   0.998686
  155       -4.652372   0.998681
  156       -4.650407   0.998634
  157       -4.649409   0.998610
  158       -4.649384   0.998610
  159       -4.639568   0.998358
  160       -4.631707   0.998135
  161       -4.628138   0.998027
  162       -4.627560   0.998010
  163       -4.626494   0.997977
  164       -4.626122   0.997965
  165       -4.622460   0.997849
  166       -4.622343   0.997846
  167       -4.619380   0.997749
  168       -4.617554   0.997689
  169       -4.606870   0.997319
  170       -4.604796   0.997244
  171       -4.594255   0.996855
  172       -4.589904   0.996692
  173       -4.578662   0.996271
  174       -4.574187   0.996107
  175       -4.574101   0.996104
  176       -4.570996   0.995993
  177       -4.570354   0.995970
  178       -4.564489   0.995770
  179       -4.562220   0.995696
  180       -4.562077   0.995691
  181       -4.549986   0.995348
  182       -4.532094   0.995073
  183       -4.529924   0.995066
  184       -4.529469   0.995065
  185       -4.528867   0.995065
  186       -4.528005   0.995065
  187       -4.527906   0.995066
  188       -4.527837   0.995066
  189       -4.525723   0.995073
  190       -4.525474   0.995074
  191       -4.486495   0.996955
  192       -4.483720   0.997251
  193       -4.483216   0.997308
  194       -4.480598   0.997617
  195       -4.480266   0.997658
  196       -4.467765   0.999500
  197       -4.457885   1.001403
  198       -4.457584   1.001467
  199       -4.454344   1.002187
  200       -4.445303   1.004443
  201       -4.444676   1.004613
  202       -4.437159   1.006793
  203       -4.433429   1.007971
  204       -4.433196   1.008046
  205       -4.425439   1.010704
  206       -4.424269   1.011128
  207       -4.424195   1.011155
  208       -4.423144   1.011541
  209       -4.423112   1.011553
  210       -4.416107   1.014245
  211       -4.401917   1.020265
  212       -4.388218   1.026619
  213       -4.385490   1.027923
  214       -4.385193   1.028065
  215       -4.384546   1.028375
  216       -4.379946   1.030589
  217       -4.377801   1.031622
  218       -4.377335   1.031846
  219       -4.375795   1.032586
  220       -4.353176   1.042860
  221       -4.351562   1.043513
  222       -4.338102   1.048217
  223       -4.322839   1.051300
  224       -4.321020   1.051458
  225       -4.315220   1.051610
  226       -4.314895   1.051602
  227       -4.314017   1.051570
  228       -4.312962   1.051513
  229       -4.312855   1.051506
  230       -4.309677   1.051205
  231       -4.305661   1.050542
  232       -4.305188   1.050443
  233       -4.301142   1.049394
  234       -4.299501   1.048866
  235       -4.298126   1.048376
  236       -4.297489   1.048134
  237       -4.297205   1.048023
  238       -4.295903   1.047489
  239       -4.293370   1.046334
  240       -4.293315   1.046307
  241       -4.279937   1.037392
  242       -4.276460   1.034245
  243       -4.268522   1.025661
  244       -4.268173   1.025237
  245       -4.261562   1.016447
  246       -4.260199   1.014449
  247       -4.259971   1.014110
  248       -4.259464   1.013346
  249       -4.254066   1.004657
  250       -4.247771   0.993196
  251       -4.239042   0.974864
  252       -4.232631   0.959552
  253       -4.232461   0.959125
  254       -4.231813   0.957483
  255       -4.225822   0.941549
  256       -4.225520   0.940708
  257       -4.225139   0.939642
  258       -4.221768   0.929974
  259       -4.219494   0.923204
  260       -4.219477   0.923153
  261       -4.213772   0.905290
  262       -4.212568   0.901359
  263       -4.212539   0.901266
  264       -4.212245   0.900295
  265       -4.209420   0.890827
  266       -4.197545   0.847788
  267       -4.194872   0.837401
  268       -4.194308   0.835179
  269       -4.193925   0.833662
  270       -4.191099   0.822322
  271       -4.190227   0.818768
  272       -4.189080   0.814056
  273       -4.169102   0.725513
  274       -4.167666   0.718721
  275       -4.167639   0.718594
  276       -4.157604   0.669823
  277       -4.157362   0.668622
  278       -4.152118   0.642305
  279       -4.145114   0.606477
  280       -4.144769   0.604696
  281       -4.144293   0.602232
  282       -4.130609   0.530590
  283       -4.105746   0.399811
  284       -4.105258   0.397289
  285       -4.104847   0.395161
  286       -4.100887   0.374800
  287       -4.089943   0.319810
  288       -4.086278   0.301901
  289       -4.069613   0.224600
  290       -3.944012  -0.050536
  291       -3.874747  -0.033017
  292       -3.795712  -0.002282
  293       -3.795299  -0.002187
  294       -3.793739  -0.001834
  295       -3.468579   0.000073
  296       -3.468402   0.000072
  297       -3.413440   0.000015
  298       -3.033285   0.000000
  299       -3.032795   0.000000
  300       -2.998792   0.000000
  301       -2.991094   0.000000
  302       -2.989792   0.000000
  303       -2.989432   0.000000
  304       -2.906687   0.000000
  305       -2.853401   0.000000
  306       -2.537618   0.000000
  307       -2.532248   0.000000
  308       -2.495337   0.000000
  309       -2.258227   0.000000
  310       -2.101586   0.000000
  311       -2.100033   0.000000
  312       -2.094284   0.000000
  313       -1.935210   0.000000
  314       -1.928950   0.000000
  315       -1.873642   0.000000
  316       -1.850484   0.000000
  317       -1.826150   0.000000
  318       -1.770970   0.000000
  319       -1.761680   0.000000
  320       -1.702395   0.000000
  321       -1.620502   0.000000
  322       -1.528788   0.000000
  323       -1.507288   0.000000
  324       -1.483245   0.000000
  325       -1.481165   0.000000
  326       -1.147234   0.000000
  327       -1.142489   0.000000
  328       -1.057983   0.000000
  329       -0.966073   0.000000
  330       -0.963037   0.000000
  331       -0.953334   0.000000
  332       -0.919064   0.000000
  333       -0.909900   0.000000
  334       -0.894317   0.000000
  335       -0.787121   0.000000
  336       -0.657667   0.000000
