 vasp.5.4.4.18Apr17-6-g9f103f2a35 (build Sep 03 2018 23:53:05) complex          
  
 executed on             LinuxIFC date 2021.12.01  15:44:39
 running on    1 total cores
 distrk:  each k-point on    1 cores,    1 groups
 distr:  one band on NCORES_PER_BAND=   1 cores,    1 groups


--------------------------------------------------------------------------------------------------------


 INCAR:
 POTCAR:    PAW_PBE Pd 04Jan2005                  
 POTCAR:    PAW_PBE C 08Apr2002                   
 POTCAR:    PAW_PBE O 08Apr2002                   
 POTCAR:    PAW_PBE Pd 04Jan2005                  
   VRHFIN =Pd : s1 d9                                                           
   LEXCH  = PE                                                                  
   EATOM  =   809.7530 eV,   59.5152 Ry                                         
                                                                                
   TITEL  = PAW_PBE Pd 04Jan2005                                                
   LULTRA =        F    use ultrasoft PP ?                                      
   IUNSCR =        1    unscreen: 0-lin 1-nonlin 2-no                           
   RPACOR =    2.000    partial core radius                                     
   POMASS =  106.420; ZVAL   =   10.000    mass and valenz                      
   RCORE  =    2.600    outmost cutoff radius                                   
   RWIGS  =    2.710; RWIGS  =    1.434    wigner-seitz radius (au A)           
   ENMAX  =  250.925; ENMIN  =  188.194 eV                                      
   ICORE  =        3    local potential                                         
   LCOR   =        T    correct aug charges                                     
   LPAW   =        T    paw PP                                                  
   EAUG   =  416.230                                                            
   DEXC   =    0.000                                                            
   RMAX   =    2.653    core radius for proj-oper                               
   RAUG   =    1.300    factor for augmentation sphere                          
   RDEP   =    2.734    radius for radial grids                                 
   RDEPT  =    2.103    core radius for aug-charge                              
                                                                                
   Atomic configuration                                                         
   12 entries                                                                   
     n  l   j            E        occ.                                          
     1  0  0.50    -24164.6631   2.0000                                         
     2  0  0.50     -3530.9218   2.0000                                         
     2  1  1.50     -3165.6822   6.0000                                         
     3  0  0.50      -639.4577   2.0000                                         
     3  1  1.50      -519.4532   6.0000                                         
     3  2  2.50      -328.9757  10.0000                                         
     4  0  0.50       -88.7014   2.0000                                         
     4  1  1.50       -54.4540   6.0000                                         
     4  2  2.50        -6.6878   9.0000                                         
     5  0  0.50        -4.3543   1.0000                                         
     5  1  0.50        -1.3606   0.0000                                         
     4  3  2.50        -1.3606   0.0000                                         
   Description                                                                  
     l       E           TYP  RCUT    TYP  RCUT                                 
     2     -6.6878251     23  2.400                                             
     2     -8.0484077     23  2.400                                             
     0     -4.3542939     23  2.400                                             
     0      4.3406793     23  2.400                                             
     1     -4.0817478     23  2.600                                             
     1     15.8380318     23  2.600                                             
     3     -4.0817478     23  2.400                                             
  local pseudopotential read in
  partial core-charges read in
  partial kinetic energy density read in
  atomic valenz-charges read in
  non local Contribution for L=           2  read in
    real space projection operators read in
  non local Contribution for L=           2  read in
    real space projection operators read in
  non local Contribution for L=           0  read in
    real space projection operators read in
  non local Contribution for L=           0  read in
    real space projection operators read in
  non local Contribution for L=           1  read in
    real space projection operators read in
  non local Contribution for L=           1  read in
    real space projection operators read in
    PAW grid and wavefunctions read in
 
   number of l-projection  operators is LMAX  =           6
   number of lm-projection operators is LMMAX =          18
 
 POTCAR:    PAW_PBE C 08Apr2002                   
   VRHFIN =C: s2p2                                                              
   LEXCH  = PE                                                                  
   EATOM  =   147.1560 eV,   10.8157 Ry                                         
                                                                                
   TITEL  = PAW_PBE C 08Apr2002                                                 
   LULTRA =        F    use ultrasoft PP ?                                      
   IUNSCR =        1    unscreen: 0-lin 1-nonlin 2-no                           
   RPACOR =    1.200    partial core radius                                     
   POMASS =   12.011; ZVAL   =    4.000    mass and valenz                      
   RCORE  =    1.500    outmost cutoff radius                                   
   RWIGS  =    1.630; RWIGS  =    0.863    wigner-seitz radius (au A)           
   ENMAX  =  400.000; ENMIN  =  300.000 eV                                      
   ICORE  =        2    local potential                                         
   LCOR   =        T    correct aug charges                                     
   LPAW   =        T    paw PP                                                  
   EAUG   =  644.873                                                            
   DEXC   =    0.000                                                            
   RMAX   =    1.529    core radius for proj-oper                               
   RAUG   =    1.300    factor for augmentation sphere                          
   RDEP   =    1.501    radius for radial grids                                 
   RDEPT  =    1.300    core radius for aug-charge                              
                                                                                
   Atomic configuration                                                         
    4 entries                                                                   
     n  l   j            E        occ.                                          
     1  0  0.50      -273.3789   2.0000                                         
     2  0  0.50       -13.7508   2.0000                                         
     2  1  0.50        -5.2854   2.0000                                         
     3  2  1.50        -5.4423   0.0000                                         
   Description                                                                  
     l       E           TYP  RCUT    TYP  RCUT                                 
     0    -13.7508458     23  1.200                                             
     0     -8.2022199     23  1.200                                             
     1     -5.2854383     23  1.500                                             
     1     34.0145650     23  1.500                                             
     2     -5.4423304      7  1.500                                             
  local pseudopotential read in
  partial core-charges read in
  partial kinetic energy density read in
  atomic valenz-charges read in
  non local Contribution for L=           0  read in
    real space projection operators read in
  non local Contribution for L=           0  read in
    real space projection operators read in
  non local Contribution for L=           1  read in
    real space projection operators read in
  non local Contribution for L=           1  read in
    real space projection operators read in
    PAW grid and wavefunctions read in
 
   number of l-projection  operators is LMAX  =           4
   number of lm-projection operators is LMMAX =           8
 
 POTCAR:    PAW_PBE O 08Apr2002                   
   VRHFIN =O: s2p4                                                              
   LEXCH  = PE                                                                  
   EATOM  =   432.3788 eV,   31.7789 Ry                                         
                                                                                
   TITEL  = PAW_PBE O 08Apr2002                                                 
   LULTRA =        F    use ultrasoft PP ?                                      
   IUNSCR =        1    unscreen: 0-lin 1-nonlin 2-no                           
   RPACOR =    1.200    partial core radius                                     
   POMASS =   16.000; ZVAL   =    6.000    mass and valenz                      
   RCORE  =    1.520    outmost cutoff radius                                   
   RWIGS  =    1.550; RWIGS  =    0.820    wigner-seitz radius (au A)           
   ENMAX  =  400.000; ENMIN  =  300.000 eV                                      
   ICORE  =        2    local potential                                         
   LCOR   =        T    correct aug charges                                     
   LPAW   =        T    paw PP                                                  
   EAUG   =  605.392                                                            
   DEXC   =    0.000                                                            
   RMAX   =    1.553    core radius for proj-oper                               
   RAUG   =    1.300    factor for augmentation sphere                          
   RDEP   =    1.550    radius for radial grids                                 
   RDEPT  =    1.329    core radius for aug-charge                              
                                                                                
   Atomic configuration                                                         
    4 entries                                                                   
     n  l   j            E        occ.                                          
     1  0  0.50      -514.6923   2.0000                                         
     2  0  0.50       -23.9615   2.0000                                         
     2  1  0.50        -9.0305   4.0000                                         
     3  2  1.50        -9.5241   0.0000                                         
   Description                                                                  
     l       E           TYP  RCUT    TYP  RCUT                                 
     0    -23.9615318     23  1.200                                             
     0     -9.5240782     23  1.200                                             
     1     -9.0304911     23  1.520                                             
     1      8.1634956     23  1.520                                             
     2     -9.5240782      7  1.500                                             
  local pseudopotential read in
  partial core-charges read in
  partial kinetic energy density read in
  kinetic energy density of atom read in
  atomic valenz-charges read in
  non local Contribution for L=           0  read in
    real space projection operators read in
  non local Contribution for L=           0  read in
    real space projection operators read in
  non local Contribution for L=           1  read in
    real space projection operators read in
  non local Contribution for L=           1  read in
    real space projection operators read in
    PAW grid and wavefunctions read in
 
   number of l-projection  operators is LMAX  =           4
   number of lm-projection operators is LMMAX =           8
 
 Optimization of the real space projectors (new method)

 maximal supplied QI-value         = 14.36
 optimisation between [QCUT,QGAM] = [ 10.20, 20.39] = [ 29.12,116.47] Ry 
 Optimized for a Real-space Cutoff    1.51 Angstroem

   l    n(q)    QCUT    max X(q) W(low)/X(q) W(high)/X(q)  e(spline) 
   2      8    10.197    59.108    0.26E-03    0.14E-03    0.96E-07
   2      8    10.197    58.101    0.27E-03    0.14E-03    0.98E-07
   0      9    10.197   102.235    0.54E-04    0.60E-05    0.72E-07
   0      9    10.197    58.388    0.52E-04    0.60E-05    0.68E-07
   1      9    10.197    22.191    0.18E-03    0.25E-03    0.79E-07
   1      9    10.197    15.590    0.15E-03    0.21E-03    0.69E-07
 Optimization of the real space projectors (new method)

 maximal supplied QI-value         = 25.13
 optimisation between [QCUT,QGAM] = [ 10.05, 20.36] = [ 28.30,116.06] Ry 
 Optimized for a Real-space Cutoff    1.30 Angstroem

   l    n(q)    QCUT    max X(q) W(low)/X(q) W(high)/X(q)  e(spline) 
   0      8    10.053   115.676    0.49E-03    0.72E-03    0.18E-06
   0      8    10.053    87.132    0.49E-03    0.71E-03    0.18E-06
   1      7    10.053     4.429    0.32E-03    0.31E-03    0.18E-06
   1      7    10.053     2.733    0.23E-03    0.19E-03    0.20E-06
 Optimization of the real space projectors (new method)

 maximal supplied QI-value         = 24.76
 optimisation between [QCUT,QGAM] = [ 10.15, 20.30] = [ 28.85,115.39] Ry 
 Optimized for a Real-space Cutoff    1.38 Angstroem

   l    n(q)    QCUT    max X(q) W(low)/X(q) W(high)/X(q)  e(spline) 
   0      8    10.150    20.381    0.22E-03    0.32E-03    0.29E-06
   0      8    10.150    15.268    0.23E-03    0.35E-03    0.30E-06
   1      8    10.150     5.964    0.46E-03    0.53E-03    0.21E-06
   1      8    10.150     5.382    0.38E-03    0.45E-03    0.19E-06

 ----------------------------------------------------------------------------- 
|                                                                             |
|  ADVICE TO THIS USER RUNNING 'VASP/VAMP'   (HEAR YOUR MASTER'S VOICE ...):  |
|                                                                             |
|      You enforced a specific xc-type in the INCAR file,                     |
|      a different type was found on the POTCAR file                          |
|          I HOPE YOU KNOW, WHAT YOU ARE  DOING                               |
|                                                                             |
 ----------------------------------------------------------------------------- 

  PAW_PBE Pd 04Jan2005                  :
 energy of atom  1       EATOM= -809.7530
 kinetic energy error for atom=    0.0091 (will be added to EATOM!!)
  PAW_PBE C 08Apr2002                   :
 energy of atom  2       EATOM= -147.1560
 kinetic energy error for atom=    0.0288 (will be added to EATOM!!)
  PAW_PBE O 08Apr2002                   :
 energy of atom  3       EATOM= -432.3788
 kinetic energy error for atom=    0.1156 (will be added to EATOM!!)
 
 
 POSCAR: Pd55PES                                 
  positions in cartesian coordinates
  No initial velocities read in
 exchange correlation table for  LEXCH =        9
   RHO(1)=    0.500       N(1)  =     2000
   RHO(2)=  100.500       N(2)  =     4000
 


--------------------------------------------------------------------------------------------------------


 ion  position               nearest neighbor table
   1  0.446  0.328  0.417-   3 3.25   5 3.25   7 3.36  15 3.36  29 3.42  28 3.42
   2  0.672  0.554  0.417-  26 3.25  30 3.25  17 3.36   9 3.36  47 3.42  49 3.42
   3  0.554  0.328  0.417-   1 3.25   5 3.25   7 3.36  11 3.36  29 3.42  21 3.42
   4  0.328  0.554  0.417-  32 3.25  22 3.25  13 3.36   8 3.36  43 3.42  48 3.42
   5  0.500  0.383  0.340-   1 3.25   3 3.25  11 3.36  15 3.36  21 3.42  28 3.42
   6  0.500  0.383  0.660-  24 3.25  19 3.25  16 3.36  12 3.36  42 3.42  44 3.42
   7  0.500  0.276  0.500-  29 3.24   3 3.36   1 3.36  19 3.36  24 3.36
   8  0.276  0.500  0.500-  48 3.24  22 3.36  40 3.36   4 3.36  25 3.36
   9  0.724  0.500  0.500-  49 3.24  26 3.36  45 3.36   2 3.36  20 3.36
  10  0.500  0.724  0.500-  55 3.24  27 3.36  23 3.36  46 3.36  41 3.36
  11  0.612  0.388  0.342-  21 3.24   5 3.36   3 3.36  30 3.36  26 3.36
  12  0.612  0.388  0.658-  42 3.24  24 3.36  45 3.36   6 3.36  31 3.36
  13  0.388  0.612  0.342-  43 3.24  32 3.36  50 3.36   4 3.36  27 3.36
  14  0.388  0.612  0.658-  53 3.24  25 3.36  33 3.36  51 3.36  46 3.36
  15  0.388  0.388  0.342-  28 3.24   5 3.36   1 3.36  32 3.36  22 3.36
  16  0.388  0.388  0.658-  44 3.24  19 3.36  40 3.36   6 3.36  33 3.36
  17  0.612  0.612  0.342-  47 3.24  30 3.36  50 3.36   2 3.36  23 3.36
  18  0.612  0.612  0.658-  54 3.24  31 3.36  20 3.36  51 3.36  41 3.36
  19  0.446  0.328  0.583-   6 3.25  24 3.25  16 3.36   7 3.36  44 3.42  29 3.42
  20  0.672  0.554  0.583-  31 3.25  45 3.25  18 3.36   9 3.36  54 3.42  49 3.42
  21  0.558  0.442  0.418-  11 3.24   5 3.42   3 3.42  30 3.42  26 3.42
  22  0.328  0.446  0.417-   4 3.25  32 3.25   8 3.36  15 3.36  48 3.42  28 3.42
  23  0.554  0.672  0.417-  27 3.25  50 3.25  10 3.36  17 3.36  55 3.42  47 3.42
  24  0.554  0.328  0.583-   6 3.25  19 3.25  12 3.36   7 3.36  42 3.42  29 3.42
  25  0.328  0.554  0.583-  33 3.25  40 3.25  14 3.36   8 3.36  53 3.42  48 3.42
  26  0.672  0.446  0.417-   2 3.25  30 3.25   9 3.36  11 3.36  49 3.42  21 3.42
  27  0.446  0.672  0.417-  23 3.25  50 3.25  10 3.36  13 3.36  55 3.42  43 3.42
  28  0.442  0.442  0.418-  15 3.24   5 3.42   1 3.42  32 3.42  22 3.42
  29  0.500  0.384  0.500-   7 3.24   3 3.42   1 3.42  24 3.42  19 3.42
  30  0.617  0.500  0.340-   2 3.25  26 3.25  17 3.36  11 3.36  47 3.42  21 3.42
  31  0.617  0.500  0.660-  20 3.25  45 3.25  18 3.36  12 3.36  54 3.42  42 3.42
  32  0.383  0.500  0.340-   4 3.25  22 3.25  13 3.36  15 3.36  43 3.42  28 3.42
  33  0.383  0.500  0.660-  25 3.25  40 3.25  14 3.36  16 3.36  53 3.42  44 3.42
  34  0.383  0.383  0.500-
  35  0.617  0.617  0.500-
  36  0.617  0.383  0.500-
  37  0.383  0.617  0.500-
  38  0.500  0.500  0.335-
  39  0.500  0.500  0.665-
  40  0.328  0.446  0.583-  33 3.25  25 3.25  16 3.36   8 3.36  44 3.42  48 3.42
  41  0.554  0.672  0.583-  46 3.25  51 3.25  10 3.36  18 3.36  54 3.42  55 3.42
  42  0.558  0.442  0.582-  12 3.24   6 3.42  24 3.42  31 3.42  45 3.42
  43  0.442  0.558  0.418-  13 3.24   4 3.42  32 3.42  27 3.42  50 3.42
  44  0.442  0.442  0.582-  16 3.24   6 3.42  19 3.42  33 3.42  40 3.42
  45  0.672  0.446  0.583-  20 3.25  31 3.25   9 3.36  12 3.36  49 3.42  42 3.42
  46  0.446  0.672  0.583-  41 3.25  51 3.25  10 3.36  14 3.36  53 3.42  55 3.42
  47  0.558  0.558  0.418-  17 3.24   2 3.42  30 3.42  23 3.42  50 3.42
  48  0.384  0.500  0.500-   8 3.24   4 3.42  22 3.42  25 3.42  40 3.42
  49  0.616  0.500  0.500-   9 3.24   2 3.42  26 3.42  20 3.42  45 3.42
  50  0.500  0.617  0.340-  27 3.25  23 3.25  13 3.36  17 3.36  43 3.42  47 3.42
  51  0.500  0.617  0.660-  41 3.25  46 3.25  14 3.36  18 3.36  53 3.42  54 3.42
  52  0.500  0.500  0.500-
  53  0.442  0.558  0.582-  14 3.24  25 3.42  33 3.42  51 3.42  46 3.42
  54  0.558  0.558  0.582-  18 3.24  31 3.42  20 3.42  51 3.42  41 3.42
  55  0.500  0.616  0.500-  10 3.24  23 3.42  27 3.42  41 3.42  46 3.42
  56  0.507  0.516  0.763-  57 1.13
  57  0.508  0.518  0.800-  56 1.13
 
  LATTYP: Found a simple cubic cell.
 ALAT       =    30.0000000000
  
  Lattice vectors:
  
 A1 = (  30.0000000000,   0.0000000000,   0.0000000000)
 A2 = (   0.0000000000,  30.0000000000,   0.0000000000)
 A3 = (   0.0000000000,   0.0000000000,  30.0000000000)


Analysis of symmetry for initial positions (statically):
=====================================================================
 Subroutine PRICEL returns:
 Original cell was already a primitive cell.
 

 Routine SETGRP: Setting up the symmetry group for a 
 simple cubic supercell.


 Subroutine GETGRP returns: Found  1 space group operations
 (whereof  1 operations were pure point group operations)
 out of a pool of 48 trial point group operations.


The static configuration has the point symmetry C_1 .


Analysis of symmetry for dynamics (positions and initial velocities):
=====================================================================
 Subroutine PRICEL returns:
 Original cell was already a primitive cell.
 

 Routine SETGRP: Setting up the symmetry group for a 
 simple cubic supercell.


 Subroutine GETGRP returns: Found  1 space group operations
 (whereof  1 operations were pure point group operations)
 out of a pool of 48 trial point group operations.


The dynamic configuration has the point symmetry C_1 .


Analysis of constrained symmetry for selective dynamics:
=====================================================================
 Subroutine PRICEL returns:
 Original cell was already a primitive cell.
 

 Routine SETGRP: Setting up the symmetry group for a 
 simple cubic supercell.


 Subroutine GETGRP returns: Found  1 space group operations
 (whereof  1 operations were pure point group operations)
 out of a pool of 48 trial point group operations.


The constrained configuration has the point symmetry C_1 .


 Subroutine INISYM returns: Found  1 space group operations
 (whereof  1 operations are pure point group operations),
 and found     1 'primitive' translations

 
 
 KPOINTS: K-points                                

Automatic generation of k-mesh.
Space group operators:
 irot       det(A)        alpha          n_x          n_y          n_z        tau_x        tau_y        tau_z
    1     1.000000     0.000000     1.000000     0.000000     0.000000     0.000000     0.000000     0.000000
 
 Subroutine IBZKPT returns following result:
 ===========================================
 
 Found      1 irreducible k-points:
 
 Following reciprocal coordinates:
            Coordinates               Weight
  0.000000  0.000000  0.000000      1.000000
 
 Following cartesian coordinates:
            Coordinates               Weight
  0.000000  0.000000  0.000000      1.000000
 


--------------------------------------------------------------------------------------------------------




 Dimension of arrays:
   k-points           NKPTS =      1   k-points in BZ     NKDIM =      1   number of bands    NBANDS=    336
   number of dos      NEDOS =    301   number of ions     NIONS =     57
   non local maximal  LDIM  =      6   non local SUM 2l+1 LMDIM =     18
   total plane-waves  NPLWV = ******
   max r-space proj   IRMAX =   1847   max aug-charges    IRDMAX=   6262
   dimension x,y,z NGX =   150 NGY =  150 NGZ =  150
   dimension x,y,z NGXF=   300 NGYF=  300 NGZF=  300
   support grid    NGXF=   300 NGYF=  300 NGZF=  300
   ions per type =              55   1   1
   NGX,Y,Z   is equivalent  to a cutoff of   8.31,  8.31,  8.31 a.u.
   NGXF,Y,Z  is equivalent  to a cutoff of  16.62, 16.62, 16.62 a.u.

 SYSTEM =  6_Pd100_top_free_z(O)                   
 POSCAR =  Pd55PES                                 

 Startparameter for this run:
   NWRITE =      2    write-flag & timer
   PREC   = normal    normal or accurate (medium, high low for compatibility)
   ISTART =      0    job   : 0-new  1-cont  2-samecut
   ICHARG =      2    charge: 1-file 2-atom 10-const
   ISPIN  =      1    spin polarized calculation?
   LNONCOLLINEAR =      F non collinear calculations
   LSORBIT =      F    spin-orbit coupling
   INIWAV =      1    electr: 0-lowe 1-rand  2-diag
   LASPH  =      F    aspherical Exc in radial PAW
   METAGGA=      F    non-selfconsistent MetaGGA calc.

 Electronic Relaxation 1
   ENCUT  =  400.0 eV  29.40 Ry    5.42 a.u.  48.92 48.92 48.92*2*pi/ulx,y,z
   ENINI  =  400.0     initial cutoff
   ENAUG  =  644.9 eV  augmentation charge cutoff
   NELM   =    100;   NELMIN=  6; NELMDL= -5     # of ELM steps 
   EDIFF  = 0.1E-03   stopping-criterion for ELM
   LREAL  =      T    real-space projection
   NLSPLINE    = F    spline interpolate recip. space projectors
   LCOMPAT=      F    compatible to vasp.4.4
   GGA_COMPAT  = T    GGA compatible to vasp.4.4-vasp.4.6
   LMAXPAW     = -100 max onsite density
   LMAXMIX     =    2 max onsite mixed and CHGCAR
   VOSKOWN=      0    Vosko Wilk Nusair interpolation
   ROPT   =   -0.00050  -0.00050  -0.00050
 Ionic relaxation
   EDIFFG = -.5E-01   stopping-criterion for IOM
   NSW    =      0    number of steps for IOM
   NBLOCK =      1;   KBLOCK =      1    inner block; outer block 
   IBRION =     -1    ionic relax: 0-MD 1-quasi-New 2-CG
   NFREE  =      1    steps in history (QN), initial steepest desc. (CG)
   ISIF   =      2    stress and relaxation
   IWAVPR =     10    prediction:  0-non 1-charg 2-wave 3-comb
   ISYM   =      2    0-nonsym 1-usesym 2-fastsym
   LCORR  =      T    Harris-Foulkes like correction to forces

   POTIM  = 0.5000    time-step for ionic-motion
   TEIN   =    0.0    initial temperature
   TEBEG  =    0.0;   TEEND  =   0.0 temperature during run
   SMASS  =  -3.00    Nose mass-parameter (am)
   estimated Nose-frequenzy (Omega)   =  0.10E-29 period in steps =****** mass=  -0.206E-25a.u.
   SCALEE = 1.0000    scale energy and forces
   NPACO  =    256;   APACO  = 16.0  distance and # of slots for P.C.
   PSTRESS=    0.0 pullay stress

  Mass of Ions in am
   POMASS = 106.42 12.01 16.00
  Ionic Valenz
   ZVAL   =  10.00  4.00  6.00
  Atomic Wigner-Seitz radii
   RWIGS  =  -1.00 -1.00 -1.00
  virtual crystal weights 
   VCA    =   1.00  1.00  1.00
   NELECT =     560.0000    total number of electrons
   NUPDOWN=      -1.0000    fix difference up-down

 DOS related values:
   EMIN   =  10.00;   EMAX   =-10.00  energy-range for DOS
   EFERMI =   0.00
   ISMEAR =     2;   SIGMA  =   0.20  broadening in eV -4-tet -1-fermi 0-gaus

 Electronic relaxation 2 (details)
   IALGO  =     68    algorithm
   LDIAG  =      T    sub-space diagonalisation (order eigenvalues)
   LSUBROT=      F    optimize rotation matrix (better conditioning)
   TURBO    =      0    0=normal 1=particle mesh
   IRESTART =      0    0=no restart 2=restart with 2 vectors
   NREBOOT  =      0    no. of reboots
   NMIN     =      0    reboot dimension
   EREF     =   0.00    reference energy to select bands
   IMIX   =      4    mixing-type and parameters
     AMIX     =   0.40;   BMIX     =  1.00
     AMIX_MAG =   1.60;   BMIX_MAG =  1.00
     AMIN     =   0.10
     WC   =   100.;   INIMIX=   1;  MIXPRE=   1;  MAXMIX= -45

 Intra band minimization:
   WEIMIN = 0.0000     energy-eigenvalue tresh-hold
   EBREAK =  0.74E-07  absolut break condition
   DEPER  =   0.30     relativ break condition  

   TIME   =   0.40     timestep for ELM

  volume/ion in A,a.u.               =     473.68      3196.58
  Fermi-wavevector in a.u.,A,eV,Ry     =   0.449797  0.849992  2.752691  0.202317
  Thomas-Fermi vector in A             =   1.430086
 
 Write flags
   LWAVE        =      F    write WAVECAR
   LDOWNSAMPLE  =      F    k-point downsampling of WAVECAR
   LCHARG       =      F    write CHGCAR
   LVTOT        =      F    write LOCPOT, total local potential
   LVHAR        =      F    write LOCPOT, Hartree potential only
   LELF         =      F    write electronic localiz. function (ELF)
   LORBIT       =      0    0 simple, 1 ext, 2 COOP (PROOUT), +10 PAW based schemes


 Dipole corrections
   LMONO  =      F    monopole corrections only (constant potential shift)
   LDIPOL =      F    correct potential (dipole corrections)
   IDIPOL =      0    1-x, 2-y, 3-z, 4-all directions 
   EPSILON=  1.0000000 bulk dielectric constant

 Exchange correlation treatment:
   GGA     =    RP    GGA type
   LEXCH   =     9    internal setting for exchange type
   VOSKOWN=      0    Vosko Wilk Nusair interpolation
   LHFCALC =     F    Hartree Fock is set to
   LHFONE  =     F    Hartree Fock one center treatment
   AEXX    =    0.0000 exact exchange contribution

 Linear response parameters
   LEPSILON=     F    determine dielectric tensor
   LRPA    =     F    only Hartree local field effects (RPA)
   LNABLA  =     F    use nabla operator in PAW spheres
   LVEL    =     F    velocity operator in full k-point grid
   LINTERFAST=   F  fast interpolation
   KINTER  =     0    interpolate to denser k-point grid
   CSHIFT  =0.1000    complex shift for real part using Kramers Kronig
   OMEGAMAX=  -1.0    maximum frequency
   DEG_THRESHOLD= 0.2000000E-02 threshold for treating states as degnerate
   RTIME   =   -0.100 relaxation time in fs
  (WPLASMAI=    0.000 imaginary part of plasma frequency in eV, 0.658/RTIME)
   DFIELD  = 0.0000000 0.0000000 0.0000000 field for delta impulse in time
 
 Orbital magnetization related:
   ORBITALMAG=     F  switch on orbital magnetization
   LCHIMAG   =     F  perturbation theory with respect to B field
   DQ        =  0.001000  dq finite difference perturbation B field
   LLRAUG    =     F  two centre corrections for induced B field



--------------------------------------------------------------------------------------------------------


 Static calculation
 charge density and potential will be updated during run
 non-spin polarized calculation
 RMM-DIIS sequential band-by-band and
  variant of blocked Davidson during initial phase
 perform sub-space diagonalisation
    before iterative eigenvector-optimisation
 modified Broyden-mixing scheme, WC =      100.0
 initial mixing is a Kerker type mixing with AMIX =  0.4000 and BMIX =      1.0000
 Hartree-type preconditioning will be used
 using additional bands           56
 real space projection scheme for non local part
 use partial core corrections
 calculate Harris-corrections to forces 
   (improved forces if not selfconsistent)
 use gradient corrections 
 use of overlap-Matrix (Vanderbilt PP)
 Methfessel and Paxton  Order N= 2 SIGMA  =   0.20


--------------------------------------------------------------------------------------------------------


  energy-cutoff  :      400.00
  volume of cell :    27000.00
      direct lattice vectors                 reciprocal lattice vectors
    30.000000000  0.000000000  0.000000000     0.033333333  0.000000000  0.000000000
     0.000000000 30.000000000  0.000000000     0.000000000  0.033333333  0.000000000
     0.000000000  0.000000000 30.000000000     0.000000000  0.000000000  0.033333333

  length of vectors
    30.000000000 30.000000000 30.000000000     0.033333333  0.033333333  0.033333333


 
 k-points in units of 2pi/SCALE and weight: K-points                                
   0.00000000  0.00000000  0.00000000       1.000
 
 k-points in reciprocal lattice and weights: K-points                                
   0.00000000  0.00000000  0.00000000       1.000
 
 position of ions in fractional coordinates (direct lattice) 
   0.44576020  0.32826710  0.41691983
   0.67173288  0.55423978  0.41691983
   0.55423980  0.32826710  0.41691983
   0.32826712  0.55423978  0.41691983
   0.50000000  0.38250690  0.34021317
   0.50000000  0.38250690  0.65978680
   0.50000000  0.27609440  0.50000000
   0.27609443  0.49999998  0.50000000
   0.72390557  0.49999998  0.50000000
   0.50000000  0.72390555  0.50000000
   0.61195280  0.38804720  0.34167483
   0.61195280  0.38804720  0.65832513
   0.38804722  0.61195278  0.34167483
   0.38804722  0.61195278  0.65832513
   0.38804720  0.38804720  0.34167483
   0.38804720  0.38804720  0.65832513
   0.61195278  0.61195278  0.34167483
   0.61195278  0.61195278  0.65832513
   0.44576020  0.32826710  0.58308023
   0.67173288  0.55423978  0.58308023
   0.55791699  0.44208301  0.41809300
   0.32826705  0.44576024  0.41691983
   0.55423973  0.67173293  0.41691983
   0.55423980  0.32826710  0.58308023
   0.32826712  0.55423978  0.58308023
   0.67173295  0.44576024  0.41691983
   0.44576027  0.67173293  0.41691983
   0.44208301  0.44208301  0.41809300
   0.50000000  0.38416601  0.50000000
   0.61749315  0.50000005  0.34021317
   0.61749315  0.50000005  0.65978680
   0.38250685  0.50000005  0.34021317
   0.38250685  0.50000005  0.65978680
   0.38317830  0.38317830  0.50000000
   0.61682172  0.61682172  0.50000000
   0.61682170  0.38317830  0.50000000
   0.38317828  0.61682172  0.50000000
   0.50000000  0.50000000  0.33478917
   0.50000000  0.50000000  0.66521087
   0.32826705  0.44576024  0.58308023
   0.55423973  0.67173293  0.58308023
   0.55791699  0.44208301  0.58190703
   0.44208298  0.55791702  0.41809300
   0.44208301  0.44208301  0.58190703
   0.67173295  0.44576024  0.58308023
   0.44576027  0.67173293  0.58308023
   0.55791702  0.55791702  0.41809300
   0.38416599  0.50000002  0.50000000
   0.61583401  0.50000002  0.50000000
   0.50000000  0.61749319  0.34021317
   0.50000000  0.61749319  0.65978680
   0.50000000  0.50000000  0.50000000
   0.44208298  0.55791702  0.58190703
   0.55791702  0.55791702  0.58190703
   0.50000000  0.61583404  0.50000000
   0.50728843  0.51557257  0.76277957
   0.50832907  0.51779603  0.80029933
 
 position of ions in cartesian coordinates  (Angst):
  13.37280588  9.84801292 12.50759500
  20.15198637 16.62719342 12.50759500
  16.62719412  9.84801292 12.50759500
   9.84801363 16.62719342 12.50759500
  15.00000000 11.47520705 10.20639500
  15.00000000 11.47520705 19.79360400
  15.00000000  8.28283206 15.00000000
   8.28283277 14.99999929 15.00000000
  21.71716723 14.99999929 15.00000000
  15.00000000 21.71716652 14.99999999
  18.35858397 11.64141603 10.25024500
  18.35858397 11.64141603 19.74975399
  11.64141674 18.35858326 10.25024500
  11.64141674 18.35858326 19.74975400
  11.64141603 11.64141603 10.25024500
  11.64141603 11.64141603 19.74975400
  18.35858326 18.35858326 10.25024500
  18.35858326 18.35858326 19.74975400
  13.37280588  9.84801291 17.49240700
  20.15198638 16.62719341 17.49240700
  16.73750985 13.26249015 12.54279000
   9.84801151 13.37280729 12.50759500
  16.62719200 20.15198779 12.50759500
  16.62719412  9.84801292 17.49240700
   9.84801363 16.62719342 17.49240700
  20.15198849 13.37280729 12.50759500
  13.37280800 20.15198779 12.50759500
  13.26249015 13.26249015 12.54279000
  15.00000000 11.52498029 15.00000000
  18.52479437 15.00000140 10.20639500
  18.52479437 15.00000141 19.79360400
  11.47520562 15.00000141 10.20639501
  11.47520563 15.00000141 19.79360400
  11.49534898 11.49534898 15.00000000
  18.50465172 18.50465172 15.00000000
  18.50465102 11.49534898 15.00000000
  11.49534828 18.50465172 15.00000000
  15.00000000 15.00000000 10.04367500
  15.00000000 15.00000000 19.95632599
   9.84801151 13.37280729 17.49240700
  16.62719200 20.15198779 17.49240700
  16.73750985 13.26249015 17.45721100
  13.26248944 16.73751056 12.54279001
  13.26249015 13.26249015 17.45721100
  20.15198849 13.37280729 17.49240699
  13.37280800 20.15198779 17.49240700
  16.73751056 16.73751056 12.54279000
  11.52497959 15.00000071 15.00000000
  18.47502041 15.00000071 15.00000000
  14.99999999 18.52479579 10.20639500
  15.00000000 18.52479578 19.79360400
  15.00000000 15.00000000 15.00000000
  13.26248944 16.73751057 17.45721101
  16.73751056 16.73751057 17.45721100
  15.00000000 18.47502112 15.00000000
  15.21865300 15.46717700 22.88338700
  15.24987200 15.53388100 24.00898000
 


--------------------------------------------------------------------------------------------------------


 k-point  1 :   0.0000 0.0000 0.0000  plane waves:  490521

 maximum and minimum number of plane-waves per node :    490521   490521

 maximum number of plane-waves:    490521
 maximum index in each direction: 
   IXMAX=   48   IYMAX=   48   IZMAX=   48
   IXMIN=  -48   IYMIN=  -48   IZMIN=  -48


 serial   3D FFT for wavefunctions
 parallel 3D FFT for charge:
    minimum data exchange during FFTs selected (reduces bandwidth)


 total amount of memory used by VASP MPI-rank0  5486941. kBytes
=======================================================================

   base      :      30000. kBytes
   nonlr-proj:      17126. kBytes
   fftplans  :     924480. kBytes
   grid      :    1872000. kBytes
   one-center:        886. kBytes
   wavefun   :    2642449. kBytes
 
     INWAV:  cpu time    0.0001: real time    0.0007
 Broyden mixing: mesh for mixing (old mesh)
   NGX = 97   NGY = 97   NGZ = 97
  (NGX  =300   NGY  =300   NGZ  =300)
  gives a total of 912673 points

 initial charge density was supplied:
 charge density of overlapping atoms calculated
 number of electron     560.0000000 magnetization 
 keeping initial charge density in first step


--------------------------------------------------------------------------------------------------------


 Maximum index for non-local projection operator         1763
 Maximum index for augmentation-charges         5898 (set IRDMAX)


--------------------------------------------------------------------------------------------------------


 First call to EWALD:  gamma=   0.059
 Maximum number of real-space cells 3x 3x 3
 Maximum number of reciprocal cells 3x 3x 3

    FEWALD:  cpu time    0.0146: real time    0.0146


--------------------------------------- Iteration      1(   1)  ---------------------------------------


    POTLOK:  cpu time   14.4279: real time   14.4321
    SETDIJ:  cpu time    0.1171: real time    0.1171
     EDDAV:  cpu time  367.2293: real time  367.3014
       DOS:  cpu time    0.0013: real time    0.0013
    --------------------------------------------
      LOOP:  cpu time  381.7756: real time  381.8518

 eigenvalue-minimisations  :   688
 total energy-change (2. order) : 0.4382037E+04  (-0.1004681E+05)
 number of electron     560.0000000 magnetization 
 augmentation part      560.0000000 magnetization 

 Free energy of the ion-electron system (eV)
  ---------------------------------------------------
  alpha Z        PSCENC =        75.25431677
  Ewald energy   TEWEN  =    137614.99164582
  -Hartree energ DENC   =   -180983.65805465
  -exchange      EXHF   =         0.00000000
  -V(xc)+E(xc)   XCENC  =     -1704.16054430
  PAW double counting   =     44873.02882129   -41398.84523641
  entropy T*S    EENTRO =         0.03055039
  eigenvalues    EBANDS =       818.89038715
  atomic energy  EATOM  =     45086.50549395
  Solvation  Ediel_sol  =         0.00000000
  ---------------------------------------------------
  free energy    TOTEN  =      4382.03738001 eV

  energy without entropy =     4382.00682962  energy(sigma->0) =     4382.02974241


--------------------------------------------------------------------------------------------------------




--------------------------------------- Iteration      1(   2)  ---------------------------------------


     EDDAV:  cpu time  595.4217: real time  595.4709
       DOS:  cpu time    0.0012: real time    0.0012
    --------------------------------------------
      LOOP:  cpu time  595.4230: real time  595.4722

 eigenvalue-minimisations  :  1240
 total energy-change (2. order) :-0.2371416E+04  (-0.2132475E+04)
 number of electron     560.0000000 magnetization 
 augmentation part      560.0000000 magnetization 

 Free energy of the ion-electron system (eV)
  ---------------------------------------------------
  alpha Z        PSCENC =        75.25431677
  Ewald energy   TEWEN  =    137614.99164582
  -Hartree energ DENC   =   -180983.65805465
  -exchange      EXHF   =         0.00000000
  -V(xc)+E(xc)   XCENC  =     -1704.16054430
  PAW double counting   =     44873.02882129   -41398.84523641
  entropy T*S    EENTRO =        -0.04535378
  eigenvalues    EBANDS =     -1552.44927037
  atomic energy  EATOM  =     45086.50549395
  Solvation  Ediel_sol  =         0.00000000
  ---------------------------------------------------
  free energy    TOTEN  =      2010.62181832 eV

  energy without entropy =     2010.66717210  energy(sigma->0) =     2010.63315676


--------------------------------------------------------------------------------------------------------




--------------------------------------- Iteration      1(   3)  ---------------------------------------


     EDDAV:  cpu time  500.4368: real time  500.4820
       DOS:  cpu time    0.0011: real time    0.0011
    --------------------------------------------
      LOOP:  cpu time  500.4379: real time  500.4831

 eigenvalue-minimisations  :  1008
 total energy-change (2. order) :-0.1780498E+04  (-0.1676700E+04)
 number of electron     560.0000000 magnetization 
 augmentation part      560.0000000 magnetization 

 Free energy of the ion-electron system (eV)
  ---------------------------------------------------
  alpha Z        PSCENC =        75.25431677
  Ewald energy   TEWEN  =    137614.99164582
  -Hartree energ DENC   =   -180983.65805465
  -exchange      EXHF   =         0.00000000
  -V(xc)+E(xc)   XCENC  =     -1704.16054430
  PAW double counting   =     44873.02882129   -41398.84523641
  entropy T*S    EENTRO =         0.03383428
  eigenvalues    EBANDS =     -3333.02613153
  atomic energy  EATOM  =     45086.50549395
  Solvation  Ediel_sol  =         0.00000000
  ---------------------------------------------------
  free energy    TOTEN  =       230.12414522 eV

  energy without entropy =      230.09031094  energy(sigma->0) =      230.11568665


--------------------------------------------------------------------------------------------------------




--------------------------------------- Iteration      1(   4)  ---------------------------------------


     EDDAV:  cpu time  427.8495: real time  427.8805
       DOS:  cpu time    0.0012: real time    0.0012
    --------------------------------------------
      LOOP:  cpu time  427.8507: real time  427.8816

 eigenvalue-minimisations  :   824
 total energy-change (2. order) :-0.3631836E+03  (-0.3059003E+03)
 number of electron     560.0000000 magnetization 
 augmentation part      560.0000000 magnetization 

 Free energy of the ion-electron system (eV)
  ---------------------------------------------------
  alpha Z        PSCENC =        75.25431677
  Ewald energy   TEWEN  =    137614.99164582
  -Hartree energ DENC   =   -180983.65805465
  -exchange      EXHF   =         0.00000000
  -V(xc)+E(xc)   XCENC  =     -1704.16054430
  PAW double counting   =     44873.02882129   -41398.84523641
  entropy T*S    EENTRO =         0.00465055
  eigenvalues    EBANDS =     -3696.18051720
  atomic energy  EATOM  =     45086.50549395
  Solvation  Ediel_sol  =         0.00000000
  ---------------------------------------------------
  free energy    TOTEN  =      -133.05942418 eV

  energy without entropy =     -133.06407473  energy(sigma->0) =     -133.06058682


--------------------------------------------------------------------------------------------------------




--------------------------------------- Iteration      1(   5)  ---------------------------------------


     EDDAV:  cpu time  542.7102: real time  542.7137
       DOS:  cpu time    0.0015: real time    0.0015
    CHARGE:  cpu time   26.9047: real time   26.9041
    MIXING:  cpu time    0.4495: real time    0.4495
    --------------------------------------------
      LOOP:  cpu time  570.0659: real time  570.0688

 eigenvalue-minimisations  :  1048
 total energy-change (2. order) :-0.4547829E+02  (-0.3752635E+02)
 number of electron     559.9999850 magnetization 
 augmentation part      245.3236551 magnetization 

 Broyden mixing:
  rms(total) = 0.13920E+01    rms(broyden)= 0.13909E+01
  rms(prec ) = 0.14971E+01
  weight for this iteration     100.00

 Free energy of the ion-electron system (eV)
  ---------------------------------------------------
  alpha Z        PSCENC =        75.25431677
  Ewald energy   TEWEN  =    137614.99164582
  -Hartree energ DENC   =   -180983.65805465
  -exchange      EXHF   =         0.00000000
  -V(xc)+E(xc)   XCENC  =     -1704.16054430
  PAW double counting   =     44873.02882129   -41398.84523641
  entropy T*S    EENTRO =         0.52887538
  eigenvalues    EBANDS =     -3742.18303555
  atomic energy  EATOM  =     45086.50549395
  Solvation  Ediel_sol  =         0.00000000
  ---------------------------------------------------
  free energy    TOTEN  =      -178.53771770 eV

  energy without entropy =     -179.06659308  energy(sigma->0) =     -178.66993654


--------------------------------------------------------------------------------------------------------




--------------------------------------- Iteration      1(   6)  ---------------------------------------


    POTLOK:  cpu time   14.3093: real time   14.3122
    SETDIJ:  cpu time    0.1246: real time    0.1246
    EDDIAG:  cpu time   72.0139: real time   72.0130
  RMM-DIIS:  cpu time  201.3010: real time  201.2990
    ORTHCH:  cpu time   14.0997: real time   14.0994
       DOS:  cpu time    0.0014: real time    0.0014
    CHARGE:  cpu time   26.9068: real time   26.9063
    MIXING:  cpu time    0.4926: real time    0.4926
    --------------------------------------------
      LOOP:  cpu time  329.2493: real time  329.2485

 eigenvalue-minimisations  :   722
 total energy-change (2. order) : 0.2179725E+00  (-0.5210875E+01)
 number of electron     559.9999883 magnetization 
 augmentation part      240.6678002 magnetization 

 Broyden mixing:
  rms(total) = 0.25303E+01    rms(broyden)= 0.25302E+01
  rms(prec ) = 0.29653E+01
  weight for this iteration     100.00

 eigenvalues of (default mixing * dielectric matrix)
  average eigenvalue GAMMA=   0.2735
  0.2735

 Free energy of the ion-electron system (eV)
  ---------------------------------------------------
  alpha Z        PSCENC =        75.25431677
  Ewald energy   TEWEN  =    137614.99164582
  -Hartree energ DENC   =   -181400.97788297
  -exchange      EXHF   =         0.00000000
  -V(xc)+E(xc)   XCENC  =     -1697.79033503
  PAW double counting   =     45618.96967151   -42117.31921014
  entropy T*S    EENTRO =        -0.02807599
  eigenvalues    EBANDS =     -3357.92536916
  atomic energy  EATOM  =     45086.50549395
  Solvation  Ediel_sol  =         0.00000000
  ---------------------------------------------------
  free energy    TOTEN  =      -178.31974523 eV

  energy without entropy =     -178.29166925  energy(sigma->0) =     -178.31272624


--------------------------------------------------------------------------------------------------------




--------------------------------------- Iteration      1(   7)  ---------------------------------------


    POTLOK:  cpu time   13.9719: real time   13.9747
    SETDIJ:  cpu time    0.1207: real time    0.1207
    EDDIAG:  cpu time   72.0283: real time   72.0284
  RMM-DIIS:  cpu time  241.3310: real time  241.3307
    ORTHCH:  cpu time   14.0141: real time   14.0138
       DOS:  cpu time    0.0014: real time    0.0014
    CHARGE:  cpu time   27.1358: real time   27.1352
    MIXING:  cpu time    0.5235: real time    0.5234
    --------------------------------------------
      LOOP:  cpu time  369.1267: real time  369.1283

 eigenvalue-minimisations  :   872
 total energy-change (2. order) :-0.1548176E+01  (-0.1785894E+01)
 number of electron     559.9999837 magnetization 
 augmentation part      240.5278955 magnetization 

 Broyden mixing:
  rms(total) = 0.19224E+01    rms(broyden)= 0.19221E+01
  rms(prec ) = 0.23500E+01
  weight for this iteration     100.00

 eigenvalues of (default mixing * dielectric matrix)
  average eigenvalue GAMMA=   0.3060
  0.4668  0.1452

 Free energy of the ion-electron system (eV)
  ---------------------------------------------------
  alpha Z        PSCENC =        75.25431677
  Ewald energy   TEWEN  =    137614.99164582
  -Hartree energ DENC   =   -181466.14952546
  -exchange      EXHF   =         0.00000000
  -V(xc)+E(xc)   XCENC  =     -1697.89734968
  PAW double counting   =     45664.82959533   -42161.06798521
  entropy T*S    EENTRO =        -0.04046719
  eigenvalues    EBANDS =     -3296.29364586
  atomic energy  EATOM  =     45086.50549395
  Solvation  Ediel_sol  =         0.00000000
  ---------------------------------------------------
  free energy    TOTEN  =      -179.86792154 eV

  energy without entropy =     -179.82745435  energy(sigma->0) =     -179.85780474


--------------------------------------------------------------------------------------------------------




--------------------------------------- Iteration      1(   8)  ---------------------------------------


    POTLOK:  cpu time   13.9762: real time   13.9790
    SETDIJ:  cpu time    0.1228: real time    0.1228
    EDDIAG:  cpu time   72.0621: real time   72.0611
  RMM-DIIS:  cpu time  211.2216: real time  211.2210
    ORTHCH:  cpu time   13.9875: real time   13.9873
       DOS:  cpu time    0.0015: real time    0.0015
    CHARGE:  cpu time   27.0043: real time   27.0039
    MIXING:  cpu time    0.5100: real time    0.5100
    --------------------------------------------
      LOOP:  cpu time  338.8860: real time  338.8867

 eigenvalue-minimisations  :   761
 total energy-change (2. order) :-0.3155706E+01  (-0.6417548E+00)
 number of electron     559.9999844 magnetization 
 augmentation part      239.9853703 magnetization 

 Broyden mixing:
  rms(total) = 0.24654E+01    rms(broyden)= 0.24650E+01
  rms(prec ) = 0.28977E+01
  weight for this iteration     100.00

 eigenvalues of (default mixing * dielectric matrix)
  average eigenvalue GAMMA=   0.3154
  0.6738  0.1363  0.1363

 Free energy of the ion-electron system (eV)
  ---------------------------------------------------
  alpha Z        PSCENC =        75.25431677
  Ewald energy   TEWEN  =    137614.99164582
  -Hartree energ DENC   =   -181521.78442526
  -exchange      EXHF   =         0.00000000
  -V(xc)+E(xc)   XCENC  =     -1697.91717744
  PAW double counting   =     45722.46385153   -42215.78030352
  entropy T*S    EENTRO =        -0.21453072
  eigenvalues    EBANDS =     -3246.54249847
  atomic energy  EATOM  =     45086.50549395
  Solvation  Ediel_sol  =         0.00000000
  ---------------------------------------------------
  free energy    TOTEN  =      -183.02362734 eV

  energy without entropy =     -182.80909661  energy(sigma->0) =     -182.96999466


--------------------------------------------------------------------------------------------------------




--------------------------------------- Iteration      1(   9)  ---------------------------------------


    POTLOK:  cpu time   14.0729: real time   14.0756
    SETDIJ:  cpu time    0.1266: real time    0.1266
    EDDIAG:  cpu time   72.0782: real time   72.0774
  RMM-DIIS:  cpu time  200.4599: real time  200.4652
    ORTHCH:  cpu time   14.0221: real time   14.0218
       DOS:  cpu time    0.0014: real time    0.0014
    CHARGE:  cpu time   27.3635: real time   27.3629
    MIXING:  cpu time    0.5453: real time    0.5453
    --------------------------------------------
      LOOP:  cpu time  328.6699: real time  328.6762

 eigenvalue-minimisations  :   724
 total energy-change (2. order) : 0.2523994E+01  (-0.5034507E+00)
 number of electron     559.9999848 magnetization 
 augmentation part      240.9715192 magnetization 

 Broyden mixing:
  rms(total) = 0.21828E+01    rms(broyden)= 0.21824E+01
  rms(prec ) = 0.24797E+01
  weight for this iteration     100.00

 eigenvalues of (default mixing * dielectric matrix)
  average eigenvalue GAMMA=   0.3070
  0.7924  0.1675  0.1675  0.1005

 Free energy of the ion-electron system (eV)
  ---------------------------------------------------
  alpha Z        PSCENC =        75.25431677
  Ewald energy   TEWEN  =    137614.99164582
  -Hartree energ DENC   =   -181544.62909776
  -exchange      EXHF   =         0.00000000
  -V(xc)+E(xc)   XCENC  =     -1697.91695620
  PAW double counting   =     45783.05829745   -42273.38497705
  entropy T*S    EENTRO =        -0.11262040
  eigenvalues    EBANDS =     -3224.26573617
  atomic energy  EATOM  =     45086.50549395
  Solvation  Ediel_sol  =         0.00000000
  ---------------------------------------------------
  free energy    TOTEN  =      -180.49963359 eV

  energy without entropy =     -180.38701319  energy(sigma->0) =     -180.47147849


--------------------------------------------------------------------------------------------------------




--------------------------------------- Iteration      1(  10)  ---------------------------------------


    POTLOK:  cpu time   13.9538: real time   13.9557
    SETDIJ:  cpu time    0.1266: real time    0.1266
    EDDIAG:  cpu time   72.4976: real time   72.4973
  RMM-DIIS:  cpu time  201.8913: real time  201.9791
    ORTHCH:  cpu time   14.0479: real time   14.0476
       DOS:  cpu time    0.0015: real time    0.0015
    CHARGE:  cpu time   27.2133: real time   27.2127
    MIXING:  cpu time    0.5785: real time    0.5785
    --------------------------------------------
      LOOP:  cpu time  330.3104: real time  330.3989

 eigenvalue-minimisations  :   724
 total energy-change (2. order) : 0.2857072E+01  (-0.2767791E+00)
 number of electron     559.9999853 magnetization 
 augmentation part      241.5626745 magnetization 

 Broyden mixing:
  rms(total) = 0.18487E+01    rms(broyden)= 0.18483E+01
  rms(prec ) = 0.20839E+01
  weight for this iteration     100.00

 eigenvalues of (default mixing * dielectric matrix)
  average eigenvalue GAMMA=   0.2846
  0.8514  0.1769  0.1769  0.1237  0.0939

 Free energy of the ion-electron system (eV)
  ---------------------------------------------------
  alpha Z        PSCENC =        75.25431677
  Ewald energy   TEWEN  =    137614.99164582
  -Hartree energ DENC   =   -181575.07910398
  -exchange      EXHF   =         0.00000000
  -V(xc)+E(xc)   XCENC  =     -1697.76921145
  PAW double counting   =     45828.86035731   -42317.06557224
  entropy T*S    EENTRO =        -0.07588086
  eigenvalues    EBANDS =     -3193.26460656
  atomic energy  EATOM  =     45086.50549395
  Solvation  Ediel_sol  =         0.00000000
  ---------------------------------------------------
  free energy    TOTEN  =      -177.64256125 eV

  energy without entropy =     -177.56668039  energy(sigma->0) =     -177.62359103


--------------------------------------------------------------------------------------------------------




--------------------------------------- Iteration      1(  11)  ---------------------------------------


    POTLOK:  cpu time   14.0945: real time   14.0949
    SETDIJ:  cpu time    0.1235: real time    0.1235
    EDDIAG:  cpu time   72.4816: real time   72.4806
  RMM-DIIS:  cpu time  201.9335: real time  201.9349
    ORTHCH:  cpu time   14.1243: real time   14.1240
       DOS:  cpu time    0.0015: real time    0.0015
    CHARGE:  cpu time   27.2367: real time   27.2361
    MIXING:  cpu time    0.6288: real time    0.6292
    --------------------------------------------
      LOOP:  cpu time  330.6245: real time  330.6247

 eigenvalue-minimisations  :   727
 total energy-change (2. order) : 0.1400097E+01  (-0.1627187E+00)
 number of electron     559.9999863 magnetization 
 augmentation part      241.6393925 magnetization 

 Broyden mixing:
  rms(total) = 0.12361E+01    rms(broyden)= 0.12359E+01
  rms(prec ) = 0.14303E+01
  weight for this iteration     100.00

 eigenvalues of (default mixing * dielectric matrix)
  average eigenvalue GAMMA=   0.2786
  0.8821  0.2287  0.2287  0.1243  0.1243  0.0831

 Free energy of the ion-electron system (eV)
  ---------------------------------------------------
  alpha Z        PSCENC =        75.25431677
  Ewald energy   TEWEN  =    137614.99164582
  -Hartree energ DENC   =   -181595.41320162
  -exchange      EXHF   =         0.00000000
  -V(xc)+E(xc)   XCENC  =     -1697.56228921
  PAW double counting   =     45859.84848395   -42346.48558757
  entropy T*S    EENTRO =        -0.13844013
  eigenvalues    EBANDS =     -3173.24288648
  atomic energy  EATOM  =     45086.50549395
  Solvation  Ediel_sol  =         0.00000000
  ---------------------------------------------------
  free energy    TOTEN  =      -176.24246453 eV

  energy without entropy =     -176.10402439  energy(sigma->0) =     -176.20785449


--------------------------------------------------------------------------------------------------------




--------------------------------------- Iteration      1(  12)  ---------------------------------------


    POTLOK:  cpu time   14.1242: real time   14.1277
    SETDIJ:  cpu time    0.1317: real time    0.1317
    EDDIAG:  cpu time   72.5818: real time   72.5816
  RMM-DIIS:  cpu time  200.4159: real time  200.4170
    ORTHCH:  cpu time   14.2323: real time   14.2320
       DOS:  cpu time    0.0016: real time    0.0016
    CHARGE:  cpu time   27.2237: real time   27.2231
    MIXING:  cpu time    0.6658: real time    0.6658
    --------------------------------------------
      LOOP:  cpu time  329.3770: real time  329.3805

 eigenvalue-minimisations  :   721
 total energy-change (2. order) : 0.1953832E+00  (-0.9517704E-01)
 number of electron     559.9999844 magnetization 
 augmentation part      241.5294551 magnetization 

 Broyden mixing:
  rms(total) = 0.14889E+01    rms(broyden)= 0.14887E+01
  rms(prec ) = 0.18148E+01
  weight for this iteration     100.00

 eigenvalues of (default mixing * dielectric matrix)
  average eigenvalue GAMMA=   0.2774
  0.9365  0.2902  0.2902  0.1337  0.1337  0.0786  0.0786

 Free energy of the ion-electron system (eV)
  ---------------------------------------------------
  alpha Z        PSCENC =        75.25431677
  Ewald energy   TEWEN  =    137614.99164582
  -Hartree energ DENC   =   -181618.42838900
  -exchange      EXHF   =         0.00000000
  -V(xc)+E(xc)   XCENC  =     -1697.32959013
  PAW double counting   =     45886.78107299   -42371.93974054
  entropy T*S    EENTRO =        -0.10097485
  eigenvalues    EBANDS =     -3151.78091637
  atomic energy  EATOM  =     45086.50549395
  Solvation  Ediel_sol  =         0.00000000
  ---------------------------------------------------
  free energy    TOTEN  =      -176.04708135 eV

  energy without entropy =     -175.94610651  energy(sigma->0) =     -176.02183764


--------------------------------------------------------------------------------------------------------




--------------------------------------- Iteration      1(  13)  ---------------------------------------


    POTLOK:  cpu time   14.1337: real time   14.1360
    SETDIJ:  cpu time    0.1245: real time    0.1245
    EDDIAG:  cpu time   72.7722: real time   72.7795
  RMM-DIIS:  cpu time  202.8423: real time  202.8408
    ORTHCH:  cpu time   14.2304: real time   14.2301
       DOS:  cpu time    0.0015: real time    0.0015
    CHARGE:  cpu time   26.9454: real time   26.9448
    MIXING:  cpu time    0.7323: real time    0.7323
    --------------------------------------------
      LOOP:  cpu time  331.7822: real time  331.7895

 eigenvalue-minimisations  :   729
 total energy-change (2. order) :-0.2330049E+00  (-0.8911678E-01)
 number of electron     559.9999844 magnetization 
 augmentation part      241.3670652 magnetization 

 Broyden mixing:
  rms(total) = 0.15867E+01    rms(broyden)= 0.15865E+01
  rms(prec ) = 0.19171E+01
  weight for this iteration     100.00

 eigenvalues of (default mixing * dielectric matrix)
  average eigenvalue GAMMA=   0.2891
  1.0692  0.3560  0.3560  0.1421  0.1421  0.0955  0.0955  0.0563

 Free energy of the ion-electron system (eV)
  ---------------------------------------------------
  alpha Z        PSCENC =        75.25431677
  Ewald energy   TEWEN  =    137614.99164582
  -Hartree energ DENC   =   -181640.74930046
  -exchange      EXHF   =         0.00000000
  -V(xc)+E(xc)   XCENC  =     -1697.02412653
  PAW double counting   =     45917.71792771   -42401.16894236
  entropy T*S    EENTRO =        -0.08170954
  eigenvalues    EBANDS =     -3131.72539157
  atomic energy  EATOM  =     45086.50549395
  Solvation  Ediel_sol  =         0.00000000
  ---------------------------------------------------
  free energy    TOTEN  =      -176.28008621 eV

  energy without entropy =     -176.19837667  energy(sigma->0) =     -176.25965882


--------------------------------------------------------------------------------------------------------




--------------------------------------- Iteration      1(  14)  ---------------------------------------


    POTLOK:  cpu time   13.9862: real time   13.9882
    SETDIJ:  cpu time    0.1266: real time    0.1266
    EDDIAG:  cpu time   72.5908: real time   72.5952
  RMM-DIIS:  cpu time  200.7084: real time  200.7136
    ORTHCH:  cpu time   14.2734: real time   14.2731
       DOS:  cpu time    0.0014: real time    0.0014
    CHARGE:  cpu time   26.7307: real time   26.7301
    MIXING:  cpu time    0.7847: real time    0.7847
    --------------------------------------------
      LOOP:  cpu time  329.2022: real time  329.2130

 eigenvalue-minimisations  :   723
 total energy-change (2. order) :-0.3392694E+00  (-0.1137947E+00)
 number of electron     559.9999814 magnetization 
 augmentation part      241.3379734 magnetization 

 Broyden mixing:
  rms(total) = 0.20714E+01    rms(broyden)= 0.20712E+01
  rms(prec ) = 0.24139E+01
  weight for this iteration     100.00

 eigenvalues of (default mixing * dielectric matrix)
  average eigenvalue GAMMA=   0.3118
  1.2694  0.6834  0.2111  0.1517  0.1517  0.1040  0.1040  0.0748  0.0563

 Free energy of the ion-electron system (eV)
  ---------------------------------------------------
  alpha Z        PSCENC =        75.25431677
  Ewald energy   TEWEN  =    137614.99164582
  -Hartree energ DENC   =   -181673.61668126
  -exchange      EXHF   =         0.00000000
  -V(xc)+E(xc)   XCENC  =     -1696.50834181
  PAW double counting   =     45966.35845245   -42447.12772037
  entropy T*S    EENTRO =        -0.05880341
  eigenvalues    EBANDS =     -3102.41771776
  atomic energy  EATOM  =     45086.50549395
  Solvation  Ediel_sol  =         0.00000000
  ---------------------------------------------------
  free energy    TOTEN  =      -176.61935562 eV

  energy without entropy =     -176.56055221  energy(sigma->0) =     -176.60465476


--------------------------------------------------------------------------------------------------------




--------------------------------------- Iteration      1(  15)  ---------------------------------------


    POTLOK:  cpu time   13.9040: real time   13.9070
    SETDIJ:  cpu time    0.1297: real time    0.1297
    EDDIAG:  cpu time   72.1099: real time   72.1088
  RMM-DIIS:  cpu time  197.3573: real time  197.3568
    ORTHCH:  cpu time   14.2371: real time   14.2368
       DOS:  cpu time    0.0015: real time    0.0015
    CHARGE:  cpu time   26.7459: real time   26.7453
    MIXING:  cpu time    0.8736: real time    0.8735
    --------------------------------------------
      LOOP:  cpu time  325.3589: real time  325.3594

 eigenvalue-minimisations  :   714
 total energy-change (2. order) : 0.3461116E+00  (-0.1137504E+00)
 number of electron     559.9999866 magnetization 
 augmentation part      241.1423646 magnetization 

 Broyden mixing:
  rms(total) = 0.24177E+01    rms(broyden)= 0.24175E+01
  rms(prec ) = 0.28218E+01
  weight for this iteration     100.00

 eigenvalues of (default mixing * dielectric matrix)
  average eigenvalue GAMMA=   0.3069
  1.3785  0.7623  0.1897  0.1715  0.1715  0.1009  0.1009  0.0689  0.0689  0.0556

 Free energy of the ion-electron system (eV)
  ---------------------------------------------------
  alpha Z        PSCENC =        75.25431677
  Ewald energy   TEWEN  =    137614.99164582
  -Hartree energ DENC   =   -181722.10184046
  -exchange      EXHF   =         0.00000000
  -V(xc)+E(xc)   XCENC  =     -1695.87984235
  PAW double counting   =     46026.39535680   -42503.89933529
  entropy T*S    EENTRO =         0.11328766
  eigenvalues    EBANDS =     -3057.65232690
  atomic energy  EATOM  =     45086.50549395
  Solvation  Ediel_sol  =         0.00000000
  ---------------------------------------------------
  free energy    TOTEN  =      -176.27324399 eV

  energy without entropy =     -176.38653165  energy(sigma->0) =     -176.30156591


--------------------------------------------------------------------------------------------------------




--------------------------------------- Iteration      1(  16)  ---------------------------------------


    POTLOK:  cpu time   13.8427: real time   13.8461
    SETDIJ:  cpu time    0.1267: real time    0.1266
    EDDIAG:  cpu time   72.1152: real time   72.1148
  RMM-DIIS:  cpu time  197.2012: real time  197.1999
    ORTHCH:  cpu time   14.1340: real time   14.1337
       DOS:  cpu time    0.0015: real time    0.0015
    CHARGE:  cpu time   26.7064: real time   26.7058
    MIXING:  cpu time    0.9144: real time    0.9144
    --------------------------------------------
      LOOP:  cpu time  325.0420: real time  325.0427

 eigenvalue-minimisations  :   714
 total energy-change (2. order) : 0.1228265E+01  (-0.7435927E-01)
 number of electron     559.9999847 magnetization 
 augmentation part      241.0514350 magnetization 

 Broyden mixing:
  rms(total) = 0.15014E+01    rms(broyden)= 0.15012E+01
  rms(prec ) = 0.17642E+01
  weight for this iteration     100.00

 eigenvalues of (default mixing * dielectric matrix)
  average eigenvalue GAMMA=   0.2990
  1.4396  0.7988  0.1919  0.1919  0.1875  0.1056  0.1056  0.0828  0.0667  0.0594
  0.0594

 Free energy of the ion-electron system (eV)
  ---------------------------------------------------
  alpha Z        PSCENC =        75.25431677
  Ewald energy   TEWEN  =    137614.99164582
  -Hartree energ DENC   =   -181743.79794001
  -exchange      EXHF   =         0.00000000
  -V(xc)+E(xc)   XCENC  =     -1695.61921013
  PAW double counting   =     46051.51576101   -42527.66229181
  entropy T*S    EENTRO =        -0.01262309
  eigenvalues    EBANDS =     -3036.22013102
  atomic energy  EATOM  =     45086.50549395
  Solvation  Ediel_sol  =         0.00000000
  ---------------------------------------------------
  free energy    TOTEN  =      -175.04497850 eV

  energy without entropy =     -175.03235541  energy(sigma->0) =     -175.04182273


--------------------------------------------------------------------------------------------------------




--------------------------------------- Iteration      1(  17)  ---------------------------------------


    POTLOK:  cpu time   13.8446: real time   13.8474
    SETDIJ:  cpu time    0.1305: real time    0.1305
    EDDIAG:  cpu time   71.9809: real time   71.9813
  RMM-DIIS:  cpu time  195.9743: real time  195.9727
    ORTHCH:  cpu time   14.0742: real time   14.0739
       DOS:  cpu time    0.0015: real time    0.0015
    CHARGE:  cpu time   26.7172: real time   26.7166
    MIXING:  cpu time    0.9147: real time    0.9146
    --------------------------------------------
      LOOP:  cpu time  323.6378: real time  323.6386

 eigenvalue-minimisations  :   709
 total energy-change (2. order) : 0.7490252E+00  (-0.4650223E-01)
 number of electron     559.9999855 magnetization 
 augmentation part      241.0952954 magnetization 

 Broyden mixing:
  rms(total) = 0.78170E+00    rms(broyden)= 0.78149E+00
  rms(prec ) = 0.87757E+00
  weight for this iteration     100.00

 eigenvalues of (default mixing * dielectric matrix)
  average eigenvalue GAMMA=   0.3025
  1.5098  0.8759  0.2219  0.2219  0.1544  0.1544  0.1169  0.1169  0.0723  0.0630
  0.0630  0.0603

 Free energy of the ion-electron system (eV)
  ---------------------------------------------------
  alpha Z        PSCENC =        75.25431677
  Ewald energy   TEWEN  =    137614.99164582
  -Hartree energ DENC   =   -181753.75651459
  -exchange      EXHF   =         0.00000000
  -V(xc)+E(xc)   XCENC  =     -1695.48684995
  PAW double counting   =     46063.12452418   -42538.54594141
  entropy T*S    EENTRO =        -0.06087157
  eigenvalues    EBANDS =     -3026.32175650
  atomic energy  EATOM  =     45086.50549395
  Solvation  Ediel_sol  =         0.00000000
  ---------------------------------------------------
  free energy    TOTEN  =      -174.29595329 eV

  energy without entropy =     -174.23508172  energy(sigma->0) =     -174.28073539


--------------------------------------------------------------------------------------------------------




--------------------------------------- Iteration      1(  18)  ---------------------------------------


    POTLOK:  cpu time   13.9804: real time   13.9831
    SETDIJ:  cpu time    0.1232: real time    0.1232
    EDDIAG:  cpu time   72.0637: real time   72.0646
  RMM-DIIS:  cpu time  197.6970: real time  197.7116
    ORTHCH:  cpu time   14.1898: real time   14.1894
       DOS:  cpu time    0.0015: real time    0.0015
    CHARGE:  cpu time   26.7842: real time   26.7834
    MIXING:  cpu time    0.9737: real time    0.9737
    --------------------------------------------
      LOOP:  cpu time  325.8136: real time  325.8305

 eigenvalue-minimisations  :   714
 total energy-change (2. order) : 0.9380898E-01  (-0.4260420E-01)
 number of electron     559.9999857 magnetization 
 augmentation part      241.1567549 magnetization 

 Broyden mixing:
  rms(total) = 0.80355E+00    rms(broyden)= 0.80336E+00
  rms(prec ) = 0.92998E+00
  weight for this iteration     100.00

 eigenvalues of (default mixing * dielectric matrix)
  average eigenvalue GAMMA=   0.3066
  1.5130  0.9847  0.2898  0.2898  0.1618  0.1618  0.1141  0.1141  0.0886  0.0886
  0.0607  0.0607  0.0585

 Free energy of the ion-electron system (eV)
  ---------------------------------------------------
  alpha Z        PSCENC =        75.25431677
  Ewald energy   TEWEN  =    137614.99164582
  -Hartree energ DENC   =   -181769.07628066
  -exchange      EXHF   =         0.00000000
  -V(xc)+E(xc)   XCENC  =     -1695.28278033
  PAW double counting   =     46074.88139148   -42549.25167195
  entropy T*S    EENTRO =        -0.08776598
  eigenvalues    EBANDS =     -3012.13649340
  atomic energy  EATOM  =     45086.50549395
  Solvation  Ediel_sol  =         0.00000000
  ---------------------------------------------------
  free energy    TOTEN  =      -174.20214430 eV

  energy without entropy =     -174.11437832  energy(sigma->0) =     -174.18020281


--------------------------------------------------------------------------------------------------------




--------------------------------------- Iteration      1(  19)  ---------------------------------------


    POTLOK:  cpu time   13.8392: real time   13.8424
    SETDIJ:  cpu time    0.1254: real time    0.1254
    EDDIAG:  cpu time   72.4553: real time   72.4538
  RMM-DIIS:  cpu time  198.4252: real time  198.4232
    ORTHCH:  cpu time   13.8712: real time   13.8709
       DOS:  cpu time    0.0014: real time    0.0014
    CHARGE:  cpu time   26.8115: real time   26.8110
    MIXING:  cpu time    1.0768: real time    1.0768
    --------------------------------------------
      LOOP:  cpu time  326.6061: real time  326.6050

 eigenvalue-minimisations  :   717
 total energy-change (2. order) :-0.1883594E+00  (-0.2730169E-01)
 number of electron     559.9999863 magnetization 
 augmentation part      241.1277254 magnetization 

 Broyden mixing:
  rms(total) = 0.10109E+01    rms(broyden)= 0.10107E+01
  rms(prec ) = 0.12266E+01
  weight for this iteration     100.00

 eigenvalues of (default mixing * dielectric matrix)
  average eigenvalue GAMMA=   0.3119
  1.5477  1.1050  0.4117  0.2963  0.1743  0.1743  0.1097  0.1097  0.0947  0.0947
  0.0770  0.0584  0.0584  0.0552

 Free energy of the ion-electron system (eV)
  ---------------------------------------------------
  alpha Z        PSCENC =        75.25431677
  Ewald energy   TEWEN  =    137614.99164582
  -Hartree energ DENC   =   -181783.13619172
  -exchange      EXHF   =         0.00000000
  -V(xc)+E(xc)   XCENC  =     -1695.13147517
  PAW double counting   =     46078.89882170   -42552.45684363
  entropy T*S    EENTRO =        -0.04037663
  eigenvalues    EBANDS =     -2999.27589480
  atomic energy  EATOM  =     45086.50549395
  Solvation  Ediel_sol  =         0.00000000
  ---------------------------------------------------
  free energy    TOTEN  =      -174.39050372 eV

  energy without entropy =     -174.35012709  energy(sigma->0) =     -174.38040956


--------------------------------------------------------------------------------------------------------




--------------------------------------- Iteration      1(  20)  ---------------------------------------


    POTLOK:  cpu time   13.9503: real time   13.9524
    SETDIJ:  cpu time    0.1252: real time    0.1252
    EDDIAG:  cpu time   72.5825: real time   72.5814
  RMM-DIIS:  cpu time  198.5511: real time  198.5499
    ORTHCH:  cpu time   13.8676: real time   13.8673
       DOS:  cpu time    0.0014: real time    0.0014
    CHARGE:  cpu time   27.0900: real time   27.0895
    MIXING:  cpu time    1.1330: real time    1.1330
    --------------------------------------------
      LOOP:  cpu time  327.3011: real time  327.3002

 eigenvalue-minimisations  :   719
 total energy-change (2. order) : 0.1142525E+00  (-0.1955051E-01)
 number of electron     559.9999856 magnetization 
 augmentation part      241.1462708 magnetization 

 Broyden mixing:
  rms(total) = 0.99292E+00    rms(broyden)= 0.99269E+00
  rms(prec ) = 0.12040E+01
  weight for this iteration     100.00

 eigenvalues of (default mixing * dielectric matrix)
  average eigenvalue GAMMA=   0.3095
  1.6208  1.1332  0.3828  0.3828  0.1847  0.1847  0.1140  0.1140  0.1080  0.1080
  0.0708  0.0708  0.0587  0.0587  0.0504

 Free energy of the ion-electron system (eV)
  ---------------------------------------------------
  alpha Z        PSCENC =        75.25431677
  Ewald energy   TEWEN  =    137614.99164582
  -Hartree energ DENC   =   -181798.88240990
  -exchange      EXHF   =         0.00000000
  -V(xc)+E(xc)   XCENC  =     -1694.95609531
  PAW double counting   =     46082.45112238   -42555.10892938
  entropy T*S    EENTRO =        -0.00993849
  eigenvalues    EBANDS =     -2984.52145702
  atomic energy  EATOM  =     45086.50549395
  Solvation  Ediel_sol  =         0.00000000
  ---------------------------------------------------
  free energy    TOTEN  =      -174.27625117 eV

  energy without entropy =     -174.26631268  energy(sigma->0) =     -174.27376655


--------------------------------------------------------------------------------------------------------




--------------------------------------- Iteration      1(  21)  ---------------------------------------


    POTLOK:  cpu time   13.8820: real time   13.8823
    SETDIJ:  cpu time    0.1193: real time    0.1194
    EDDIAG:  cpu time   72.6909: real time   72.6903
  RMM-DIIS:  cpu time  195.2807: real time  195.2797
    ORTHCH:  cpu time   13.8925: real time   13.8923
       DOS:  cpu time    0.0015: real time    0.0015
    CHARGE:  cpu time   26.8282: real time   26.8278
    MIXING:  cpu time    1.1289: real time    1.1289
    --------------------------------------------
      LOOP:  cpu time  323.8241: real time  323.8221

 eigenvalue-minimisations  :   707
 total energy-change (2. order) : 0.2989566E+00  (-0.1542253E-01)
 number of electron     559.9999864 magnetization 
 augmentation part      241.1760402 magnetization 

 Broyden mixing:
  rms(total) = 0.65564E+00    rms(broyden)= 0.65547E+00
  rms(prec ) = 0.76382E+00
  weight for this iteration     100.00

 eigenvalues of (default mixing * dielectric matrix)
  average eigenvalue GAMMA=   0.3156
  1.7403  1.0856  0.4734  0.4734  0.1960  0.1960  0.1261  0.1261  0.1161  0.1161
  0.0896  0.0796  0.0650  0.0598  0.0598  0.0473

 Free energy of the ion-electron system (eV)
  ---------------------------------------------------
  alpha Z        PSCENC =        75.25431677
  Ewald energy   TEWEN  =    137614.99164582
  -Hartree energ DENC   =   -181809.08117255
  -exchange      EXHF   =         0.00000000
  -V(xc)+E(xc)   XCENC  =     -1694.82804563
  PAW double counting   =     46085.32421424   -42557.39034398
  entropy T*S    EENTRO =        -0.02730598
  eigenvalues    EBANDS =     -2974.72609722
  atomic energy  EATOM  =     45086.50549395
  Solvation  Ediel_sol  =         0.00000000
  ---------------------------------------------------
  free energy    TOTEN  =      -173.97729459 eV

  energy without entropy =     -173.94998861  energy(sigma->0) =     -173.97046810


--------------------------------------------------------------------------------------------------------




--------------------------------------- Iteration      1(  22)  ---------------------------------------


    POTLOK:  cpu time   14.1535: real time   14.1540
    SETDIJ:  cpu time    0.1265: real time    0.1265
    EDDIAG:  cpu time   72.2803: real time   72.2792
  RMM-DIIS:  cpu time  194.9998: real time  195.0003
    ORTHCH:  cpu time   13.8331: real time   13.8330
       DOS:  cpu time    0.0014: real time    0.0014
    CHARGE:  cpu time   26.7615: real time   26.7610
    MIXING:  cpu time    1.3385: real time    1.3384
    --------------------------------------------
      LOOP:  cpu time  323.4946: real time  323.4938

 eigenvalue-minimisations  :   710
 total energy-change (2. order) : 0.1787602E-01  (-0.1419231E-01)
 number of electron     559.9999860 magnetization 
 augmentation part      241.1937844 magnetization 

 Broyden mixing:
  rms(total) = 0.65783E+00    rms(broyden)= 0.65772E+00
  rms(prec ) = 0.78377E+00
  weight for this iteration     100.00

 eigenvalues of (default mixing * dielectric matrix)
  average eigenvalue GAMMA=   0.3323
  1.7911  1.1840  0.6322  0.6322  0.1924  0.1924  0.1884  0.1148  0.1148  0.1137
  0.1066  0.0805  0.0805  0.0597  0.0597  0.0593  0.0471

 Free energy of the ion-electron system (eV)
  ---------------------------------------------------
  alpha Z        PSCENC =        75.25431677
  Ewald energy   TEWEN  =    137614.99164582
  -Hartree energ DENC   =   -181819.03891119
  -exchange      EXHF   =         0.00000000
  -V(xc)+E(xc)   XCENC  =     -1694.71922641
  PAW double counting   =     46087.37930650   -42558.93481120
  entropy T*S    EENTRO =        -0.05436921
  eigenvalues    EBANDS =     -2965.34286359
  atomic energy  EATOM  =     45086.50549395
  Solvation  Ediel_sol  =         0.00000000
  ---------------------------------------------------
  free energy    TOTEN  =      -173.95941857 eV

  energy without entropy =     -173.90504936  energy(sigma->0) =     -173.94582627


--------------------------------------------------------------------------------------------------------




--------------------------------------- Iteration      1(  23)  ---------------------------------------


    POTLOK:  cpu time   14.0747: real time   14.0752
    SETDIJ:  cpu time    0.1233: real time    0.1233
    EDDIAG:  cpu time   72.5520: real time   72.5528
  RMM-DIIS:  cpu time  195.9755: real time  195.9741
    ORTHCH:  cpu time   14.0844: real time   14.0840
       DOS:  cpu time    0.0015: real time    0.0015
    CHARGE:  cpu time   26.9855: real time   26.9848
    MIXING:  cpu time    1.4177: real time    1.4177
    --------------------------------------------
      LOOP:  cpu time  325.2144: real time  325.2134

 eigenvalue-minimisations  :   714
 total energy-change (2. order) : 0.1423671E-01  (-0.1680718E-01)
 number of electron     559.9999861 magnetization 
 augmentation part      241.1411489 magnetization 

 Broyden mixing:
  rms(total) = 0.63733E+00    rms(broyden)= 0.63716E+00
  rms(prec ) = 0.73594E+00
  weight for this iteration     100.00

 eigenvalues of (default mixing * dielectric matrix)
  average eigenvalue GAMMA=   0.3483
  1.8317  1.4535  0.7040  0.7040  0.2473  0.1909  0.1909  0.1159  0.1159  0.1232
[...]
 -0.006  -0.012   0.004   0.004   0.005  -0.006  -0.012   0.004
 -0.011  -0.020   0.006   0.007   0.009  -0.010  -0.020   0.006
 -0.015  -0.005   0.013   0.000   0.022  -0.014  -0.005   0.012
  0.000  -0.023  -0.006  -0.015  -0.000   0.000  -0.022  -0.006
 -0.022   0.000   0.009  -0.005  -0.016  -0.021   0.000   0.008
 -0.017  -0.006   0.015   0.000   0.027  -0.017  -0.006   0.015
  0.000  -0.027  -0.007  -0.018  -0.000   0.000  -0.027  -0.007
 -0.027   0.000   0.010  -0.006  -0.019  -0.026   0.000   0.010
 total augmentation occupancy for first ion, spin component:           1
  1.538  -0.030   0.005   0.016   0.023   0.076  -0.008  -0.002   0.036  -0.010   0.092  -0.031   0.012   0.002   0.002  -0.019
 -0.030   1.400   0.029   0.070  -0.001  -0.007   0.071   0.011  -0.014  -0.008   0.219  -0.066   0.019   0.002   0.003  -0.006
  0.005   0.029   1.543   0.001   0.002  -0.002   0.013   0.073  -0.012   0.017  -0.053   0.018  -0.003  -0.006  -0.005   0.016
  0.016   0.070   0.001   1.338   0.044   0.033  -0.013  -0.012   0.091  -0.023  -0.081   0.021  -0.001  -0.008  -0.003   0.001
  0.023  -0.001   0.002   0.044   1.440  -0.010  -0.008   0.016  -0.022   0.067  -0.096   0.031  -0.002  -0.010  -0.010   0.026
  0.076  -0.007  -0.002   0.033  -0.010   0.217   0.019  -0.002  -0.045   0.004  -0.048   0.002   0.017  -0.010   0.034  -0.004
 -0.008   0.071   0.013  -0.013  -0.008   0.019   0.262  -0.023  -0.003   0.006  -0.109   0.007  -0.001   0.051  -0.010  -0.000
 -0.002   0.011   0.073  -0.012   0.016  -0.002  -0.023   0.215   0.014  -0.020   0.028  -0.001  -0.012   0.009  -0.018   0.003
  0.036  -0.014  -0.012   0.091  -0.022  -0.045  -0.003   0.014   0.260   0.007   0.043  -0.004  -0.009   0.036   0.004   0.000
 -0.010  -0.008   0.017  -0.023   0.067   0.004   0.006  -0.020   0.007   0.258   0.046  -0.003  -0.038   0.002   0.049   0.007
  0.092   0.219  -0.053  -0.081  -0.096  -0.048  -0.109   0.028   0.043   0.046   0.951  -0.141   0.084   0.014   0.064  -0.013
 -0.031  -0.066   0.018   0.021   0.031   0.002   0.007  -0.001  -0.004  -0.003  -0.141   0.023  -0.014  -0.003  -0.010   0.003
  0.012   0.019  -0.003  -0.001  -0.002   0.017  -0.001  -0.012  -0.009  -0.038   0.084  -0.014   0.029  -0.008  -0.004  -0.003
  0.002   0.002  -0.006  -0.008  -0.010  -0.010   0.051   0.009   0.036   0.002   0.014  -0.003  -0.008   0.036   0.004   0.000
  0.002   0.003  -0.005  -0.003  -0.010   0.034  -0.010  -0.018   0.004   0.049   0.064  -0.010  -0.004   0.004   0.034  -0.000
 -0.019  -0.006   0.016   0.001   0.026  -0.004  -0.000   0.003   0.000   0.007  -0.013   0.003  -0.003   0.000  -0.000   0.001
  0.001  -0.028  -0.007  -0.018   0.001   0.001  -0.008  -0.002  -0.006  -0.000  -0.003   0.001   0.000  -0.003  -0.000   0.000
 -0.028   0.001   0.012  -0.005  -0.019  -0.006   0.001   0.003  -0.001  -0.007  -0.008   0.001  -0.000  -0.000  -0.003   0.000


------------------------ aborting loop because EDIFF is reached ----------------------------------------


    CHARGE:  cpu time   25.7118: real time   25.7121
    FORLOC:  cpu time    6.8631: real time    6.8631
    FORNL :  cpu time   66.8157: real time   66.8208
    STRESS:  cpu time  203.8704: real time  203.8791
    FORCOR:  cpu time   22.2757: real time   22.2760
    FORHAR:  cpu time    9.7868: real time    9.7869
    MIXING:  cpu time    3.9067: real time    3.9068
    OFIELD:  cpu time    0.0000: real time    0.0000

  FORCE on cell =-STRESS in cart. coord.  units (eV):
  Direction    XX          YY          ZZ          XY          YZ          ZX
  --------------------------------------------------------------------------------------
  Alpha Z    75.25432    75.25432    75.25432
  Ewald   43759.56421 43776.36847 50078.95333     6.19368   232.35937   108.96707
  Hartree 58677.90428 58692.96293 64622.34393     5.55773   211.38084    99.07293
  E(xc)   -2904.83024 -2904.81535 -2902.85098     0.00983     0.16308     0.07684
  Local  ************************************   -11.64088  -441.49672  -206.99143
  n-local  -881.55153  -881.63955  -894.67002    -0.04231    -1.00698    -0.47368
  augment  4104.08182  4104.07704  4103.11400    -0.01932    -0.08455    -0.03858
  Kinetic  7809.81305  7809.73172  7790.72926    -0.07489    -1.38831    -0.65098
  Fock        0.00000     0.00000     0.00000     0.00000     0.00000     0.00000
  -------------------------------------------------------------------------------------
  Total    -113.73855  -113.75227  -112.31833    -0.01616    -0.07326    -0.03782
  in kB      -6.74923    -6.75005    -6.66496    -0.00096    -0.00435    -0.00224
  external pressure =       -6.72 kB  Pullay stress =        0.00 kB


 VOLUME and BASIS-vectors are now :
 -----------------------------------------------------------------------------
  energy-cutoff  :      400.00
  volume of cell :    27000.00
      direct lattice vectors                 reciprocal lattice vectors
    30.000000000  0.000000000  0.000000000     0.033333333  0.000000000  0.000000000
     0.000000000 30.000000000  0.000000000     0.000000000  0.033333333  0.000000000
     0.000000000  0.000000000 30.000000000     0.000000000  0.000000000  0.033333333

  length of vectors
    30.000000000 30.000000000 30.000000000     0.033333333  0.033333333  0.033333333


 FORCES acting on ions
    electron-ion (+dipol)            ewald-force                    non-local-force                 convergence-correction
 -----------------------------------------------------------------------------------------------
   0.395E+03 0.974E+03 0.421E+03   -.393E+03 -.971E+03 -.420E+03   -.150E+01 -.182E+01 -.225E+00   0.291E-02 0.220E-02 -.459E-03
   -.974E+03 -.394E+03 0.421E+03   0.971E+03 0.392E+03 -.421E+03   0.182E+01 0.150E+01 -.220E+00   0.410E-03 -.540E-03 0.798E-02
   -.394E+03 0.974E+03 0.421E+03   0.392E+03 -.971E+03 -.420E+03   0.150E+01 -.182E+01 -.224E+00   -.111E-02 0.216E-02 -.281E-02
   0.974E+03 -.394E+03 0.421E+03   -.971E+03 0.392E+03 -.421E+03   -.182E+01 0.150E+01 -.222E+00   0.240E-02 -.553E-03 0.934E-03
   0.131E+00 0.588E+03 0.966E+03   -.133E+00 -.587E+03 -.962E+03   -.951E-04 -.309E+00 -.235E+01   0.235E-02 -.841E-03 0.194E-02
   0.201E+01 0.620E+03 -.932E+03   -.201E+01 -.619E+03 0.929E+03   -.194E-05 -.283E+00 0.234E+01   -.319E-02 0.794E-03 -.158E-02
   0.219E+00 0.114E+04 0.692E+01   -.219E+00 -.113E+04 -.692E+01   0.385E-03 -.311E+01 0.580E-03   -.152E-03 0.124E-02 -.377E-03
   0.114E+04 0.489E+00 0.728E+01   -.113E+04 -.490E+00 -.727E+01   -.311E+01 0.818E-03 -.112E-03   0.354E-02 -.597E-03 -.444E-02
   -.114E+04 0.530E+00 0.798E+01   0.113E+04 -.533E+00 -.798E+01   0.311E+01 0.739E-03 -.108E-02   -.187E-02 0.261E-02 0.132E-02
   0.264E+00 -.114E+04 0.843E+01   -.262E+00 0.113E+04 -.843E+01   0.378E-03 0.311E+01 -.165E-02   -.212E-02 -.429E-02 0.315E-03
   -.579E+03 0.579E+03 0.814E+03   0.577E+03 -.577E+03 -.811E+03   0.156E+01 -.156E+01 -.220E+01   -.282E-02 -.454E-02 0.238E-04
   -.595E+03 0.600E+03 -.790E+03   0.593E+03 -.597E+03 0.787E+03   0.156E+01 -.156E+01 0.219E+01   -.287E-02 -.188E-02 0.177E-02
   0.579E+03 -.579E+03 0.814E+03   -.577E+03 0.577E+03 -.811E+03   -.156E+01 0.156E+01 -.220E+01   -.318E-02 -.144E-05 0.371E-02
   0.601E+03 -.596E+03 -.787E+03   -.599E+03 0.594E+03 0.784E+03   -.156E+01 0.156E+01 0.219E+01   0.108E-02 -.157E-02 -.213E-02
   0.579E+03 0.579E+03 0.814E+03   -.577E+03 -.577E+03 -.810E+03   -.156E+01 -.156E+01 -.220E+01   0.650E-03 0.784E-03 0.117E-02
   0.596E+03 0.597E+03 -.793E+03   -.593E+03 -.595E+03 0.789E+03   -.156E+01 -.156E+01 0.219E+01   0.316E-02 0.232E-02 -.215E-02
   -.579E+03 -.579E+03 0.814E+03   0.577E+03 0.577E+03 -.811E+03   0.156E+01 0.156E+01 -.220E+01   0.814E-03 0.180E-02 0.160E-02
   -.601E+03 -.599E+03 -.783E+03   0.599E+03 0.597E+03 0.780E+03   0.156E+01 0.156E+01 0.219E+01   0.132E-02 -.141E-02 -.475E-02
   0.398E+03 0.982E+03 -.403E+03   -.395E+03 -.979E+03 0.402E+03   -.150E+01 -.182E+01 0.216E+00   0.184E-02 0.186E-02 -.869E-03
   -.984E+03 -.397E+03 -.399E+03   0.981E+03 0.395E+03 0.399E+03   0.182E+01 0.150E+01 0.215E+00   -.296E-02 0.344E-02 -.347E-02
   -.322E+03 0.322E+03 0.460E+03   0.322E+03 -.323E+03 -.461E+03   -.366E+00 0.366E+00 0.520E+00   -.359E-02 -.432E-02 0.270E-03
   0.974E+03 0.395E+03 0.421E+03   -.971E+03 -.393E+03 -.420E+03   -.182E+01 -.150E+01 -.225E+00   0.213E-02 0.152E-02 -.933E-03
   -.395E+03 -.973E+03 0.422E+03   0.392E+03 0.971E+03 -.421E+03   0.150E+01 0.182E+01 -.220E+00   -.369E-02 0.117E-02 0.866E-02
   -.397E+03 0.983E+03 -.402E+03   0.395E+03 -.980E+03 0.402E+03   0.150E+01 -.182E+01 0.216E+00   -.512E-02 -.134E-02 -.910E-03
   0.983E+03 -.396E+03 -.401E+03   -.980E+03 0.394E+03 0.401E+03   -.182E+01 0.150E+01 0.216E+00   0.508E-02 -.158E-02 -.224E-02
   -.973E+03 0.395E+03 0.421E+03   0.971E+03 -.393E+03 -.421E+03   0.182E+01 -.150E+01 -.223E+00   -.310E-02 -.357E-02 -.101E-02
   0.395E+03 -.973E+03 0.421E+03   -.393E+03 0.970E+03 -.421E+03   -.150E+01 0.182E+01 -.221E+00   -.358E-02 -.932E-03 0.471E-02
   0.322E+03 0.322E+03 0.460E+03   -.323E+03 -.323E+03 -.460E+03   0.367E+00 0.367E+00 0.520E+00   0.342E-03 0.188E-03 0.161E-02
   0.381E+00 0.644E+03 0.125E+02   -.379E+00 -.645E+03 -.125E+02   0.809E-04 0.735E+00 -.275E-03   -.236E-02 0.122E-02 -.111E-02
   -.587E+03 0.307E+00 0.966E+03   0.587E+03 -.297E+00 -.962E+03   0.309E+00 -.139E-04 -.235E+01   -.143E-02 -.992E-02 0.179E-02
   -.623E+03 0.574E+01 -.922E+03   0.623E+03 -.575E+01 0.918E+03   0.254E+00 0.273E-02 0.234E+01   -.182E-02 0.249E-02 -.199E-02
   0.588E+03 0.291E+00 0.966E+03   -.587E+03 -.289E+00 -.962E+03   -.309E+00 -.116E-03 -.235E+01   -.189E-02 -.169E-02 0.416E-02
   0.621E+03 0.474E+01 -.929E+03   -.620E+03 -.474E+01 0.925E+03   -.275E+00 0.766E-03 0.234E+01   0.387E-02 -.295E-02 -.105E-02
   0.764E+03 0.764E+03 0.967E+01   -.762E+03 -.762E+03 -.969E+01   -.114E+01 -.114E+01 0.111E-01   0.305E-02 0.314E-02 -.126E-03
   -.764E+03 -.764E+03 0.116E+02   0.762E+03 0.762E+03 -.116E+02   0.114E+01 0.114E+01 0.418E-02   -.208E-02 -.186E-02 0.498E-02
   -.764E+03 0.765E+03 0.102E+02   0.762E+03 -.763E+03 -.102E+02   0.114E+01 -.114E+01 0.934E-02   -.445E-02 -.288E-03 -.400E-02
   0.765E+03 -.764E+03 0.109E+02   -.763E+03 0.762E+03 -.109E+02   -.114E+01 0.114E+01 0.683E-02   0.360E-02 -.424E-03 -.256E-02
   0.155E+00 0.329E+00 0.107E+04   -.150E+00 -.321E+00 -.107E+04   -.344E-03 -.777E-03 -.162E+01   -.375E-02 -.639E-02 0.298E-02
   0.787E+01 0.168E+02 -.953E+03   -.789E+01 -.169E+02 0.951E+03   0.432E-01 0.924E-01 0.174E+01   -.375E-02 -.224E-02 -.357E-02
   0.982E+03 0.398E+03 -.402E+03   -.979E+03 -.396E+03 0.402E+03   -.182E+01 -.150E+01 0.215E+00   0.465E-02 -.582E-03 0.145E-03
   -.398E+03 -.984E+03 -.398E+03   0.395E+03 0.981E+03 0.398E+03   0.150E+01 0.182E+01 0.214E+00   -.443E-03 -.295E-02 -.571E-02
   -.328E+03 0.331E+03 -.424E+03   0.328E+03 -.332E+03 0.425E+03   -.338E+00 0.338E+00 -.535E+00   -.739E-02 0.324E-02 -.190E-02
   0.322E+03 -.322E+03 0.460E+03   -.323E+03 0.322E+03 -.461E+03   0.366E+00 -.366E+00 0.521E+00   -.379E-02 -.745E-03 0.635E-02
   0.329E+03 0.331E+03 -.425E+03   -.330E+03 -.331E+03 0.426E+03   0.331E+00 0.331E+00 -.548E+00   0.828E-03 0.232E-02 -.939E-03
   -.983E+03 0.399E+03 -.400E+03   0.980E+03 -.397E+03 0.400E+03   0.182E+01 -.150E+01 0.214E+00   -.262E-03 0.379E-02 -.708E-03
   0.399E+03 -.983E+03 -.399E+03   -.397E+03 0.980E+03 0.399E+03   -.150E+01 0.182E+01 0.213E+00   -.351E-03 -.138E-02 -.563E-02
   -.322E+03 -.322E+03 0.460E+03   0.322E+03 0.322E+03 -.461E+03   -.366E+00 -.366E+00 0.522E+00   -.439E-02 -.322E-02 0.119E-01
   0.644E+03 0.836E+00 0.130E+02   -.645E+03 -.837E+00 -.130E+02   0.734E+00 0.145E-03 -.252E-02   0.466E-02 0.612E-03 -.204E-02
   -.643E+03 0.884E+00 0.139E+02   0.644E+03 -.890E+00 -.138E+02   -.733E+00 0.236E-04 -.645E-02   -.457E-02 0.534E-02 0.148E-02
   0.149E+00 -.587E+03 0.966E+03   -.141E+00 0.587E+03 -.963E+03   0.596E-04 0.309E+00 -.235E+01   -.746E-02 0.934E-03 0.352E-02
   0.304E+01 -.625E+03 -.916E+03   -.304E+01 0.624E+03 0.913E+03   0.217E-02 0.237E+00 0.234E+01   -.772E-03 -.243E-02 -.514E-02
   0.519E+00 0.110E+01 0.174E+02   -.517E+00 -.110E+01 -.174E+02   0.400E-03 0.798E-03 -.279E-02   -.244E-02 0.945E-03 0.161E-02
   0.331E+03 -.327E+03 -.422E+03   -.331E+03 0.327E+03 0.423E+03   0.344E+00 -.345E+00 -.520E+00   0.299E-02 -.345E-02 -.526E-02
   -.329E+03 -.327E+03 -.420E+03   0.329E+03 0.328E+03 0.421E+03   -.350E+00 -.350E+00 -.508E+00   -.119E-02 0.134E-03 -.677E-02
   0.433E+00 -.643E+03 0.144E+02   -.432E+00 0.644E+03 -.144E+02   0.298E-04 -.733E+00 -.900E-02   -.134E-02 -.244E-02 0.258E-02
   -.302E+01 -.636E+01 -.154E+03   0.221E+01 0.462E+01 0.124E+03   0.707E+00 0.151E+01 0.261E+02   -.498E-03 -.703E-03 -.818E-03
   -.172E+02 -.367E+02 -.654E+03   0.189E+02 0.404E+02 0.717E+03   -.168E+01 -.358E+01 -.605E+02   -.454E-03 -.643E-03 -.746E-03
 -----------------------------------------------------------------------------------------------
   0.994E+00 0.207E+01 0.344E+02   0.149E-12 -.725E-12 -.159E-11   -.959E+00 -.204E+01 -.344E+02   -.445E-01 -.260E-01 -.696E-03
 
 
 POSITION                                       TOTAL-FORCE (eV/Angst)
 -----------------------------------------------------------------------------------
     13.37281      9.84801     12.50759         0.703169      1.107430      0.293054
     20.15199     16.62719     12.50759        -1.107313     -0.702929      0.292061
     16.62719      9.84801     12.50759        -0.702736      1.107375      0.292606
      9.84801     16.62719     12.50759         1.107686     -0.703027      0.292276
     15.00000     11.47521     10.20639         0.000295      0.411438      1.281050
     15.00000     11.47521     19.79360         0.000147      0.401451     -1.297833
     15.00000      8.28283     15.00000         0.000118      1.515968     -0.000425
      8.28283     15.00000     15.00000         1.515908     -0.000270     -0.000362
     21.71717     15.00000     15.00000        -1.515314     -0.000246     -0.000145
     15.00000     21.71717     15.00000         0.000109     -1.515404      0.000001
     18.35858     11.64142     10.25025        -0.755540      0.755956      1.073004
     18.35858     11.64142     19.74975        -0.757057      0.756499     -1.072418
     11.64142     18.35858     10.25025         0.756153     -0.755616      1.072818
     11.64142     18.35858     19.74975         0.756222     -0.757172     -1.073167
     11.64142     11.64142     10.25025         0.755888      0.755731      1.072768
     11.64142     11.64142     19.74975         0.757210      0.756785     -1.071848
     18.35858     18.35858     10.25025        -0.755447     -0.755537      1.072424
     18.35858     18.35858     19.74975        -0.755485     -0.756342     -1.074120
     13.37281      9.84801     17.49241         0.702611      1.107209     -0.291595
     20.15199     16.62719     17.49241        -1.107214     -0.702239     -0.291974
     16.73751     13.26249     12.54279         0.112682     -0.112669     -0.157170
      9.84801     13.37281     12.50759         1.108062      0.702944      0.293118
     16.62719     20.15199     12.50759        -0.702661     -1.107794      0.291955
     16.62719      9.84801     17.49241        -0.701746      1.107065     -0.291844
      9.84801     16.62719     17.49241         1.107256     -0.701735     -0.292010
     20.15199     13.37281     12.50759        -1.107704      0.702610      0.292663
     13.37281     20.15199     12.50759         0.702997     -1.108172      0.292205
     13.26249     13.26249     12.54279        -0.112224     -0.112505     -0.157137
     15.00000     11.52498     15.00000        -0.000158     -0.226011      0.000006
     18.52479     15.00000     10.20639        -0.411467     -0.000099      1.280848
     18.52479     15.00000     19.79360        -0.391217     -0.000780     -1.302025
     11.47521     15.00000     10.20640         0.411750     -0.000011      1.281006
     11.47521     15.00000     19.79360         0.398569     -0.000442     -1.299554
     11.49535     11.49535     15.00000         0.825077      0.824507     -0.006606
     18.50465     18.50465     15.00000        -0.825729     -0.826276     -0.004489
     18.50465     11.49535     15.00000        -0.825055      0.824379     -0.006432
     11.49535     18.50465     15.00000         0.825281     -0.825913     -0.005643
     15.00000     15.00000     10.04368         0.000512      0.000604      1.180540
     15.00000     15.00000     19.95633         0.019700      0.041621     -0.690339
      9.84801     13.37281     17.49241         1.107839      0.702702     -0.291342
     16.62719     20.15199     17.49241        -0.702441     -1.107671     -0.291496
     16.73751     13.26249     17.45721         0.105080     -0.109540      0.158535
     13.26249     16.73751     12.54279        -0.112434      0.112450     -0.157127
     13.26249     13.26249     17.45721        -0.099592     -0.101530      0.163701
     20.15199     13.37281     17.49241        -1.107898      0.703112     -0.291024
     13.37281     20.15199     17.49241         0.703502     -1.108313     -0.291013
     16.73751     16.73751     12.54279         0.112727      0.112432     -0.157081
     11.52498     15.00000     15.00000        -0.225598     -0.000791     -0.000486
     18.47502     15.00000     15.00000         0.225758     -0.000713     -0.001138
     15.00000     18.52480     10.20639         0.000140     -0.411671      1.280974
     15.00000     18.52480     19.79360        -0.000193     -0.387214     -1.302657
     15.00000     15.00000     15.00000         0.000190     -0.000070      0.005307
     13.26249     16.73751     17.45721        -0.115106      0.110670      0.154715
     16.73751     16.73751     17.45721         0.117888      0.115965      0.152586
     15.00000     18.47502     15.00000        -0.000106      0.225286     -0.001544
     15.21865     15.46718     22.88339        -0.105888     -0.223159     -2.899283
     15.24987     15.53388     24.00898         0.062797      0.159671      2.501108
 -----------------------------------------------------------------------------------
    total drift:                               -0.009915      0.007295      0.006755


--------------------------------------------------------------------------------------------------------



  FREE ENERGIE OF THE ION-ELECTRON SYSTEM (eV)
  ---------------------------------------------------
  free  energy   TOTEN  =      -173.69502259 eV

  energy  without entropy=     -173.60276352  energy(sigma->0) =     -173.67195782
 


--------------------------------------------------------------------------------------------------------


    POTLOK:  cpu time   14.2882: real time   14.2884


--------------------------------------------------------------------------------------------------------


     LOOP+:  cpu time19073.6163: real time19074.0633
    4ORBIT:  cpu time    0.0000: real time    0.0000

 total amount of memory used by VASP MPI-rank0  5486941. kBytes
=======================================================================

   base      :      30000. kBytes
   nonlr-proj:      17126. kBytes
   fftplans  :     924480. kBytes
   grid      :    1872000. kBytes
   one-center:        886. kBytes
   wavefun   :    2642449. kBytes
 
  
  
 General timing and accounting informations for this job:
 ========================================================
  
                  Total CPU time used (sec):    19148.883
                            User time (sec):    18096.758
                          System time (sec):     1052.124
                         Elapsed time (sec):    19149.386
  
                   Maximum memory used (kb):     7179276.
                   Average memory used (kb):           0.
  
                          Minor page faults:    823237090
                          Major page faults:            0
                 Voluntary context switches:          507
