 running on    1 total cores
 distrk:  each k-point on    1 cores,    1 groups
 distr:  one band on    1 cores,    1 groups
 using from now: INCAR     
 vasp.5.4.4.18Apr17-6-g9f103f2a35 (build Sep 03 2018 23:53:05) complex          
  
 POSCAR found type information on POSCAR  Pd C  O 
 POSCAR found :  3 types and      57 ions
 scaLAPACK will be used

 ----------------------------------------------------------------------------- 
|                                                                             |
|  ADVICE TO THIS USER RUNNING 'VASP/VAMP'   (HEAR YOUR MASTER'S VOICE ...):  |
|                                                                             |
|      You enforced a specific xc-type in the INCAR file,                     |
|      a different type was found on the POTCAR file                          |
|          I HOPE YOU KNOW, WHAT YOU ARE  DOING                               |
|                                                                             |
 ----------------------------------------------------------------------------- 

 LDA part: xc-table for Pade appr. of Perdew
 POSCAR, INCAR and KPOINTS ok, starting setup
 FFT: planning ...
 WAVECAR not read
 entering main loop
       N       E                     dE             d eps       ncg     rms          rms(c)
DAV:   1     0.438203738001E+04    0.43820E+04   -0.10047E+05   688   0.815E+02
DAV:   2     0.201062181832E+04   -0.23714E+04   -0.21325E+04  1240   0.105E+02
DAV:   3     0.230124145217E+03   -0.17805E+04   -0.16767E+04  1008   0.917E+01
DAV:   4    -0.133059424182E+03   -0.36318E+03   -0.30590E+03   824   0.434E+01
DAV:   5    -0.178537717699E+03   -0.45478E+02   -0.37526E+02  1048   0.144E+01    0.139E+01
RMM:   6    -0.178319745232E+03    0.21797E+00   -0.52109E+01   722   0.854E+00    0.253E+01
RMM:   7    -0.179867921535E+03   -0.15482E+01   -0.17859E+01   872   0.385E+00    0.192E+01
RMM:   8    -0.183023627338E+03   -0.31557E+01   -0.64175E+00   761   0.339E+00    0.247E+01
RMM:   9    -0.180499633593E+03    0.25240E+01   -0.50345E+00   724   0.319E+00    0.218E+01
RMM:  10    -0.177642561250E+03    0.28571E+01   -0.27678E+00   724   0.253E+00    0.185E+01
RMM:  11    -0.176242464527E+03    0.14001E+01   -0.16272E+00   727   0.188E+00    0.124E+01
RMM:  12    -0.176047081354E+03    0.19538E+00   -0.95177E-01   721   0.143E+00    0.149E+01
RMM:  13    -0.176280086205E+03   -0.23300E+00   -0.89117E-01   729   0.137E+00    0.159E+01
RMM:  14    -0.176619355617E+03   -0.33927E+00   -0.11379E+00   723   0.157E+00    0.207E+01
RMM:  15    -0.176273243993E+03    0.34611E+00   -0.11375E+00   714   0.160E+00    0.242E+01
RMM:  16    -0.175044978503E+03    0.12283E+01   -0.74359E-01   714   0.125E+00    0.150E+01
RMM:  17    -0.174295953288E+03    0.74903E+00   -0.46502E-01   709   0.100E+00    0.782E+00
RMM:  18    -0.174202144303E+03    0.93809E-01   -0.42604E-01   714   0.949E-01    0.804E+00
RMM:  19    -0.174390503718E+03   -0.18836E+00   -0.27302E-01   717   0.776E-01    0.101E+01
RMM:  20    -0.174276251169E+03    0.11425E+00   -0.19551E-01   719   0.698E-01    0.993E+00
RMM:  21    -0.173977294592E+03    0.29896E+00   -0.15423E-01   707   0.644E-01    0.656E+00
RMM:  22    -0.173959418572E+03    0.17876E-01   -0.14192E-01   710   0.587E-01    0.658E+00
RMM:  23    -0.173945181860E+03    0.14237E-01   -0.16807E-01   714   0.634E-01    0.637E+00
RMM:  24    -0.173937928554E+03    0.72533E-02   -0.18852E-01   715   0.667E-01    0.588E+00
RMM:  25    -0.173847355632E+03    0.90573E-01   -0.12332E-01   708   0.560E-01    0.525E+00
RMM:  26    -0.173776525997E+03    0.70830E-01   -0.66163E-02   708   0.421E-01    0.381E+00
RMM:  27    -0.173728088669E+03    0.48437E-01   -0.36934E-02   714   0.318E-01    0.260E+00
RMM:  28    -0.173712198069E+03    0.15891E-01   -0.34829E-02   708   0.293E-01    0.240E+00
RMM:  29    -0.173691973320E+03    0.20225E-01   -0.22460E-02   710   0.248E-01    0.165E+00
RMM:  30    -0.173678237992E+03    0.13735E-01   -0.16138E-02   711   0.203E-01    0.123E+00
RMM:  31    -0.173672859299E+03    0.53787E-02   -0.73024E-03   710   0.139E-01    0.891E-01
RMM:  32    -0.173670656348E+03    0.22030E-02   -0.50841E-03   711   0.114E-01    0.942E-01
RMM:  33    -0.173666508709E+03    0.41476E-02   -0.31289E-03   709   0.903E-02    0.586E-01
RMM:  34    -0.173666931585E+03   -0.42288E-03   -0.25953E-03   709   0.791E-02    0.636E-01
RMM:  35    -0.173670003513E+03   -0.30719E-02   -0.28577E-03   702   0.827E-02    0.923E-01
RMM:  36    -0.173668284621E+03    0.17189E-02   -0.16637E-03   700   0.701E-02    0.552E-01
RMM:  37    -0.173669603705E+03   -0.13191E-02   -0.14147E-03   704   0.596E-02    0.535E-01
RMM:  38    -0.173670658210E+03   -0.10545E-02   -0.97107E-04   699   0.517E-02    0.458E-01
RMM:  39    -0.173672589204E+03   -0.19310E-02   -0.93062E-04   691   0.476E-02    0.288E-01
RMM:  40    -0.173674772745E+03   -0.21835E-02   -0.80123E-04   655   0.426E-02    0.288E-01
RMM:  41    -0.173678026066E+03   -0.32533E-02   -0.76885E-04   654   0.397E-02    0.265E-01
RMM:  42    -0.173681237334E+03   -0.32113E-02   -0.77453E-04   622   0.374E-02    0.165E-01
RMM:  43    -0.173682219471E+03   -0.98214E-03   -0.22614E-04   440   0.221E-02    0.135E-01
RMM:  44    -0.173685090638E+03   -0.28712E-02   -0.35878E-04   472   0.246E-02    0.173E-01
RMM:  45    -0.173686102704E+03   -0.10121E-02   -0.15973E-04   429   0.183E-02    0.897E-02
RMM:  46    -0.173687632189E+03   -0.15295E-02   -0.13635E-04   415   0.157E-02    0.150E-01
RMM:  47    -0.173689470005E+03   -0.18378E-02   -0.14494E-04   427   0.154E-02    0.105E-01
RMM:  48    -0.173690244946E+03   -0.77494E-03   -0.76657E-05   417   0.110E-02    0.767E-02
RMM:  49    -0.173691682173E+03   -0.14372E-02   -0.97603E-05   414   0.117E-02    0.519E-02
RMM:  50    -0.173692174425E+03   -0.49225E-03   -0.52566E-05   415   0.865E-03    0.420E-02
RMM:  51    -0.173692798072E+03   -0.62365E-03   -0.39555E-05   410   0.733E-03    0.390E-02
RMM:  52    -0.173693210028E+03   -0.41196E-03   -0.25624E-05   373   0.608E-03    0.172E-02
RMM:  53    -0.173693541079E+03   -0.33105E-03   -0.13002E-05   255   0.475E-03    0.232E-02
RMM:  54    -0.173694040429E+03   -0.49935E-03   -0.16038E-05   277   0.485E-03    0.166E-02
RMM:  55    -0.173694185687E+03   -0.14526E-03   -0.48167E-06   168   0.384E-03    0.136E-02
RMM:  56    -0.173694470325E+03   -0.28464E-03   -0.64775E-06   189   0.404E-03    0.130E-02
RMM:  57    -0.173694628773E+03   -0.15845E-03   -0.49691E-06   161   0.374E-03    0.922E-03
RMM:  58    -0.173694828785E+03   -0.20001E-03   -0.10352E-05   202   0.397E-03    0.843E-03
RMM:  59    -0.173694930222E+03   -0.10144E-03   -0.34112E-06   130   0.339E-03    0.649E-03
RMM:  60    -0.173695022587E+03   -0.92364E-04   -0.33034E-06   126   0.345E-03
   1 F= -.17369502E+03 E0= -.17367196E+03  d E =-.922591E-01
================================= SLURM INFO ===================================
Command: run-cluster -n 1 -m 10000 -j 000185_vasp --same-node /opt/VASP/vasp
Exit code: 0
Job name: 000185_vasp
Job time: 0 days 5h:19m:10s
MPI task count: 1
Working dir: /home/pashkov/pyFitIt/pyfitit/data/adaptive_pd_co_new_2/sample/000185
Job was running on nodes: h23
Task per node: 1
       JobID     MaxRSS  MaxDiskRead MaxDiskWrite    Elapsed    JobName 
------------ ---------- ------------ ------------ ---------- ---------- 
106683                                              05:19:10 000185_va+ 
106683.batch                                        05:19:10      batch 
