   57   57    1    1
  0.4736842E+03  0.3000000E-08  0.3000000E-08  0.3000000E-08  0.5000000E-15
  1.000000000000000E-004
  CAR 
 6_Pd100_top_free_z(O)                   
    560      1    336
 
  0.0000000E+00  0.0000000E+00  0.0000000E+00  0.1000000E+01
    1      -28.028417   1.000000
    2      -13.739073   1.000000
    3      -11.363789   1.000000
    4      -10.903480   1.000000
    5      -10.838611   1.000000
    6       -7.027465   1.000000
    7       -6.983036   1.000000
    8       -6.681939   1.000000
    9       -6.282509   1.000000
   10       -6.152153   1.000000
   11       -6.147037   1.000000
   12       -6.069647   1.000000
   13       -6.052127   1.000000
   14       -5.938010   1.000000
   15       -5.830496   1.000000
   16       -5.822042   1.000000
   17       -5.782091   1.000000
   18       -5.743117   1.000000
   19       -5.708948   1.000000
   20       -5.700966   1.000000
   21       -5.696231   1.000000
   22       -5.676397   1.000000
   23       -5.640014   1.000000
   24       -5.627542   1.000000
   25       -5.615882   1.000000
   26       -5.611777   1.000000
   27       -5.603661   1.000000
   28       -5.595075   1.000000
   29       -5.565449   1.000000
   30       -5.564087   1.000000
   31       -5.554966   1.000000
   32       -5.543263   1.000000
   33       -5.536721   1.000000
   34       -5.534470   1.000000
   35       -5.530672   1.000000
   36       -5.528893   1.000000
   37       -5.528105   1.000000
   38       -5.524923   1.000000
   39       -5.513131   1.000000
   40       -5.504120   1.000000
   41       -5.490607   1.000000
   42       -5.488438   1.000000
   43       -5.485363   1.000000
   44       -5.482700   1.000000
   45       -5.481323   1.000000
   46       -5.472575   1.000000
   47       -5.462148   1.000000
   48       -5.449884   1.000000
   49       -5.445749   1.000000
   50       -5.441871   1.000000
   51       -5.441201   1.000000
   52       -5.437422   1.000000
   53       -5.426541   1.000000
   54       -5.421375   1.000000
   55       -5.418741   1.000000
   56       -5.414447   1.000000
   57       -5.403419   1.000000
   58       -5.397105   1.000000
   59       -5.384515   1.000000
   60       -5.350675   1.000000
   61       -5.342707   1.000000
   62       -5.337659   1.000000
   63       -5.333771   1.000000
   64       -5.332443   1.000000
   65       -5.321185   1.000000
   66       -5.315723   1.000000
   67       -5.315195   1.000000
   68       -5.310171   1.000000
   69       -5.290300   1.000000
   70       -5.284122   1.000000
   71       -5.244464   1.000000
   72       -5.227742   1.000000
   73       -5.223108   1.000000
   74       -5.216235   1.000000
   75       -5.211048   1.000000
   76       -5.198175   1.000000
   77       -5.197747   1.000000
   78       -5.190800   1.000000
   79       -5.186019   1.000000
   80       -5.184099   1.000000
   81       -5.181994   1.000000
   82       -5.168423   1.000000
   83       -5.160682   1.000000
   84       -5.154238   1.000000
   85       -5.145753   1.000000
   86       -5.133705   1.000000
   87       -5.125360   1.000000
   88       -5.121994   1.000000
   89       -5.115355   1.000000
   90       -5.100413   1.000000
   91       -5.093398   1.000000
   92       -5.077159   1.000000
   93       -5.074759   1.000000
   94       -5.070127   1.000000
   95       -5.067938   1.000000
   96       -5.064580   1.000000
   97       -5.061170   1.000000
   98       -5.060635   1.000000
   99       -5.052196   1.000000
  100       -5.044788   1.000000
  101       -5.041555   1.000000
  102       -5.035075   1.000000
  103       -5.031308   1.000000
  104       -5.024135   1.000000
  105       -5.021087   1.000000
  106       -5.018650   1.000000
  107       -5.014734   1.000000
  108       -5.009607   1.000000
  109       -5.003402   1.000000
  110       -4.995102   1.000000
  111       -4.993278   1.000000
  112       -4.990090   1.000000
  113       -4.980939   1.000000
  114       -4.978490   1.000000
  115       -4.973574   0.999999
  116       -4.972138   0.999999
  117       -4.965873   0.999999
  118       -4.956639   0.999999
  119       -4.949771   0.999999
  120       -4.947187   0.999999
  121       -4.934981   0.999998
  122       -4.926510   0.999997
  123       -4.924330   0.999997
  124       -4.919422   0.999996
  125       -4.917668   0.999996
  126       -4.914228   0.999996
  127       -4.901525   0.999993
  128       -4.887303   0.999990
  129       -4.882580   0.999988
  130       -4.867951   0.999981
  131       -4.859330   0.999976
  132       -4.855658   0.999973
  133       -4.854261   0.999972
  134       -4.850465   0.999969
  135       -4.845482   0.999964
  136       -4.832696   0.999948
  137       -4.828535   0.999942
  138       -4.815586   0.999917
  139       -4.810047   0.999904
  140       -4.805123   0.999891
  141       -4.795277   0.999860
  142       -4.791434   0.999846
  143       -4.781777   0.999804
  144       -4.773941   0.999763
  145       -4.765182   0.999709
  146       -4.756889   0.999648
  147       -4.751749   0.999605
  148       -4.747307   0.999564
  149       -4.744481   0.999536
  150       -4.738697   0.999474
  151       -4.724811   0.999298
  152       -4.723271   0.999275
  153       -4.705547   0.998976
  154       -4.701194   0.998889
  155       -4.699903   0.998862
  156       -4.694912   0.998755
  157       -4.692185   0.998692
  158       -4.691118   0.998668
  159       -4.686995   0.998568
  160       -4.682166   0.998445
  161       -4.679914   0.998386
  162       -4.672000   0.998164
  163       -4.665675   0.997973
  164       -4.664111   0.997924
  165       -4.661949   0.997855
  166       -4.660643   0.997813
  167       -4.660141   0.997797
  168       -4.656760   0.997685
  169       -4.653196   0.997565
  170       -4.647678   0.997372
  171       -4.639007   0.997058
  172       -4.634445   0.996889
  173       -4.628592   0.996669
  174       -4.618930   0.996306
  175       -4.617301   0.996246
  176       -4.611801   0.996046
  177       -4.610254   0.995991
  178       -4.606821   0.995872
  179       -4.606059   0.995846
  180       -4.596568   0.995544
  181       -4.593871   0.995467
  182       -4.586359   0.995280
  183       -4.584843   0.995248
  184       -4.580538   0.995170
  185       -4.576273   0.995112
  186       -4.574488   0.995094
  187       -4.571225   0.995072
  188       -4.563840   0.995080
  189       -4.562787   0.995088
  190       -4.558668   0.995139
  191       -4.554737   0.995218
  192       -4.545317   0.995542
  193       -4.528239   0.996715
  194       -4.527364   0.996799
  195       -4.521404   0.997437
  196       -4.515900   0.998137
  197       -4.514798   0.998291
  198       -4.511916   0.998714
  199       -4.507200   0.999478
  200       -4.501689   1.000485
  201       -4.491904   1.002593
  202       -4.482391   1.005052
  203       -4.479085   1.006003
  204       -4.478383   1.006212
  205       -4.476009   1.006933
  206       -4.466575   1.010052
  207       -4.464264   1.010877
  208       -4.461576   1.011865
  209       -4.458516   1.013026
  210       -4.453211   1.015130
  211       -4.449773   1.016552
  212       -4.442794   1.019564
  213       -4.440258   1.020697
  214       -4.436085   1.022598
  215       -4.427107   1.026816
  216       -4.423114   1.028729
  217       -4.422451   1.029048
  218       -4.419832   1.030309
  219       -4.418910   1.030753
  220       -4.411286   1.034410
  221       -4.402102   1.038691
  222       -4.385772   1.045462
  223       -4.381996   1.046782
  224       -4.379507   1.047585
  225       -4.373660   1.049233
  226       -4.366250   1.050764
  227       -4.353753   1.051587
  228       -4.352025   1.051498
  229       -4.350404   1.051364
  230       -4.349073   1.051217
  231       -4.347763   1.051038
  232       -4.346868   1.050897
  233       -4.342817   1.050052
  234       -4.340918   1.049535
  235       -4.339415   1.049070
  236       -4.336370   1.047968
  237       -4.336160   1.047884
  238       -4.332675   1.046335
  239       -4.331775   1.045885
  240       -4.327229   1.043299
  241       -4.323524   1.040782
  242       -4.314227   1.032737
  243       -4.310764   1.029071
  244       -4.305558   1.022836
  245       -4.304691   1.021713
  246       -4.301599   1.017495
  247       -4.298361   1.012728
  248       -4.295847   1.008773
  249       -4.294026   1.005769
  250       -4.286964   0.992982
  251       -4.281301   0.981393
  252       -4.278015   0.974113
  253       -4.275772   0.968906
  254       -4.274846   0.966701
  255       -4.269339   0.952900
  256       -4.267579   0.948242
  257       -4.265885   0.943645
  258       -4.261874   0.932315
  259       -4.260292   0.927677
  260       -4.259112   0.924154
  261       -4.255931   0.914385
  262       -4.255265   0.912291
  263       -4.253501   0.906664
  264       -4.251561   0.900337
  265       -4.250046   0.895297
  266       -4.242860   0.870217
  267       -4.239699   0.858584
  268       -4.237580   0.850585
  269       -4.235567   0.842836
  270       -4.233135   0.833290
  271       -4.231209   0.825583
  272       -4.225327   0.801288
  273       -4.219041   0.774104
  274       -4.211355   0.739295
  275       -4.200214   0.686132
  276       -4.196532   0.667956
  277       -4.190393   0.637089
  278       -4.188749   0.628719
  279       -4.187584   0.622759
  280       -4.184945   0.609195
  281       -4.173064   0.547203
  282       -4.166378   0.511914
  283       -4.153547   0.444166
  284       -4.145424   0.401752
  285       -4.142318   0.385713
  286       -4.141254   0.380248
  287       -4.131300   0.329960
  288       -4.125982   0.303844
  289       -4.084141   0.125280
  290       -3.977203  -0.051423
  291       -3.897743  -0.025202
  292       -3.843987  -0.004536
  293       -3.828105  -0.000790
  294       -3.680093   0.002611
  295       -3.523377   0.000110
  296       -3.503825   0.000065
  297       -3.379384   0.000001
  298       -3.085799   0.000000
  299       -3.084094   0.000000
  300       -3.061829   0.000000
  301       -3.054680   0.000000
  302       -3.033268   0.000000
  303       -2.967206   0.000000
  304       -2.958600   0.000000
  305       -2.785657   0.000000
  306       -2.545759   0.000000
  307       -2.538427   0.000000
  308       -2.404338   0.000000
  309       -2.328369   0.000000
  310       -2.144468   0.000000
  311       -2.129283   0.000000
  312       -2.111708   0.000000
  313       -2.047212   0.000000
  314       -1.973033   0.000000
  315       -1.938172   0.000000
  316       -1.884390   0.000000
  317       -1.795629   0.000000
  318       -1.737358   0.000000
  319       -1.711749   0.000000
  320       -1.655836   0.000000
  321       -1.618216   0.000000
  322       -1.568897   0.000000
  323       -1.396261   0.000000
  324       -1.346344   0.000000
  325       -1.259233   0.000000
  326       -1.178002   0.000000
  327       -1.112772   0.000000
  328       -1.003389   0.000000
  329       -0.999012   0.000000
  330       -0.985645   0.000000
  331       -0.958407   0.000000
  332       -0.947825   0.000000
  333       -0.923781   0.000000
  334       -0.881548   0.000000
  335       -0.809550   0.000000
  336       -0.720484   0.000000
