 running on    1 total cores
 distrk:  each k-point on    1 cores,    1 groups
 distr:  one band on    1 cores,    1 groups
 using from now: INCAR     
 vasp.5.4.4.18Apr17-6-g9f103f2a35 (build Sep 03 2018 23:53:05) complex          
  
 POSCAR found type information on POSCAR  Pd C  O 
 POSCAR found :  3 types and      57 ions
 scaLAPACK will be used

 ----------------------------------------------------------------------------- 
|                                                                             |
|  ADVICE TO THIS USER RUNNING 'VASP/VAMP'   (HEAR YOUR MASTER'S VOICE ...):  |
|                                                                             |
|      You enforced a specific xc-type in the INCAR file,                     |
|      a different type was found on the POTCAR file                          |
|          I HOPE YOU KNOW, WHAT YOU ARE  DOING                               |
|                                                                             |
 ----------------------------------------------------------------------------- 

 LDA part: xc-table for Pade appr. of Perdew
 POSCAR, INCAR and KPOINTS ok, starting setup
 FFT: planning ...
 WAVECAR not read
 entering main loop
       N       E                     dE             d eps       ncg     rms          rms(c)
DAV:   1     0.440255475876E+04    0.44026E+04   -0.10057E+05   688   0.815E+02
DAV:   2     0.201234270522E+04   -0.23902E+04   -0.21525E+04  1224   0.106E+02
DAV:   3     0.238716057309E+03   -0.17736E+04   -0.16710E+04  1000   0.918E+01
DAV:   4    -0.132640968016E+03   -0.37136E+03   -0.31390E+03   832   0.436E+01
DAV:   5    -0.179709903585E+03   -0.47069E+02   -0.39009E+02  1040   0.148E+01    0.164E+01
RMM:   6    -0.180624845674E+03   -0.91494E+00   -0.68889E+01   734   0.984E+00    0.253E+01
RMM:   7    -0.181971788585E+03   -0.13469E+01   -0.22112E+01   857   0.482E+00    0.213E+01
RMM:   8    -0.185040611896E+03   -0.30688E+01   -0.76117E+00   774   0.369E+00    0.292E+01
RMM:   9    -0.182906162857E+03    0.21344E+01   -0.58662E+00   739   0.332E+00    0.265E+01
RMM:  10    -0.180827624497E+03    0.20785E+01   -0.35268E+00   732   0.270E+00    0.245E+01
RMM:  11    -0.178394858988E+03    0.24328E+01   -0.25314E+00   731   0.226E+00    0.181E+01
RMM:  12    -0.177871888367E+03    0.52297E+00   -0.20479E+00   724   0.212E+00    0.186E+01
RMM:  13    -0.177245230525E+03    0.62666E+00   -0.14262E+00   725   0.177E+00    0.176E+01
RMM:  14    -0.176853853432E+03    0.39138E+00   -0.16437E+00   716   0.186E+00    0.193E+01
RMM:  15    -0.176570995258E+03    0.28286E+00   -0.15244E+00   718   0.179E+00    0.179E+01
RMM:  16    -0.175766728363E+03    0.80427E+00   -0.10400E+00   708   0.149E+00    0.116E+01
RMM:  17    -0.175484632696E+03    0.28210E+00   -0.67684E-01   704   0.125E+00    0.116E+01
RMM:  18    -0.175166694838E+03    0.31794E+00   -0.53584E-01   702   0.110E+00    0.850E+00
RMM:  19    -0.175065659660E+03    0.10104E+00   -0.34928E-01   699   0.900E-01    0.917E+00
RMM:  20    -0.174895625731E+03    0.17003E+00   -0.33687E-01   696   0.901E-01    0.769E+00
RMM:  21    -0.174971949189E+03   -0.76323E-01   -0.27118E-01   704   0.816E-01    0.864E+00
RMM:  22    -0.174832522550E+03    0.13943E+00   -0.20909E-01   699   0.740E-01    0.699E+00
RMM:  23    -0.174667488191E+03    0.16503E+00   -0.17029E-01   698   0.642E-01    0.503E+00
RMM:  24    -0.174620446040E+03    0.47042E-01   -0.10697E-01   694   0.515E-01    0.439E+00
RMM:  25    -0.174573068502E+03    0.47378E-01   -0.82730E-02   698   0.456E-01    0.358E+00
RMM:  26    -0.174544723189E+03    0.28345E-01   -0.62706E-02   692   0.398E-01    0.299E+00
RMM:  27    -0.174537027426E+03    0.76958E-02   -0.45190E-02   694   0.346E-01    0.314E+00
RMM:  28    -0.174504871385E+03    0.32156E-01   -0.23447E-02   697   0.261E-01    0.200E+00
RMM:  29    -0.174489824651E+03    0.15047E-01   -0.17036E-02   690   0.216E-01    0.151E+00
RMM:  30    -0.174485737525E+03    0.40871E-02   -0.96910E-03   693   0.161E-01    0.128E+00
RMM:  31    -0.174479630920E+03    0.61066E-02   -0.49475E-03   690   0.123E-01    0.849E-01
RMM:  32    -0.174476432099E+03    0.31988E-02   -0.45414E-03   691   0.106E-01    0.705E-01
RMM:  33    -0.174474463664E+03    0.19684E-02   -0.32598E-03   689   0.929E-02    0.544E-01
RMM:  34    -0.174475125033E+03   -0.66137E-03   -0.26748E-03   687   0.808E-02    0.570E-01
RMM:  35    -0.174475239446E+03   -0.11441E-03   -0.19145E-03   685   0.720E-02    0.414E-01
RMM:  36    -0.174476401236E+03   -0.11618E-02   -0.12712E-03   685   0.573E-02    0.329E-01
RMM:  37    -0.174479061350E+03   -0.26601E-02   -0.11534E-03   684   0.530E-02    0.362E-01
RMM:  38    -0.174481414926E+03   -0.23536E-02   -0.84438E-04   681   0.455E-02    0.230E-01
RMM:  39    -0.174483799415E+03   -0.23845E-02   -0.61368E-04   624   0.378E-02    0.248E-01
RMM:  40    -0.174485646298E+03   -0.18469E-02   -0.40382E-04   482   0.310E-02    0.184E-01
RMM:  41    -0.174488590500E+03   -0.29442E-02   -0.51746E-04   559   0.313E-02    0.207E-01
RMM:  42    -0.174490403415E+03   -0.18129E-02   -0.32089E-04   442   0.258E-02    0.158E-01
RMM:  43    -0.174492878064E+03   -0.24746E-02   -0.42674E-04   511   0.258E-02    0.191E-01
RMM:  44    -0.174494489476E+03   -0.16114E-02   -0.26615E-04   427   0.216E-02    0.174E-01
RMM:  45    -0.174495675071E+03   -0.11856E-02   -0.17650E-04   409   0.171E-02    0.109E-01
RMM:  46    -0.174496783283E+03   -0.11082E-02   -0.13050E-04   409   0.143E-02    0.103E-01
RMM:  47    -0.174497817114E+03   -0.10338E-02   -0.93403E-05   407   0.118E-02    0.107E-01
RMM:  48    -0.174498733287E+03   -0.91617E-03   -0.75358E-05   406   0.107E-02    0.712E-02
RMM:  49    -0.174499205967E+03   -0.47268E-03   -0.41504E-05   399   0.780E-03    0.383E-02
RMM:  50    -0.174499995613E+03   -0.78965E-03   -0.34187E-05   400   0.716E-03    0.340E-02
RMM:  51    -0.174500382593E+03   -0.38698E-03   -0.21334E-05   379   0.605E-03    0.326E-02
RMM:  52    -0.174501217191E+03   -0.83460E-03   -0.25601E-05   372   0.610E-03    0.204E-02
RMM:  53    -0.174501490986E+03   -0.27380E-03   -0.84695E-06   220   0.418E-03    0.143E-02
RMM:  54    -0.174502068540E+03   -0.57755E-03   -0.17761E-05   285   0.500E-03    0.181E-02
RMM:  55    -0.174502384936E+03   -0.31640E-03   -0.11656E-05   242   0.450E-03    0.893E-03
RMM:  56    -0.174502632754E+03   -0.24782E-03   -0.10828E-05   218   0.416E-03    0.129E-02
RMM:  57    -0.174502855986E+03   -0.22323E-03   -0.11754E-05   196   0.401E-03    0.658E-03
RMM:  58    -0.174502977825E+03   -0.12184E-03   -0.41508E-06   135   0.374E-03    0.709E-03
RMM:  59    -0.174503125063E+03   -0.14724E-03   -0.14902E-05   221   0.426E-03    0.469E-03
RMM:  60    -0.174503178420E+03   -0.53357E-04   -0.30120E-06   114   0.344E-03
   1 F= -.17450318E+03 E0= -.17449330E+03  d E =-.395265E-01
================================= SLURM INFO ===================================
Command: run-cluster -n 1 -m 10000 -j 0201_vasp --same-node /opt/VASP/vasp
Exit code: 0
Job name: 0201_vasp
Job time: 0 days 5h:4m:34s
MPI task count: 1
Working dir: /home/pashkov/pyFitIt/pyfitit/data/random_pd_co_new/sample/0201
Job was running on nodes: h8
Task per node: 1
       JobID     MaxRSS  MaxDiskRead MaxDiskWrite    Elapsed    JobName 
------------ ---------- ------------ ------------ ---------- ---------- 
105442                                              05:04:35  0201_vasp 
105442.batch                                        05:04:35      batch 
