 vasp.5.4.4.18Apr17-6-g9f103f2a35 (build Sep 03 2018 23:53:05) complex          
  
 executed on             LinuxIFC date 2021.11.26  15:55:04
 running on    1 total cores
 distrk:  each k-point on    1 cores,    1 groups
 distr:  one band on NCORES_PER_BAND=   1 cores,    1 groups


--------------------------------------------------------------------------------------------------------


 INCAR:
 POTCAR:    PAW_PBE Pd 04Jan2005                  
 POTCAR:    PAW_PBE C 08Apr2002                   
 POTCAR:    PAW_PBE O 08Apr2002                   
 POTCAR:    PAW_PBE Pd 04Jan2005                  
   VRHFIN =Pd : s1 d9                                                           
   LEXCH  = PE                                                                  
   EATOM  =   809.7530 eV,   59.5152 Ry                                         
                                                                                
   TITEL  = PAW_PBE Pd 04Jan2005                                                
   LULTRA =        F    use ultrasoft PP ?                                      
   IUNSCR =        1    unscreen: 0-lin 1-nonlin 2-no                           
   RPACOR =    2.000    partial core radius                                     
   POMASS =  106.420; ZVAL   =   10.000    mass and valenz                      
   RCORE  =    2.600    outmost cutoff radius                                   
   RWIGS  =    2.710; RWIGS  =    1.434    wigner-seitz radius (au A)           
   ENMAX  =  250.925; ENMIN  =  188.194 eV                                      
   ICORE  =        3    local potential                                         
   LCOR   =        T    correct aug charges                                     
   LPAW   =        T    paw PP                                                  
   EAUG   =  416.230                                                            
   DEXC   =    0.000                                                            
   RMAX   =    2.653    core radius for proj-oper                               
   RAUG   =    1.300    factor for augmentation sphere                          
   RDEP   =    2.734    radius for radial grids                                 
   RDEPT  =    2.103    core radius for aug-charge                              
                                                                                
   Atomic configuration                                                         
   12 entries                                                                   
     n  l   j            E        occ.                                          
     1  0  0.50    -24164.6631   2.0000                                         
     2  0  0.50     -3530.9218   2.0000                                         
     2  1  1.50     -3165.6822   6.0000                                         
     3  0  0.50      -639.4577   2.0000                                         
     3  1  1.50      -519.4532   6.0000                                         
     3  2  2.50      -328.9757  10.0000                                         
     4  0  0.50       -88.7014   2.0000                                         
     4  1  1.50       -54.4540   6.0000                                         
     4  2  2.50        -6.6878   9.0000                                         
     5  0  0.50        -4.3543   1.0000                                         
     5  1  0.50        -1.3606   0.0000                                         
     4  3  2.50        -1.3606   0.0000                                         
   Description                                                                  
     l       E           TYP  RCUT    TYP  RCUT                                 
     2     -6.6878251     23  2.400                                             
     2     -8.0484077     23  2.400                                             
     0     -4.3542939     23  2.400                                             
     0      4.3406793     23  2.400                                             
     1     -4.0817478     23  2.600                                             
     1     15.8380318     23  2.600                                             
     3     -4.0817478     23  2.400                                             
  local pseudopotential read in
  partial core-charges read in
  partial kinetic energy density read in
  atomic valenz-charges read in
  non local Contribution for L=           2  read in
    real space projection operators read in
  non local Contribution for L=           2  read in
    real space projection operators read in
  non local Contribution for L=           0  read in
    real space projection operators read in
  non local Contribution for L=           0  read in
    real space projection operators read in
  non local Contribution for L=           1  read in
    real space projection operators read in
  non local Contribution for L=           1  read in
    real space projection operators read in
    PAW grid and wavefunctions read in
 
   number of l-projection  operators is LMAX  =           6
   number of lm-projection operators is LMMAX =          18
 
 POTCAR:    PAW_PBE C 08Apr2002                   
   VRHFIN =C: s2p2                                                              
   LEXCH  = PE                                                                  
   EATOM  =   147.1560 eV,   10.8157 Ry                                         
                                                                                
   TITEL  = PAW_PBE C 08Apr2002                                                 
   LULTRA =        F    use ultrasoft PP ?                                      
   IUNSCR =        1    unscreen: 0-lin 1-nonlin 2-no                           
   RPACOR =    1.200    partial core radius                                     
   POMASS =   12.011; ZVAL   =    4.000    mass and valenz                      
   RCORE  =    1.500    outmost cutoff radius                                   
   RWIGS  =    1.630; RWIGS  =    0.863    wigner-seitz radius (au A)           
   ENMAX  =  400.000; ENMIN  =  300.000 eV                                      
   ICORE  =        2    local potential                                         
   LCOR   =        T    correct aug charges                                     
   LPAW   =        T    paw PP                                                  
   EAUG   =  644.873                                                            
   DEXC   =    0.000                                                            
   RMAX   =    1.529    core radius for proj-oper                               
   RAUG   =    1.300    factor for augmentation sphere                          
   RDEP   =    1.501    radius for radial grids                                 
   RDEPT  =    1.300    core radius for aug-charge                              
                                                                                
   Atomic configuration                                                         
    4 entries                                                                   
     n  l   j            E        occ.                                          
     1  0  0.50      -273.3789   2.0000                                         
     2  0  0.50       -13.7508   2.0000                                         
     2  1  0.50        -5.2854   2.0000                                         
     3  2  1.50        -5.4423   0.0000                                         
   Description                                                                  
     l       E           TYP  RCUT    TYP  RCUT                                 
     0    -13.7508458     23  1.200                                             
     0     -8.2022199     23  1.200                                             
     1     -5.2854383     23  1.500                                             
     1     34.0145650     23  1.500                                             
     2     -5.4423304      7  1.500                                             
  local pseudopotential read in
  partial core-charges read in
  partial kinetic energy density read in
  atomic valenz-charges read in
  non local Contribution for L=           0  read in
    real space projection operators read in
  non local Contribution for L=           0  read in
    real space projection operators read in
  non local Contribution for L=           1  read in
    real space projection operators read in
  non local Contribution for L=           1  read in
    real space projection operators read in
    PAW grid and wavefunctions read in
 
   number of l-projection  operators is LMAX  =           4
   number of lm-projection operators is LMMAX =           8
 
 POTCAR:    PAW_PBE O 08Apr2002                   
   VRHFIN =O: s2p4                                                              
   LEXCH  = PE                                                                  
   EATOM  =   432.3788 eV,   31.7789 Ry                                         
                                                                                
   TITEL  = PAW_PBE O 08Apr2002                                                 
   LULTRA =        F    use ultrasoft PP ?                                      
   IUNSCR =        1    unscreen: 0-lin 1-nonlin 2-no                           
   RPACOR =    1.200    partial core radius                                     
   POMASS =   16.000; ZVAL   =    6.000    mass and valenz                      
   RCORE  =    1.520    outmost cutoff radius                                   
   RWIGS  =    1.550; RWIGS  =    0.820    wigner-seitz radius (au A)           
   ENMAX  =  400.000; ENMIN  =  300.000 eV                                      
   ICORE  =        2    local potential                                         
   LCOR   =        T    correct aug charges                                     
   LPAW   =        T    paw PP                                                  
   EAUG   =  605.392                                                            
   DEXC   =    0.000                                                            
   RMAX   =    1.553    core radius for proj-oper                               
   RAUG   =    1.300    factor for augmentation sphere                          
   RDEP   =    1.550    radius for radial grids                                 
   RDEPT  =    1.329    core radius for aug-charge                              
                                                                                
   Atomic configuration                                                         
    4 entries                                                                   
     n  l   j            E        occ.                                          
     1  0  0.50      -514.6923   2.0000                                         
     2  0  0.50       -23.9615   2.0000                                         
     2  1  0.50        -9.0305   4.0000                                         
     3  2  1.50        -9.5241   0.0000                                         
   Description                                                                  
     l       E           TYP  RCUT    TYP  RCUT                                 
     0    -23.9615318     23  1.200                                             
     0     -9.5240782     23  1.200                                             
     1     -9.0304911     23  1.520                                             
     1      8.1634956     23  1.520                                             
     2     -9.5240782      7  1.500                                             
  local pseudopotential read in
  partial core-charges read in
  partial kinetic energy density read in
  kinetic energy density of atom read in
  atomic valenz-charges read in
  non local Contribution for L=           0  read in
    real space projection operators read in
  non local Contribution for L=           0  read in
    real space projection operators read in
  non local Contribution for L=           1  read in
    real space projection operators read in
  non local Contribution for L=           1  read in
    real space projection operators read in
    PAW grid and wavefunctions read in
 
   number of l-projection  operators is LMAX  =           4
   number of lm-projection operators is LMMAX =           8
 
 Optimization of the real space projectors (new method)

 maximal supplied QI-value         = 14.36
 optimisation between [QCUT,QGAM] = [ 10.20, 20.39] = [ 29.12,116.47] Ry 
 Optimized for a Real-space Cutoff    1.51 Angstroem

   l    n(q)    QCUT    max X(q) W(low)/X(q) W(high)/X(q)  e(spline) 
   2      8    10.197    59.108    0.26E-03    0.14E-03    0.96E-07
   2      8    10.197    58.101    0.27E-03    0.14E-03    0.98E-07
   0      9    10.197   102.235    0.54E-04    0.60E-05    0.72E-07
   0      9    10.197    58.388    0.52E-04    0.60E-05    0.68E-07
   1      9    10.197    22.191    0.18E-03    0.25E-03    0.79E-07
   1      9    10.197    15.590    0.15E-03    0.21E-03    0.69E-07
 Optimization of the real space projectors (new method)

 maximal supplied QI-value         = 25.13
 optimisation between [QCUT,QGAM] = [ 10.05, 20.36] = [ 28.30,116.06] Ry 
 Optimized for a Real-space Cutoff    1.30 Angstroem

   l    n(q)    QCUT    max X(q) W(low)/X(q) W(high)/X(q)  e(spline) 
   0      8    10.053   115.676    0.49E-03    0.72E-03    0.18E-06
   0      8    10.053    87.132    0.49E-03    0.71E-03    0.18E-06
   1      7    10.053     4.429    0.32E-03    0.31E-03    0.18E-06
   1      7    10.053     2.733    0.23E-03    0.19E-03    0.20E-06
 Optimization of the real space projectors (new method)

 maximal supplied QI-value         = 24.76
 optimisation between [QCUT,QGAM] = [ 10.15, 20.30] = [ 28.85,115.39] Ry 
 Optimized for a Real-space Cutoff    1.38 Angstroem

   l    n(q)    QCUT    max X(q) W(low)/X(q) W(high)/X(q)  e(spline) 
   0      8    10.150    20.381    0.22E-03    0.32E-03    0.29E-06
   0      8    10.150    15.268    0.23E-03    0.35E-03    0.30E-06
   1      8    10.150     5.964    0.46E-03    0.53E-03    0.21E-06
   1      8    10.150     5.382    0.38E-03    0.45E-03    0.19E-06

 ----------------------------------------------------------------------------- 
|                                                                             |
|  ADVICE TO THIS USER RUNNING 'VASP/VAMP'   (HEAR YOUR MASTER'S VOICE ...):  |
|                                                                             |
|      You enforced a specific xc-type in the INCAR file,                     |
|      a different type was found on the POTCAR file                          |
|          I HOPE YOU KNOW, WHAT YOU ARE  DOING                               |
|                                                                             |
 ----------------------------------------------------------------------------- 

  PAW_PBE Pd 04Jan2005                  :
 energy of atom  1       EATOM= -809.7530
 kinetic energy error for atom=    0.0091 (will be added to EATOM!!)
  PAW_PBE C 08Apr2002                   :
 energy of atom  2       EATOM= -147.1560
 kinetic energy error for atom=    0.0288 (will be added to EATOM!!)
  PAW_PBE O 08Apr2002                   :
 energy of atom  3       EATOM= -432.3788
 kinetic energy error for atom=    0.1156 (will be added to EATOM!!)
 
 
 POSCAR: Pd55PES                                 
  positions in cartesian coordinates
  No initial velocities read in
 exchange correlation table for  LEXCH =        9
   RHO(1)=    0.500       N(1)  =     2000
   RHO(2)=  100.500       N(2)  =     4000
 


--------------------------------------------------------------------------------------------------------


 ion  position               nearest neighbor table
   1  0.446  0.328  0.417-   3 3.25   5 3.25   7 3.36  15 3.36  29 3.42  28 3.42
   2  0.672  0.554  0.417-  26 3.25  30 3.25  17 3.36   9 3.36  47 3.42  49 3.42
   3  0.554  0.328  0.417-   1 3.25   5 3.25   7 3.36  11 3.36  29 3.42  21 3.42
   4  0.328  0.554  0.417-  32 3.25  22 3.25  13 3.36   8 3.36  43 3.42  48 3.42
   5  0.500  0.383  0.340-   1 3.25   3 3.25  11 3.36  15 3.36  21 3.42  28 3.42
   6  0.500  0.383  0.660-  24 3.25  19 3.25  16 3.36  12 3.36  42 3.42  44 3.42
   7  0.500  0.276  0.500-  29 3.24   3 3.36   1 3.36  19 3.36  24 3.36
   8  0.276  0.500  0.500-  48 3.24  22 3.36  40 3.36   4 3.36  25 3.36
   9  0.724  0.500  0.500-  49 3.24  26 3.36  45 3.36   2 3.36  20 3.36
  10  0.500  0.724  0.500-  55 3.24  27 3.36  23 3.36  46 3.36  41 3.36
  11  0.612  0.388  0.342-  21 3.24   5 3.36   3 3.36  30 3.36  26 3.36
  12  0.612  0.388  0.658-  42 3.24  24 3.36  45 3.36   6 3.36  31 3.36
  13  0.388  0.612  0.342-  43 3.24  32 3.36  50 3.36   4 3.36  27 3.36
  14  0.388  0.612  0.658-  53 3.24  25 3.36  33 3.36  51 3.36  46 3.36
  15  0.388  0.388  0.342-  28 3.24   5 3.36   1 3.36  32 3.36  22 3.36
  16  0.388  0.388  0.658-  44 3.24  19 3.36  40 3.36   6 3.36  33 3.36
  17  0.612  0.612  0.342-  47 3.24  30 3.36  50 3.36   2 3.36  23 3.36
  18  0.612  0.612  0.658-  54 3.24  31 3.36  20 3.36  51 3.36  41 3.36
  19  0.446  0.328  0.583-   6 3.25  24 3.25  16 3.36   7 3.36  44 3.42  29 3.42
  20  0.672  0.554  0.583-  31 3.25  45 3.25  18 3.36   9 3.36  54 3.42  49 3.42
  21  0.558  0.442  0.418-  11 3.24   5 3.42   3 3.42  30 3.42  26 3.42
  22  0.328  0.446  0.417-   4 3.25  32 3.25   8 3.36  15 3.36  48 3.42  28 3.42
  23  0.554  0.672  0.417-  56 2.06  27 3.25  50 3.25  10 3.36  17 3.36  55 3.42  47 3.42
  24  0.554  0.328  0.583-   6 3.25  19 3.25  12 3.36   7 3.36  42 3.42  29 3.42
  25  0.328  0.554  0.583-  33 3.25  40 3.25  14 3.36   8 3.36  53 3.42  48 3.42
  26  0.672  0.446  0.417-   2 3.25  30 3.25   9 3.36  11 3.36  49 3.42  21 3.42
  27  0.446  0.672  0.417-  23 3.25  50 3.25  10 3.36  13 3.36  55 3.42  43 3.42
  28  0.442  0.442  0.418-  15 3.24   5 3.42   1 3.42  32 3.42  22 3.42
  29  0.500  0.384  0.500-   7 3.24   3 3.42   1 3.42  24 3.42  19 3.42
  30  0.617  0.500  0.340-   2 3.25  26 3.25  17 3.36  11 3.36  47 3.42  21 3.42
  31  0.617  0.500  0.660-  20 3.25  45 3.25  18 3.36  12 3.36  54 3.42  42 3.42
  32  0.383  0.500  0.340-   4 3.25  22 3.25  13 3.36  15 3.36  43 3.42  28 3.42
  33  0.383  0.500  0.660-  25 3.25  40 3.25  14 3.36  16 3.36  53 3.42  44 3.42
  34  0.383  0.383  0.500-
  35  0.617  0.617  0.500-
  36  0.617  0.383  0.500-
  37  0.383  0.617  0.500-
  38  0.500  0.500  0.335-
  39  0.500  0.500  0.665-
  40  0.328  0.446  0.583-  33 3.25  25 3.25  16 3.36   8 3.36  44 3.42  48 3.42
  41  0.554  0.672  0.583-  46 3.25  51 3.25  10 3.36  18 3.36  54 3.42  55 3.42
  42  0.558  0.442  0.582-  12 3.24   6 3.42  24 3.42  31 3.42  45 3.42
  43  0.442  0.558  0.418-  13 3.24   4 3.42  32 3.42  27 3.42  50 3.42
  44  0.442  0.442  0.582-  16 3.24   6 3.42  19 3.42  33 3.42  40 3.42
  45  0.672  0.446  0.583-  20 3.25  31 3.25   9 3.36  12 3.36  49 3.42  42 3.42
  46  0.446  0.672  0.583-  41 3.25  51 3.25  10 3.36  14 3.36  53 3.42  55 3.42
  47  0.558  0.558  0.418-  17 3.24   2 3.42  30 3.42  23 3.42  50 3.42
  48  0.384  0.500  0.500-   8 3.24   4 3.42  22 3.42  25 3.42  40 3.42
  49  0.616  0.500  0.500-   9 3.24   2 3.42  26 3.42  20 3.42  45 3.42
  50  0.500  0.617  0.340-  27 3.25  23 3.25  13 3.36  17 3.36  43 3.42  47 3.42
  51  0.500  0.617  0.660-  41 3.25  46 3.25  14 3.36  18 3.36  53 3.42  54 3.42
  52  0.500  0.500  0.500-
  53  0.442  0.558  0.582-  14 3.24  25 3.42  33 3.42  51 3.42  46 3.42
  54  0.558  0.558  0.582-  18 3.24  31 3.42  20 3.42  51 3.42  41 3.42
  55  0.500  0.616  0.500-  10 3.24  23 3.42  27 3.42  41 3.42  46 3.42
  56  0.562  0.713  0.363-  57 1.13  23 2.06
  57  0.571  0.744  0.343-  56 1.13
 
  LATTYP: Found a simple cubic cell.
 ALAT       =    30.0000000000
  
  Lattice vectors:
  
 A1 = (  30.0000000000,   0.0000000000,   0.0000000000)
 A2 = (   0.0000000000,  30.0000000000,   0.0000000000)
 A3 = (   0.0000000000,   0.0000000000,  30.0000000000)


Analysis of symmetry for initial positions (statically):
=====================================================================
 Subroutine PRICEL returns:
 Original cell was already a primitive cell.
 

 Routine SETGRP: Setting up the symmetry group for a 
 simple cubic supercell.


 Subroutine GETGRP returns: Found  1 space group operations
 (whereof  1 operations were pure point group operations)
 out of a pool of 48 trial point group operations.


The static configuration has the point symmetry C_1 .


Analysis of symmetry for dynamics (positions and initial velocities):
=====================================================================
 Subroutine PRICEL returns:
 Original cell was already a primitive cell.
 

 Routine SETGRP: Setting up the symmetry group for a 
 simple cubic supercell.


 Subroutine GETGRP returns: Found  1 space group operations
 (whereof  1 operations were pure point group operations)
 out of a pool of 48 trial point group operations.


The dynamic configuration has the point symmetry C_1 .


Analysis of constrained symmetry for selective dynamics:
=====================================================================
 Subroutine PRICEL returns:
 Original cell was already a primitive cell.
 

 Routine SETGRP: Setting up the symmetry group for a 
 simple cubic supercell.


 Subroutine GETGRP returns: Found  1 space group operations
 (whereof  1 operations were pure point group operations)
 out of a pool of 48 trial point group operations.


The constrained configuration has the point symmetry C_1 .


 Subroutine INISYM returns: Found  1 space group operations
 (whereof  1 operations are pure point group operations),
 and found     1 'primitive' translations

 
 
 KPOINTS: K-points                                

Automatic generation of k-mesh.
Space group operators:
 irot       det(A)        alpha          n_x          n_y          n_z        tau_x        tau_y        tau_z
    1     1.000000     0.000000     1.000000     0.000000     0.000000     0.000000     0.000000     0.000000
 
 Subroutine IBZKPT returns following result:
 ===========================================
 
 Found      1 irreducible k-points:
 
 Following reciprocal coordinates:
            Coordinates               Weight
  0.000000  0.000000  0.000000      1.000000
 
 Following cartesian coordinates:
            Coordinates               Weight
  0.000000  0.000000  0.000000      1.000000
 


--------------------------------------------------------------------------------------------------------




 Dimension of arrays:
   k-points           NKPTS =      1   k-points in BZ     NKDIM =      1   number of bands    NBANDS=    336
   number of dos      NEDOS =    301   number of ions     NIONS =     57
   non local maximal  LDIM  =      6   non local SUM 2l+1 LMDIM =     18
   total plane-waves  NPLWV = ******
   max r-space proj   IRMAX =   1847   max aug-charges    IRDMAX=   6262
   dimension x,y,z NGX =   150 NGY =  150 NGZ =  150
   dimension x,y,z NGXF=   300 NGYF=  300 NGZF=  300
   support grid    NGXF=   300 NGYF=  300 NGZF=  300
   ions per type =              55   1   1
   NGX,Y,Z   is equivalent  to a cutoff of   8.31,  8.31,  8.31 a.u.
   NGXF,Y,Z  is equivalent  to a cutoff of  16.62, 16.62, 16.62 a.u.

 SYSTEM =  6_Pd100_top_free_z(O)                   
 POSCAR =  Pd55PES                                 

 Startparameter for this run:
   NWRITE =      2    write-flag & timer
   PREC   = normal    normal or accurate (medium, high low for compatibility)
   ISTART =      0    job   : 0-new  1-cont  2-samecut
   ICHARG =      2    charge: 1-file 2-atom 10-const
   ISPIN  =      1    spin polarized calculation?
   LNONCOLLINEAR =      F non collinear calculations
   LSORBIT =      F    spin-orbit coupling
   INIWAV =      1    electr: 0-lowe 1-rand  2-diag
   LASPH  =      F    aspherical Exc in radial PAW
   METAGGA=      F    non-selfconsistent MetaGGA calc.

 Electronic Relaxation 1
   ENCUT  =  400.0 eV  29.40 Ry    5.42 a.u.  48.92 48.92 48.92*2*pi/ulx,y,z
   ENINI  =  400.0     initial cutoff
   ENAUG  =  644.9 eV  augmentation charge cutoff
   NELM   =    100;   NELMIN=  6; NELMDL= -5     # of ELM steps 
   EDIFF  = 0.1E-03   stopping-criterion for ELM
   LREAL  =      T    real-space projection
   NLSPLINE    = F    spline interpolate recip. space projectors
   LCOMPAT=      F    compatible to vasp.4.4
   GGA_COMPAT  = T    GGA compatible to vasp.4.4-vasp.4.6
   LMAXPAW     = -100 max onsite density
   LMAXMIX     =    2 max onsite mixed and CHGCAR
   VOSKOWN=      0    Vosko Wilk Nusair interpolation
   ROPT   =   -0.00050  -0.00050  -0.00050
 Ionic relaxation
   EDIFFG = -.5E-01   stopping-criterion for IOM
   NSW    =      0    number of steps for IOM
   NBLOCK =      1;   KBLOCK =      1    inner block; outer block 
   IBRION =     -1    ionic relax: 0-MD 1-quasi-New 2-CG
   NFREE  =      1    steps in history (QN), initial steepest desc. (CG)
   ISIF   =      2    stress and relaxation
   IWAVPR =     10    prediction:  0-non 1-charg 2-wave 3-comb
   ISYM   =      2    0-nonsym 1-usesym 2-fastsym
   LCORR  =      T    Harris-Foulkes like correction to forces

   POTIM  = 0.5000    time-step for ionic-motion
   TEIN   =    0.0    initial temperature
   TEBEG  =    0.0;   TEEND  =   0.0 temperature during run
   SMASS  =  -3.00    Nose mass-parameter (am)
   estimated Nose-frequenzy (Omega)   =  0.10E-29 period in steps =****** mass=  -0.206E-25a.u.
   SCALEE = 1.0000    scale energy and forces
   NPACO  =    256;   APACO  = 16.0  distance and # of slots for P.C.
   PSTRESS=    0.0 pullay stress

  Mass of Ions in am
   POMASS = 106.42 12.01 16.00
  Ionic Valenz
   ZVAL   =  10.00  4.00  6.00
  Atomic Wigner-Seitz radii
   RWIGS  =  -1.00 -1.00 -1.00
  virtual crystal weights 
   VCA    =   1.00  1.00  1.00
   NELECT =     560.0000    total number of electrons
   NUPDOWN=      -1.0000    fix difference up-down

 DOS related values:
   EMIN   =  10.00;   EMAX   =-10.00  energy-range for DOS
   EFERMI =   0.00
   ISMEAR =     2;   SIGMA  =   0.20  broadening in eV -4-tet -1-fermi 0-gaus

 Electronic relaxation 2 (details)
   IALGO  =     68    algorithm
   LDIAG  =      T    sub-space diagonalisation (order eigenvalues)
   LSUBROT=      F    optimize rotation matrix (better conditioning)
   TURBO    =      0    0=normal 1=particle mesh
   IRESTART =      0    0=no restart 2=restart with 2 vectors
   NREBOOT  =      0    no. of reboots
   NMIN     =      0    reboot dimension
   EREF     =   0.00    reference energy to select bands
   IMIX   =      4    mixing-type and parameters
     AMIX     =   0.40;   BMIX     =  1.00
     AMIX_MAG =   1.60;   BMIX_MAG =  1.00
     AMIN     =   0.10
     WC   =   100.;   INIMIX=   1;  MIXPRE=   1;  MAXMIX= -45

 Intra band minimization:
   WEIMIN = 0.0000     energy-eigenvalue tresh-hold
   EBREAK =  0.74E-07  absolut break condition
   DEPER  =   0.30     relativ break condition  

   TIME   =   0.40     timestep for ELM

  volume/ion in A,a.u.               =     473.68      3196.58
  Fermi-wavevector in a.u.,A,eV,Ry     =   0.449797  0.849992  2.752691  0.202317
  Thomas-Fermi vector in A             =   1.430086
 
 Write flags
   LWAVE        =      F    write WAVECAR
   LDOWNSAMPLE  =      F    k-point downsampling of WAVECAR
   LCHARG       =      F    write CHGCAR
   LVTOT        =      F    write LOCPOT, total local potential
   LVHAR        =      F    write LOCPOT, Hartree potential only
   LELF         =      F    write electronic localiz. function (ELF)
   LORBIT       =      0    0 simple, 1 ext, 2 COOP (PROOUT), +10 PAW based schemes


 Dipole corrections
   LMONO  =      F    monopole corrections only (constant potential shift)
   LDIPOL =      F    correct potential (dipole corrections)
   IDIPOL =      0    1-x, 2-y, 3-z, 4-all directions 
   EPSILON=  1.0000000 bulk dielectric constant

 Exchange correlation treatment:
   GGA     =    RP    GGA type
   LEXCH   =     9    internal setting for exchange type
   VOSKOWN=      0    Vosko Wilk Nusair interpolation
   LHFCALC =     F    Hartree Fock is set to
   LHFONE  =     F    Hartree Fock one center treatment
   AEXX    =    0.0000 exact exchange contribution

 Linear response parameters
   LEPSILON=     F    determine dielectric tensor
   LRPA    =     F    only Hartree local field effects (RPA)
   LNABLA  =     F    use nabla operator in PAW spheres
   LVEL    =     F    velocity operator in full k-point grid
   LINTERFAST=   F  fast interpolation
   KINTER  =     0    interpolate to denser k-point grid
   CSHIFT  =0.1000    complex shift for real part using Kramers Kronig
   OMEGAMAX=  -1.0    maximum frequency
   DEG_THRESHOLD= 0.2000000E-02 threshold for treating states as degnerate
   RTIME   =   -0.100 relaxation time in fs
  (WPLASMAI=    0.000 imaginary part of plasma frequency in eV, 0.658/RTIME)
   DFIELD  = 0.0000000 0.0000000 0.0000000 field for delta impulse in time
 
 Orbital magnetization related:
   ORBITALMAG=     F  switch on orbital magnetization
   LCHIMAG   =     F  perturbation theory with respect to B field
   DQ        =  0.001000  dq finite difference perturbation B field
   LLRAUG    =     F  two centre corrections for induced B field



--------------------------------------------------------------------------------------------------------


 Static calculation
 charge density and potential will be updated during run
 non-spin polarized calculation
 RMM-DIIS sequential band-by-band and
  variant of blocked Davidson during initial phase
 perform sub-space diagonalisation
    before iterative eigenvector-optimisation
 modified Broyden-mixing scheme, WC =      100.0
 initial mixing is a Kerker type mixing with AMIX =  0.4000 and BMIX =      1.0000
 Hartree-type preconditioning will be used
 using additional bands           56
 real space projection scheme for non local part
 use partial core corrections
 calculate Harris-corrections to forces 
   (improved forces if not selfconsistent)
 use gradient corrections 
 use of overlap-Matrix (Vanderbilt PP)
 Methfessel and Paxton  Order N= 2 SIGMA  =   0.20


--------------------------------------------------------------------------------------------------------


  energy-cutoff  :      400.00
  volume of cell :    27000.00
      direct lattice vectors                 reciprocal lattice vectors
    30.000000000  0.000000000  0.000000000     0.033333333  0.000000000  0.000000000
     0.000000000 30.000000000  0.000000000     0.000000000  0.033333333  0.000000000
     0.000000000  0.000000000 30.000000000     0.000000000  0.000000000  0.033333333

  length of vectors
    30.000000000 30.000000000 30.000000000     0.033333333  0.033333333  0.033333333


 
 k-points in units of 2pi/SCALE and weight: K-points                                
   0.00000000  0.00000000  0.00000000       1.000
 
 k-points in reciprocal lattice and weights: K-points                                
   0.00000000  0.00000000  0.00000000       1.000
 
 position of ions in fractional coordinates (direct lattice) 
   0.44576020  0.32826710  0.41691983
   0.67173288  0.55423978  0.41691983
   0.55423980  0.32826710  0.41691983
   0.32826712  0.55423978  0.41691983
   0.50000000  0.38250690  0.34021317
   0.50000000  0.38250690  0.65978680
   0.50000000  0.27609440  0.50000000
   0.27609443  0.49999998  0.50000000
   0.72390557  0.49999998  0.50000000
   0.50000000  0.72390555  0.50000000
   0.61195280  0.38804720  0.34167483
   0.61195280  0.38804720  0.65832513
   0.38804722  0.61195278  0.34167483
   0.38804722  0.61195278  0.65832513
   0.38804720  0.38804720  0.34167483
   0.38804720  0.38804720  0.65832513
   0.61195278  0.61195278  0.34167483
   0.61195278  0.61195278  0.65832513
   0.44576020  0.32826710  0.58308023
   0.67173288  0.55423978  0.58308023
   0.55791699  0.44208301  0.41809300
   0.32826705  0.44576024  0.41691983
   0.55423973  0.67173293  0.41691983
   0.55423980  0.32826710  0.58308023
   0.32826712  0.55423978  0.58308023
   0.67173295  0.44576024  0.41691983
   0.44576027  0.67173293  0.41691983
   0.44208301  0.44208301  0.41809300
   0.50000000  0.38416601  0.50000000
   0.61749315  0.50000005  0.34021317
   0.61749315  0.50000005  0.65978680
   0.38250685  0.50000005  0.34021317
   0.38250685  0.50000005  0.65978680
   0.38317830  0.38317830  0.50000000
   0.61682172  0.61682172  0.50000000
   0.61682170  0.38317830  0.50000000
   0.38317828  0.61682172  0.50000000
   0.50000000  0.50000000  0.33478917
   0.50000000  0.50000000  0.66521087
   0.32826705  0.44576024  0.58308023
   0.55423973  0.67173293  0.58308023
   0.55791699  0.44208301  0.58190703
   0.44208298  0.55791702  0.41809300
   0.44208301  0.44208301  0.58190703
   0.67173295  0.44576024  0.58308023
   0.44576027  0.67173293  0.58308023
   0.55791702  0.55791702  0.41809300
   0.38416599  0.50000002  0.50000000
   0.61583401  0.50000002  0.50000000
   0.50000000  0.61749319  0.34021317
   0.50000000  0.61749319  0.65978680
   0.50000000  0.50000000  0.50000000
   0.44208298  0.55791702  0.58190703
   0.55791702  0.55791702  0.58190703
   0.50000000  0.61583404  0.50000000
   0.56208510  0.71331647  0.36265973
   0.57102260  0.74402463  0.34288880
 
 position of ions in cartesian coordinates  (Angst):
  13.37280588  9.84801292 12.50759500
  20.15198637 16.62719342 12.50759500
  16.62719412  9.84801292 12.50759500
   9.84801363 16.62719342 12.50759500
  15.00000000 11.47520705 10.20639500
  15.00000000 11.47520705 19.79360400
  15.00000000  8.28283206 15.00000000
   8.28283277 14.99999929 15.00000000
  21.71716723 14.99999929 15.00000000
  15.00000000 21.71716652 14.99999999
  18.35858397 11.64141603 10.25024500
  18.35858397 11.64141603 19.74975399
  11.64141674 18.35858326 10.25024500
  11.64141674 18.35858326 19.74975400
  11.64141603 11.64141603 10.25024500
  11.64141603 11.64141603 19.74975400
  18.35858326 18.35858326 10.25024500
  18.35858326 18.35858326 19.74975400
  13.37280588  9.84801291 17.49240700
  20.15198638 16.62719341 17.49240700
  16.73750985 13.26249015 12.54279000
   9.84801151 13.37280729 12.50759500
  16.62719200 20.15198779 12.50759500
  16.62719412  9.84801292 17.49240700
   9.84801363 16.62719342 17.49240700
  20.15198849 13.37280729 12.50759500
  13.37280800 20.15198779 12.50759500
  13.26249015 13.26249015 12.54279000
  15.00000000 11.52498029 15.00000000
  18.52479437 15.00000140 10.20639500
  18.52479437 15.00000141 19.79360400
  11.47520562 15.00000141 10.20639501
  11.47520563 15.00000141 19.79360400
  11.49534898 11.49534898 15.00000000
  18.50465172 18.50465172 15.00000000
  18.50465102 11.49534898 15.00000000
  11.49534828 18.50465172 15.00000000
  15.00000000 15.00000000 10.04367500
  15.00000000 15.00000000 19.95632599
   9.84801151 13.37280729 17.49240700
  16.62719200 20.15198779 17.49240700
  16.73750985 13.26249015 17.45721100
  13.26248944 16.73751056 12.54279001
  13.26249015 13.26249015 17.45721100
  20.15198849 13.37280729 17.49240699
  13.37280800 20.15198779 17.49240700
  16.73751056 16.73751056 12.54279000
  11.52497959 15.00000071 15.00000000
  18.47502041 15.00000071 15.00000000
  14.99999999 18.52479579 10.20639500
  15.00000000 18.52479578 19.79360400
  15.00000000 15.00000000 15.00000000
  13.26248944 16.73751057 17.45721101
  16.73751056 16.73751057 17.45721100
  15.00000000 18.47502112 15.00000000
  16.86255300 21.39949400 10.87979200
  17.13067800 22.32073900 10.28666400
 


--------------------------------------------------------------------------------------------------------


 k-point  1 :   0.0000 0.0000 0.0000  plane waves:  490521

 maximum and minimum number of plane-waves per node :    490521   490521

 maximum number of plane-waves:    490521
 maximum index in each direction: 
   IXMAX=   48   IYMAX=   48   IZMAX=   48
   IXMIN=  -48   IYMIN=  -48   IZMIN=  -48


 serial   3D FFT for wavefunctions
 parallel 3D FFT for charge:
    minimum data exchange during FFTs selected (reduces bandwidth)


 total amount of memory used by VASP MPI-rank0  5486942. kBytes
=======================================================================

   base      :      30000. kBytes
   nonlr-proj:      17127. kBytes
   fftplans  :     924480. kBytes
   grid      :    1872000. kBytes
   one-center:        886. kBytes
   wavefun   :    2642449. kBytes
 
     INWAV:  cpu time    0.0001: real time    0.0003
 Broyden mixing: mesh for mixing (old mesh)
   NGX = 97   NGY = 97   NGZ = 97
  (NGX  =300   NGY  =300   NGZ  =300)
  gives a total of 912673 points

 initial charge density was supplied:
 charge density of overlapping atoms calculated
 number of electron     560.0000000 magnetization 
 keeping initial charge density in first step


--------------------------------------------------------------------------------------------------------


 Maximum index for non-local projection operator         1763
 Maximum index for augmentation-charges         5898 (set IRDMAX)


--------------------------------------------------------------------------------------------------------


 First call to EWALD:  gamma=   0.059
 Maximum number of real-space cells 3x 3x 3
 Maximum number of reciprocal cells 3x 3x 3

    FEWALD:  cpu time    0.0148: real time    0.0148


--------------------------------------- Iteration      1(   1)  ---------------------------------------


    POTLOK:  cpu time   14.4047: real time   14.4087
    SETDIJ:  cpu time    0.1168: real time    0.1168
     EDDAV:  cpu time  361.6206: real time  361.6863
       DOS:  cpu time    0.0013: real time    0.0013
    --------------------------------------------
      LOOP:  cpu time  376.1435: real time  376.2131

 eigenvalue-minimisations  :   688
 total energy-change (2. order) : 0.4386817E+04  (-0.1005063E+05)
 number of electron     560.0000000 magnetization 
 augmentation part      560.0000000 magnetization 

 Free energy of the ion-electron system (eV)
  ---------------------------------------------------
  alpha Z        PSCENC =        75.25431677
  Ewald energy   TEWEN  =    137896.24032576
  -Hartree energ DENC   =   -181259.27064918
  -exchange      EXHF   =         0.00000000
  -V(xc)+E(xc)   XCENC  =     -1703.30222362
  PAW double counting   =     44873.02882129   -41398.84523641
  entropy T*S    EENTRO =        -0.00992747
  eigenvalues    EBANDS =       817.21602311
  atomic energy  EATOM  =     45086.50549395
  Solvation  Ediel_sol  =         0.00000000
  ---------------------------------------------------
  free energy    TOTEN  =      4386.81694420 eV

  energy without entropy =     4386.82687167  energy(sigma->0) =     4386.81942607


--------------------------------------------------------------------------------------------------------




--------------------------------------- Iteration      1(   2)  ---------------------------------------


     EDDAV:  cpu time  582.7406: real time  582.7607
       DOS:  cpu time    0.0013: real time    0.0013
    --------------------------------------------
      LOOP:  cpu time  582.7419: real time  582.7620

 eigenvalue-minimisations  :  1224
 total energy-change (2. order) :-0.2379138E+04  (-0.2139669E+04)
 number of electron     560.0000000 magnetization 
 augmentation part      560.0000000 magnetization 

 Free energy of the ion-electron system (eV)
  ---------------------------------------------------
  alpha Z        PSCENC =        75.25431677
  Ewald energy   TEWEN  =    137896.24032576
  -Hartree energ DENC   =   -181259.27064918
  -exchange      EXHF   =         0.00000000
  -V(xc)+E(xc)   XCENC  =     -1703.30222362
  PAW double counting   =     44873.02882129   -41398.84523641
  entropy T*S    EENTRO =        -0.01029318
  eigenvalues    EBANDS =     -1561.92195969
  atomic energy  EATOM  =     45086.50549395
  Solvation  Ediel_sol  =         0.00000000
  ---------------------------------------------------
  free energy    TOTEN  =      2007.67859570 eV

  energy without entropy =     2007.68888887  energy(sigma->0) =     2007.68116899


--------------------------------------------------------------------------------------------------------




--------------------------------------- Iteration      1(   3)  ---------------------------------------


     EDDAV:  cpu time  498.8327: real time  498.8418
       DOS:  cpu time    0.0011: real time    0.0011
    --------------------------------------------
      LOOP:  cpu time  498.8337: real time  498.8428

 eigenvalue-minimisations  :  1008
 total energy-change (2. order) :-0.1779255E+04  (-0.1674198E+04)
 number of electron     560.0000000 magnetization 
 augmentation part      560.0000000 magnetization 

 Free energy of the ion-electron system (eV)
  ---------------------------------------------------
  alpha Z        PSCENC =        75.25431677
  Ewald energy   TEWEN  =    137896.24032576
  -Hartree energ DENC   =   -181259.27064918
  -exchange      EXHF   =         0.00000000
  -V(xc)+E(xc)   XCENC  =     -1703.30222362
  PAW double counting   =     44873.02882129   -41398.84523641
  entropy T*S    EENTRO =        -0.01076180
  eigenvalues    EBANDS =     -3341.17649179
  atomic energy  EATOM  =     45086.50549395
  Solvation  Ediel_sol  =         0.00000000
  ---------------------------------------------------
  free energy    TOTEN  =       228.42359497 eV

  energy without entropy =      228.43435677  energy(sigma->0) =      228.42628542


--------------------------------------------------------------------------------------------------------




--------------------------------------- Iteration      1(   4)  ---------------------------------------


     EDDAV:  cpu time  426.5082: real time  426.5219
       DOS:  cpu time    0.0011: real time    0.0011
    --------------------------------------------
      LOOP:  cpu time  426.5093: real time  426.5230

 eigenvalue-minimisations  :   832
 total energy-change (2. order) :-0.3637390E+03  (-0.3111872E+03)
 number of electron     560.0000000 magnetization 
 augmentation part      560.0000000 magnetization 

 Free energy of the ion-electron system (eV)
  ---------------------------------------------------
  alpha Z        PSCENC =        75.25431677
  Ewald energy   TEWEN  =    137896.24032576
  -Hartree energ DENC   =   -181259.27064918
  -exchange      EXHF   =         0.00000000
  -V(xc)+E(xc)   XCENC  =     -1703.30222362
  PAW double counting   =     44873.02882129   -41398.84523641
  entropy T*S    EENTRO =         0.02367778
  eigenvalues    EBANDS =     -3704.94990790
  atomic energy  EATOM  =     45086.50549395
  Solvation  Ediel_sol  =         0.00000000
  ---------------------------------------------------
  free energy    TOTEN  =      -135.31538156 eV

  energy without entropy =     -135.33905934  energy(sigma->0) =     -135.32130101


--------------------------------------------------------------------------------------------------------




--------------------------------------- Iteration      1(   5)  ---------------------------------------


     EDDAV:  cpu time  511.4872: real time  511.5038
       DOS:  cpu time    0.0015: real time    0.0015
    CHARGE:  cpu time   25.7090: real time   25.7094
    MIXING:  cpu time    0.4440: real time    0.4440
    --------------------------------------------
      LOOP:  cpu time  537.6418: real time  537.6587

 eigenvalue-minimisations  :  1040
 total energy-change (2. order) :-0.4454765E+02  (-0.3664603E+02)
 number of electron     559.9999875 magnetization 
 augmentation part      245.0910270 magnetization 

 Broyden mixing:
  rms(total) = 0.14850E+01    rms(broyden)= 0.14841E+01
  rms(prec ) = 0.15941E+01
  weight for this iteration     100.00

 Free energy of the ion-electron system (eV)
  ---------------------------------------------------
  alpha Z        PSCENC =        75.25431677
  Ewald energy   TEWEN  =    137896.24032576
  -Hartree energ DENC   =   -181259.27064918
  -exchange      EXHF   =         0.00000000
  -V(xc)+E(xc)   XCENC  =     -1703.30222362
  PAW double counting   =     44873.02882129   -41398.84523641
  entropy T*S    EENTRO =         0.47542732
  eigenvalues    EBANDS =     -3749.94931187
  atomic energy  EATOM  =     45086.50549395
  Solvation  Ediel_sol  =         0.00000000
  ---------------------------------------------------
  free energy    TOTEN  =      -179.86303598 eV

  energy without entropy =     -180.33846331  energy(sigma->0) =     -179.98189281


--------------------------------------------------------------------------------------------------------




--------------------------------------- Iteration      1(   6)  ---------------------------------------


    POTLOK:  cpu time   13.5100: real time   13.5127
    SETDIJ:  cpu time    0.1287: real time    0.1287
    EDDIAG:  cpu time   68.4915: real time   68.4931
  RMM-DIIS:  cpu time  189.0738: real time  189.0786
    ORTHCH:  cpu time   13.6147: real time   13.6147
       DOS:  cpu time    0.0015: real time    0.0015
    CHARGE:  cpu time   25.7387: real time   25.7386
    MIXING:  cpu time    0.4554: real time    0.4554
    --------------------------------------------
      LOOP:  cpu time  311.0143: real time  311.0233

 eigenvalue-minimisations  :   722
 total energy-change (2. order) :-0.4336488E+00  (-0.5764108E+01)
 number of electron     559.9999900 magnetization 
 augmentation part      240.5304044 magnetization 

 Broyden mixing:
  rms(total) = 0.22325E+01    rms(broyden)= 0.22323E+01
  rms(prec ) = 0.25912E+01
  weight for this iteration     100.00

 eigenvalues of (default mixing * dielectric matrix)
  average eigenvalue GAMMA=   0.3404
  0.3404

 Free energy of the ion-electron system (eV)
  ---------------------------------------------------
  alpha Z        PSCENC =        75.25431677
  Ewald energy   TEWEN  =    137896.24032576
  -Hartree energ DENC   =   -181668.07932473
  -exchange      EXHF   =         0.00000000
  -V(xc)+E(xc)   XCENC  =     -1697.05367007
  PAW double counting   =     45633.22746810   -42132.37839608
  entropy T*S    EENTRO =        -0.22309076
  eigenvalues    EBANDS =     -3373.78980770
  atomic energy  EATOM  =     45086.50549395
  Solvation  Ediel_sol  =         0.00000000
  ---------------------------------------------------
  free energy    TOTEN  =      -180.29668476 eV

  energy without entropy =     -180.07359401  energy(sigma->0) =     -180.24091207


--------------------------------------------------------------------------------------------------------




--------------------------------------- Iteration      1(   7)  ---------------------------------------


    POTLOK:  cpu time   13.6176: real time   13.6203
    SETDIJ:  cpu time    0.1226: real time    0.1226
    EDDIAG:  cpu time   68.9396: real time   68.9398
  RMM-DIIS:  cpu time  219.3958: real time  219.3982
    ORTHCH:  cpu time   13.8547: real time   13.8548
       DOS:  cpu time    0.0014: real time    0.0014
    CHARGE:  cpu time   25.8313: real time   25.8342
    MIXING:  cpu time    0.5081: real time    0.5082
    --------------------------------------------
      LOOP:  cpu time  342.2712: real time  342.2795

 eigenvalue-minimisations  :   842
 total energy-change (2. order) :-0.2662495E+01  (-0.1868743E+01)
 number of electron     559.9999873 magnetization 
 augmentation part      240.2488521 magnetization 

 Broyden mixing:
  rms(total) = 0.24726E+01    rms(broyden)= 0.24723E+01
  rms(prec ) = 0.30063E+01
  weight for this iteration     100.00

 eigenvalues of (default mixing * dielectric matrix)
  average eigenvalue GAMMA=   0.3074
  0.4735  0.1413

 Free energy of the ion-electron system (eV)
  ---------------------------------------------------
  alpha Z        PSCENC =        75.25431677
  Ewald energy   TEWEN  =    137896.24032576
  -Hartree energ DENC   =   -181752.15795478
  -exchange      EXHF   =         0.00000000
  -V(xc)+E(xc)   XCENC  =     -1697.25935020
  PAW double counting   =     45700.68947131   -42197.25054897
  entropy T*S    EENTRO =        -0.04723373
  eigenvalues    EBANDS =     -3294.93370001
  atomic energy  EATOM  =     45086.50549395
  Solvation  Ediel_sol  =         0.00000000
  ---------------------------------------------------
  free energy    TOTEN  =      -182.95917990 eV

  energy without entropy =     -182.91194617  energy(sigma->0) =     -182.94737147


--------------------------------------------------------------------------------------------------------




--------------------------------------- Iteration      1(   8)  ---------------------------------------


    POTLOK:  cpu time   13.2841: real time   13.2853
    SETDIJ:  cpu time    0.1242: real time    0.1242
    EDDIAG:  cpu time   67.6170: real time   67.6187
  RMM-DIIS:  cpu time  206.7614: real time  206.7676
    ORTHCH:  cpu time   13.7558: real time   13.7558
       DOS:  cpu time    0.0014: real time    0.0014
    CHARGE:  cpu time   25.5354: real time   25.5355
    MIXING:  cpu time    0.5212: real time    0.5212
    --------------------------------------------
      LOOP:  cpu time  327.6004: real time  327.6098

 eigenvalue-minimisations  :   789
 total energy-change (2. order) :-0.4615342E+00  (-0.6971032E+00)
 number of electron     559.9999862 magnetization 
 augmentation part      240.2670904 magnetization 

 Broyden mixing:
  rms(total) = 0.24532E+01    rms(broyden)= 0.24528E+01
  rms(prec ) = 0.28411E+01
  weight for this iteration     100.00

 eigenvalues of (default mixing * dielectric matrix)
  average eigenvalue GAMMA=   0.3026
  0.6284  0.1484  0.1309

 Free energy of the ion-electron system (eV)
  ---------------------------------------------------
  alpha Z        PSCENC =        75.25431677
  Ewald energy   TEWEN  =    137896.24032576
  -Hartree energ DENC   =   -181785.16501138
  -exchange      EXHF   =         0.00000000
  -V(xc)+E(xc)   XCENC  =     -1697.30138025
  PAW double counting   =     45756.58665768   -42250.99457638
  entropy T*S    EENTRO =        -0.14862336
  eigenvalues    EBANDS =     -3264.39791686
  atomic energy  EATOM  =     45086.50549395
  Solvation  Ediel_sol  =         0.00000000
  ---------------------------------------------------
  free energy    TOTEN  =      -183.42071406 eV

  energy without entropy =     -183.27209070  energy(sigma->0) =     -183.38355822


--------------------------------------------------------------------------------------------------------




--------------------------------------- Iteration      1(   9)  ---------------------------------------


    POTLOK:  cpu time   13.5143: real time   13.5170
    SETDIJ:  cpu time    0.1214: real time    0.1214
    EDDIAG:  cpu time   67.1343: real time   67.1346
  RMM-DIIS:  cpu time  191.0209: real time  191.0236
    ORTHCH:  cpu time   13.5531: real time   13.5531
       DOS:  cpu time    0.0014: real time    0.0014
    CHARGE:  cpu time   25.3324: real time   25.3357
    MIXING:  cpu time    0.5522: real time    0.5522
    --------------------------------------------
      LOOP:  cpu time  311.2299: real time  311.2391

 eigenvalue-minimisations  :   731
 total energy-change (2. order) : 0.2523880E+01  (-0.5367986E+00)
 number of electron     559.9999866 magnetization 
 augmentation part      241.2569559 magnetization 

 Broyden mixing:
  rms(total) = 0.23760E+01    rms(broyden)= 0.23757E+01
  rms(prec ) = 0.27374E+01
  weight for this iteration     100.00

 eigenvalues of (default mixing * dielectric matrix)
  average eigenvalue GAMMA=   0.2830
  0.7083  0.1610  0.1610  0.1016

 Free energy of the ion-electron system (eV)
  ---------------------------------------------------
  alpha Z        PSCENC =        75.25431677
  Ewald energy   TEWEN  =    137896.24032576
  -Hartree energ DENC   =   -181797.82930143
  -exchange      EXHF   =         0.00000000
  -V(xc)+E(xc)   XCENC  =     -1697.25203281
  PAW double counting   =     45816.72862943   -42308.73399930
  entropy T*S    EENTRO =        -0.03305923
  eigenvalues    EBANDS =     -3251.77720722
  atomic energy  EATOM  =     45086.50549395
  Solvation  Ediel_sol  =         0.00000000
  ---------------------------------------------------
  free energy    TOTEN  =      -180.89683408 eV

  energy without entropy =     -180.86377485  energy(sigma->0) =     -180.88856928


--------------------------------------------------------------------------------------------------------




--------------------------------------- Iteration      1(  10)  ---------------------------------------


    POTLOK:  cpu time   13.2195: real time   13.2228
    SETDIJ:  cpu time    0.1208: real time    0.1208
    EDDIAG:  cpu time   67.0514: real time   67.0536
  RMM-DIIS:  cpu time  192.2024: real time  192.2285
    ORTHCH:  cpu time   13.6274: real time   13.6281
       DOS:  cpu time    0.0015: real time    0.0015
    CHARGE:  cpu time   25.3103: real time   25.3119
    MIXING:  cpu time    0.5695: real time    0.5696
    --------------------------------------------
      LOOP:  cpu time  312.1029: real time  312.1368

 eigenvalue-minimisations  :   737
 total energy-change (2. order) : 0.1598417E+01  (-0.2872006E+00)
 number of electron     559.9999868 magnetization 
 augmentation part      241.3661765 magnetization 

 Broyden mixing:
  rms(total) = 0.21925E+01    rms(broyden)= 0.21922E+01
  rms(prec ) = 0.25607E+01
  weight for this iteration     100.00

 eigenvalues of (default mixing * dielectric matrix)
  average eigenvalue GAMMA=   0.2670
  0.7859  0.1576  0.1576  0.1550  0.0790

 Free energy of the ion-electron system (eV)
  ---------------------------------------------------
  alpha Z        PSCENC =        75.25431677
  Ewald energy   TEWEN  =    137896.24032576
  -Hartree energ DENC   =   -181826.29318293
  -exchange      EXHF   =         0.00000000
  -V(xc)+E(xc)   XCENC  =     -1697.09973625
  PAW double counting   =     45857.18804654   -42347.58070807
  entropy T*S    EENTRO =        -0.11581099
  eigenvalues    EBANDS =     -3223.39716235
  atomic energy  EATOM  =     45086.50549395
  Solvation  Ediel_sol  =         0.00000000
  ---------------------------------------------------
  free energy    TOTEN  =      -179.29841758 eV

  energy without entropy =     -179.18260658  energy(sigma->0) =     -179.26946483


--------------------------------------------------------------------------------------------------------




--------------------------------------- Iteration      1(  11)  ---------------------------------------


    POTLOK:  cpu time   13.1519: real time   13.1552
    SETDIJ:  cpu time    0.1182: real time    0.1182
    EDDIAG:  cpu time   66.8228: real time   66.8292
  RMM-DIIS:  cpu time  191.1812: real time  191.2258
    ORTHCH:  cpu time   13.8111: real time   13.8112
       DOS:  cpu time    0.0015: real time    0.0015
    CHARGE:  cpu time   25.6759: real time   25.6759
    MIXING:  cpu time    0.5943: real time    0.5943
    --------------------------------------------
      LOOP:  cpu time  311.3569: real time  311.4112

 eigenvalue-minimisations  :   730
 total energy-change (2. order) : 0.9874020E+00  (-0.2153963E+00)
 number of electron     559.9999876 magnetization 
 augmentation part      241.4113605 magnetization 

 Broyden mixing:
  rms(total) = 0.19006E+01    rms(broyden)= 0.19003E+01
  rms(prec ) = 0.22199E+01
  weight for this iteration     100.00

 eigenvalues of (default mixing * dielectric matrix)
  average eigenvalue GAMMA=   0.2582
  0.8564  0.1921  0.1921  0.1388  0.0879  0.0820

 Free energy of the ion-electron system (eV)
  ---------------------------------------------------
  alpha Z        PSCENC =        75.25431677
  Ewald energy   TEWEN  =    137896.24032576
  -Hartree energ DENC   =   -181849.44205813
  -exchange      EXHF   =         0.00000000
  -V(xc)+E(xc)   XCENC  =     -1696.92775353
  PAW double counting   =     45893.82707428   -42382.66339011
  entropy T*S    EENTRO =        -0.12988250
  eigenvalues    EBANDS =     -3200.97514205
  atomic energy  EATOM  =     45086.50549395
  Solvation  Ediel_sol  =         0.00000000
  ---------------------------------------------------
  free energy    TOTEN  =      -178.31101555 eV

  energy without entropy =     -178.18113305  energy(sigma->0) =     -178.27854492


--------------------------------------------------------------------------------------------------------




--------------------------------------- Iteration      1(  12)  ---------------------------------------


    POTLOK:  cpu time   13.1893: real time   13.1909
    SETDIJ:  cpu time    0.1195: real time    0.1195
    EDDIAG:  cpu time   67.8916: real time   67.9038
  RMM-DIIS:  cpu time  191.3213: real time  191.3451
    ORTHCH:  cpu time   13.4815: real time   13.4816
       DOS:  cpu time    0.0013: real time    0.0013
    CHARGE:  cpu time   25.7019: real time   25.7020
    MIXING:  cpu time    0.6598: real time    0.6598
    --------------------------------------------
      LOOP:  cpu time  312.3662: real time  312.4040

 eigenvalue-minimisations  :   722
 total energy-change (2. order) : 0.1142298E+01  (-0.1545860E+00)
 number of electron     559.9999860 magnetization 
 augmentation part      241.4780060 magnetization 

 Broyden mixing:
  rms(total) = 0.15131E+01    rms(broyden)= 0.15128E+01
  rms(prec ) = 0.17890E+01
  weight for this iteration     100.00

 eigenvalues of (default mixing * dielectric matrix)
  average eigenvalue GAMMA=   0.2691
  0.9665  0.2598  0.2598  0.1249  0.1249  0.0778  0.0701

 Free energy of the ion-electron system (eV)
  ---------------------------------------------------
  alpha Z        PSCENC =        75.25431677
  Ewald energy   TEWEN  =    137896.24032576
  -Hartree energ DENC   =   -181870.39100847
  -exchange      EXHF   =         0.00000000
  -V(xc)+E(xc)   XCENC  =     -1696.73566013
  PAW double counting   =     45926.53438029   -42413.89665162
  entropy T*S    EENTRO =        -0.16850559
  eigenvalues    EBANDS =     -3180.51140818
  atomic energy  EATOM  =     45086.50549395
  Solvation  Ediel_sol  =         0.00000000
  ---------------------------------------------------
  free energy    TOTEN  =      -177.16871722 eV

  energy without entropy =     -177.00021163  energy(sigma->0) =     -177.12659083


--------------------------------------------------------------------------------------------------------




--------------------------------------- Iteration      1(  13)  ---------------------------------------


    POTLOK:  cpu time   13.0856: real time   13.0887
    SETDIJ:  cpu time    0.1199: real time    0.1199
    EDDIAG:  cpu time   67.5868: real time   67.5885
  RMM-DIIS:  cpu time  191.0821: real time  191.0944
    ORTHCH:  cpu time   13.3405: real time   13.3421
       DOS:  cpu time    0.0015: real time    0.0015
    CHARGE:  cpu time   25.7945: real time   25.7947
    MIXING:  cpu time    0.6588: real time    0.6588
    --------------------------------------------
      LOOP:  cpu time  311.6696: real time  311.6885

 eigenvalue-minimisations  :   724
 total energy-change (2. order) :-0.1846166E+00  (-0.1428521E+00)
 number of electron     559.9999860 magnetization 
 augmentation part      241.4557375 magnetization 

 Broyden mixing:
  rms(total) = 0.19533E+01    rms(broyden)= 0.19531E+01
  rms(prec ) = 0.23706E+01
  weight for this iteration     100.00

 eigenvalues of (default mixing * dielectric matrix)
  average eigenvalue GAMMA=   0.2770
  1.0978  0.3150  0.3150  0.1109  0.1109  0.1048  0.1048  0.0570

 Free energy of the ion-electron system (eV)
  ---------------------------------------------------
  alpha Z        PSCENC =        75.25431677
  Ewald energy   TEWEN  =    137896.24032576
  -Hartree energ DENC   =   -181893.90103903
  -exchange      EXHF   =         0.00000000
  -V(xc)+E(xc)   XCENC  =     -1696.43544538
  PAW double counting   =     45967.87536660   -42453.28233393
  entropy T*S    EENTRO =        -0.02554389
  eigenvalues    EBANDS =     -3159.58447469
  atomic energy  EATOM  =     45086.50549395
  Solvation  Ediel_sol  =         0.00000000
  ---------------------------------------------------
  free energy    TOTEN  =      -177.35333383 eV

  energy without entropy =     -177.32778994  energy(sigma->0) =     -177.34694786


--------------------------------------------------------------------------------------------------------




--------------------------------------- Iteration      1(  14)  ---------------------------------------


    POTLOK:  cpu time   13.1579: real time   13.1588
    SETDIJ:  cpu time    0.1217: real time    0.1217
    EDDIAG:  cpu time   67.5899: real time   67.5916
  RMM-DIIS:  cpu time  190.4361: real time  190.4462
    ORTHCH:  cpu time   13.4023: real time   13.4023
       DOS:  cpu time    0.0014: real time    0.0014
    CHARGE:  cpu time   25.4810: real time   25.4811
    MIXING:  cpu time    0.7019: real time    0.7019
    --------------------------------------------
      LOOP:  cpu time  310.8923: real time  310.9051

 eigenvalue-minimisations  :   717
 total energy-change (2. order) : 0.3541044E+00  (-0.1335801E+00)
 number of electron     559.9999887 magnetization 
 augmentation part      241.4371941 magnetization 

 Broyden mixing:
  rms(total) = 0.17612E+01    rms(broyden)= 0.17609E+01
  rms(prec ) = 0.20031E+01
  weight for this iteration     100.00

 eigenvalues of (default mixing * dielectric matrix)
  average eigenvalue GAMMA=   0.2862
  1.2513  0.4565  0.2580  0.1274  0.1274  0.1204  0.0901  0.0901  0.0548

 Free energy of the ion-electron system (eV)
  ---------------------------------------------------
  alpha Z        PSCENC =        75.25431677
  Ewald energy   TEWEN  =    137896.24032576
  -Hartree energ DENC   =   -181923.37603507
  -exchange      EXHF   =         0.00000000
  -V(xc)+E(xc)   XCENC  =     -1695.99558958
  PAW double counting   =     46018.50399808   -42501.47052402
  entropy T*S    EENTRO =        -0.11654665
  eigenvalues    EBANDS =     -3132.54466868
  atomic energy  EATOM  =     45086.50549395
  Solvation  Ediel_sol  =         0.00000000
  ---------------------------------------------------
  free energy    TOTEN  =      -176.99922944 eV

  energy without entropy =     -176.88268279  energy(sigma->0) =     -176.97009278


--------------------------------------------------------------------------------------------------------




--------------------------------------- Iteration      1(  15)  ---------------------------------------


    POTLOK:  cpu time   13.1541: real time   13.1550
    SETDIJ:  cpu time    0.1238: real time    0.1239
    EDDIAG:  cpu time   67.6686: real time   67.6696
  RMM-DIIS:  cpu time  189.9851: real time  189.9966
    ORTHCH:  cpu time   13.3590: real time   13.3591
       DOS:  cpu time    0.0015: real time    0.0015
    CHARGE:  cpu time   25.4687: real time   25.4687
    MIXING:  cpu time    0.7703: real time    0.7703
    --------------------------------------------
      LOOP:  cpu time  310.5313: real time  310.5445

 eigenvalue-minimisations  :   716
 total energy-change (2. order) : 0.6345597E+00  (-0.1244004E+00)
 number of electron     559.9999883 magnetization 
 augmentation part      241.1931084 magnetization 

 Broyden mixing:
  rms(total) = 0.13650E+01    rms(broyden)= 0.13647E+01
  rms(prec ) = 0.16096E+01
  weight for this iteration     100.00

 eigenvalues of (default mixing * dielectric matrix)
  average eigenvalue GAMMA=   0.2881
  1.3524  0.5608  0.1942  0.1942  0.1241  0.1241  0.0996  0.0996  0.0779  0.0541

 Free energy of the ion-electron system (eV)
  ---------------------------------------------------
  alpha Z        PSCENC =        75.25431677
  Ewald energy   TEWEN  =    137896.24032576
  -Hartree energ DENC   =   -181963.93802091
  -exchange      EXHF   =         0.00000000
  -V(xc)+E(xc)   XCENC  =     -1695.48485242
  PAW double counting   =     46075.06381363   -42555.29481986
  entropy T*S    EENTRO =        -0.07746818
  eigenvalues    EBANDS =     -3094.63345847
  atomic energy  EATOM  =     45086.50549395
  Solvation  Ediel_sol  =         0.00000000
  ---------------------------------------------------
  free energy    TOTEN  =      -176.36466973 eV

  energy without entropy =     -176.28720155  energy(sigma->0) =     -176.34530268


--------------------------------------------------------------------------------------------------------




--------------------------------------- Iteration      1(  16)  ---------------------------------------


    POTLOK:  cpu time   13.1904: real time   13.1912
    SETDIJ:  cpu time    0.1218: real time    0.1218
    EDDIAG:  cpu time   67.9558: real time   67.9565
  RMM-DIIS:  cpu time  190.2329: real time  190.2610
    ORTHCH:  cpu time   13.5039: real time   13.5061
       DOS:  cpu time    0.0015: real time    0.0015
    CHARGE:  cpu time   25.2675: real time   25.2699
    MIXING:  cpu time    0.8147: real time    0.8147
    --------------------------------------------
      LOOP:  cpu time  311.0884: real time  311.1227

 eigenvalue-minimisations  :   720
 total energy-change (2. order) :-0.1280867E+00  (-0.6176149E-01)
 number of electron     559.9999892 magnetization 
 augmentation part      241.0916366 magnetization 

 Broyden mixing:
  rms(total) = 0.16384E+01    rms(broyden)= 0.16381E+01
  rms(prec ) = 0.19773E+01
  weight for this iteration     100.00

 eigenvalues of (default mixing * dielectric matrix)
  average eigenvalue GAMMA=   0.2929
  1.4367  0.6593  0.2486  0.2486  0.1162  0.1162  0.1018  0.1018  0.0825  0.0576
  0.0527

 Free energy of the ion-electron system (eV)
  ---------------------------------------------------
  alpha Z        PSCENC =        75.25431677
  Ewald energy   TEWEN  =    137896.24032576
  -Hartree energ DENC   =   -181985.41649212
  -exchange      EXHF   =         0.00000000
  -V(xc)+E(xc)   XCENC  =     -1695.19744455
  PAW double counting   =     46104.13440683   -42582.85677755
  entropy T*S    EENTRO =         0.05504341
  eigenvalues    EBANDS =     -3075.21162896
  atomic energy  EATOM  =     45086.50549395
  Solvation  Ediel_sol  =         0.00000000
  ---------------------------------------------------
  free energy    TOTEN  =      -176.49275646 eV

  energy without entropy =     -176.54779987  energy(sigma->0) =     -176.50651731


--------------------------------------------------------------------------------------------------------




--------------------------------------- Iteration      1(  17)  ---------------------------------------


    POTLOK:  cpu time   13.1294: real time   13.1327
    SETDIJ:  cpu time    0.1205: real time    0.1205
    EDDIAG:  cpu time   67.6548: real time   67.6637
  RMM-DIIS:  cpu time  188.1145: real time  188.1297
    ORTHCH:  cpu time   13.4302: real time   13.4308
       DOS:  cpu time    0.0015: real time    0.0015
    CHARGE:  cpu time   24.9985: real time   24.9997
    MIXING:  cpu time    0.8434: real time    0.8435
    --------------------------------------------
      LOOP:  cpu time  308.2927: real time  308.3221

 eigenvalue-minimisations  :   710
 total energy-change (2. order) : 0.6727894E+00  (-0.5365527E-01)
 number of electron     559.9999890 magnetization 
 augmentation part      241.0833443 magnetization 

 Broyden mixing:
  rms(total) = 0.11851E+01    rms(broyden)= 0.11848E+01
  rms(prec ) = 0.14042E+01
  weight for this iteration     100.00

 eigenvalues of (default mixing * dielectric matrix)
  average eigenvalue GAMMA=   0.2968
  1.5154  0.7456  0.2856  0.2856  0.1183  0.1183  0.1154  0.1000  0.1000  0.0764
  0.0526  0.0488

 Free energy of the ion-electron system (eV)
  ---------------------------------------------------
  alpha Z        PSCENC =        75.25431677
  Ewald energy   TEWEN  =    137896.24032576
  -Hartree energ DENC   =   -182004.93201048
  -exchange      EXHF   =         0.00000000
  -V(xc)+E(xc)   XCENC  =     -1694.94115164
  PAW double counting   =     46127.97975068   -42605.37741848
  entropy T*S    EENTRO =         0.01422426
  eigenvalues    EBANDS =     -3056.56349793
  atomic energy  EATOM  =     45086.50549395
  Solvation  Ediel_sol  =         0.00000000
  ---------------------------------------------------
  free energy    TOTEN  =      -175.81996709 eV

  energy without entropy =     -175.83419135  energy(sigma->0) =     -175.82352315


--------------------------------------------------------------------------------------------------------




--------------------------------------- Iteration      1(  18)  ---------------------------------------


    POTLOK:  cpu time   13.1747: real time   13.1768
    SETDIJ:  cpu time    0.1220: real time    0.1220
    EDDIAG:  cpu time   68.0049: real time   68.0091
  RMM-DIIS:  cpu time  186.0313: real time  186.0469
    ORTHCH:  cpu time   13.6722: real time   13.6722
       DOS:  cpu time    0.0015: real time    0.0015
    CHARGE:  cpu time   25.3820: real time   25.3818
    MIXING:  cpu time    0.9158: real time    0.9158
    --------------------------------------------
      LOOP:  cpu time  307.3043: real time  307.3260

 eigenvalue-minimisations  :   702
 total energy-change (2. order) : 0.2353677E+00  (-0.4178774E-01)
 number of electron     559.9999877 magnetization 
 augmentation part      241.1233233 magnetization 

 Broyden mixing:
  rms(total) = 0.94694E+00    rms(broyden)= 0.94671E+00
  rms(prec ) = 0.10808E+01
  weight for this iteration     100.00

 eigenvalues of (default mixing * dielectric matrix)
  average eigenvalue GAMMA=   0.3145
  1.6270  0.9082  0.3479  0.3479  0.1327  0.1327  0.1331  0.0979  0.0979  0.0903
  0.0735  0.0534  0.0462

 Free energy of the ion-electron system (eV)
  ---------------------------------------------------
  alpha Z        PSCENC =        75.25431677
  Ewald energy   TEWEN  =    137896.24032576
  -Hartree energ DENC   =   -182019.70380325
  -exchange      EXHF   =         0.00000000
  -V(xc)+E(xc)   XCENC  =     -1694.74741536
  PAW double counting   =     46143.97111431   -42620.34315379
  entropy T*S    EENTRO =        -0.03551959
  eigenvalues    EBANDS =     -3042.72595814
  atomic energy  EATOM  =     45086.50549395
  Solvation  Ediel_sol  =         0.00000000
  ---------------------------------------------------
  free energy    TOTEN  =      -175.58459935 eV

  energy without entropy =     -175.54907975  energy(sigma->0) =     -175.57571945


--------------------------------------------------------------------------------------------------------




--------------------------------------- Iteration      1(  19)  ---------------------------------------


    POTLOK:  cpu time   13.3100: real time   13.3105
    SETDIJ:  cpu time    0.1207: real time    0.1207
    EDDIAG:  cpu time   68.5842: real time   68.5883
  RMM-DIIS:  cpu time  186.7313: real time  186.7338
    ORTHCH:  cpu time   13.6187: real time   13.6187
       DOS:  cpu time    0.0015: real time    0.0015
    CHARGE:  cpu time   25.2102: real time   25.2104
    MIXING:  cpu time    0.9622: real time    0.9622
    --------------------------------------------
      LOOP:  cpu time  308.5388: real time  308.5462

 eigenvalue-minimisations  :   701
 total energy-change (2. order) :-0.3044415E-01  (-0.4382150E-01)
 number of electron     559.9999883 magnetization 
 augmentation part      241.1543738 magnetization 

 Broyden mixing:
  rms(total) = 0.11503E+01    rms(broyden)= 0.11501E+01
  rms(prec ) = 0.13484E+01
  weight for this iteration     100.00

 eigenvalues of (default mixing * dielectric matrix)
  average eigenvalue GAMMA=   0.3227
  1.7229  1.0587  0.3798  0.3798  0.1546  0.1546  0.1105  0.1105  0.1006  0.1006
  0.0731  0.0731  0.0532  0.0455

 Free energy of the ion-electron system (eV)
  ---------------------------------------------------
  alpha Z        PSCENC =        75.25431677
  Ewald energy   TEWEN  =    137896.24032576
  -Hartree energ DENC   =   -182040.97732251
  -exchange      EXHF   =         0.00000000
  -V(xc)+E(xc)   XCENC  =     -1694.47898927
  PAW double counting   =     46161.01918555   -42636.01417578
  entropy T*S    EENTRO =        -0.03491309
  eigenvalues    EBANDS =     -3023.12896487
  atomic energy  EATOM  =     45086.50549395
  Solvation  Ediel_sol  =         0.00000000
  ---------------------------------------------------
  free energy    TOTEN  =      -175.61504349 eV

  energy without entropy =     -175.58013040  energy(sigma->0) =     -175.60631522


--------------------------------------------------------------------------------------------------------




--------------------------------------- Iteration      1(  20)  ---------------------------------------


    POTLOK:  cpu time   13.4453: real time   13.4460
    SETDIJ:  cpu time    0.1215: real time    0.1215
    EDDIAG:  cpu time   69.8219: real time   69.8222
  RMM-DIIS:  cpu time  189.2886: real time  189.3018
    ORTHCH:  cpu time   13.6275: real time   13.6281
       DOS:  cpu time    0.0015: real time    0.0015
    CHARGE:  cpu time   24.8864: real time   24.8890
    MIXING:  cpu time    0.9897: real time    0.9897
    --------------------------------------------
      LOOP:  cpu time  312.1824: real time  312.1999

 eigenvalue-minimisations  :   697
 total energy-change (2. order) : 0.2098485E+00  (-0.3552152E-01)
 number of electron     559.9999885 magnetization 
 augmentation part      241.1735680 magnetization 

 Broyden mixing:
  rms(total) = 0.91528E+00    rms(broyden)= 0.91505E+00
  rms(prec ) = 0.10672E+01
  weight for this iteration     100.00

 eigenvalues of (default mixing * dielectric matrix)
  average eigenvalue GAMMA=   0.3223
  1.7608  1.1812  0.3836  0.3836  0.1829  0.1829  0.1163  0.1163  0.0986  0.0986
  0.0917  0.0762  0.0632  0.0537  0.0452

 Free energy of the ion-electron system (eV)
  ---------------------------------------------------
  alpha Z        PSCENC =        75.25431677
  Ewald energy   TEWEN  =    137896.24032576
  -Hartree energ DENC   =   -182061.02467575
  -exchange      EXHF   =         0.00000000
  -V(xc)+E(xc)   XCENC  =     -1694.25394265
  PAW double counting   =     46172.54493790   -42646.41456269
  entropy T*S    EENTRO =        -0.04434554
  eigenvalues    EBANDS =     -3004.21274275
  atomic energy  EATOM  =     45086.50549395
  Solvation  Ediel_sol  =         0.00000000
  ---------------------------------------------------
  free energy    TOTEN  =      -175.40519500 eV

  energy without entropy =     -175.36084946  energy(sigma->0) =     -175.39410861


--------------------------------------------------------------------------------------------------------




--------------------------------------- Iteration      1(  21)  ---------------------------------------


    POTLOK:  cpu time   13.3201: real time   13.3220
    SETDIJ:  cpu time    0.1249: real time    0.1249
    EDDIAG:  cpu time   69.7278: real time   69.7444
  RMM-DIIS:  cpu time  190.7860: real time  190.7918
    ORTHCH:  cpu time   13.4836: real time   13.4837
       DOS:  cpu time    0.0014: real time    0.0014
    CHARGE:  cpu time   24.8208: real time   24.8210
    MIXING:  cpu time    1.0610: real time    1.0610
    --------------------------------------------
      LOOP:  cpu time  313.3257: real time  313.3502

 eigenvalue-minimisations  :   703
 total energy-change (2. order) : 0.1169491E+00  (-0.2239985E-01)
 number of electron     559.9999878 magnetization 
 augmentation part      241.1065713 magnetization 

 Broyden mixing:
  rms(total) = 0.91400E+00    rms(broyden)= 0.91385E+00
  rms(prec ) = 0.10858E+01
  weight for this iteration     100.00

 eigenvalues of (default mixing * dielectric matrix)
  average eigenvalue GAMMA=   0.3182
  1.8664  1.1770  0.3564  0.3564  0.2410  0.2410  0.1211  0.1211  0.0980  0.0980
  0.1013  0.0855  0.0724  0.0571  0.0544  0.0449

 Free energy of the ion-electron system (eV)
  ---------------------------------------------------
  alpha Z        PSCENC =        75.25431677
  Ewald energy   TEWEN  =    137896.24032576
  -Hartree energ DENC   =   -182078.69826328
  -exchange      EXHF   =         0.00000000
  -V(xc)+E(xc)   XCENC  =     -1694.09403577
  PAW double counting   =     46178.35816999   -42651.48429146
  entropy T*S    EENTRO =        -0.07857068
  eigenvalues    EBANDS =     -2987.29139114
  atomic energy  EATOM  =     45086.50549395
  Solvation  Ediel_sol  =         0.00000000
  ---------------------------------------------------
  free energy    TOTEN  =      -175.28824586 eV

  energy without entropy =     -175.20967518  energy(sigma->0) =     -175.26860319


--------------------------------------------------------------------------------------------------------




--------------------------------------- Iteration      1(  22)  ---------------------------------------


    POTLOK:  cpu time   13.1716: real time   13.1736
    SETDIJ:  cpu time    0.1257: real time    0.1257
    EDDIAG:  cpu time   69.2728: real time   69.2753
  RMM-DIIS:  cpu time  191.7740: real time  191.7968
    ORTHCH:  cpu time   13.3983: real time   13.3983
       DOS:  cpu time    0.0015: real time    0.0015
    CHARGE:  cpu time   24.8263: real time   24.8262
    MIXING:  cpu time    1.1332: real time    1.1332
    --------------------------------------------
      LOOP:  cpu time  313.7033: real time  313.7306

 eigenvalue-minimisations  :   703
 total energy-change (2. order) : 0.7763372E-01  (-0.1781323E-01)
 number of electron     559.9999880 magnetization 
 augmentation part      241.1188732 magnetization 

 Broyden mixing:
  rms(total) = 0.82859E+00    rms(broyden)= 0.82840E+00
  rms(prec ) = 0.97519E+00
  weight for this iteration     100.00

 eigenvalues of (default mixing * dielectric matrix)
  average eigenvalue GAMMA=   0.3260
  1.9705  1.1674  0.5960  0.3380  0.3380  0.1561  0.1264  0.1264  0.1301  0.0974
  0.0974  0.1077  0.0722  0.0722  0.0526  0.0487  0.0444

 Free energy of the ion-electron system (eV)
  ---------------------------------------------------
  alpha Z        PSCENC =        75.25431677
  Ewald energy   TEWEN  =    137896.24032576
  -Hartree energ DENC   =   -182088.10048056
  -exchange      EXHF   =         0.00000000
  -V(xc)+E(xc)   XCENC  =     -1693.97352877
  PAW double counting   =     46181.60624003   -42654.21236500
  entropy T*S    EENTRO =        -0.08095796
  eigenvalues    EBANDS =     -2978.44965636
  atomic energy  EATOM  =     45086.50549395
  Solvation  Ediel_sol  =         0.00000000
  ---------------------------------------------------
  free energy    TOTEN  =      -175.21061214 eV

  energy without entropy =     -175.12965418  energy(sigma->0) =     -175.19037265


--------------------------------------------------------------------------------------------------------




--------------------------------------- Iteration      1(  23)  ---------------------------------------


    POTLOK:  cpu time   13.0013: real time   13.0034
    SETDIJ:  cpu time    0.1208: real time    0.1208
    EDDIAG:  cpu time   69.0684: real time   69.0694
  RMM-DIIS:  cpu time  189.5992: real time  189.6111
    ORTHCH:  cpu time   13.4856: real time   13.4858
       DOS:  cpu time    0.0015: real time    0.0015
    CHARGE:  cpu time   24.9071: real time   24.9072
    MIXING:  cpu time    1.1882: real time    1.1882
    --------------------------------------------
      LOOP:  cpu time  311.3722: real time  311.3874

 eigenvalue-minimisations  :   696
 total energy-change (2. order) : 0.8901659E-01  (-0.1672404E-01)
 number of electron     559.9999879 magnetization 
 augmentation part      241.1277317 magnetization 

 Broyden mixing:
  rms(total) = 0.63382E+00    rms(broyden)= 0.63366E+00
  rms(prec ) = 0.72690E+00
  weight for this iteration     100.00

 eigenvalues of (default mixing * dielectric matrix)
  average eigenvalue GAMMA=   0.3369
  2.1000  1.2523  0.7456  0.3605  0.3605  0.1568  0.1568  0.1220  0.1220  0.1182
[...]
 -0.006  -0.012   0.004   0.004   0.006  -0.006  -0.012   0.004
 -0.011  -0.021   0.007   0.007   0.009  -0.010  -0.020   0.007
 -0.015  -0.004   0.013   0.000   0.022  -0.014  -0.004   0.012
  0.000  -0.023  -0.005  -0.015  -0.000   0.000  -0.022  -0.005
 -0.022   0.000   0.009  -0.004  -0.016  -0.022   0.000   0.009
 -0.018  -0.006   0.015   0.000   0.027  -0.017  -0.005   0.015
  0.000  -0.027  -0.007  -0.018   0.000   0.000  -0.027  -0.007
 -0.027   0.000   0.011  -0.005  -0.019  -0.026   0.000   0.010
 total augmentation occupancy for first ion, spin component:           1
  1.541  -0.030   0.005   0.018   0.023   0.074  -0.008  -0.002   0.035  -0.010   0.091  -0.030   0.012   0.002   0.003  -0.019
 -0.030   1.408   0.029   0.071  -0.002  -0.007   0.068   0.010  -0.015  -0.007   0.223  -0.067   0.019   0.001   0.003  -0.006
  0.005   0.029   1.547  -0.000   0.001  -0.002   0.012   0.071  -0.012   0.017  -0.052   0.019  -0.003  -0.007  -0.005   0.016
  0.018   0.071  -0.000   1.342   0.044   0.033  -0.014  -0.012   0.090  -0.023  -0.081   0.021  -0.001  -0.008  -0.004   0.001
  0.023  -0.002   0.001   0.044   1.448  -0.010  -0.008   0.016  -0.022   0.064  -0.099   0.032  -0.003  -0.009  -0.010   0.027
  0.074  -0.007  -0.002   0.033  -0.010   0.215   0.019  -0.002  -0.045   0.004  -0.048   0.002   0.017  -0.010   0.034  -0.004
 -0.008   0.068   0.012  -0.014  -0.008   0.019   0.261  -0.023  -0.003   0.005  -0.110   0.007  -0.001   0.051  -0.010  -0.000
 -0.002   0.010   0.071  -0.012   0.016  -0.002  -0.023   0.213   0.014  -0.020   0.026  -0.001  -0.012   0.009  -0.018   0.003
  0.035  -0.015  -0.012   0.090  -0.022  -0.045  -0.003   0.014   0.258   0.008   0.043  -0.004  -0.009   0.036   0.004   0.000
 -0.010  -0.007   0.017  -0.023   0.064   0.004   0.005  -0.020   0.008   0.257   0.047  -0.002  -0.038   0.002   0.049   0.007
  0.091   0.223  -0.052  -0.081  -0.099  -0.048  -0.110   0.026   0.043   0.047   0.956  -0.141   0.084   0.013   0.064  -0.013
 -0.030  -0.067   0.019   0.021   0.032   0.002   0.007  -0.001  -0.004  -0.002  -0.141   0.023  -0.014  -0.003  -0.010   0.003
  0.012   0.019  -0.003  -0.001  -0.003   0.017  -0.001  -0.012  -0.009  -0.038   0.084  -0.014   0.029  -0.008  -0.004  -0.003
  0.002   0.001  -0.007  -0.008  -0.009  -0.010   0.051   0.009   0.036   0.002   0.013  -0.003  -0.008   0.036   0.004   0.000
  0.003   0.003  -0.005  -0.004  -0.010   0.034  -0.010  -0.018   0.004   0.049   0.064  -0.010  -0.004   0.004   0.034  -0.000
 -0.019  -0.006   0.016   0.001   0.027  -0.004  -0.000   0.003   0.000   0.007  -0.013   0.003  -0.003   0.000  -0.000   0.001
  0.001  -0.028  -0.006  -0.018   0.001   0.001  -0.008  -0.001  -0.006  -0.000  -0.003   0.001   0.000  -0.003  -0.000   0.000
 -0.028   0.001   0.012  -0.005  -0.020  -0.006   0.001   0.003  -0.001  -0.007  -0.008   0.001  -0.000  -0.000  -0.003   0.000


------------------------ aborting loop because EDIFF is reached ----------------------------------------


    CHARGE:  cpu time   25.5787: real time   25.5799
    FORLOC:  cpu time    6.7772: real time    6.7776
    FORNL :  cpu time   66.0037: real time   66.0093
    STRESS:  cpu time  199.1569: real time  199.1905
    FORCOR:  cpu time   22.1244: real time   22.1285
    FORHAR:  cpu time    9.7563: real time    9.7575
    MIXING:  cpu time    3.5635: real time    3.5635
    OFIELD:  cpu time    0.0000: real time    0.0000

  FORCE on cell =-STRESS in cart. coord.  units (eV):
  Direction    XX          YY          ZZ          XY          YZ          ZX
  --------------------------------------------------------------------------------------
  Alpha Z    75.25432    75.25432    75.25432
  Ewald   44112.52339 48167.32072 45616.29056   858.87959 -1929.63683  -680.99866
  Hartree 59031.35509 62821.76131 60399.12188   786.03115 -1737.17374  -618.89423
  E(xc)   -2905.35013 -2903.60049 -2904.07580     0.44580    -1.48220    -0.35844
  Local  ************************************ -1636.77003  3644.90179  1294.07217
  n-local  -880.27614  -884.16794  -883.32591    -1.60576     2.07272     1.32036
  augment  4106.00191  4102.15107  4102.95503    -0.81803     3.80545     0.60226
  Kinetic  7814.13537  7793.90568  7800.35165    -5.61670    17.47864     4.05196
  Fock        0.00000     0.00000     0.00000     0.00000     0.00000     0.00000
  -------------------------------------------------------------------------------------
  Total    -113.44589  -112.12312  -114.96214     0.54602    -0.03418    -0.20458
  in kB      -6.73187    -6.65337    -6.82184     0.03240    -0.00203    -0.01214
  external pressure =       -6.74 kB  Pullay stress =        0.00 kB


 VOLUME and BASIS-vectors are now :
 -----------------------------------------------------------------------------
  energy-cutoff  :      400.00
  volume of cell :    27000.00
      direct lattice vectors                 reciprocal lattice vectors
    30.000000000  0.000000000  0.000000000     0.033333333  0.000000000  0.000000000
     0.000000000 30.000000000  0.000000000     0.000000000  0.033333333  0.000000000
     0.000000000  0.000000000 30.000000000     0.000000000  0.000000000  0.033333333

  length of vectors
    30.000000000 30.000000000 30.000000000     0.033333333  0.033333333  0.033333333


 FORCES acting on ions
    electron-ion (+dipol)            ewald-force                    non-local-force                 convergence-correction
 -----------------------------------------------------------------------------------------------
   0.396E+03 0.975E+03 0.414E+03   -.394E+03 -.972E+03 -.414E+03   -.151E+01 -.182E+01 -.197E+00   -.151E-02 0.343E-02 -.163E-01
   -.986E+03 -.367E+03 0.406E+03   0.983E+03 0.364E+03 -.405E+03   0.187E+01 0.152E+01 -.239E+00   -.115E-01 0.145E-01 0.885E-02
   -.393E+03 0.975E+03 0.414E+03   0.391E+03 -.973E+03 -.414E+03   0.150E+01 -.183E+01 -.198E+00   0.795E-02 -.893E-03 -.112E-01
   0.982E+03 -.385E+03 0.412E+03   -.979E+03 0.382E+03 -.412E+03   -.182E+01 0.148E+01 -.222E+00   0.518E-02 0.725E-02 -.132E-01
   0.222E+01 0.595E+03 0.964E+03   -.222E+01 -.594E+03 -.960E+03   0.202E-03 -.271E+00 -.235E+01   -.161E-02 0.155E-01 -.801E-02
   0.915E+00 0.589E+03 -.967E+03   -.925E+00 -.588E+03 0.963E+03   0.809E-02 -.309E+00 0.235E+01   0.393E-03 -.110E-01 0.133E-01
   0.102E+01 0.113E+04 -.218E+01   -.102E+01 -.113E+04 0.218E+01   0.121E-02 -.310E+01 -.872E-03   0.597E-02 -.102E-01 0.514E-03
   0.114E+04 0.465E+01 -.314E+01   -.113E+04 -.466E+01 0.317E+01   -.311E+01 0.301E-02 -.110E-01   -.216E-02 0.801E-02 -.183E-01
   -.114E+04 0.101E+02 -.676E+01   0.113E+04 -.102E+02 0.676E+01   0.310E+01 0.129E-01 -.695E-02   -.683E-02 0.197E-01 0.776E-02
   0.241E+02 -.113E+04 -.531E+02   -.241E+02 0.113E+04 0.533E+02   0.452E-01 0.314E+01 -.108E+00   0.545E-02 -.156E-01 -.468E-02
   -.579E+03 0.587E+03 0.812E+03   0.577E+03 -.585E+03 -.809E+03   0.156E+01 -.153E+01 -.220E+01   -.143E-02 0.698E-02 -.448E-02
   -.578E+03 0.581E+03 -.815E+03   0.576E+03 -.579E+03 0.812E+03   0.155E+01 -.156E+01 0.220E+01   0.122E-01 0.313E-04 0.751E-02
   0.605E+03 -.559E+03 0.813E+03   -.603E+03 0.557E+03 -.810E+03   -.155E+01 0.160E+01 -.220E+01   0.578E-02 0.428E-02 0.216E-02
   0.582E+03 -.574E+03 -.819E+03   -.580E+03 0.572E+03 0.815E+03   -.154E+01 0.158E+01 0.219E+01   -.222E-02 0.166E-01 -.461E-02
   0.582E+03 0.584E+03 0.812E+03   -.579E+03 -.582E+03 -.808E+03   -.156E+01 -.155E+01 -.220E+01   -.107E-01 0.167E-01 -.784E-02
   0.579E+03 0.580E+03 -.814E+03   -.577E+03 -.578E+03 0.811E+03   -.156E+01 -.155E+01 0.220E+01   -.923E-02 -.123E-01 0.133E-01
   -.613E+03 -.488E+03 0.820E+03   0.611E+03 0.485E+03 -.817E+03   0.135E+01 0.157E+01 -.196E+01   -.129E-01 0.178E-02 0.112E-01
   -.579E+03 -.573E+03 -.822E+03   0.577E+03 0.570E+03 0.819E+03   0.155E+01 0.157E+01 0.219E+01   0.109E-01 0.525E-02 -.208E-01
   0.395E+03 0.973E+03 -.418E+03   -.393E+03 -.970E+03 0.418E+03   -.151E+01 -.183E+01 0.217E+00   -.880E-03 -.168E-01 0.785E-02
   -.975E+03 -.385E+03 -.427E+03   0.972E+03 0.383E+03 0.426E+03   0.180E+01 0.153E+01 0.180E+00   -.342E-02 0.196E-01 -.672E-02
   -.320E+03 0.336E+03 0.449E+03   0.320E+03 -.336E+03 -.449E+03   -.382E+00 0.392E+00 0.528E+00   0.267E-03 0.202E-01 -.167E-01
   0.976E+03 0.400E+03 0.414E+03   -.973E+03 -.398E+03 -.413E+03   -.182E+01 -.149E+01 -.230E+00   -.511E-02 0.122E-01 -.198E-01
   -.363E+03 -.823E+03 0.242E+03   0.362E+03 0.826E+03 -.247E+03   0.390E+00 -.218E+01 0.349E+01   -.763E-02 -.857E-02 0.100E-01
   -.393E+03 0.973E+03 -.419E+03   0.391E+03 -.970E+03 0.418E+03   0.150E+01 -.182E+01 0.227E+00   0.494E-02 -.166E-01 0.351E-02
   0.976E+03 -.389E+03 -.421E+03   -.973E+03 0.387E+03 0.421E+03   -.182E+01 0.152E+01 0.201E+00   -.530E-02 0.190E-01 -.115E-01
   -.975E+03 0.406E+03 0.412E+03   0.972E+03 -.404E+03 -.412E+03   0.182E+01 -.151E+01 -.223E+00   -.869E-03 0.153E-01 -.488E-02
   0.451E+03 -.943E+03 0.385E+03   -.449E+03 0.940E+03 -.385E+03   -.125E+01 0.185E+01 -.278E+00   0.529E-02 -.501E-02 -.260E-02
   0.326E+03 0.332E+03 0.449E+03   -.326E+03 -.332E+03 -.450E+03   0.376E+00 0.384E+00 0.519E+00   -.700E-02 0.184E-01 -.275E-01
   0.173E+01 0.645E+03 -.372E+01   -.174E+01 -.646E+03 0.376E+01   -.907E-03 0.729E+00 -.201E-01   0.734E-02 -.143E-02 -.156E-01
   -.591E+03 0.261E+02 0.965E+03   0.591E+03 -.260E+02 -.961E+03   0.316E+00 -.453E-01 -.237E+01   -.990E-02 0.126E-01 0.182E-02
   -.587E+03 0.516E+01 -.970E+03   0.586E+03 -.519E+01 0.966E+03   0.287E+00 0.772E-03 0.235E+01   0.181E-01 0.267E-01 -.587E-02
   0.596E+03 0.127E+02 0.964E+03   -.595E+03 -.127E+02 -.960E+03   -.325E+00 -.165E-01 -.234E+01   -.122E-02 0.993E-02 0.701E-03
   0.589E+03 0.378E+01 -.968E+03   -.588E+03 -.375E+01 0.964E+03   -.306E+00 -.284E-01 0.236E+01   -.754E-02 0.110E-01 0.742E-02
   0.763E+03 0.764E+03 -.276E+01   -.761E+03 -.762E+03 0.277E+01   -.114E+01 -.115E+01 0.539E-02   -.141E-01 0.388E-02 -.162E-01
   -.771E+03 -.735E+03 -.320E+02   0.768E+03 0.733E+03 0.319E+02   0.130E+01 0.118E+01 0.583E-01   -.489E-02 0.538E-02 0.485E-02
   -.761E+03 0.766E+03 -.380E+01   0.759E+03 -.765E+03 0.381E+01   0.114E+01 -.114E+01 -.130E-02   0.812E-02 0.384E-02 -.892E-02
   0.775E+03 -.750E+03 -.123E+02   -.773E+03 0.748E+03 0.123E+02   -.118E+01 0.112E+01 0.363E-01   0.679E-02 0.151E-01 -.149E-01
   0.734E+01 0.247E+02 0.107E+04   -.734E+01 -.246E+02 -.107E+04   -.550E-02 -.497E-01 -.163E+01   -.228E-02 0.164E-01 -.209E-02
   0.154E+01 0.489E+01 -.107E+04   -.155E+01 -.490E+01 0.107E+04   0.894E-03 -.849E-02 0.161E+01   0.122E-01 0.167E-01 0.891E-02
   0.974E+03 0.397E+03 -.419E+03   -.971E+03 -.395E+03 0.419E+03   -.181E+01 -.152E+01 0.230E+00   -.184E-01 0.370E-02 -.263E-02
   -.392E+03 -.964E+03 -.441E+03   0.390E+03 0.961E+03 0.440E+03   0.151E+01 0.183E+01 0.261E+00   0.102E-01 -.122E-02 -.187E-01
   -.320E+03 0.328E+03 -.459E+03   0.321E+03 -.328E+03 0.459E+03   -.364E+00 0.372E+00 -.523E+00   0.179E-01 0.169E-01 -.117E-02
   0.338E+03 -.297E+03 0.443E+03   -.338E+03 0.297E+03 -.444E+03   0.343E+00 -.390E+00 0.533E+00   0.133E-03 0.241E-01 -.188E-01
   0.323E+03 0.326E+03 -.457E+03   -.324E+03 -.327E+03 0.458E+03   0.349E+00 0.374E+00 -.515E+00   -.364E-02 0.491E-02 0.718E-03
   -.973E+03 0.400E+03 -.421E+03   0.970E+03 -.398E+03 0.421E+03   0.181E+01 -.151E+01 0.199E+00   0.147E-01 0.264E-01 0.217E-03
   0.403E+03 -.966E+03 -.433E+03   -.401E+03 0.963E+03 0.433E+03   -.152E+01 0.181E+01 0.255E+00   0.111E-01 0.679E-02 -.190E-01
   -.318E+03 -.278E+03 0.436E+03   0.319E+03 0.278E+03 -.437E+03   -.354E+00 -.331E+00 0.390E+00   0.207E-02 0.209E-01 -.189E-02
   0.645E+03 0.881E+01 -.587E+01   -.646E+03 -.886E+01 0.592E+01   0.745E+00 0.226E-01 -.169E-01   -.123E-01 0.231E-01 -.258E-01
   -.641E+03 0.154E+02 -.102E+02   0.642E+03 -.155E+02 0.102E+02   -.727E+00 -.268E-01 0.294E-01   0.111E-01 0.384E-01 -.365E-02
   0.468E+02 -.508E+03 0.973E+03   -.471E+02 0.507E+03 -.970E+03   0.250E+00 0.504E+00 -.207E+01   -.727E-02 0.277E-02 0.798E-02
   0.260E+01 -.581E+03 -.974E+03   -.261E+01 0.580E+03 0.970E+03   -.480E-02 0.316E+00 0.234E+01   0.137E-01 0.155E-01 -.145E-01
   0.447E+01 0.148E+02 -.979E+01   -.447E+01 -.148E+02 0.979E+01   -.942E-02 -.163E-01 0.123E-01   0.125E-01 0.319E-01 -.219E-01
   0.326E+03 -.312E+03 -.463E+03   -.327E+03 0.313E+03 0.464E+03   0.391E+00 -.339E+00 -.566E+00   0.536E-02 0.328E-01 -.154E-01
   -.320E+03 -.310E+03 -.466E+03   0.320E+03 0.310E+03 0.467E+03   -.363E+00 -.373E+00 -.515E+00   0.268E-01 0.355E-01 -.145E-01
   0.136E+02 -.615E+03 -.297E+02   -.134E+02 0.616E+03 0.294E+02   -.202E+00 -.860E+00 0.211E+00   0.143E-01 0.231E-01 -.959E-02
   -.600E+02 -.201E+03 0.150E+03   0.545E+02 0.182E+03 -.136E+03   0.459E+01 0.153E+02 -.959E+01   -.345E-02 -.543E-02 0.499E-02
   -.185E+03 -.607E+03 0.395E+03   0.200E+03 0.661E+03 -.429E+03   -.148E+02 -.501E+02 0.317E+02   -.322E-02 -.632E-02 0.498E-02
 -----------------------------------------------------------------------------------------------
   0.110E+02 0.380E+02 -.260E+02   -.398E-12 -.568E-12 -.182E-11   -.111E+02 -.385E+02 0.263E+02   0.783E-01 0.541E+00 -.302E+00
 
 
 POSITION                                       TOTAL-FORCE (eV/Angst)
 -----------------------------------------------------------------------------------
     13.37281      9.84801     12.50759         0.706989      1.112915      0.282854
     20.15199     16.62719     12.50759        -1.094722     -0.722880      0.288694
     16.62719      9.84801     12.50759        -0.704245      1.117362      0.280879
      9.84801     16.62719     12.50759         1.109664     -0.701219      0.289842
     15.00000     11.47521     10.20639         0.001555      0.400606      1.289866
     15.00000     11.47521     19.79360        -0.001242      0.412025     -1.285382
     15.00000      8.28283     15.00000         0.000519      1.519631     -0.004163
      8.28283     15.00000     15.00000         1.520161     -0.000024      0.005996
     21.71717     15.00000     15.00000        -1.520789     -0.004588      0.005200
     15.00000     21.71717     15.00000        -0.016708     -1.537916      0.043183
     18.35858     11.64142     10.25025        -0.768547      0.742004      1.078296
     18.35858     11.64142     19.74975        -0.750448      0.763562     -1.073957
     11.64142     18.35858     10.25025         0.777985     -0.768927      1.081161
     11.64142     18.35858     19.74975         0.751727     -0.771091     -1.074664
     11.64142     11.64142     10.25025         0.763819      0.752976      1.076394
     11.64142     11.64142     19.74975         0.755876      0.755593     -1.071767
     18.35858     18.35858     10.25025        -0.750105     -0.739701      1.051330
     18.35858     18.35858     19.74975        -0.756099     -0.763902     -1.071732
     13.37281      9.84801     17.49241         0.708038      1.109051     -0.289701
     20.15199     16.62719     17.49241        -1.108220     -0.736075     -0.266893
     16.73751     13.26249     12.54279         0.106212     -0.136234     -0.159468
      9.84801     13.37281     12.50759         1.108427      0.702688      0.293116
     16.62719     20.15199     12.50759        -0.477126      0.162648     -1.324412
     16.62719      9.84801     17.49241        -0.707291      1.107425     -0.290286
      9.84801     16.62719     17.49241         1.106112     -0.710781     -0.281537
     20.15199     13.37281     12.50759        -1.107869      0.714237      0.288506
     13.37281     20.15199     12.50759         0.583160     -1.137256      0.335478
     13.26249     13.26249     12.54279        -0.110524     -0.111950     -0.159745
     15.00000     11.52498     15.00000        -0.001961     -0.230219      0.003109
     18.52479     15.00000     10.20639        -0.400147      0.004568      1.281776
     18.52479     15.00000     19.79360        -0.406115     -0.000140     -1.288075
     11.47521     15.00000     10.20640         0.412299      0.004449      1.279513
     11.47521     15.00000     19.79360         0.411366      0.015412     -1.283744
     11.49535     11.49535     15.00000         0.826998      0.826900     -0.001011
     18.50465     18.50465     15.00000        -0.863099     -0.848026      0.017124
     18.50465     11.49535     15.00000        -0.826784      0.824794      0.001564
     11.49535     18.50465     15.00000         0.834716     -0.818756     -0.020061
     15.00000     15.00000     10.04368        -0.012044      0.010032      1.175679
     15.00000     15.00000     19.95633         0.002358      0.000926     -1.175581
      9.84801     13.37281     17.49241         1.106441      0.715139     -0.301117
     16.62719     20.15199     17.49241        -0.709666     -1.106414     -0.294390
     16.73751     13.26249     17.45721         0.112653     -0.109529      0.158471
     13.26249     16.73751     12.54279        -0.112684      0.109051     -0.152684
     13.26249     13.26249     17.45721        -0.105144     -0.115805      0.153993
     20.15199     13.37281     17.49241        -1.110606      0.714148     -0.286311
     13.37281     20.15199     17.49241         0.710653     -1.099470     -0.300260
     16.73751     16.73751     12.54279         0.111691      0.043545     -0.107910
     11.52498     15.00000     15.00000        -0.232949     -0.003157      0.006790
     18.47502     15.00000     15.00000         0.229491      0.006912     -0.004954
     15.00000     18.52480     10.20639        -0.059263     -0.440307      1.210397
     15.00000     18.52480     19.79360         0.001977     -0.413153     -1.282641
     15.00000     15.00000     15.00000         0.000274      0.016440     -0.015836
     13.26249     16.73751     17.45721        -0.136423      0.101936      0.180946
     16.73751     16.73751     17.45721         0.116323      0.122884      0.149023
     15.00000     18.47502     15.00000         0.066861      0.253393     -0.040671
     16.86255     21.39949     10.87979        -0.914472     -4.245488      3.878930
     17.13068     22.32074     10.28666         0.820946      3.129754     -2.279158
 -----------------------------------------------------------------------------------
    total drift:                                0.005658     -0.006162      0.011370


--------------------------------------------------------------------------------------------------------



  FREE ENERGIE OF THE ION-ELECTRON SYSTEM (eV)
  ---------------------------------------------------
  free  energy   TOTEN  =      -174.86830834 eV

  energy  without entropy=     -174.74636717  energy(sigma->0) =     -174.83782305
 


--------------------------------------------------------------------------------------------------------


    POTLOK:  cpu time   14.0782: real time   14.0794


--------------------------------------------------------------------------------------------------------


     LOOP+:  cpu time17456.9562: real time17458.1121
    4ORBIT:  cpu time    0.0000: real time    0.0000

 total amount of memory used by VASP MPI-rank0  5486942. kBytes
=======================================================================

   base      :      30000. kBytes
   nonlr-proj:      17127. kBytes
   fftplans  :     924480. kBytes
   grid      :    1872000. kBytes
   one-center:        886. kBytes
   wavefun   :    2642449. kBytes
 
  
  
 General timing and accounting informations for this job:
 ========================================================
  
                  Total CPU time used (sec):    17532.463
                            User time (sec):    16577.904
                          System time (sec):      954.559
                         Elapsed time (sec):    17533.711
  
                   Maximum memory used (kb):     7179032.
                   Average memory used (kb):           0.
  
                          Minor page faults:    772056264
                          Major page faults:            0
                 Voluntary context switches:          458
