       N       E                     dE             d eps       ncg     rms          rms(c)
DAV:   1     0.440540164809E+04    0.44054E+04   -0.10058E+05   688   0.815E+02
DAV:   2     0.201203822255E+04   -0.23934E+04   -0.21549E+04  1224   0.106E+02
DAV:   3     0.231566701222E+03   -0.17805E+04   -0.16748E+04  1000   0.918E+01
DAV:   4    -0.137067314452E+03   -0.36863E+03   -0.31398E+03   848   0.436E+01
DAV:   5    -0.181420558978E+03   -0.44353E+02   -0.37227E+02  1040   0.147E+01    0.180E+01
RMM:   6    -0.180360733943E+03    0.10598E+01   -0.67968E+01   726   0.959E+00    0.239E+01
RMM:   7    -0.185053946569E+03   -0.46932E+01   -0.23325E+01   846   0.528E+00    0.246E+01
RMM:   8    -0.187699232109E+03   -0.26453E+01   -0.91497E+00   779   0.407E+00    0.301E+01
RMM:   9    -0.183875847108E+03    0.38234E+01   -0.76342E+00   718   0.387E+00    0.271E+01
RMM:  10    -0.181206913146E+03    0.26689E+01   -0.40712E+00   729   0.293E+00    0.238E+01
RMM:  11    -0.179338052024E+03    0.18689E+01   -0.23925E+00   733   0.226E+00    0.194E+01
RMM:  12    -0.178131151160E+03    0.12069E+01   -0.21366E+00   722   0.214E+00    0.163E+01
RMM:  13    -0.177536717016E+03    0.59443E+00   -0.18642E+00   714   0.202E+00    0.171E+01
RMM:  14    -0.177911865245E+03   -0.37515E+00   -0.16009E+00   717   0.187E+00    0.223E+01
RMM:  15    -0.177055729427E+03    0.85614E+00   -0.14892E+00   705   0.180E+00    0.179E+01
RMM:  16    -0.176599544007E+03    0.45619E+00   -0.10531E+00   712   0.151E+00    0.159E+01
RMM:  17    -0.176305004191E+03    0.29454E+00   -0.61684E-01   721   0.116E+00    0.132E+01
RMM:  18    -0.176132487443E+03    0.17252E+00   -0.49457E-01   704   0.105E+00    0.103E+01
RMM:  19    -0.176239134745E+03   -0.10665E+00   -0.45408E-01   706   0.103E+00    0.175E+01
RMM:  20    -0.175842242022E+03    0.39689E+00   -0.34160E-01   698   0.860E-01    0.100E+01
RMM:  21    -0.175863555499E+03   -0.21313E-01   -0.27586E-01   704   0.782E-01    0.105E+01
RMM:  22    -0.175525809293E+03    0.33775E+00   -0.23949E-01   697   0.743E-01    0.741E+00
RMM:  23    -0.175417724861E+03    0.10808E+00   -0.19029E-01   696   0.645E-01    0.755E+00
RMM:  24    -0.175360434776E+03    0.57290E-01   -0.13702E-01   692   0.556E-01    0.586E+00
RMM:  25    -0.175301790944E+03    0.58644E-01   -0.11643E-01   694   0.516E-01    0.537E+00
RMM:  26    -0.175242751843E+03    0.59039E-01   -0.82464E-02   693   0.435E-01    0.447E+00
RMM:  27    -0.175203921016E+03    0.38831E-01   -0.70082E-02   694   0.411E-01    0.402E+00
RMM:  28    -0.175197291866E+03    0.66291E-02   -0.64140E-02   694   0.401E-01    0.401E+00
RMM:  29    -0.175153570586E+03    0.43721E-01   -0.59729E-02   691   0.392E-01    0.292E+00
RMM:  30    -0.175124672741E+03    0.28898E-01   -0.34028E-02   691   0.300E-01    0.213E+00
RMM:  31    -0.175116274089E+03    0.83987E-02   -0.16045E-02   694   0.210E-01    0.183E+00
RMM:  32    -0.175104252015E+03    0.12022E-01   -0.10054E-02   695   0.160E-01    0.153E+00
RMM:  33    -0.175097553640E+03    0.66984E-02   -0.57322E-03   689   0.123E-01    0.121E+00
RMM:  34    -0.175091243365E+03    0.63103E-02   -0.36806E-03   692   0.963E-02    0.773E-01
RMM:  35    -0.175089364997E+03    0.18784E-02   -0.26611E-03   688   0.797E-02    0.624E-01
RMM:  36    -0.175088837474E+03    0.52752E-03   -0.27006E-03   688   0.784E-02    0.629E-01
RMM:  37    -0.175088768641E+03    0.68833E-04   -0.20344E-03   689   0.707E-02    0.582E-01
RMM:  38    -0.175090812472E+03   -0.20438E-02   -0.24443E-03   687   0.748E-02    0.644E-01
RMM:  39    -0.175091614151E+03   -0.80168E-03   -0.17526E-03   690   0.692E-02    0.434E-01
RMM:  40    -0.175093525149E+03   -0.19110E-02   -0.12836E-03   686   0.560E-02    0.425E-01
RMM:  41    -0.175095796224E+03   -0.22711E-02   -0.10442E-03   687   0.515E-02    0.271E-01
RMM:  42    -0.175097041352E+03   -0.12451E-02   -0.49495E-04   568   0.361E-02    0.253E-01
RMM:  43    -0.175100406690E+03   -0.33653E-02   -0.60877E-04   623   0.371E-02    0.239E-01
RMM:  44    -0.175101664916E+03   -0.12582E-02   -0.30284E-04   433   0.281E-02    0.139E-01
RMM:  45    -0.175103975791E+03   -0.23109E-02   -0.34987E-04   471   0.270E-02    0.179E-01
RMM:  46    -0.175105774753E+03   -0.17990E-02   -0.25457E-04   416   0.239E-02    0.151E-01
RMM:  47    -0.175106716002E+03   -0.94125E-03   -0.14023E-04   410   0.170E-02    0.137E-01
RMM:  48    -0.175108353509E+03   -0.16375E-02   -0.13256E-04   412   0.161E-02    0.957E-02
RMM:  49    -0.175109424044E+03   -0.10705E-02   -0.96348E-05   405   0.132E-02    0.948E-02
RMM:  50    -0.175111204813E+03   -0.17808E-02   -0.11417E-04   408   0.139E-02    0.738E-02
RMM:  51    -0.175112078281E+03   -0.87347E-03   -0.81626E-05   406   0.115E-02    0.556E-02
RMM:  52    -0.175113531895E+03   -0.14536E-02   -0.12064E-04   408   0.125E-02    0.587E-02
RMM:  53    -0.175114015162E+03   -0.48327E-03   -0.66903E-05   410   0.917E-03    0.403E-02
RMM:  54    -0.175114668691E+03   -0.65353E-03   -0.59616E-05   408   0.818E-03    0.348E-02
RMM:  55    -0.175114904614E+03   -0.23592E-03   -0.32263E-05   366   0.609E-03    0.275E-02
RMM:  56    -0.175115124135E+03   -0.21952E-03   -0.17702E-05   302   0.508E-03    0.178E-02
RMM:  57    -0.175115262168E+03   -0.13803E-03   -0.49398E-06   152   0.406E-03    0.132E-02
RMM:  58    -0.175115560857E+03   -0.29869E-03   -0.72966E-06   204   0.434E-03    0.138E-02
RMM:  59    -0.175115749386E+03   -0.18853E-03   -0.64546E-06   190   0.401E-03    0.109E-02
RMM:  60    -0.175116004973E+03   -0.25559E-03   -0.67466E-06   188   0.397E-03    0.111E-02
RMM:  61    -0.175116112809E+03   -0.10784E-03   -0.36506E-07    91   0.328E-03    0.514E-03
RMM:  62    -0.175116241992E+03   -0.12918E-03   -0.65139E-06   167   0.373E-03    0.720E-03
RMM:  63    -0.175116375596E+03   -0.13360E-03   -0.48812E-06   144   0.361E-03    0.438E-03
RMM:  64    -0.175116481971E+03   -0.10637E-03   -0.43681E-06   138   0.374E-03    0.566E-03
RMM:  65    -0.175116587418E+03   -0.10545E-03   -0.11479E-05   202   0.401E-03    0.335E-03
RMM:  66    -0.175116595140E+03   -0.77211E-05   -0.99768E-07    77   0.305E-03
   1 F= -.17511660E+03 E0= -.17510404E+03  d E =-.502033E-01
