 vasp.5.4.4.18Apr17-6-g9f103f2a35 (build Sep 03 2018 23:53:05) complex          
  
 executed on             LinuxIFC date 2021.11.27  00:16:25
 running on    1 total cores
 distrk:  each k-point on    1 cores,    1 groups
 distr:  one band on NCORES_PER_BAND=   1 cores,    1 groups


--------------------------------------------------------------------------------------------------------


 INCAR:
 POTCAR:    PAW_PBE Pd 04Jan2005                  
 POTCAR:    PAW_PBE C 08Apr2002                   
 POTCAR:    PAW_PBE O 08Apr2002                   
 POTCAR:    PAW_PBE Pd 04Jan2005                  
   VRHFIN =Pd : s1 d9                                                           
   LEXCH  = PE                                                                  
   EATOM  =   809.7530 eV,   59.5152 Ry                                         
                                                                                
   TITEL  = PAW_PBE Pd 04Jan2005                                                
   LULTRA =        F    use ultrasoft PP ?                                      
   IUNSCR =        1    unscreen: 0-lin 1-nonlin 2-no                           
   RPACOR =    2.000    partial core radius                                     
   POMASS =  106.420; ZVAL   =   10.000    mass and valenz                      
   RCORE  =    2.600    outmost cutoff radius                                   
   RWIGS  =    2.710; RWIGS  =    1.434    wigner-seitz radius (au A)           
   ENMAX  =  250.925; ENMIN  =  188.194 eV                                      
   ICORE  =        3    local potential                                         
   LCOR   =        T    correct aug charges                                     
   LPAW   =        T    paw PP                                                  
   EAUG   =  416.230                                                            
   DEXC   =    0.000                                                            
   RMAX   =    2.653    core radius for proj-oper                               
   RAUG   =    1.300    factor for augmentation sphere                          
   RDEP   =    2.734    radius for radial grids                                 
   RDEPT  =    2.103    core radius for aug-charge                              
                                                                                
   Atomic configuration                                                         
   12 entries                                                                   
     n  l   j            E        occ.                                          
     1  0  0.50    -24164.6631   2.0000                                         
     2  0  0.50     -3530.9218   2.0000                                         
     2  1  1.50     -3165.6822   6.0000                                         
     3  0  0.50      -639.4577   2.0000                                         
     3  1  1.50      -519.4532   6.0000                                         
     3  2  2.50      -328.9757  10.0000                                         
     4  0  0.50       -88.7014   2.0000                                         
     4  1  1.50       -54.4540   6.0000                                         
     4  2  2.50        -6.6878   9.0000                                         
     5  0  0.50        -4.3543   1.0000                                         
     5  1  0.50        -1.3606   0.0000                                         
     4  3  2.50        -1.3606   0.0000                                         
   Description                                                                  
     l       E           TYP  RCUT    TYP  RCUT                                 
     2     -6.6878251     23  2.400                                             
     2     -8.0484077     23  2.400                                             
     0     -4.3542939     23  2.400                                             
     0      4.3406793     23  2.400                                             
     1     -4.0817478     23  2.600                                             
     1     15.8380318     23  2.600                                             
     3     -4.0817478     23  2.400                                             
  local pseudopotential read in
  partial core-charges read in
  partial kinetic energy density read in
  atomic valenz-charges read in
  non local Contribution for L=           2  read in
    real space projection operators read in
  non local Contribution for L=           2  read in
    real space projection operators read in
  non local Contribution for L=           0  read in
    real space projection operators read in
  non local Contribution for L=           0  read in
    real space projection operators read in
  non local Contribution for L=           1  read in
    real space projection operators read in
  non local Contribution for L=           1  read in
    real space projection operators read in
    PAW grid and wavefunctions read in
 
   number of l-projection  operators is LMAX  =           6
   number of lm-projection operators is LMMAX =          18
 
 POTCAR:    PAW_PBE C 08Apr2002                   
   VRHFIN =C: s2p2                                                              
   LEXCH  = PE                                                                  
   EATOM  =   147.1560 eV,   10.8157 Ry                                         
                                                                                
   TITEL  = PAW_PBE C 08Apr2002                                                 
   LULTRA =        F    use ultrasoft PP ?                                      
   IUNSCR =        1    unscreen: 0-lin 1-nonlin 2-no                           
   RPACOR =    1.200    partial core radius                                     
   POMASS =   12.011; ZVAL   =    4.000    mass and valenz                      
   RCORE  =    1.500    outmost cutoff radius                                   
   RWIGS  =    1.630; RWIGS  =    0.863    wigner-seitz radius (au A)           
   ENMAX  =  400.000; ENMIN  =  300.000 eV                                      
   ICORE  =        2    local potential                                         
   LCOR   =        T    correct aug charges                                     
   LPAW   =        T    paw PP                                                  
   EAUG   =  644.873                                                            
   DEXC   =    0.000                                                            
   RMAX   =    1.529    core radius for proj-oper                               
   RAUG   =    1.300    factor for augmentation sphere                          
   RDEP   =    1.501    radius for radial grids                                 
   RDEPT  =    1.300    core radius for aug-charge                              
                                                                                
   Atomic configuration                                                         
    4 entries                                                                   
     n  l   j            E        occ.                                          
     1  0  0.50      -273.3789   2.0000                                         
     2  0  0.50       -13.7508   2.0000                                         
     2  1  0.50        -5.2854   2.0000                                         
     3  2  1.50        -5.4423   0.0000                                         
   Description                                                                  
     l       E           TYP  RCUT    TYP  RCUT                                 
     0    -13.7508458     23  1.200                                             
     0     -8.2022199     23  1.200                                             
     1     -5.2854383     23  1.500                                             
     1     34.0145650     23  1.500                                             
     2     -5.4423304      7  1.500                                             
  local pseudopotential read in
  partial core-charges read in
  partial kinetic energy density read in
  atomic valenz-charges read in
  non local Contribution for L=           0  read in
    real space projection operators read in
  non local Contribution for L=           0  read in
    real space projection operators read in
  non local Contribution for L=           1  read in
    real space projection operators read in
  non local Contribution for L=           1  read in
    real space projection operators read in
    PAW grid and wavefunctions read in
 
   number of l-projection  operators is LMAX  =           4
   number of lm-projection operators is LMMAX =           8
 
 POTCAR:    PAW_PBE O 08Apr2002                   
   VRHFIN =O: s2p4                                                              
   LEXCH  = PE                                                                  
   EATOM  =   432.3788 eV,   31.7789 Ry                                         
                                                                                
   TITEL  = PAW_PBE O 08Apr2002                                                 
   LULTRA =        F    use ultrasoft PP ?                                      
   IUNSCR =        1    unscreen: 0-lin 1-nonlin 2-no                           
   RPACOR =    1.200    partial core radius                                     
   POMASS =   16.000; ZVAL   =    6.000    mass and valenz                      
   RCORE  =    1.520    outmost cutoff radius                                   
   RWIGS  =    1.550; RWIGS  =    0.820    wigner-seitz radius (au A)           
   ENMAX  =  400.000; ENMIN  =  300.000 eV                                      
   ICORE  =        2    local potential                                         
   LCOR   =        T    correct aug charges                                     
   LPAW   =        T    paw PP                                                  
   EAUG   =  605.392                                                            
   DEXC   =    0.000                                                            
   RMAX   =    1.553    core radius for proj-oper                               
   RAUG   =    1.300    factor for augmentation sphere                          
   RDEP   =    1.550    radius for radial grids                                 
   RDEPT  =    1.329    core radius for aug-charge                              
                                                                                
   Atomic configuration                                                         
    4 entries                                                                   
     n  l   j            E        occ.                                          
     1  0  0.50      -514.6923   2.0000                                         
     2  0  0.50       -23.9615   2.0000                                         
     2  1  0.50        -9.0305   4.0000                                         
     3  2  1.50        -9.5241   0.0000                                         
   Description                                                                  
     l       E           TYP  RCUT    TYP  RCUT                                 
     0    -23.9615318     23  1.200                                             
     0     -9.5240782     23  1.200                                             
     1     -9.0304911     23  1.520                                             
     1      8.1634956     23  1.520                                             
     2     -9.5240782      7  1.500                                             
  local pseudopotential read in
  partial core-charges read in
  partial kinetic energy density read in
  kinetic energy density of atom read in
  atomic valenz-charges read in
  non local Contribution for L=           0  read in
    real space projection operators read in
  non local Contribution for L=           0  read in
    real space projection operators read in
  non local Contribution for L=           1  read in
    real space projection operators read in
  non local Contribution for L=           1  read in
    real space projection operators read in
    PAW grid and wavefunctions read in
 
   number of l-projection  operators is LMAX  =           4
   number of lm-projection operators is LMMAX =           8
 
 Optimization of the real space projectors (new method)

 maximal supplied QI-value         = 14.36
 optimisation between [QCUT,QGAM] = [ 10.20, 20.39] = [ 29.12,116.47] Ry 
 Optimized for a Real-space Cutoff    1.51 Angstroem

   l    n(q)    QCUT    max X(q) W(low)/X(q) W(high)/X(q)  e(spline) 
   2      8    10.197    59.108    0.26E-03    0.14E-03    0.96E-07
   2      8    10.197    58.101    0.27E-03    0.14E-03    0.98E-07
   0      9    10.197   102.235    0.54E-04    0.60E-05    0.72E-07
   0      9    10.197    58.388    0.52E-04    0.60E-05    0.68E-07
   1      9    10.197    22.191    0.18E-03    0.25E-03    0.79E-07
   1      9    10.197    15.590    0.15E-03    0.21E-03    0.69E-07
 Optimization of the real space projectors (new method)

 maximal supplied QI-value         = 25.13
 optimisation between [QCUT,QGAM] = [ 10.05, 20.36] = [ 28.30,116.06] Ry 
 Optimized for a Real-space Cutoff    1.30 Angstroem

   l    n(q)    QCUT    max X(q) W(low)/X(q) W(high)/X(q)  e(spline) 
   0      8    10.053   115.676    0.49E-03    0.72E-03    0.18E-06
   0      8    10.053    87.132    0.49E-03    0.71E-03    0.18E-06
   1      7    10.053     4.429    0.32E-03    0.31E-03    0.18E-06
   1      7    10.053     2.733    0.23E-03    0.19E-03    0.20E-06
 Optimization of the real space projectors (new method)

 maximal supplied QI-value         = 24.76
 optimisation between [QCUT,QGAM] = [ 10.15, 20.30] = [ 28.85,115.39] Ry 
 Optimized for a Real-space Cutoff    1.38 Angstroem

   l    n(q)    QCUT    max X(q) W(low)/X(q) W(high)/X(q)  e(spline) 
   0      8    10.150    20.381    0.22E-03    0.32E-03    0.29E-06
   0      8    10.150    15.268    0.23E-03    0.35E-03    0.30E-06
   1      8    10.150     5.964    0.46E-03    0.53E-03    0.21E-06
   1      8    10.150     5.382    0.38E-03    0.45E-03    0.19E-06

 ----------------------------------------------------------------------------- 
|                                                                             |
|  ADVICE TO THIS USER RUNNING 'VASP/VAMP'   (HEAR YOUR MASTER'S VOICE ...):  |
|                                                                             |
|      You enforced a specific xc-type in the INCAR file,                     |
|      a different type was found on the POTCAR file                          |
|          I HOPE YOU KNOW, WHAT YOU ARE  DOING                               |
|                                                                             |
 ----------------------------------------------------------------------------- 

  PAW_PBE Pd 04Jan2005                  :
 energy of atom  1       EATOM= -809.7530
 kinetic energy error for atom=    0.0091 (will be added to EATOM!!)
  PAW_PBE C 08Apr2002                   :
 energy of atom  2       EATOM= -147.1560
 kinetic energy error for atom=    0.0288 (will be added to EATOM!!)
  PAW_PBE O 08Apr2002                   :
 energy of atom  3       EATOM= -432.3788
 kinetic energy error for atom=    0.1156 (will be added to EATOM!!)
 
 
 POSCAR: Pd55PES                                 
  positions in cartesian coordinates
  No initial velocities read in
 exchange correlation table for  LEXCH =        9
   RHO(1)=    0.500       N(1)  =     2000
   RHO(2)=  100.500       N(2)  =     4000
 


--------------------------------------------------------------------------------------------------------


 ion  position               nearest neighbor table
   1  0.446  0.328  0.417-  57 2.19  56 2.35   3 3.25   5 3.25   7 3.36  15 3.36  29 3.42  28 3.42

   2  0.672  0.554  0.417-  26 3.25  30 3.25  17 3.36   9 3.36  47 3.42  49 3.42
   3  0.554  0.328  0.417-   1 3.25   5 3.25   7 3.36  11 3.36  29 3.42  21 3.42
   4  0.328  0.554  0.417-  32 3.25  22 3.25  13 3.36   8 3.36  43 3.42  48 3.42
   5  0.500  0.383  0.340-   1 3.25   3 3.25  11 3.36  15 3.36  21 3.42  28 3.42
   6  0.500  0.383  0.660-  24 3.25  19 3.25  16 3.36  12 3.36  42 3.42  44 3.42
   7  0.500  0.276  0.500-  29 3.24   3 3.36   1 3.36  19 3.36  24 3.36
   8  0.276  0.500  0.500-  48 3.24  22 3.36  40 3.36   4 3.36  25 3.36
   9  0.724  0.500  0.500-  49 3.24  26 3.36  45 3.36   2 3.36  20 3.36
  10  0.500  0.724  0.500-  55 3.24  27 3.36  23 3.36  46 3.36  41 3.36
  11  0.612  0.388  0.342-  21 3.24   5 3.36   3 3.36  30 3.36  26 3.36
  12  0.612  0.388  0.658-  42 3.24  24 3.36  45 3.36   6 3.36  31 3.36
  13  0.388  0.612  0.342-  43 3.24  32 3.36  50 3.36   4 3.36  27 3.36
  14  0.388  0.612  0.658-  53 3.24  25 3.36  33 3.36  51 3.36  46 3.36
  15  0.388  0.388  0.342-  28 3.24   5 3.36   1 3.36  32 3.36  22 3.36
  16  0.388  0.388  0.658-  44 3.24  19 3.36  40 3.36   6 3.36  33 3.36
  17  0.612  0.612  0.342-  47 3.24  30 3.36  50 3.36   2 3.36  23 3.36
  18  0.612  0.612  0.658-  54 3.24  31 3.36  20 3.36  51 3.36  41 3.36
  19  0.446  0.328  0.583-   6 3.25  24 3.25  16 3.36   7 3.36  44 3.42  29 3.42
  20  0.672  0.554  0.583-  31 3.25  45 3.25  18 3.36   9 3.36  54 3.42  49 3.42
  21  0.558  0.442  0.418-  11 3.24   5 3.42   3 3.42  30 3.42  26 3.42
  22  0.328  0.446  0.417-   4 3.25  32 3.25   8 3.36  15 3.36  48 3.42  28 3.42
  23  0.554  0.672  0.417-  27 3.25  50 3.25  10 3.36  17 3.36  55 3.42  47 3.42
  24  0.554  0.328  0.583-   6 3.25  19 3.25  12 3.36   7 3.36  42 3.42  29 3.42
  25  0.328  0.554  0.583-  33 3.25  40 3.25  14 3.36   8 3.36  53 3.42  48 3.42
  26  0.672  0.446  0.417-   2 3.25  30 3.25   9 3.36  11 3.36  49 3.42  21 3.42
  27  0.446  0.672  0.417-  23 3.25  50 3.25  10 3.36  13 3.36  55 3.42  43 3.42
  28  0.442  0.442  0.418-  15 3.24   5 3.42   1 3.42  32 3.42  22 3.42
  29  0.500  0.384  0.500-  56 2.10   7 3.24   1 3.42   3 3.42  24 3.42  19 3.42
  30  0.617  0.500  0.340-   2 3.25  26 3.25  17 3.36  11 3.36  47 3.42  21 3.42
  31  0.617  0.500  0.660-  20 3.25  45 3.25  18 3.36  12 3.36  54 3.42  42 3.42
  32  0.383  0.500  0.340-   4 3.25  22 3.25  13 3.36  15 3.36  43 3.42  28 3.42
  33  0.383  0.500  0.660-  25 3.25  40 3.25  14 3.36  16 3.36  53 3.42  44 3.42
  34  0.383  0.383  0.500-  56 1.77  57 2.11
  35  0.617  0.617  0.500-
  36  0.617  0.383  0.500-
  37  0.383  0.617  0.500-
  38  0.500  0.500  0.335-
  39  0.500  0.500  0.665-
  40  0.328  0.446  0.583-  33 3.25  25 3.25  16 3.36   8 3.36  44 3.42  48 3.42
  41  0.554  0.672  0.583-  46 3.25  51 3.25  10 3.36  18 3.36  54 3.42  55 3.42
  42  0.558  0.442  0.582-  12 3.24   6 3.42  24 3.42  31 3.42  45 3.42
  43  0.442  0.558  0.418-  13 3.24   4 3.42  32 3.42  27 3.42  50 3.42
  44  0.442  0.442  0.582-  16 3.24   6 3.42  19 3.42  33 3.42  40 3.42
  45  0.672  0.446  0.583-  20 3.25  31 3.25   9 3.36  12 3.36  49 3.42  42 3.42
  46  0.446  0.672  0.583-  41 3.25  51 3.25  10 3.36  14 3.36  53 3.42  55 3.42
  47  0.558  0.558  0.418-  17 3.24   2 3.42  30 3.42  23 3.42  50 3.42
  48  0.384  0.500  0.500-   8 3.24   4 3.42  22 3.42  25 3.42  40 3.42
  49  0.616  0.500  0.500-   9 3.24   2 3.42  26 3.42  20 3.42  45 3.42
  50  0.500  0.617  0.340-  27 3.25  23 3.25  13 3.36  17 3.36  43 3.42  47 3.42
  51  0.500  0.617  0.660-  41 3.25  46 3.25  14 3.36  18 3.36  53 3.42  54 3.42
  52  0.500  0.500  0.500-
  53  0.442  0.558  0.582-  14 3.24  25 3.42  33 3.42  51 3.42  46 3.42
  54  0.558  0.558  0.582-  18 3.24  31 3.42  20 3.42  51 3.42  41 3.42
  55  0.500  0.616  0.500-  10 3.24  23 3.42  27 3.42  41 3.42  46 3.42
  56  0.436  0.359  0.488-  57 1.13  34 1.77  29 2.10   1 2.35
  57  0.420  0.325  0.485-  56 1.13  34 2.11   1 2.19
 
  LATTYP: Found a simple cubic cell.
 ALAT       =    30.0000000000
  
  Lattice vectors:
  
 A1 = (  30.0000000000,   0.0000000000,   0.0000000000)
 A2 = (   0.0000000000,  30.0000000000,   0.0000000000)
 A3 = (   0.0000000000,   0.0000000000,  30.0000000000)


Analysis of symmetry for initial positions (statically):
=====================================================================
 Subroutine PRICEL returns:
 Original cell was already a primitive cell.
 

 Routine SETGRP: Setting up the symmetry group for a 
 simple cubic supercell.


 Subroutine GETGRP returns: Found  1 space group operations
 (whereof  1 operations were pure point group operations)
 out of a pool of 48 trial point group operations.


The static configuration has the point symmetry C_1 .


Analysis of symmetry for dynamics (positions and initial velocities):
=====================================================================
 Subroutine PRICEL returns:
 Original cell was already a primitive cell.
 

 Routine SETGRP: Setting up the symmetry group for a 
 simple cubic supercell.


 Subroutine GETGRP returns: Found  1 space group operations
 (whereof  1 operations were pure point group operations)
 out of a pool of 48 trial point group operations.


The dynamic configuration has the point symmetry C_1 .


Analysis of constrained symmetry for selective dynamics:
=====================================================================
 Subroutine PRICEL returns:
 Original cell was already a primitive cell.
 

 Routine SETGRP: Setting up the symmetry group for a 
 simple cubic supercell.


 Subroutine GETGRP returns: Found  1 space group operations
 (whereof  1 operations were pure point group operations)
 out of a pool of 48 trial point group operations.


The constrained configuration has the point symmetry C_1 .


 Subroutine INISYM returns: Found  1 space group operations
 (whereof  1 operations are pure point group operations),
 and found     1 'primitive' translations

 
 
 KPOINTS: K-points                                

Automatic generation of k-mesh.
Space group operators:
 irot       det(A)        alpha          n_x          n_y          n_z        tau_x        tau_y        tau_z
    1     1.000000     0.000000     1.000000     0.000000     0.000000     0.000000     0.000000     0.000000
 
 Subroutine IBZKPT returns following result:
 ===========================================
 
 Found      1 irreducible k-points:
 
 Following reciprocal coordinates:
            Coordinates               Weight
  0.000000  0.000000  0.000000      1.000000
 
 Following cartesian coordinates:
            Coordinates               Weight
  0.000000  0.000000  0.000000      1.000000
 


--------------------------------------------------------------------------------------------------------




 Dimension of arrays:
   k-points           NKPTS =      1   k-points in BZ     NKDIM =      1   number of bands    NBANDS=    336
   number of dos      NEDOS =    301   number of ions     NIONS =     57
   non local maximal  LDIM  =      6   non local SUM 2l+1 LMDIM =     18
   total plane-waves  NPLWV = ******
   max r-space proj   IRMAX =   1847   max aug-charges    IRDMAX=   6262
   dimension x,y,z NGX =   150 NGY =  150 NGZ =  150
   dimension x,y,z NGXF=   300 NGYF=  300 NGZF=  300
   support grid    NGXF=   300 NGYF=  300 NGZF=  300
   ions per type =              55   1   1
   NGX,Y,Z   is equivalent  to a cutoff of   8.31,  8.31,  8.31 a.u.
   NGXF,Y,Z  is equivalent  to a cutoff of  16.62, 16.62, 16.62 a.u.

 SYSTEM =  6_Pd100_top_free_z(O)                   
 POSCAR =  Pd55PES                                 

 Startparameter for this run:
   NWRITE =      2    write-flag & timer
   PREC   = normal    normal or accurate (medium, high low for compatibility)
   ISTART =      0    job   : 0-new  1-cont  2-samecut
   ICHARG =      2    charge: 1-file 2-atom 10-const
   ISPIN  =      1    spin polarized calculation?
   LNONCOLLINEAR =      F non collinear calculations
   LSORBIT =      F    spin-orbit coupling
   INIWAV =      1    electr: 0-lowe 1-rand  2-diag
   LASPH  =      F    aspherical Exc in radial PAW
   METAGGA=      F    non-selfconsistent MetaGGA calc.

 Electronic Relaxation 1
   ENCUT  =  400.0 eV  29.40 Ry    5.42 a.u.  48.92 48.92 48.92*2*pi/ulx,y,z
   ENINI  =  400.0     initial cutoff
   ENAUG  =  644.9 eV  augmentation charge cutoff
   NELM   =    100;   NELMIN=  6; NELMDL= -5     # of ELM steps 
   EDIFF  = 0.1E-03   stopping-criterion for ELM
   LREAL  =      T    real-space projection
   NLSPLINE    = F    spline interpolate recip. space projectors
   LCOMPAT=      F    compatible to vasp.4.4
   GGA_COMPAT  = T    GGA compatible to vasp.4.4-vasp.4.6
   LMAXPAW     = -100 max onsite density
   LMAXMIX     =    2 max onsite mixed and CHGCAR
   VOSKOWN=      0    Vosko Wilk Nusair interpolation
   ROPT   =   -0.00050  -0.00050  -0.00050
 Ionic relaxation
   EDIFFG = -.5E-01   stopping-criterion for IOM
   NSW    =      0    number of steps for IOM
   NBLOCK =      1;   KBLOCK =      1    inner block; outer block 
   IBRION =     -1    ionic relax: 0-MD 1-quasi-New 2-CG
   NFREE  =      1    steps in history (QN), initial steepest desc. (CG)
   ISIF   =      2    stress and relaxation
   IWAVPR =     10    prediction:  0-non 1-charg 2-wave 3-comb
   ISYM   =      2    0-nonsym 1-usesym 2-fastsym
   LCORR  =      T    Harris-Foulkes like correction to forces

   POTIM  = 0.5000    time-step for ionic-motion
   TEIN   =    0.0    initial temperature
   TEBEG  =    0.0;   TEEND  =   0.0 temperature during run
   SMASS  =  -3.00    Nose mass-parameter (am)
   estimated Nose-frequenzy (Omega)   =  0.10E-29 period in steps =****** mass=  -0.206E-25a.u.
   SCALEE = 1.0000    scale energy and forces
   NPACO  =    256;   APACO  = 16.0  distance and # of slots for P.C.
   PSTRESS=    0.0 pullay stress

  Mass of Ions in am
   POMASS = 106.42 12.01 16.00
  Ionic Valenz
   ZVAL   =  10.00  4.00  6.00
  Atomic Wigner-Seitz radii
   RWIGS  =  -1.00 -1.00 -1.00
  virtual crystal weights 
   VCA    =   1.00  1.00  1.00
   NELECT =     560.0000    total number of electrons
   NUPDOWN=      -1.0000    fix difference up-down

 DOS related values:
   EMIN   =  10.00;   EMAX   =-10.00  energy-range for DOS
   EFERMI =   0.00
   ISMEAR =     2;   SIGMA  =   0.20  broadening in eV -4-tet -1-fermi 0-gaus

 Electronic relaxation 2 (details)
   IALGO  =     68    algorithm
   LDIAG  =      T    sub-space diagonalisation (order eigenvalues)
   LSUBROT=      F    optimize rotation matrix (better conditioning)
   TURBO    =      0    0=normal 1=particle mesh
   IRESTART =      0    0=no restart 2=restart with 2 vectors
   NREBOOT  =      0    no. of reboots
   NMIN     =      0    reboot dimension
   EREF     =   0.00    reference energy to select bands
   IMIX   =      4    mixing-type and parameters
     AMIX     =   0.40;   BMIX     =  1.00
     AMIX_MAG =   1.60;   BMIX_MAG =  1.00
     AMIN     =   0.10
     WC   =   100.;   INIMIX=   1;  MIXPRE=   1;  MAXMIX= -45

 Intra band minimization:
   WEIMIN = 0.0000     energy-eigenvalue tresh-hold
   EBREAK =  0.74E-07  absolut break condition
   DEPER  =   0.30     relativ break condition  

   TIME   =   0.40     timestep for ELM

  volume/ion in A,a.u.               =     473.68      3196.58
  Fermi-wavevector in a.u.,A,eV,Ry     =   0.449797  0.849992  2.752691  0.202317
  Thomas-Fermi vector in A             =   1.430086
 
 Write flags
   LWAVE        =      F    write WAVECAR
   LDOWNSAMPLE  =      F    k-point downsampling of WAVECAR
   LCHARG       =      F    write CHGCAR
   LVTOT        =      F    write LOCPOT, total local potential
   LVHAR        =      F    write LOCPOT, Hartree potential only
   LELF         =      F    write electronic localiz. function (ELF)
   LORBIT       =      0    0 simple, 1 ext, 2 COOP (PROOUT), +10 PAW based schemes


 Dipole corrections
   LMONO  =      F    monopole corrections only (constant potential shift)
   LDIPOL =      F    correct potential (dipole corrections)
   IDIPOL =      0    1-x, 2-y, 3-z, 4-all directions 
   EPSILON=  1.0000000 bulk dielectric constant

 Exchange correlation treatment:
   GGA     =    RP    GGA type
   LEXCH   =     9    internal setting for exchange type
   VOSKOWN=      0    Vosko Wilk Nusair interpolation
   LHFCALC =     F    Hartree Fock is set to
   LHFONE  =     F    Hartree Fock one center treatment
   AEXX    =    0.0000 exact exchange contribution

 Linear response parameters
   LEPSILON=     F    determine dielectric tensor
   LRPA    =     F    only Hartree local field effects (RPA)
   LNABLA  =     F    use nabla operator in PAW spheres
   LVEL    =     F    velocity operator in full k-point grid
   LINTERFAST=   F  fast interpolation
   KINTER  =     0    interpolate to denser k-point grid
   CSHIFT  =0.1000    complex shift for real part using Kramers Kronig
   OMEGAMAX=  -1.0    maximum frequency
   DEG_THRESHOLD= 0.2000000E-02 threshold for treating states as degnerate
   RTIME   =   -0.100 relaxation time in fs
  (WPLASMAI=    0.000 imaginary part of plasma frequency in eV, 0.658/RTIME)
   DFIELD  = 0.0000000 0.0000000 0.0000000 field for delta impulse in time
 
 Orbital magnetization related:
   ORBITALMAG=     F  switch on orbital magnetization
   LCHIMAG   =     F  perturbation theory with respect to B field
   DQ        =  0.001000  dq finite difference perturbation B field
   LLRAUG    =     F  two centre corrections for induced B field



--------------------------------------------------------------------------------------------------------


 Static calculation
 charge density and potential will be updated during run
 non-spin polarized calculation
 RMM-DIIS sequential band-by-band and
  variant of blocked Davidson during initial phase
 perform sub-space diagonalisation
    before iterative eigenvector-optimisation
 modified Broyden-mixing scheme, WC =      100.0
 initial mixing is a Kerker type mixing with AMIX =  0.4000 and BMIX =      1.0000
 Hartree-type preconditioning will be used
 using additional bands           56
 real space projection scheme for non local part
 use partial core corrections
 calculate Harris-corrections to forces 
   (improved forces if not selfconsistent)
 use gradient corrections 
 use of overlap-Matrix (Vanderbilt PP)
 Methfessel and Paxton  Order N= 2 SIGMA  =   0.20


--------------------------------------------------------------------------------------------------------


  energy-cutoff  :      400.00
  volume of cell :    27000.00
      direct lattice vectors                 reciprocal lattice vectors
    30.000000000  0.000000000  0.000000000     0.033333333  0.000000000  0.000000000
     0.000000000 30.000000000  0.000000000     0.000000000  0.033333333  0.000000000
     0.000000000  0.000000000 30.000000000     0.000000000  0.000000000  0.033333333

  length of vectors
    30.000000000 30.000000000 30.000000000     0.033333333  0.033333333  0.033333333


 
 k-points in units of 2pi/SCALE and weight: K-points                                
   0.00000000  0.00000000  0.00000000       1.000
 
 k-points in reciprocal lattice and weights: K-points                                
   0.00000000  0.00000000  0.00000000       1.000
 
 position of ions in fractional coordinates (direct lattice) 
   0.44576020  0.32826710  0.41691983
   0.67173288  0.55423978  0.41691983
   0.55423980  0.32826710  0.41691983
   0.32826712  0.55423978  0.41691983
   0.50000000  0.38250690  0.34021317
   0.50000000  0.38250690  0.65978680
   0.50000000  0.27609440  0.50000000
   0.27609443  0.49999998  0.50000000
   0.72390557  0.49999998  0.50000000
   0.50000000  0.72390555  0.50000000
   0.61195280  0.38804720  0.34167483
   0.61195280  0.38804720  0.65832513
   0.38804722  0.61195278  0.34167483
   0.38804722  0.61195278  0.65832513
   0.38804720  0.38804720  0.34167483
   0.38804720  0.38804720  0.65832513
   0.61195278  0.61195278  0.34167483
   0.61195278  0.61195278  0.65832513
   0.44576020  0.32826710  0.58308023
   0.67173288  0.55423978  0.58308023
   0.55791699  0.44208301  0.41809300
   0.32826705  0.44576024  0.41691983
   0.55423973  0.67173293  0.41691983
   0.55423980  0.32826710  0.58308023
   0.32826712  0.55423978  0.58308023
   0.67173295  0.44576024  0.41691983
   0.44576027  0.67173293  0.41691983
   0.44208301  0.44208301  0.41809300
   0.50000000  0.38416601  0.50000000
   0.61749315  0.50000005  0.34021317
   0.61749315  0.50000005  0.65978680
   0.38250685  0.50000005  0.34021317
   0.38250685  0.50000005  0.65978680
   0.38317830  0.38317830  0.50000000
   0.61682172  0.61682172  0.50000000
   0.61682170  0.38317830  0.50000000
   0.38317828  0.61682172  0.50000000
   0.50000000  0.50000000  0.33478917
   0.50000000  0.50000000  0.66521087
   0.32826705  0.44576024  0.58308023
   0.55423973  0.67173293  0.58308023
   0.55791699  0.44208301  0.58190703
   0.44208298  0.55791702  0.41809300
   0.44208301  0.44208301  0.58190703
   0.67173295  0.44576024  0.58308023
   0.44576027  0.67173293  0.58308023
   0.55791702  0.55791702  0.41809300
   0.38416599  0.50000002  0.50000000
   0.61583401  0.50000002  0.50000000
   0.50000000  0.61749319  0.34021317
   0.50000000  0.61749319  0.65978680
   0.50000000  0.50000000  0.50000000
   0.44208298  0.55791702  0.58190703
   0.55791702  0.55791702  0.58190703
   0.50000000  0.61583404  0.50000000
   0.43569523  0.35937517  0.48813347
   0.42010467  0.32528093  0.48525643
 
 position of ions in cartesian coordinates  (Angst):
  13.37280588  9.84801292 12.50759500
  20.15198637 16.62719342 12.50759500
  16.62719412  9.84801292 12.50759500
   9.84801363 16.62719342 12.50759500
  15.00000000 11.47520705 10.20639500
  15.00000000 11.47520705 19.79360400
  15.00000000  8.28283206 15.00000000
   8.28283277 14.99999929 15.00000000
  21.71716723 14.99999929 15.00000000
  15.00000000 21.71716652 14.99999999
  18.35858397 11.64141603 10.25024500
  18.35858397 11.64141603 19.74975399
  11.64141674 18.35858326 10.25024500
  11.64141674 18.35858326 19.74975400
  11.64141603 11.64141603 10.25024500
  11.64141603 11.64141603 19.74975400
  18.35858326 18.35858326 10.25024500
  18.35858326 18.35858326 19.74975400
  13.37280588  9.84801291 17.49240700
  20.15198638 16.62719341 17.49240700
  16.73750985 13.26249015 12.54279000
   9.84801151 13.37280729 12.50759500
  16.62719200 20.15198779 12.50759500
  16.62719412  9.84801292 17.49240700
   9.84801363 16.62719342 17.49240700
  20.15198849 13.37280729 12.50759500
  13.37280800 20.15198779 12.50759500
  13.26249015 13.26249015 12.54279000
  15.00000000 11.52498029 15.00000000
  18.52479437 15.00000140 10.20639500
  18.52479437 15.00000141 19.79360400
  11.47520562 15.00000141 10.20639501
  11.47520563 15.00000141 19.79360400
  11.49534898 11.49534898 15.00000000
  18.50465172 18.50465172 15.00000000
  18.50465102 11.49534898 15.00000000
  11.49534828 18.50465172 15.00000000
  15.00000000 15.00000000 10.04367500
  15.00000000 15.00000000 19.95632599
   9.84801151 13.37280729 17.49240700
  16.62719200 20.15198779 17.49240700
  16.73750985 13.26249015 17.45721100
  13.26248944 16.73751056 12.54279001
  13.26249015 13.26249015 17.45721100
  20.15198849 13.37280729 17.49240699
  13.37280800 20.15198779 17.49240700
  16.73751056 16.73751056 12.54279000
  11.52497959 15.00000071 15.00000000
  18.47502041 15.00000071 15.00000000
  14.99999999 18.52479579 10.20639500
  15.00000000 18.52479578 19.79360400
  15.00000000 15.00000000 15.00000000
  13.26248944 16.73751057 17.45721101
  16.73751056 16.73751057 17.45721100
  15.00000000 18.47502112 15.00000000
  13.07085700 10.78125500 14.64400400
  12.60314000  9.75842800 14.55769300
 


--------------------------------------------------------------------------------------------------------


 k-point  1 :   0.0000 0.0000 0.0000  plane waves:  490521

 maximum and minimum number of plane-waves per node :    490521   490521

 maximum number of plane-waves:    490521
 maximum index in each direction: 
   IXMAX=   48   IYMAX=   48   IZMAX=   48
   IXMIN=  -48   IYMIN=  -48   IZMIN=  -48


 serial   3D FFT for wavefunctions
 parallel 3D FFT for charge:
    minimum data exchange during FFTs selected (reduces bandwidth)


 total amount of memory used by VASP MPI-rank0  5486941. kBytes
=======================================================================

   base      :      30000. kBytes
   nonlr-proj:      17126. kBytes
   fftplans  :     924480. kBytes
   grid      :    1872000. kBytes
   one-center:        886. kBytes
   wavefun   :    2642449. kBytes
 
     INWAV:  cpu time    0.0001: real time    0.0004
 Broyden mixing: mesh for mixing (old mesh)
   NGX = 97   NGY = 97   NGZ = 97
  (NGX  =300   NGY  =300   NGZ  =300)
  gives a total of 912673 points

 initial charge density was supplied:
 charge density of overlapping atoms calculated
 number of electron     560.0000000 magnetization 
 keeping initial charge density in first step


--------------------------------------------------------------------------------------------------------


 Maximum index for non-local projection operator         1763
 Maximum index for augmentation-charges         5898 (set IRDMAX)


--------------------------------------------------------------------------------------------------------


 First call to EWALD:  gamma=   0.059
 Maximum number of real-space cells 3x 3x 3
 Maximum number of reciprocal cells 3x 3x 3

    FEWALD:  cpu time    0.0147: real time    0.0147


--------------------------------------- Iteration      1(   1)  ---------------------------------------


    POTLOK:  cpu time   14.1455: real time   14.1503
    SETDIJ:  cpu time    0.1202: real time    0.1202
     EDDAV:  cpu time  368.4343: real time  368.5053
       DOS:  cpu time    0.0013: real time    0.0013
    --------------------------------------------
      LOOP:  cpu time  382.7014: real time  382.7771

 eigenvalue-minimisations  :   688
 total energy-change (2. order) : 0.4408427E+04  (-0.1005936E+05)
 number of electron     560.0000000 magnetization 
 augmentation part      560.0000000 magnetization 

 Free energy of the ion-electron system (eV)
  ---------------------------------------------------
  alpha Z        PSCENC =        75.25431677
  Ewald energy   TEWEN  =    141331.15602438
  -Hartree energ DENC   =   -184669.79608263
  -exchange      EXHF   =         0.00000000
  -V(xc)+E(xc)   XCENC  =     -1700.35215172
  PAW double counting   =     44873.02882129   -41398.84523641
  entropy T*S    EENTRO =         0.00259664
  eigenvalues    EBANDS =       811.47308856
  atomic energy  EATOM  =     45086.50549395
  Solvation  Ediel_sol  =         0.00000000
  ---------------------------------------------------
  free energy    TOTEN  =      4408.42687083 eV

  energy without entropy =     4408.42427419  energy(sigma->0) =     4408.42622167


--------------------------------------------------------------------------------------------------------




--------------------------------------- Iteration      1(   2)  ---------------------------------------


     EDDAV:  cpu time  598.9364: real time  598.9522
       DOS:  cpu time    0.0012: real time    0.0012
    --------------------------------------------
      LOOP:  cpu time  598.9376: real time  598.9534

 eigenvalue-minimisations  :  1224
 total energy-change (2. order) :-0.2394619E+04  (-0.2156281E+04)
 number of electron     560.0000000 magnetization 
 augmentation part      560.0000000 magnetization 

 Free energy of the ion-electron system (eV)
  ---------------------------------------------------
  alpha Z        PSCENC =        75.25431677
  Ewald energy   TEWEN  =    141331.15602438
  -Hartree energ DENC   =   -184669.79608263
  -exchange      EXHF   =         0.00000000
  -V(xc)+E(xc)   XCENC  =     -1700.35215172
  PAW double counting   =     44873.02882129   -41398.84523641
  entropy T*S    EENTRO =        -0.01039620
  eigenvalues    EBANDS =     -1583.13281365
  atomic energy  EATOM  =     45086.50549395
  Solvation  Ediel_sol  =         0.00000000
  ---------------------------------------------------
  free energy    TOTEN  =      2013.80797578 eV

  energy without entropy =     2013.81837198  energy(sigma->0) =     2013.81057483


--------------------------------------------------------------------------------------------------------




--------------------------------------- Iteration      1(   3)  ---------------------------------------


     EDDAV:  cpu time  505.2987: real time  505.3147
       DOS:  cpu time    0.0011: real time    0.0011
    --------------------------------------------
      LOOP:  cpu time  505.2998: real time  505.3158

 eigenvalue-minimisations  :  1000
 total energy-change (2. order) :-0.1777813E+04  (-0.1671671E+04)
 number of electron     560.0000000 magnetization 
 augmentation part      560.0000000 magnetization 

 Free energy of the ion-electron system (eV)
  ---------------------------------------------------
  alpha Z        PSCENC =        75.25431677
  Ewald energy   TEWEN  =    141331.15602438
  -Hartree energ DENC   =   -184669.79608263
  -exchange      EXHF   =         0.00000000
  -V(xc)+E(xc)   XCENC  =     -1700.35215172
  PAW double counting   =     44873.02882129   -41398.84523641
  entropy T*S    EENTRO =        -0.02275302
  eigenvalues    EBANDS =     -3360.93302721
  atomic energy  EATOM  =     45086.50549395
  Solvation  Ediel_sol  =         0.00000000
  ---------------------------------------------------
  free energy    TOTEN  =       235.99540540 eV

  energy without entropy =      236.01815842  energy(sigma->0) =      236.00109366


--------------------------------------------------------------------------------------------------------




--------------------------------------- Iteration      1(   4)  ---------------------------------------


     EDDAV:  cpu time  437.5292: real time  437.5719
       DOS:  cpu time    0.0011: real time    0.0011
    --------------------------------------------
      LOOP:  cpu time  437.5303: real time  437.5730

 eigenvalue-minimisations  :   840
 total energy-change (2. order) :-0.3717172E+03  (-0.3168686E+03)
 number of electron     560.0000000 magnetization 
 augmentation part      560.0000000 magnetization 

 Free energy of the ion-electron system (eV)
  ---------------------------------------------------
  alpha Z        PSCENC =        75.25431677
  Ewald energy   TEWEN  =    141331.15602438
  -Hartree energ DENC   =   -184669.79608263
  -exchange      EXHF   =         0.00000000
  -V(xc)+E(xc)   XCENC  =     -1700.35215172
  PAW double counting   =     44873.02882129   -41398.84523641
  entropy T*S    EENTRO =         0.02198616
  eigenvalues    EBANDS =     -3732.69496177
  atomic energy  EATOM  =     45086.50549395
  Solvation  Ediel_sol  =         0.00000000
  ---------------------------------------------------
  free energy    TOTEN  =      -135.72178999 eV

  energy without entropy =     -135.74377614  energy(sigma->0) =     -135.72728653


--------------------------------------------------------------------------------------------------------




--------------------------------------- Iteration      1(   5)  ---------------------------------------


     EDDAV:  cpu time  521.8983: real time  521.9454
       DOS:  cpu time    0.0014: real time    0.0014
    CHARGE:  cpu time   26.0573: real time   26.0578
    MIXING:  cpu time    0.4531: real time    0.4531
    --------------------------------------------
      LOOP:  cpu time  548.4101: real time  548.4577

 eigenvalue-minimisations  :  1032
 total energy-change (2. order) :-0.4400124E+02  (-0.3654795E+02)
 number of electron     559.9999816 magnetization 
 augmentation part      245.0473792 magnetization 

 Broyden mixing:
  rms(total) = 0.19547E+01    rms(broyden)= 0.19539E+01
  rms(prec ) = 0.20510E+01
  weight for this iteration     100.00

 Free energy of the ion-electron system (eV)
  ---------------------------------------------------
  alpha Z        PSCENC =        75.25431677
  Ewald energy   TEWEN  =    141331.15602438
  -Hartree energ DENC   =   -184669.79608263
  -exchange      EXHF   =         0.00000000
  -V(xc)+E(xc)   XCENC  =     -1700.35215172
  PAW double counting   =     44873.02882129   -41398.84523641
  entropy T*S    EENTRO =         0.46157481
  eigenvalues    EBANDS =     -3777.13579343
  atomic energy  EATOM  =     45086.50549395
  Solvation  Ediel_sol  =         0.00000000
  ---------------------------------------------------
  free energy    TOTEN  =      -179.72303299 eV

  energy without entropy =     -180.18460780  energy(sigma->0) =     -179.83842669


--------------------------------------------------------------------------------------------------------




--------------------------------------- Iteration      1(   6)  ---------------------------------------


    POTLOK:  cpu time   13.4784: real time   13.4823
    SETDIJ:  cpu time    0.1228: real time    0.1228
    EDDIAG:  cpu time   67.8814: real time   67.8870
  RMM-DIIS:  cpu time  197.4280: real time  197.4408
    ORTHCH:  cpu time   14.0273: real time   14.0275
       DOS:  cpu time    0.0014: real time    0.0014
    CHARGE:  cpu time   25.9207: real time   25.9211
    MIXING:  cpu time    0.4671: real time    0.4671
    --------------------------------------------
      LOOP:  cpu time  319.3271: real time  319.3500

 eigenvalue-minimisations  :   734
 total energy-change (2. order) :-0.5179711E-01  (-0.7013353E+01)
 number of electron     559.9999860 magnetization 
 augmentation part      240.5124369 magnetization 

 Broyden mixing:
  rms(total) = 0.25035E+01    rms(broyden)= 0.25033E+01
  rms(prec ) = 0.28702E+01
  weight for this iteration     100.00

 eigenvalues of (default mixing * dielectric matrix)
  average eigenvalue GAMMA=   0.3917
  0.3917

 Free energy of the ion-electron system (eV)
  ---------------------------------------------------
  alpha Z        PSCENC =        75.25431677
  Ewald energy   TEWEN  =    141331.15602438
  -Hartree energ DENC   =   -185077.06541074
  -exchange      EXHF   =         0.00000000
  -V(xc)+E(xc)   XCENC  =     -1693.92321597
  PAW double counting   =     45735.16073523   -42235.03751655
  entropy T*S    EENTRO =        -0.19766230
  eigenvalues    EBANDS =     -3401.62759487
  atomic energy  EATOM  =     45086.50549395
  Solvation  Ediel_sol  =         0.00000000
  ---------------------------------------------------
  free energy    TOTEN  =      -179.77483010 eV

  energy without entropy =     -179.57716780  energy(sigma->0) =     -179.72541453


--------------------------------------------------------------------------------------------------------




--------------------------------------- Iteration      1(   7)  ---------------------------------------


    POTLOK:  cpu time   13.4290: real time   13.4340
    SETDIJ:  cpu time    0.1250: real time    0.1250
    EDDIAG:  cpu time   67.6566: real time   67.6615
  RMM-DIIS:  cpu time  229.5250: real time  229.5362
    ORTHCH:  cpu time   13.6533: real time   13.6535
       DOS:  cpu time    0.0014: real time    0.0014
    CHARGE:  cpu time   25.3052: real time   25.3056
    MIXING:  cpu time    0.4834: real time    0.4834
    --------------------------------------------
      LOOP:  cpu time  350.1790: real time  350.2007

 eigenvalue-minimisations  :   851
 total energy-change (2. order) :-0.4290749E+01  (-0.2364149E+01)
 number of electron     559.9999826 magnetization 
 augmentation part      239.9043113 magnetization 

 Broyden mixing:
  rms(total) = 0.26016E+01    rms(broyden)= 0.26013E+01
  rms(prec ) = 0.31629E+01
  weight for this iteration     100.00

 eigenvalues of (default mixing * dielectric matrix)
  average eigenvalue GAMMA=   0.3712
  0.5651  0.1773

 Free energy of the ion-electron system (eV)
  ---------------------------------------------------
  alpha Z        PSCENC =        75.25431677
  Ewald energy   TEWEN  =    141331.15602438
  -Hartree energ DENC   =   -185179.00627350
  -exchange      EXHF   =         0.00000000
  -V(xc)+E(xc)   XCENC  =     -1694.26984556
  PAW double counting   =     45840.77435329   -42337.97094539
  entropy T*S    EENTRO =        -0.17819916
  eigenvalues    EBANDS =     -3306.33050437
  atomic energy  EATOM  =     45086.50549395
  Solvation  Ediel_sol  =         0.00000000
  ---------------------------------------------------
  free energy    TOTEN  =      -184.06557958 eV

  energy without entropy =     -183.88738043  energy(sigma->0) =     -184.02102980


--------------------------------------------------------------------------------------------------------




--------------------------------------- Iteration      1(   8)  ---------------------------------------


    POTLOK:  cpu time   13.1765: real time   13.1776
    SETDIJ:  cpu time    0.1195: real time    0.1195
    EDDIAG:  cpu time   67.5107: real time   67.5172
  RMM-DIIS:  cpu time  209.3639: real time  209.3820
    ORTHCH:  cpu time   13.3531: real time   13.3545
       DOS:  cpu time    0.0014: real time    0.0014
    CHARGE:  cpu time   25.2677: real time   25.2704
    MIXING:  cpu time    0.5099: real time    0.5099
    --------------------------------------------
      LOOP:  cpu time  329.3028: real time  329.3323

 eigenvalue-minimisations  :   770
 total energy-change (2. order) :-0.2257254E+01  (-0.1053851E+01)
 number of electron     559.9999826 magnetization 
 augmentation part      239.6914653 magnetization 

 Broyden mixing:
  rms(total) = 0.32165E+01    rms(broyden)= 0.32162E+01
  rms(prec ) = 0.38085E+01
  weight for this iteration     100.00

 eigenvalues of (default mixing * dielectric matrix)
  average eigenvalue GAMMA=   0.3411
  0.7118  0.1817  0.1297

 Free energy of the ion-electron system (eV)
  ---------------------------------------------------
  alpha Z        PSCENC =        75.25431677
  Ewald energy   TEWEN  =    141331.15602438
  -Hartree energ DENC   =   -185220.20554201
  -exchange      EXHF   =         0.00000000
  -V(xc)+E(xc)   XCENC  =     -1694.47211622
  PAW double counting   =     45928.16535597   -42423.34038797
  entropy T*S    EENTRO =        -0.06247983
  eigenvalues    EBANDS =     -3269.32349824
  atomic energy  EATOM  =     45086.50549395
  Solvation  Ediel_sol  =         0.00000000
  ---------------------------------------------------
  free energy    TOTEN  =      -186.32283320 eV

  energy without entropy =     -186.26035337  energy(sigma->0) =     -186.30721324


--------------------------------------------------------------------------------------------------------




--------------------------------------- Iteration      1(   9)  ---------------------------------------


    POTLOK:  cpu time   13.1388: real time   13.1410
    SETDIJ:  cpu time    0.1204: real time    0.1204
    EDDIAG:  cpu time   67.7434: real time   67.7484
  RMM-DIIS:  cpu time  202.0517: real time  202.0741
    ORTHCH:  cpu time   13.2762: real time   13.2763
       DOS:  cpu time    0.0014: real time    0.0014
    CHARGE:  cpu time   25.2395: real time   25.2397
    MIXING:  cpu time    0.5442: real time    0.5442
    --------------------------------------------
      LOOP:  cpu time  322.1155: real time  322.1454

 eigenvalue-minimisations  :   741
 total energy-change (2. order) : 0.2597771E+01  (-0.8097965E+00)
 number of electron     559.9999802 magnetization 
 augmentation part      240.8554891 magnetization 

 Broyden mixing:
  rms(total) = 0.30486E+01    rms(broyden)= 0.30482E+01
  rms(prec ) = 0.35531E+01
  weight for this iteration     100.00

 eigenvalues of (default mixing * dielectric matrix)
  average eigenvalue GAMMA=   0.3251
  0.8485  0.1687  0.1687  0.1144

 Free energy of the ion-electron system (eV)
  ---------------------------------------------------
  alpha Z        PSCENC =        75.25431677
  Ewald energy   TEWEN  =    141331.15602438
  -Hartree energ DENC   =   -185225.24692876
  -exchange      EXHF   =         0.00000000
  -V(xc)+E(xc)   XCENC  =     -1694.56510782
  PAW double counting   =     45996.00460294   -42489.71465877
  entropy T*S    EENTRO =        -0.05856921
  eigenvalues    EBANDS =     -3263.06023563
  atomic energy  EATOM  =     45086.50549395
  Solvation  Ediel_sol  =         0.00000000
  ---------------------------------------------------
  free energy    TOTEN  =      -183.72506215 eV

  energy without entropy =     -183.66649294  energy(sigma->0) =     -183.71041985


--------------------------------------------------------------------------------------------------------




--------------------------------------- Iteration      1(  10)  ---------------------------------------


    POTLOK:  cpu time   13.0758: real time   13.0780
    SETDIJ:  cpu time    0.1218: real time    0.1218
    EDDIAG:  cpu time   68.0251: real time   68.0305
  RMM-DIIS:  cpu time  201.9405: real time  201.9534
    ORTHCH:  cpu time   13.3270: real time   13.3272
       DOS:  cpu time    0.0014: real time    0.0014
    CHARGE:  cpu time   25.2154: real time   25.2157
    MIXING:  cpu time    0.5700: real time    0.5700
    --------------------------------------------
      LOOP:  cpu time  322.2770: real time  322.2980

 eigenvalue-minimisations  :   739
 total energy-change (2. order) : 0.2442372E+01  (-0.5937265E+00)
 number of electron     559.9999778 magnetization 
 augmentation part      241.2391614 magnetization 

 Broyden mixing:
  rms(total) = 0.24248E+01    rms(broyden)= 0.24244E+01
  rms(prec ) = 0.28174E+01
  weight for this iteration     100.00

 eigenvalues of (default mixing * dielectric matrix)
  average eigenvalue GAMMA=   0.3190
  0.9789  0.1965  0.1965  0.1116  0.1116

 Free energy of the ion-electron system (eV)
  ---------------------------------------------------
  alpha Z        PSCENC =        75.25431677
  Ewald energy   TEWEN  =    141331.15602438
  -Hartree energ DENC   =   -185255.60529767
  -exchange      EXHF   =         0.00000000
  -V(xc)+E(xc)   XCENC  =     -1694.49171319
  PAW double counting   =     46061.17162256   -42553.29970924
  entropy T*S    EENTRO =        -0.15543249
  eigenvalues    EBANDS =     -3231.81799513
  atomic energy  EATOM  =     45086.50549395
  Solvation  Ediel_sol  =         0.00000000
  ---------------------------------------------------
  free energy    TOTEN  =      -181.28269006 eV

  energy without entropy =     -181.12725757  energy(sigma->0) =     -181.24383194


--------------------------------------------------------------------------------------------------------




--------------------------------------- Iteration      1(  11)  ---------------------------------------


    POTLOK:  cpu time   12.8610: real time   12.8660
    SETDIJ:  cpu time    0.1213: real time    0.1213
    EDDIAG:  cpu time   68.4618: real time   68.4699
  RMM-DIIS:  cpu time  197.3086: real time  197.3158
    ORTHCH:  cpu time   13.4760: real time   13.4761
       DOS:  cpu time    0.0014: real time    0.0014
    CHARGE:  cpu time   24.9447: real time   24.9447
    MIXING:  cpu time    0.5940: real time    0.5940
    --------------------------------------------
      LOOP:  cpu time  317.7689: real time  317.7891

 eigenvalue-minimisations  :   727
 total energy-change (2. order) : 0.2349795E+01  (-0.4311687E+00)
 number of electron     559.9999846 magnetization 
 augmentation part      241.7723535 magnetization 

 Broyden mixing:
  rms(total) = 0.22872E+01    rms(broyden)= 0.22868E+01
  rms(prec ) = 0.26968E+01
  weight for this iteration     100.00

 eigenvalues of (default mixing * dielectric matrix)
  average eigenvalue GAMMA=   0.3138
  1.1111  0.2134  0.2134  0.1272  0.1272  0.0907

 Free energy of the ion-electron system (eV)
  ---------------------------------------------------
  alpha Z        PSCENC =        75.25431677
  Ewald energy   TEWEN  =    141331.15602438
  -Hartree energ DENC   =   -185275.75331654
  -exchange      EXHF   =         0.00000000
  -V(xc)+E(xc)   XCENC  =     -1694.30657765
  PAW double counting   =     46124.10135939   -42614.48792301
  entropy T*S    EENTRO =         0.01461138
  eigenvalues    EBANDS =     -3211.41688349
  atomic energy  EATOM  =     45086.50549395
  Solvation  Ediel_sol  =         0.00000000
  ---------------------------------------------------
  free energy    TOTEN  =      -178.93289481 eV

  energy without entropy =     -178.94750619  energy(sigma->0) =     -178.93654766


--------------------------------------------------------------------------------------------------------




--------------------------------------- Iteration      1(  12)  ---------------------------------------


    POTLOK:  cpu time   13.0411: real time   13.0428
    SETDIJ:  cpu time    0.1270: real time    0.1270
    EDDIAG:  cpu time   69.3349: real time   69.3399
  RMM-DIIS:  cpu time  196.3837: real time  196.3941
    ORTHCH:  cpu time   13.3838: real time   13.3837
       DOS:  cpu time    0.0014: real time    0.0014
    CHARGE:  cpu time   24.8650: real time   24.8650
    MIXING:  cpu time    0.6232: real time    0.6232
    --------------------------------------------
      LOOP:  cpu time  317.7602: real time  317.7772

 eigenvalue-minimisations  :   726
 total energy-change (2. order) : 0.1426427E+01  (-0.3326204E+00)
 number of electron     559.9999832 magnetization 
 augmentation part      241.8610839 magnetization 

 Broyden mixing:
  rms(total) = 0.17006E+01    rms(broyden)= 0.17001E+01
  rms(prec ) = 0.19868E+01
  weight for this iteration     100.00

 eigenvalues of (default mixing * dielectric matrix)
  average eigenvalue GAMMA=   0.3182
  1.2410  0.2506  0.2506  0.1479  0.1479  0.1085  0.0812

 Free energy of the ion-electron system (eV)
  ---------------------------------------------------
  alpha Z        PSCENC =        75.25431677
  Ewald energy   TEWEN  =    141331.15602438
  -Hartree energ DENC   =   -185294.92509598
  -exchange      EXHF   =         0.00000000
  -V(xc)+E(xc)   XCENC  =     -1693.99347263
  PAW double counting   =     46183.19886210   -42671.74252998
  entropy T*S    EENTRO =        -0.11715055
  eigenvalues    EBANDS =     -3192.84291628
  atomic energy  EATOM  =     45086.50549395
  Solvation  Ediel_sol  =         0.00000000
  ---------------------------------------------------
  free energy    TOTEN  =      -177.50646822 eV

  energy without entropy =     -177.38931767  energy(sigma->0) =     -177.47718058


--------------------------------------------------------------------------------------------------------




--------------------------------------- Iteration      1(  13)  ---------------------------------------


    POTLOK:  cpu time   13.0992: real time   13.1020
    SETDIJ:  cpu time    0.1200: real time    0.1200
    EDDIAG:  cpu time   69.1225: real time   69.1265
  RMM-DIIS:  cpu time  192.8148: real time  192.8217
    ORTHCH:  cpu time   13.3567: real time   13.3567
       DOS:  cpu time    0.0015: real time    0.0015
    CHARGE:  cpu time   24.8401: real time   24.8400
    MIXING:  cpu time    0.6776: real time    0.6776
    --------------------------------------------
      LOOP:  cpu time  314.0323: real time  314.0460

 eigenvalue-minimisations  :   711
 total energy-change (2. order) : 0.1439397E+01  (-0.2636972E+00)
 number of electron     559.9999802 magnetization 
 augmentation part      241.8582456 magnetization 

 Broyden mixing:
  rms(total) = 0.14566E+01    rms(broyden)= 0.14561E+01
  rms(prec ) = 0.16781E+01
  weight for this iteration     100.00

 eigenvalues of (default mixing * dielectric matrix)
  average eigenvalue GAMMA=   0.3371
  1.4454  0.3363  0.2768  0.1726  0.1726  0.1082  0.1082  0.0766

 Free energy of the ion-electron system (eV)
  ---------------------------------------------------
  alpha Z        PSCENC =        75.25431677
  Ewald energy   TEWEN  =    141331.15602438
  -Hartree energ DENC   =   -185333.56218866
  -exchange      EXHF   =         0.00000000
  -V(xc)+E(xc)   XCENC  =     -1693.55722578
  PAW double counting   =     46251.29331152   -42737.53557576
  entropy T*S    EENTRO =        -0.10217305
  eigenvalues    EBANDS =     -3155.51905461
  atomic energy  EATOM  =     45086.50549395
  Solvation  Ediel_sol  =         0.00000000
  ---------------------------------------------------
  free energy    TOTEN  =      -176.06707123 eV

  energy without entropy =     -175.96489818  energy(sigma->0) =     -176.04152797


--------------------------------------------------------------------------------------------------------




--------------------------------------- Iteration      1(  14)  ---------------------------------------


    POTLOK:  cpu time   13.1072: real time   13.1096
    SETDIJ:  cpu time    0.1198: real time    0.1198
    EDDIAG:  cpu time   69.0873: real time   69.0907
  RMM-DIIS:  cpu time  194.0992: real time  194.1128
    ORTHCH:  cpu time   13.3333: real time   13.3335
       DOS:  cpu time    0.0015: real time    0.0015
    CHARGE:  cpu time   24.8986: real time   24.8991
    MIXING:  cpu time    0.7113: real time    0.7113
    --------------------------------------------
      LOOP:  cpu time  315.3583: real time  315.3784

 eigenvalue-minimisations  :   714
 total energy-change (2. order) :-0.4832928E+00  (-0.2237429E+00)
 number of electron     559.9999823 magnetization 
 augmentation part      241.6667713 magnetization 

 Broyden mixing:
  rms(total) = 0.25530E+01    rms(broyden)= 0.25527E+01
  rms(prec ) = 0.30608E+01
  weight for this iteration     100.00

 eigenvalues of (default mixing * dielectric matrix)
  average eigenvalue GAMMA=   0.3244
  1.5255  0.3709  0.2982  0.1782  0.1782  0.1083  0.1083  0.0879  0.0644

 Free energy of the ion-electron system (eV)
  ---------------------------------------------------
  alpha Z        PSCENC =        75.25431677
  Ewald energy   TEWEN  =    141331.15602438
  -Hartree energ DENC   =   -185371.49418548
  -exchange      EXHF   =         0.00000000
  -V(xc)+E(xc)   XCENC  =     -1692.93509412
  PAW double counting   =     46336.45833647   -42819.64554401
  entropy T*S    EENTRO =         0.21096621
  eigenvalues    EBANDS =     -3122.06067816
  atomic energy  EATOM  =     45086.50549395
  Solvation  Ediel_sol  =         0.00000000
  ---------------------------------------------------
  free energy    TOTEN  =      -176.55036398 eV

  energy without entropy =     -176.76133019  energy(sigma->0) =     -176.60310554


--------------------------------------------------------------------------------------------------------




--------------------------------------- Iteration      1(  15)  ---------------------------------------


    POTLOK:  cpu time   13.1507: real time   13.1545
    SETDIJ:  cpu time    0.1228: real time    0.1228
    EDDIAG:  cpu time   69.2209: real time   69.2240
  RMM-DIIS:  cpu time  193.0777: real time  193.0885
    ORTHCH:  cpu time   13.3579: real time   13.3580
       DOS:  cpu time    0.0014: real time    0.0014
    CHARGE:  cpu time   25.0725: real time   25.0759
    MIXING:  cpu time    0.7656: real time    0.7657
    --------------------------------------------
      LOOP:  cpu time  314.7695: real time  314.7909

 eigenvalue-minimisations  :   714
 total energy-change (2. order) : 0.7400531E+00  (-0.1149387E+00)
 number of electron     559.9999794 magnetization 
 augmentation part      241.5569990 magnetization 

 Broyden mixing:
  rms(total) = 0.25918E+01    rms(broyden)= 0.25916E+01
  rms(prec ) = 0.29869E+01
  weight for this iteration     100.00

 eigenvalues of (default mixing * dielectric matrix)
  average eigenvalue GAMMA=   0.3229
  1.6481  0.4742  0.2892  0.1725  0.1725  0.1224  0.1224  0.1033  0.0670  0.0580

 Free energy of the ion-electron system (eV)
  ---------------------------------------------------
  alpha Z        PSCENC =        75.25431677
  Ewald energy   TEWEN  =    141331.15602438
  -Hartree energ DENC   =   -185393.54160372
  -exchange      EXHF   =         0.00000000
  -V(xc)+E(xc)   XCENC  =     -1692.62320844
  PAW double counting   =     46372.81469662   -42854.56204192
  entropy T*S    EENTRO =         0.15136221
  eigenvalues    EBANDS =     -3100.96535071
  atomic energy  EATOM  =     45086.50549395
  Solvation  Ediel_sol  =         0.00000000
  ---------------------------------------------------
  free energy    TOTEN  =      -175.81031086 eV

  energy without entropy =     -175.96167307  energy(sigma->0) =     -175.84815141


--------------------------------------------------------------------------------------------------------




--------------------------------------- Iteration      1(  16)  ---------------------------------------


    POTLOK:  cpu time   13.0717: real time   13.0755
    SETDIJ:  cpu time    0.1237: real time    0.1237
    EDDIAG:  cpu time   69.8502: real time   69.8584
  RMM-DIIS:  cpu time  189.8708: real time  189.8781
    ORTHCH:  cpu time   13.2977: real time   13.2977
       DOS:  cpu time    0.0015: real time    0.0015
    CHARGE:  cpu time   24.9109: real time   24.9108
    MIXING:  cpu time    0.8123: real time    0.8123
    --------------------------------------------
      LOOP:  cpu time  311.9388: real time  311.9578

 eigenvalue-minimisations  :   703
 total energy-change (2. order) : 0.7466222E+00  (-0.1278918E+00)
 number of electron     559.9999824 magnetization 
 augmentation part      241.2355464 magnetization 

 Broyden mixing:
  rms(total) = 0.11528E+01    rms(broyden)= 0.11525E+01
  rms(prec ) = 0.12966E+01
  weight for this iteration     100.00

 eigenvalues of (default mixing * dielectric matrix)
  average eigenvalue GAMMA=   0.3280
  1.7452  0.5577  0.2802  0.2802  0.1564  0.1564  0.1082  0.1082  0.0900  0.0668
  0.0589

 Free energy of the ion-electron system (eV)
  ---------------------------------------------------
  alpha Z        PSCENC =        75.25431677
  Ewald energy   TEWEN  =    141331.15602438
  -Hartree energ DENC   =   -185424.33301082
  -exchange      EXHF   =         0.00000000
  -V(xc)+E(xc)   XCENC  =     -1692.13455828
  PAW double counting   =     46426.53869108   -42906.13843847
  entropy T*S    EENTRO =        -0.01872000
  eigenvalues    EBANDS =     -3071.89348726
  atomic energy  EATOM  =     45086.50549395
  Solvation  Ediel_sol  =         0.00000000
  ---------------------------------------------------
  free energy    TOTEN  =      -175.06368865 eV

  energy without entropy =     -175.04496865  energy(sigma->0) =     -175.05900865


--------------------------------------------------------------------------------------------------------




--------------------------------------- Iteration      1(  17)  ---------------------------------------


    POTLOK:  cpu time   13.0290: real time   13.0328
    SETDIJ:  cpu time    0.1250: real time    0.1250
    EDDIAG:  cpu time   69.3379: real time   69.3381
  RMM-DIIS:  cpu time  188.4667: real time  188.4688
    ORTHCH:  cpu time   13.3005: real time   13.3004
       DOS:  cpu time    0.0015: real time    0.0014
    CHARGE:  cpu time   24.8264: real time   24.8262
    MIXING:  cpu time    0.8714: real time    0.8714
    --------------------------------------------
      LOOP:  cpu time  309.9584: real time  309.9643

 eigenvalue-minimisations  :   701
 total energy-change (2. order) : 0.4653339E+00  (-0.7397359E-01)
 number of electron     559.9999826 magnetization 
 augmentation part      241.3187268 magnetization 

 Broyden mixing:
  rms(total) = 0.10797E+01    rms(broyden)= 0.10794E+01
  rms(prec ) = 0.12516E+01
  weight for this iteration     100.00

 eigenvalues of (default mixing * dielectric matrix)
  average eigenvalue GAMMA=   0.3314
  1.7879  0.6531  0.3394  0.3394  0.1609  0.1609  0.1078  0.1078  0.0965  0.0965
  0.0709  0.0558

 Free energy of the ion-electron system (eV)
  ---------------------------------------------------
  alpha Z        PSCENC =        75.25431677
  Ewald energy   TEWEN  =    141331.15602438
  -Hartree energ DENC   =   -185443.12367788
  -exchange      EXHF   =         0.00000000
  -V(xc)+E(xc)   XCENC  =     -1691.79247477
  PAW double counting   =     46458.25382219   -42936.40850567
  entropy T*S    EENTRO =         0.04287654
  eigenvalues    EBANDS =     -3054.48623024
  atomic energy  EATOM  =     45086.50549395
  Solvation  Ediel_sol  =         0.00000000
  ---------------------------------------------------
  free energy    TOTEN  =      -174.59835473 eV

  energy without entropy =     -174.64123127  energy(sigma->0) =     -174.60907387


--------------------------------------------------------------------------------------------------------




--------------------------------------- Iteration      1(  18)  ---------------------------------------


    POTLOK:  cpu time   13.1702: real time   13.1744
    SETDIJ:  cpu time    0.1234: real time    0.1234
    EDDIAG:  cpu time   69.7874: real time   69.7936
  RMM-DIIS:  cpu time  192.0645: real time  192.0654
    ORTHCH:  cpu time   13.3671: real time   13.3670
       DOS:  cpu time    0.0014: real time    0.0014
    CHARGE:  cpu time   25.2704: real time   25.2702
    MIXING:  cpu time    0.9489: real time    0.9491
    --------------------------------------------
      LOOP:  cpu time  314.7333: real time  314.7446

 eigenvalue-minimisations  :   720
 total energy-change (2. order) :-0.3481128E+00  (-0.3936807E-01)
 number of electron     559.9999820 magnetization 
 augmentation part      241.2197014 magnetization 

 Broyden mixing:
  rms(total) = 0.15510E+01    rms(broyden)= 0.15509E+01
  rms(prec ) = 0.18997E+01
  weight for this iteration     100.00

 eigenvalues of (default mixing * dielectric matrix)
  average eigenvalue GAMMA=   0.3337
  1.8358  0.7485  0.4030  0.4030  0.1659  0.1659  0.1146  0.1146  0.1023  0.0989
  0.0709  0.0608  0.0537

 Free energy of the ion-electron system (eV)
  ---------------------------------------------------
  alpha Z        PSCENC =        75.25431677
  Ewald energy   TEWEN  =    141331.15602438
  -Hartree energ DENC   =   -185458.79359881
  -exchange      EXHF   =         0.00000000
  -V(xc)+E(xc)   XCENC  =     -1691.61581658
  PAW double counting   =     46472.32243308   -42949.59894747
  entropy T*S    EENTRO =         0.11418959
  eigenvalues    EBANDS =     -3040.29056243
  atomic energy  EATOM  =     45086.50549395
  Solvation  Ediel_sol  =         0.00000000
  ---------------------------------------------------
  free energy    TOTEN  =      -174.94646753 eV

  energy without entropy =     -175.06065711  energy(sigma->0) =     -174.97501492


--------------------------------------------------------------------------------------------------------




--------------------------------------- Iteration      1(  19)  ---------------------------------------


    POTLOK:  cpu time   13.2703: real time   13.2739
    SETDIJ:  cpu time    0.1220: real time    0.1220
    EDDIAG:  cpu time   69.7398: real time   69.7426
  RMM-DIIS:  cpu time  190.3902: real time  190.4023
    ORTHCH:  cpu time   13.1775: real time   13.1774
       DOS:  cpu time    0.0015: real time    0.0015
    CHARGE:  cpu time   25.5230: real time   25.5228
    MIXING:  cpu time    0.9729: real time    0.9729
    --------------------------------------------
      LOOP:  cpu time  313.1974: real time  313.2154

 eigenvalue-minimisations  :   712
 total energy-change (2. order) : 0.2975891E+00  (-0.3891090E-01)
 number of electron     559.9999843 magnetization 
 augmentation part      241.2360031 magnetization 

 Broyden mixing:
  rms(total) = 0.12353E+01    rms(broyden)= 0.12351E+01
  rms(prec ) = 0.14351E+01
  weight for this iteration     100.00

 eigenvalues of (default mixing * dielectric matrix)
  average eigenvalue GAMMA=   0.3320
  1.8680  0.8638  0.4333  0.4333  0.1653  0.1653  0.1183  0.1183  0.1246  0.0926
  0.0926  0.0683  0.0594  0.0449

 Free energy of the ion-electron system (eV)
  ---------------------------------------------------
  alpha Z        PSCENC =        75.25431677
  Ewald energy   TEWEN  =    141331.15602438
  -Hartree energ DENC   =   -185473.75882978
  -exchange      EXHF   =         0.00000000
  -V(xc)+E(xc)   XCENC  =     -1691.46936762
  PAW double counting   =     46482.70065545   -42959.17589782
  entropy T*S    EENTRO =         0.03741978
  eigenvalues    EBANDS =     -3025.89869353
  atomic energy  EATOM  =     45086.50549395
  Solvation  Ediel_sol  =         0.00000000
  ---------------------------------------------------
  free energy    TOTEN  =      -174.64887842 eV

  energy without entropy =     -174.68629820  energy(sigma->0) =     -174.65823337


--------------------------------------------------------------------------------------------------------




--------------------------------------- Iteration      1(  20)  ---------------------------------------


    POTLOK:  cpu time   13.0746: real time   13.0782
    SETDIJ:  cpu time    0.1207: real time    0.1207
    EDDIAG:  cpu time   69.3914: real time   69.3916
  RMM-DIIS:  cpu time  187.8034: real time  187.8074
    ORTHCH:  cpu time   13.0770: real time   13.0769
       DOS:  cpu time    0.0015: real time    0.0015
    CHARGE:  cpu time   25.4688: real time   25.4686
    MIXING:  cpu time    1.0310: real time    1.0310
    --------------------------------------------
      LOOP:  cpu time  309.9684: real time  309.9758

 eigenvalue-minimisations  :   700
 total energy-change (2. order) : 0.3006136E+00  (-0.3538640E-01)
 number of electron     559.9999834 magnetization 
 augmentation part      241.1737963 magnetization 

 Broyden mixing:
  rms(total) = 0.91835E+00    rms(broyden)= 0.91815E+00
  rms(prec ) = 0.10686E+01
  weight for this iteration     100.00

 eigenvalues of (default mixing * dielectric matrix)
  average eigenvalue GAMMA=   0.3309
  1.9428  0.9221  0.4368  0.4368  0.2219  0.1640  0.1640  0.1117  0.1117  0.1023
  0.1023  0.0745  0.0657  0.0620  0.0449

 Free energy of the ion-electron system (eV)
  ---------------------------------------------------
  alpha Z        PSCENC =        75.25431677
  Ewald energy   TEWEN  =    141331.15602438
  -Hartree energ DENC   =   -185491.56477044
  -exchange      EXHF   =         0.00000000
  -V(xc)+E(xc)   XCENC  =     -1691.30888241
  PAW double counting   =     46491.24338170   -42966.93582640
  entropy T*S    EENTRO =        -0.03035591
  eigenvalues    EBANDS =     -3008.66764647
  atomic energy  EATOM  =     45086.50549395
  Solvation  Ediel_sol  =         0.00000000
  ---------------------------------------------------
  free energy    TOTEN  =      -174.34826483 eV

  energy without entropy =     -174.31790892  energy(sigma->0) =     -174.34067585


--------------------------------------------------------------------------------------------------------




--------------------------------------- Iteration      1(  21)  ---------------------------------------


    POTLOK:  cpu time   13.1177: real time   13.1186
    SETDIJ:  cpu time    0.1191: real time    0.1191
    EDDIAG:  cpu time   68.9580: real time   68.9579
  RMM-DIIS:  cpu time  188.0752: real time  188.0757
    ORTHCH:  cpu time   13.0145: real time   13.0145
       DOS:  cpu time    0.0015: real time    0.0014
    CHARGE:  cpu time   25.0680: real time   25.0679
    MIXING:  cpu time    1.0688: real time    1.0688
    --------------------------------------------
      LOOP:  cpu time  309.4228: real time  309.4238

 eigenvalue-minimisations  :   695
 total energy-change (2. order) : 0.1238557E+00  (-0.2782731E-01)
 number of electron     559.9999840 magnetization 
 augmentation part      241.2495922 magnetization 

 Broyden mixing:
  rms(total) = 0.77832E+00    rms(broyden)= 0.77811E+00
  rms(prec ) = 0.89294E+00
  weight for this iteration     100.00

 eigenvalues of (default mixing * dielectric matrix)
  average eigenvalue GAMMA=   0.3339
  2.0144  0.9618  0.4721  0.3899  0.3899  0.1664  0.1664  0.1135  0.1135  0.1183
  0.0960  0.0960  0.0720  0.0682  0.0598  0.0435

 Free energy of the ion-electron system (eV)
  ---------------------------------------------------
  alpha Z        PSCENC =        75.25431677
  Ewald energy   TEWEN  =    141331.15602438
  -Hartree energ DENC   =   -185502.65611911
  -exchange      EXHF   =         0.00000000
  -V(xc)+E(xc)   XCENC  =     -1691.13041940
  PAW double counting   =     46499.53324760   -42974.43582050
  entropy T*S    EENTRO =        -0.06011684
  eigenvalues    EBANDS =     -2998.39101598
  atomic energy  EATOM  =     45086.50549395
  Solvation  Ediel_sol  =         0.00000000
  ---------------------------------------------------
  free energy    TOTEN  =      -174.22440913 eV

  energy without entropy =     -174.16429230  energy(sigma->0) =     -174.20937992


--------------------------------------------------------------------------------------------------------




--------------------------------------- Iteration      1(  22)  ---------------------------------------


    POTLOK:  cpu time   13.3743: real time   13.3858
    SETDIJ:  cpu time    0.1227: real time    0.1227
    EDDIAG:  cpu time   69.5497: real time   69.5500
  RMM-DIIS:  cpu time  185.5529: real time  185.5540
    ORTHCH:  cpu time   13.1672: real time   13.1671
       DOS:  cpu time    0.0015: real time    0.0015
    CHARGE:  cpu time   25.4052: real time   25.4067
    MIXING:  cpu time    1.1646: real time    1.1646
    --------------------------------------------
      LOOP:  cpu time  308.3380: real time  308.3524

 eigenvalue-minimisations  :   693
 total energy-change (2. order) : 0.1924339E+00  (-0.2070323E-01)
 number of electron     559.9999836 magnetization 
 augmentation part      241.1603628 magnetization 

 Broyden mixing:
  rms(total) = 0.65719E+00    rms(broyden)= 0.65702E+00
  rms(prec ) = 0.75281E+00
  weight for this iteration     100.00

 eigenvalues of (default mixing * dielectric matrix)
  average eigenvalue GAMMA=   0.3399
  2.1021  0.9962  0.6370  0.3947  0.3947  0.1672  0.1672  0.1398  0.1166  0.1166
  0.1041  0.1041  0.1009  0.0655  0.0655  0.0617  0.0438

 Free energy of the ion-electron system (eV)
  ---------------------------------------------------
  alpha Z        PSCENC =        75.25431677
  Ewald energy   TEWEN  =    141331.15602438
  -Hartree energ DENC   =   -185519.43371395
  -exchange      EXHF   =         0.00000000
  -V(xc)+E(xc)   XCENC  =     -1690.93173272
  PAW double counting   =     46506.12579709   -42980.23117032
  entropy T*S    EENTRO =        -0.06846618
  eigenvalues    EBANDS =     -2982.40852423
  atomic energy  EATOM  =     45086.50549395
  Solvation  Ediel_sol  =         0.00000000
  ---------------------------------------------------
  free energy    TOTEN  =      -174.03197520 eV

  energy without entropy =     -173.96350902  energy(sigma->0) =     -174.01485866


--------------------------------------------------------------------------------------------------------




--------------------------------------- Iteration      1(  23)  ---------------------------------------


    POTLOK:  cpu time   13.2681: real time   13.2705
    SETDIJ:  cpu time    0.1283: real time    0.1283
    EDDIAG:  cpu time   69.4859: real time   69.4861
  RMM-DIIS:  cpu time  185.3617: real time  185.3654
    ORTHCH:  cpu time   13.1295: real time   13.1295
       DOS:  cpu time    0.0015: real time    0.0015
    CHARGE:  cpu time   25.4389: real time   25.4388
    MIXING:  cpu time    1.2442: real time    1.2442
    --------------------------------------------
      LOOP:  cpu time  308.0582: real time  308.0643

 eigenvalue-minimisations  :   693
 total energy-change (2. order) : 0.8920972E-01  (-0.1690258E-01)
 number of electron     559.9999839 magnetization 
 augmentation part      241.1708168 magnetization 

 Broyden mixing:
  rms(total) = 0.60246E+00    rms(broyden)= 0.60230E+00
  rms(prec ) = 0.69815E+00
  weight for this iteration     100.00

 eigenvalues of (default mixing * dielectric matrix)
  average eigenvalue GAMMA=   0.3487
[...]
 -0.004  -0.001   0.022  -0.013   0.002  -0.004  -0.001   0.022
 -0.006  -0.003   0.037  -0.022   0.004  -0.006  -0.002   0.037
 -0.013  -0.004   0.012  -0.001   0.019  -0.013  -0.004   0.011
 -0.001  -0.017  -0.003  -0.014   0.000  -0.001  -0.017  -0.002
 -0.018  -0.001   0.008  -0.004  -0.014  -0.018  -0.001   0.007
 -0.016  -0.005   0.014  -0.001   0.023  -0.016  -0.004   0.013
 -0.001  -0.021  -0.002  -0.017   0.000  -0.001  -0.020  -0.001
 -0.022  -0.001   0.009  -0.005  -0.017  -0.021  -0.001   0.009
 total augmentation occupancy for first ion, spin component:           1
  1.569  -0.086  -0.075   0.113  -0.009   0.028   0.083   0.002  -0.012  -0.007   0.052  -0.030   0.023   0.003  -0.014  -0.022
 -0.086   1.790   0.152  -0.161   0.112   0.076  -0.506  -0.183   0.069   0.026  -0.090   0.050  -0.075  -0.103   0.023   0.011
 -0.075   0.152   3.291  -0.789   0.069  -0.007  -0.182  -1.755   0.890  -0.039  -1.166   0.354   0.007  -0.470   0.132   0.021
  0.113  -0.161  -0.789   2.286  -0.145  -0.004   0.068   0.884  -0.858   0.163   0.598  -0.187  -0.008   0.245  -0.154  -0.004
 -0.009   0.112   0.069  -0.145   1.536  -0.008   0.023  -0.045   0.165  -0.020  -0.071   0.018   0.013  -0.023   0.013   0.021
  0.028   0.076  -0.007  -0.004  -0.008   0.280  -0.089   0.032  -0.021   0.021  -0.035   0.005  -0.001   0.001   0.036  -0.001
  0.083  -0.506  -0.182   0.068   0.023  -0.089   1.027   0.210  -0.008  -0.124   0.077  -0.041   0.111   0.142  -0.007  -0.014
  0.002  -0.183  -1.755   0.884  -0.045   0.032   0.210   2.070  -0.892   0.031   0.755  -0.209  -0.006   0.431  -0.138  -0.004
 -0.012   0.069   0.890  -0.858   0.165  -0.021  -0.008  -0.892   1.239  -0.179  -0.359   0.105   0.010  -0.200   0.141   0.001
 -0.007   0.026  -0.039   0.163  -0.020   0.021  -0.124   0.031  -0.179   0.373   0.046  -0.008  -0.064   0.011   0.023   0.009
  0.052  -0.090  -1.166   0.598  -0.071  -0.035   0.077   0.755  -0.359   0.046   1.252  -0.267   0.094   0.183   0.011  -0.017
 -0.030   0.050   0.354  -0.187   0.018   0.005  -0.041  -0.209   0.105  -0.008  -0.267   0.066  -0.018  -0.060   0.007   0.004
  0.023  -0.075   0.007  -0.008   0.013  -0.001   0.111  -0.006   0.010  -0.064   0.094  -0.018   0.046  -0.004  -0.000  -0.005
  0.003  -0.103  -0.470   0.245  -0.023   0.001   0.142   0.431  -0.200   0.011   0.183  -0.060  -0.004   0.143  -0.030  -0.002
 -0.014   0.023   0.132  -0.154   0.013   0.036  -0.007  -0.138   0.141   0.023   0.011   0.007  -0.000  -0.030   0.056   0.000
 -0.022   0.011   0.021  -0.004   0.021  -0.001  -0.014  -0.004   0.001   0.009  -0.017   0.004  -0.005  -0.002   0.000   0.001
 -0.004  -0.003   0.061  -0.046   0.001   0.001  -0.022  -0.059   0.025  -0.000  -0.031   0.009  -0.001  -0.017   0.004   0.000
 -0.020  -0.005  -0.000   0.015  -0.021  -0.006   0.003   0.016  -0.016  -0.004  -0.003   0.000   0.000   0.003  -0.005   0.000


------------------------ aborting loop because EDIFF is reached ----------------------------------------


    CHARGE:  cpu time   25.8134: real time   25.8132
    FORLOC:  cpu time    6.8176: real time    6.8176
    FORNL :  cpu time   66.7024: real time   66.7019
    STRESS:  cpu time  202.4805: real time  202.4794
    FORCOR:  cpu time   22.4949: real time   22.4948
    FORHAR:  cpu time    9.7546: real time    9.7545
    MIXING:  cpu time    3.7066: real time    3.7066
    OFIELD:  cpu time    0.0000: real time    0.0000

  FORCE on cell =-STRESS in cart. coord.  units (eV):
  Direction    XX          YY          ZZ          XY          YZ          ZX
  --------------------------------------------------------------------------------------
  Alpha Z    75.25432    75.25432    75.25432
  Ewald   46571.83859 48558.07548 46201.13575   590.84697   235.32672     4.64285
  Hartree 61332.82688 63277.16459 61073.57435   594.64414   174.69287    44.26124
  E(xc)   -2906.47786 -2907.34791 -2907.95120     0.45639     0.41167    -0.37818
  Local  ************************************ -1176.01204  -400.65700   -55.27965
  n-local  -871.70970  -887.31434  -879.97783    -3.27481     0.81805    -1.81781
  augment  4094.56209  4107.11084  4107.70659    -1.08431    -2.08724     2.27490
  Kinetic  7802.15727  7816.57518  7827.66442    -7.09421    -6.31054     4.07604
  Fock        0.00000     0.00000     0.00000     0.00000     0.00000     0.00000
  -------------------------------------------------------------------------------------
  Total    -104.81715   -96.23194  -108.05479    -1.51786     2.19454    -2.22061
  in kB      -6.21984    -5.71039    -6.41196    -0.09007     0.13022    -0.13177
  external pressure =       -6.11 kB  Pullay stress =        0.00 kB


 VOLUME and BASIS-vectors are now :
 -----------------------------------------------------------------------------
  energy-cutoff  :      400.00
  volume of cell :    27000.00
      direct lattice vectors                 reciprocal lattice vectors
    30.000000000  0.000000000  0.000000000     0.033333333  0.000000000  0.000000000
     0.000000000 30.000000000  0.000000000     0.000000000  0.033333333  0.000000000
     0.000000000  0.000000000 30.000000000     0.000000000  0.000000000  0.033333333

  length of vectors
    30.000000000 30.000000000 30.000000000     0.033333333  0.033333333  0.033333333


 FORCES acting on ions
    electron-ion (+dipol)            ewald-force                    non-local-force                 convergence-correction
 -----------------------------------------------------------------------------------------------
   0.317E+03 0.100E+04 0.677E+03   -.315E+03 -.100E+04 -.678E+03   -.984E+00 -.134E+01 -.708E+00   0.730E-03 0.358E-02 -.122E-02
   -.979E+03 -.402E+03 0.418E+03   0.976E+03 0.399E+03 -.418E+03   0.182E+01 0.148E+01 -.228E+00   -.177E-02 -.358E-02 0.830E-02
   -.457E+03 0.976E+03 0.450E+03   0.455E+03 -.973E+03 -.450E+03   0.136E+01 -.182E+01 -.151E+00   0.132E-02 0.637E-02 0.203E-03
   0.980E+03 -.415E+03 0.423E+03   -.977E+03 0.413E+03 -.422E+03   -.181E+01 0.152E+01 -.202E+00   0.104E-03 0.143E-03 0.399E-03
   -.234E+02 0.572E+03 0.101E+04   0.233E+02 -.571E+03 -.101E+04   0.641E-01 -.231E+00 -.246E+01   0.176E-02 0.270E-02 0.978E-03
   -.156E+02 0.577E+03 -.100E+04   0.156E+02 -.576E+03 0.997E+03   -.129E-01 -.297E+00 0.237E+01   0.446E-02 0.296E-02 -.358E-02
   -.123E+03 0.123E+04 -.226E+02   0.124E+03 -.123E+04 0.228E+02   -.497E+00 -.261E+01 -.126E+00   0.177E-02 0.297E-02 0.273E-02
   0.115E+04 -.227E+02 -.192E+01   -.115E+04 0.226E+02 0.192E+01   -.315E+01 0.683E-01 -.328E-02   -.528E-03 -.113E-02 -.107E-02
   -.114E+04 -.590E+01 -.518E+00   0.114E+04 0.590E+01 0.511E+00   0.311E+01 0.289E-02 -.980E-03   -.635E-02 -.641E-03 0.797E-02
   -.186E+01 -.114E+04 -.345E+00   0.184E+01 0.113E+04 0.341E+00   0.135E-01 0.311E+01 0.261E-02   0.294E-02 -.274E-02 0.374E-03
   -.597E+03 0.572E+03 0.827E+03   0.595E+03 -.570E+03 -.824E+03   0.157E+01 -.152E+01 -.222E+01   -.221E-02 0.191E-02 0.189E-02
   -.594E+03 0.573E+03 -.827E+03   0.591E+03 -.571E+03 0.823E+03   0.157E+01 -.153E+01 0.221E+01   0.186E-02 0.452E-02 -.643E-02
   0.579E+03 -.590E+03 0.819E+03   -.577E+03 0.588E+03 -.815E+03   -.155E+01 0.156E+01 -.219E+01   0.216E-02 0.235E-02 -.599E-03
   0.579E+03 -.588E+03 -.819E+03   -.577E+03 0.586E+03 0.815E+03   -.156E+01 0.156E+01 0.220E+01   0.472E-02 -.119E-03 0.181E-02
   0.593E+03 0.558E+03 0.868E+03   -.590E+03 -.556E+03 -.865E+03   -.160E+01 -.158E+01 -.217E+01   0.284E-02 -.141E-02 -.116E-03
   0.587E+03 0.565E+03 -.855E+03   -.585E+03 -.563E+03 0.851E+03   -.156E+01 -.156E+01 0.220E+01   0.424E-02 0.269E-03 -.788E-03
   -.583E+03 -.585E+03 0.816E+03   0.581E+03 0.583E+03 -.813E+03   0.156E+01 0.156E+01 -.220E+01   -.173E-02 -.200E-02 0.408E-02
   -.582E+03 -.584E+03 -.816E+03   0.580E+03 0.582E+03 0.813E+03   0.156E+01 0.157E+01 0.220E+01   -.338E-03 -.386E-02 -.537E-02
   0.364E+03 0.987E+03 -.565E+03   -.361E+03 -.984E+03 0.565E+03   -.163E+01 -.174E+01 -.440E+00   0.394E-02 0.308E-02 0.165E-03
   -.979E+03 -.401E+03 -.419E+03   0.976E+03 0.399E+03 0.419E+03   0.182E+01 0.148E+01 0.227E+00   -.240E-02 -.724E-02 -.254E-02
   -.356E+03 0.293E+03 0.471E+03   0.356E+03 -.294E+03 -.472E+03   -.350E+00 0.393E+00 0.476E+00   0.619E-03 0.445E-02 0.538E-02
   0.101E+04 0.354E+03 0.442E+03   -.100E+04 -.352E+03 -.441E+03   -.183E+01 -.156E+01 -.285E+00   0.147E-02 -.245E-02 0.619E-03
   -.397E+03 -.978E+03 0.418E+03   0.395E+03 0.976E+03 -.417E+03   0.150E+01 0.183E+01 -.209E+00   -.196E-02 -.220E-02 0.485E-02
   -.441E+03 0.975E+03 -.452E+03   0.439E+03 -.972E+03 0.451E+03   0.146E+01 -.185E+01 0.194E+00   0.322E-02 0.547E-02 0.671E-03
   0.979E+03 -.413E+03 -.424E+03   -.976E+03 0.410E+03 0.424E+03   -.181E+01 0.150E+01 0.206E+00   0.146E-02 -.695E-03 -.350E-03
   -.987E+03 0.386E+03 0.421E+03   0.984E+03 -.384E+03 -.420E+03   0.182E+01 -.149E+01 -.225E+00   -.339E-02 0.280E-02 0.794E-02
   0.393E+03 -.981E+03 0.418E+03   -.391E+03 0.978E+03 -.418E+03   -.150E+01 0.182E+01 -.239E+00   0.467E-02 0.728E-03 0.255E-02
   0.309E+03 0.236E+03 0.512E+03   -.309E+03 -.236E+03 -.513E+03   0.343E+00 -.514E-01 0.887E+00   0.713E-02 -.643E-03 0.232E-02
   -.200E+03 0.534E+03 -.368E+02   0.196E+03 -.536E+03 0.361E+02   0.292E+01 0.187E+01 0.477E+00   0.458E-02 0.735E-02 0.256E-02
   -.597E+03 -.965E+01 0.972E+03   0.596E+03 0.967E+01 -.969E+03   0.304E+00 -.824E-02 -.234E+01   -.286E-02 -.193E-02 0.501E-02
   -.595E+03 -.822E+01 -.972E+03   0.595E+03 0.826E+01 0.969E+03   0.303E+00 -.176E-01 0.234E+01   0.191E-02 0.478E-03 -.970E-02
   0.592E+03 -.223E+02 0.984E+03   -.591E+03 0.223E+02 -.980E+03   -.339E+00 0.664E-02 -.237E+01   0.262E-02 -.205E-02 -.341E-03
   0.591E+03 -.173E+02 -.982E+03   -.590E+03 0.173E+02 0.979E+03   -.340E+00 0.682E-02 0.235E+01   0.591E-02 -.144E-02 0.836E-03
   0.103E+04 0.525E+03 -.780E+02   -.102E+04 -.523E+03 0.780E+02   -.767E+01 0.226E+01 0.140E+01   0.359E-02 0.853E-03 0.381E-03
   -.766E+03 -.769E+03 -.527E+00   0.764E+03 0.767E+03 0.519E+00   0.113E+01 0.116E+01 0.166E-02   -.237E-02 -.747E-02 0.492E-02
   -.799E+03 0.751E+03 -.276E+01   0.797E+03 -.749E+03 0.279E+01   0.131E+01 -.121E+01 -.224E-01   0.908E-03 0.843E-02 0.563E-02
   0.762E+03 -.777E+03 -.913E+00   -.760E+03 0.775E+03 0.916E+00   -.116E+01 0.112E+01 -.120E-02   0.538E-02 0.824E-03 -.858E-03
   -.892E+01 -.192E+02 0.109E+04   0.886E+01 0.192E+02 -.108E+04   0.454E-01 0.126E-01 -.162E+01   0.433E-02 -.221E-02 0.406E-02
   -.703E+01 -.152E+02 -.108E+04   0.699E+01 0.151E+02 0.108E+04   0.257E-01 0.151E-01 0.160E+01   0.557E-02 0.699E-03 -.424E-02
   0.999E+03 0.363E+03 -.444E+03   -.996E+03 -.361E+03 0.443E+03   -.188E+01 -.150E+01 0.363E+00   0.308E-02 -.161E-02 -.983E-03
   -.397E+03 -.978E+03 -.418E+03   0.395E+03 0.975E+03 0.418E+03   0.150E+01 0.182E+01 0.208E+00   0.173E-02 -.479E-02 -.630E-03
   -.350E+03 0.298E+03 -.474E+03   0.350E+03 -.299E+03 0.474E+03   -.330E+00 0.432E+00 -.396E+00   0.576E-02 0.480E-02 -.317E-02
   0.319E+03 -.348E+03 0.461E+03   -.319E+03 0.348E+03 -.462E+03   0.363E+00 -.342E+00 0.497E+00   0.879E-02 -.612E-03 0.365E-02
   0.313E+03 0.263E+03 -.508E+03   -.313E+03 -.263E+03 0.509E+03   0.366E+00 0.184E+00 -.705E+00   0.861E-02 0.145E-02 -.194E-02
   -.985E+03 0.387E+03 -.422E+03   0.982E+03 -.385E+03 0.421E+03   0.181E+01 -.149E+01 0.223E+00   -.153E-02 0.548E-02 -.368E-02
   0.393E+03 -.980E+03 -.419E+03   -.391E+03 0.977E+03 0.419E+03   -.150E+01 0.182E+01 0.235E+00   0.834E-02 -.853E-03 -.196E-02
   -.331E+03 -.338E+03 0.458E+03   0.332E+03 0.338E+03 -.459E+03   -.366E+00 -.384E+00 0.514E+00   0.237E-03 -.493E-02 0.792E-02
   0.653E+03 -.548E+02 -.462E+01   -.654E+03 0.546E+02 0.463E+01   0.771E+00 0.161E+00 0.980E-03   0.711E-02 -.270E-02 0.549E-03
   -.656E+03 -.158E+02 -.136E+01   0.657E+03 0.158E+02 0.135E+01   -.717E+00 0.621E-02 0.339E-02   0.477E-03 -.895E-03 0.680E-02
   -.317E+01 -.597E+03 0.970E+03   0.319E+01 0.596E+03 -.966E+03   -.219E-01 0.304E+00 -.235E+01   0.149E-02 -.753E-03 0.293E-02
   -.281E+01 -.595E+03 -.970E+03   0.281E+01 0.595E+03 0.966E+03   -.115E-01 0.311E+00 0.235E+01   0.746E-02 -.283E-02 -.214E-02
   -.213E+02 -.464E+02 -.394E+01   0.213E+02 0.464E+02 0.394E+01   -.111E-01 0.114E-01 0.977E-03   0.951E-02 0.559E-04 0.195E-02
   0.319E+03 -.345E+03 -.463E+03   -.319E+03 0.345E+03 0.464E+03   0.349E+00 -.355E+00 -.501E+00   0.115E-01 -.327E-02 -.147E-02
   -.330E+03 -.336E+03 -.460E+03   0.331E+03 0.337E+03 0.460E+03   -.374E+00 -.371E+00 -.523E+00   0.469E-02 -.336E-02 -.224E-02
   -.473E+01 -.654E+03 -.872E+00   0.469E+01 0.655E+03 0.869E+00   0.245E-01 -.732E+00 0.121E-02   0.687E-02 -.280E-02 0.146E-02
   0.526E+02 0.158E+03 0.928E+01   -.376E+02 -.137E+03 -.711E+01   -.615E+01 -.122E+02 -.187E+01   0.972E-03 0.183E-02 0.765E-03
   0.441E+03 0.846E+03 0.189E+02   -.466E+03 -.911E+03 -.191E+02   0.211E+02 0.522E+02 -.511E+00   0.263E-04 0.218E-02 0.907E-03
 -----------------------------------------------------------------------------------------------
   -.114E+02 -.454E+02 0.148E+01   0.171E-12 -.682E-12 -.225E-11   0.112E+02 0.454E+02 -.152E+01   0.145E+00 0.552E-02 0.481E-01
 
 
 POSITION                                       TOTAL-FORCE (eV/Angst)
 -----------------------------------------------------------------------------------
     13.37281      9.84801     12.50759         1.170299      1.132142     -0.896552
     20.15199     16.62719     12.50759        -1.110156     -0.697107      0.294769
     16.62719      9.84801     12.50759        -0.614101      1.135482      0.217151
      9.84801     16.62719     12.50759         1.108989     -0.715658      0.291082
     15.00000     11.47521     10.20639        -0.007439      0.377122      1.252435
     15.00000     11.47521     19.79360         0.007897      0.414279     -1.267068
     15.00000      8.28283     15.00000         0.305189      1.180804      0.070177
      8.28283     15.00000     15.00000         1.511963     -0.016758      0.001903
     21.71717     15.00000     15.00000        -1.515414     -0.000827      0.000229
     15.00000     21.71717     15.00000        -0.007086     -1.517272     -0.001206
     18.35858     11.64142     10.25025        -0.757114      0.736465      1.080549
     18.35858     11.64142     19.74975        -0.756950      0.743089     -1.072654
     11.64142     18.35858     10.25025         0.752105     -0.757057      1.070169
     11.64142     18.35858     19.74975         0.755276     -0.757994     -1.071073
     11.64142     11.64142     10.25025         0.727423      0.777582      1.007203
     11.64142     11.64142     19.74975         0.748554      0.759310     -1.046946
     18.35858     18.35858     10.25025        -0.755395     -0.755846      1.071312
     18.35858     18.35858     19.74975        -0.751383     -0.759804     -1.069980
     13.37281      9.84801     17.49241         0.814004      1.087772      0.050875
     20.15199     16.62719     17.49241        -1.110221     -0.694320     -0.293154
     16.73751     13.26249     12.54279         0.134129     -0.104290     -0.185171
      9.84801     13.37281     12.50759         1.068197      0.782948      0.237134
     16.62719     20.15199     12.50759        -0.698348     -1.109517      0.285763
     16.62719      9.84801     17.49241        -0.656898      1.130408     -0.232467
      9.84801     16.62719     17.49241         1.110695     -0.709350     -0.295545
     20.15199     13.37281     12.50759        -1.108156      0.701329      0.292485
     13.37281     20.15199     12.50759         0.699568     -1.105959      0.296433
     13.26249     13.26249     12.54279        -0.096844      0.054620     -0.260975
     15.00000     11.52498     15.00000        -0.978523     -0.581065     -0.147559
     18.52479     15.00000     10.20639        -0.415014      0.007749      1.273494
     18.52479     15.00000     19.79360        -0.406924      0.017662     -1.267117
     11.47521     15.00000     10.20640         0.435213     -0.001408      1.269477
     11.47521     15.00000     19.79360         0.428177     -0.000506     -1.272389
     11.49535     11.49535     15.00000        -3.990317      4.721231      1.414632
     18.50465     18.50465     15.00000        -0.821555     -0.835631     -0.001508
     18.50465     11.49535     15.00000        -0.857866      0.848084      0.014872
     11.49535     18.50465     15.00000         0.836282     -0.816349      0.001363
     15.00000     15.00000     10.04368        -0.004339      0.002848      1.177889
     15.00000     15.00000     19.95633        -0.002765      0.000160     -1.179045
      9.84801     13.37281     17.49241         1.071315      0.773610     -0.248198
     16.62719     20.15199     17.49241        -0.700591     -1.108982     -0.285976
     16.73751     13.26249     17.45721         0.128862     -0.128316      0.168049
     13.26249     16.73751     12.54279        -0.109505      0.108267     -0.154234
     13.26249     13.26249     17.45721        -0.103435     -0.024264      0.237944
     20.15199     13.37281     17.49241        -1.114392      0.702781     -0.294818
     13.37281     20.15199     17.49241         0.699284     -1.101841     -0.296634
     16.73751     16.73751     12.54279         0.112911      0.116680     -0.151470
     11.52498     15.00000     15.00000        -0.259172      0.001183      0.010794
     18.47502     15.00000     15.00000         0.220530     -0.006331      0.000047
     15.00000     18.52480     10.20639         0.005302     -0.416367      1.279353
     15.00000     18.52480     19.79360         0.002251     -0.417111     -1.279314
     15.00000     15.00000     15.00000         0.014603      0.070700      0.000033
     13.26249     16.73751     17.45721        -0.111994      0.109390      0.158655
     16.73751     16.73751     17.45721         0.114092      0.108498      0.150378
     15.00000     18.47502     15.00000        -0.005828      0.226627     -0.000012
     13.07086     10.78125     14.64400         8.839820      9.150538      0.305360
     12.60314      9.75843     14.55769        -3.995203    -12.839431     -0.710937
 -----------------------------------------------------------------------------------
    total drift:                               -0.002792      0.004507      0.006526


--------------------------------------------------------------------------------------------------------



  FREE ENERGIE OF THE ION-ELECTRON SYSTEM (eV)
  ---------------------------------------------------
  free  energy   TOTEN  =      -173.69530752 eV

  energy  without entropy=     -173.64665766  energy(sigma->0) =     -173.68314506
 


--------------------------------------------------------------------------------------------------------


    POTLOK:  cpu time   14.3615: real time   14.3614


--------------------------------------------------------------------------------------------------------


     LOOP+:  cpu time18576.7024: real time18577.7501
    4ORBIT:  cpu time    0.0000: real time    0.0000

 total amount of memory used by VASP MPI-rank0  5486941. kBytes
=======================================================================

   base      :      30000. kBytes
   nonlr-proj:      17126. kBytes
   fftplans  :     924480. kBytes
   grid      :    1872000. kBytes
   one-center:        886. kBytes
   wavefun   :    2642449. kBytes
 
  
  
 General timing and accounting informations for this job:
 ========================================================
  
                  Total CPU time used (sec):    18652.059
                            User time (sec):    17604.887
                          System time (sec):     1047.171
                         Elapsed time (sec):    18653.196
  
                   Maximum memory used (kb):     7179136.
                   Average memory used (kb):           0.
  
                          Minor page faults:    825779003
                          Major page faults:            0
                 Voluntary context switches:          519
