  57  57   0   0
  0.4736842E+03  0.3000000E-08  0.3000000E-08  0.3000000E-08  0.5000000E-15
  1.000000000000000E-004
  CAR 
 6_Pd100_top_free_z(O)                   
      1.39569401    -30.67016792  301     -4.13005550      1.00000000
    -30.670  0.0000E+00  0.0000E+00
    -30.563  0.0000E+00  0.0000E+00
    -30.456  0.0000E+00  0.0000E+00
    -30.350  0.3564E-27  0.3809E-28
    -30.243  0.1724E-23  0.1844E-24
    -30.136  0.4640E-20  0.4961E-21
    -30.029  0.6923E-17  0.7405E-18
    -29.922  0.5707E-14  0.6107E-15
    -29.815  0.2591E-11  0.2776E-12
    -29.708  0.6418E-09  0.6888E-10
    -29.601  0.8597E-07  0.9257E-08
    -29.494  0.6131E-05  0.6646E-06
    -29.388  0.2267E-03  0.2490E-04
    -29.281  0.4127E-02  0.4660E-03
    -29.174  0.3239E-01  0.3928E-02
    -29.067  0.5478E-01  0.9783E-02
    -28.960 -0.3691E+00 -0.2966E-01
    -28.853 -0.6754E+00 -0.1019E+00
    -28.746  0.3566E+01  0.2793E+00
    -28.639  0.9739E+01  0.1320E+01
    -28.532  0.6693E+01  0.2036E+01
    -28.426  0.3325E+00  0.2071E+01
    -28.319 -0.7006E+00  0.1996E+01
    -28.212 -0.3247E-01  0.1993E+01
    -28.105  0.5465E-01  0.1999E+01
    -27.998  0.1109E-01  0.2000E+01
    -27.891  0.8474E-03  0.2000E+01
    -27.784  0.3066E-04  0.2000E+01
    -27.677  0.5651E-06  0.2000E+01
    -27.570  0.5495E-08  0.2000E+01
    -27.464  0.2873E-10  0.2000E+01
    -27.357  0.8102E-13  0.2000E+01
    -27.250  0.0000E+00  0.2000E+01
    -27.143  0.0000E+00  0.2000E+01
    -27.036  0.0000E+00  0.2000E+01
    -26.929  0.0000E+00  0.2000E+01
    -26.822  0.0000E+00  0.2000E+01
    -26.715  0.0000E+00  0.2000E+01
    -26.608  0.0000E+00  0.2000E+01
    -26.502  0.0000E+00  0.2000E+01
    -26.395  0.0000E+00  0.2000E+01
    -26.288  0.0000E+00  0.2000E+01
    -26.181  0.0000E+00  0.2000E+01
    -26.074  0.0000E+00  0.2000E+01
    -25.967  0.0000E+00  0.2000E+01
    -25.860  0.0000E+00  0.2000E+01
    -25.753  0.0000E+00  0.2000E+01
    -25.647  0.0000E+00  0.2000E+01
    -25.540  0.0000E+00  0.2000E+01
    -25.433  0.0000E+00  0.2000E+01
    -25.326  0.0000E+00  0.2000E+01
    -25.219  0.0000E+00  0.2000E+01
    -25.112  0.0000E+00  0.2000E+01
    -25.005  0.0000E+00  0.2000E+01
    -24.898  0.0000E+00  0.2000E+01
    -24.791  0.0000E+00  0.2000E+01
    -24.685  0.0000E+00  0.2000E+01
    -24.578  0.0000E+00  0.2000E+01
    -24.471  0.0000E+00  0.2000E+01
    -24.364  0.0000E+00  0.2000E+01
    -24.257  0.0000E+00  0.2000E+01
    -24.150  0.0000E+00  0.2000E+01
    -24.043  0.0000E+00  0.2000E+01
    -23.936  0.0000E+00  0.2000E+01
    -23.829  0.0000E+00  0.2000E+01
    -23.723  0.0000E+00  0.2000E+01
    -23.616  0.0000E+00  0.2000E+01
    -23.509  0.0000E+00  0.2000E+01
    -23.402  0.0000E+00  0.2000E+01
    -23.295  0.0000E+00  0.2000E+01
    -23.188  0.0000E+00  0.2000E+01
    -23.081  0.0000E+00  0.2000E+01
    -22.974  0.0000E+00  0.2000E+01
    -22.867  0.0000E+00  0.2000E+01
    -22.761  0.0000E+00  0.2000E+01
    -22.654  0.0000E+00  0.2000E+01
    -22.547  0.0000E+00  0.2000E+01
    -22.440  0.0000E+00  0.2000E+01
    -22.333  0.0000E+00  0.2000E+01
    -22.226  0.0000E+00  0.2000E+01
    -22.119  0.0000E+00  0.2000E+01
    -22.012  0.0000E+00  0.2000E+01
    -21.905  0.0000E+00  0.2000E+01
    -21.799  0.0000E+00  0.2000E+01
    -21.692  0.0000E+00  0.2000E+01
    -21.585  0.0000E+00  0.2000E+01
    -21.478  0.0000E+00  0.2000E+01
    -21.371  0.0000E+00  0.2000E+01
    -21.264  0.0000E+00  0.2000E+01
    -21.157  0.0000E+00  0.2000E+01
    -21.050  0.0000E+00  0.2000E+01
    -20.944  0.0000E+00  0.2000E+01
    -20.837  0.0000E+00  0.2000E+01
    -20.730  0.0000E+00  0.2000E+01
    -20.623  0.0000E+00  0.2000E+01
    -20.516  0.0000E+00  0.2000E+01
    -20.409  0.0000E+00  0.2000E+01
    -20.302  0.0000E+00  0.2000E+01
    -20.195  0.0000E+00  0.2000E+01
    -20.088  0.0000E+00  0.2000E+01
    -19.982  0.0000E+00  0.2000E+01
    -19.875  0.0000E+00  0.2000E+01
    -19.768  0.0000E+00  0.2000E+01
    -19.661  0.0000E+00  0.2000E+01
    -19.554  0.0000E+00  0.2000E+01
    -19.447  0.0000E+00  0.2000E+01
    -19.340  0.0000E+00  0.2000E+01
    -19.233  0.0000E+00  0.2000E+01
    -19.126  0.0000E+00  0.2000E+01
    -19.020  0.0000E+00  0.2000E+01
    -18.913  0.0000E+00  0.2000E+01
    -18.806  0.0000E+00  0.2000E+01
    -18.699  0.0000E+00  0.2000E+01
    -18.592  0.0000E+00  0.2000E+01
    -18.485  0.0000E+00  0.2000E+01
    -18.378  0.0000E+00  0.2000E+01
    -18.271  0.0000E+00  0.2000E+01
    -18.164  0.0000E+00  0.2000E+01
    -18.058  0.0000E+00  0.2000E+01
    -17.951  0.0000E+00  0.2000E+01
    -17.844  0.0000E+00  0.2000E+01
    -17.737  0.0000E+00  0.2000E+01
    -17.630  0.0000E+00  0.2000E+01
    -17.523  0.0000E+00  0.2000E+01
    -17.416  0.0000E+00  0.2000E+01
    -17.309  0.0000E+00  0.2000E+01
    -17.203  0.0000E+00  0.2000E+01
    -17.096  0.0000E+00  0.2000E+01
    -16.989  0.0000E+00  0.2000E+01
    -16.882  0.0000E+00  0.2000E+01
    -16.775  0.0000E+00  0.2000E+01
    -16.668  0.0000E+00  0.2000E+01
    -16.561  0.0000E+00  0.2000E+01
    -16.454  0.0000E+00  0.2000E+01
    -16.347  0.0000E+00  0.2000E+01
    -16.241  0.0000E+00  0.2000E+01
    -16.134  0.0000E+00  0.2000E+01
    -16.027  0.0000E+00  0.2000E+01
    -15.920  0.0000E+00  0.2000E+01
    -15.813  0.0000E+00  0.2000E+01
    -15.706  0.0000E+00  0.2000E+01
    -15.599  0.0000E+00  0.2000E+01
    -15.492  0.0000E+00  0.2000E+01
    -15.385  0.0000E+00  0.2000E+01
    -15.279  0.0000E+00  0.2000E+01
    -15.172  0.6684E-26  0.2000E+01
    -15.065  0.2653E-22  0.2000E+01
    -14.958  0.5852E-19  0.2000E+01
    -14.851  0.7149E-16  0.2000E+01
    -14.744  0.4817E-13  0.2000E+01
    -14.637  0.1785E-10  0.2000E+01
    -14.530  0.3597E-08  0.2000E+01
    -14.423  0.3903E-06  0.2000E+01
    -14.317  0.2238E-04  0.2000E+01
    -14.210  0.6566E-03  0.2000E+01
    -14.103  0.9200E-02  0.2001E+01
    -13.996  0.5032E-01  0.2006E+01
    -13.889 -0.5307E-02  0.2006E+01
    -13.782 -0.6400E+00  0.1937E+01
    -13.675  0.3711E-01  0.1941E+01
    -13.568  0.6070E+01  0.2590E+01
    -13.461  0.9915E+01  0.3650E+01
    -13.355  0.4183E+01  0.4097E+01
    -13.248 -0.5595E+00  0.4037E+01
    -13.141 -0.4372E+00  0.3991E+01
    -13.034  0.4579E-01  0.3995E+01
    -12.927  0.3675E-01  0.3999E+01
    -12.820  0.5098E-02  0.4000E+01
    -12.713  0.2990E-03  0.4000E+01
    -12.606  0.2331E-04  0.4000E+01
    -12.500  0.4675E-03  0.4000E+01
    -12.393  0.7156E-02  0.4001E+01
    -12.286  0.4468E-01  0.4006E+01
    -12.179  0.2748E-01  0.4009E+01
    -12.072 -0.5152E+00  0.3953E+01
    -11.965 -0.2311E+00  0.3929E+01
    -11.858  0.4789E+01  0.4441E+01
    -11.751  0.9480E+01  0.5454E+01
    -11.644  0.9320E+01  0.6450E+01
    -11.538  0.9593E+01  0.7475E+01
    -11.431  0.5415E+01  0.8054E+01
    -11.324  0.1166E-01  0.8055E+01
    -11.217 -0.5842E+00  0.7993E+01
    -11.110  0.6177E-02  0.7994E+01
    -11.003  0.4984E-01  0.7999E+01
    -10.896  0.8870E-02  0.8000E+01
    -10.789  0.7780E-03  0.8000E+01
    -10.682  0.3089E-02  0.8000E+01
    -10.576  0.2690E-01  0.8003E+01
    -10.469  0.6187E-01  0.8010E+01
    -10.362 -0.2818E+00  0.7980E+01
    -10.255 -0.7741E+00  0.7897E+01
    -10.148  0.2769E+01  0.8193E+01
    -10.041  0.9367E+01  0.9194E+01
     -9.934  0.7497E+01  0.9996E+01
     -9.827  0.8133E+00  0.1008E+02
     -9.720 -0.7679E+00  0.1000E+02
     -9.614 -0.7854E-01  0.9992E+01
     -9.507  0.5972E-01  0.9998E+01
     -9.400  0.1412E-01  0.1000E+02
     -9.293  0.1188E-02  0.1000E+02
     -9.186  0.4662E-04  0.1000E+02
     -9.079  0.9271E-06  0.1000E+02
     -8.972  0.9695E-08  0.1000E+02
     -8.865  0.5443E-10  0.1000E+02
     -8.758  0.1662E-12  0.1000E+02
     -8.652  0.0000E+00  0.1000E+02
     -8.545  0.0000E+00  0.1000E+02
     -8.438  0.0000E+00  0.1000E+02
     -8.331  0.1943E-27  0.1000E+02
     -8.224  0.9788E-24  0.1000E+02
     -8.117  0.2743E-20  0.1000E+02
     -8.010  0.4263E-17  0.1000E+02
     -7.903  0.3661E-14  0.1000E+02
     -7.797  0.1732E-11  0.1000E+02
     -7.690  0.4476E-09  0.1000E+02
     -7.583  0.6257E-07  0.1000E+02
     -7.476  0.4664E-05  0.1000E+02
     -7.369  0.1807E-03  0.1000E+02
     -7.262  0.3463E-02  0.1000E+02
     -7.155  0.2906E-01  0.1000E+02
     -7.048  0.6010E-01  0.1001E+02
     -6.941 -0.3092E+00  0.9977E+01
     -6.835 -0.6965E+00  0.9902E+01
     -6.728  0.3131E+01  0.1024E+02
     -6.621  0.9115E+01  0.1121E+02
     -6.514  0.6929E+01  0.1195E+02
     -6.407  0.4402E+01  0.1242E+02
     -6.300  0.8642E+01  0.1335E+02
     -6.193  0.1867E+02  0.1534E+02
     -6.086  0.2981E+02  0.1853E+02
     -5.979  0.2175E+02  0.2085E+02
     -5.873  0.1372E+02  0.2232E+02
     -5.766  0.4107E+02  0.2671E+02
     -5.659  0.9703E+02  0.3708E+02
     -5.552  0.1848E+03  0.5684E+02
     -5.445  0.2761E+03  0.8635E+02
     -5.338  0.2737E+03  0.1156E+03
     -5.231  0.2160E+03  0.1387E+03
     -5.124  0.2349E+03  0.1638E+03
     -5.017  0.3241E+03  0.1984E+03
     -4.911  0.3620E+03  0.2371E+03
     -4.804  0.3172E+03  0.2710E+03
     -4.697  0.3172E+03  0.3049E+03
     -4.590  0.3887E+03  0.3465E+03
     -4.483  0.4123E+03  0.3906E+03
     -4.376  0.4329E+03  0.4368E+03
     -4.269  0.5333E+03  0.4938E+03
     -4.162  0.5101E+03  0.5484E+03
     -4.056  0.2563E+03  0.5757E+03
     -3.949  0.4750E+02  0.5808E+03
     -3.842  0.1603E+02  0.5825E+03
     -3.735  0.2757E+02  0.5855E+03
     -3.628  0.1830E+02  0.5874E+03
     -3.521  0.1540E+02  0.5891E+03
     -3.414  0.2043E+02  0.5913E+03
     -3.307  0.1417E+02  0.5928E+03
     -3.200  0.5400E+01  0.5934E+03
     -3.094  0.2342E+02  0.5959E+03
     -2.987  0.5838E+02  0.6021E+03
     -2.880  0.5020E+02  0.6075E+03
     -2.773  0.1673E+02  0.6093E+03
     -2.666  0.5274E+01  0.6098E+03
     -2.559  0.1286E+02  0.6112E+03
     -2.452  0.2169E+02  0.6135E+03
     -2.345  0.1765E+02  0.6154E+03
     -2.238  0.1444E+02  0.6169E+03
     -2.132  0.2461E+02  0.6196E+03
     -2.025  0.3596E+02  0.6234E+03
     -1.918  0.4253E+02  0.6280E+03
     -1.811  0.4431E+02  0.6327E+03
     -1.704  0.3585E+02  0.6365E+03
     -1.597  0.3448E+02  0.6402E+03
     -1.490  0.3518E+02  0.6440E+03
     -1.383  0.2656E+02  0.6468E+03
     -1.276  0.1958E+02  0.6489E+03
     -1.170  0.1457E+02  0.6505E+03
     -1.063  0.2115E+02  0.6527E+03
     -0.956  0.5146E+02  0.6582E+03
     -0.849  0.6575E+02  0.6653E+03
     -0.742  0.3971E+02  0.6695E+03
     -0.635  0.1402E+02  0.6710E+03
     -0.528  0.7195E+01  0.6718E+03
     -0.421  0.2732E+01  0.6721E+03
     -0.314 -0.4426E+00  0.6720E+03
     -0.208 -0.2529E+00  0.6720E+03
     -0.101  0.7118E-01  0.6720E+03
      0.006  0.3344E-01  0.6720E+03
      0.113  0.4161E-02  0.6720E+03
      0.220  0.2273E-03  0.6720E+03
      0.327  0.6136E-05  0.6720E+03
      0.434  0.8599E-07  0.6720E+03
      0.541  0.6419E-09  0.6720E+03
      0.647  0.2591E-11  0.6720E+03
      0.754  0.6232E-14  0.6720E+03
      0.861  0.0000E+00  0.6720E+03
      0.968  0.0000E+00  0.6720E+03
      1.075  0.0000E+00  0.6720E+03
      1.182  0.0000E+00  0.6720E+03
      1.289  0.0000E+00  0.6720E+03
      1.396  0.0000E+00  0.6720E+03
