 vasp.5.4.4.18Apr17-6-g9f103f2a35 (build Sep 03 2018 23:53:05) complex          
  
 executed on             LinuxIFC date 2021.12.01  21:45:06
 running on    1 total cores
 distrk:  each k-point on    1 cores,    1 groups
 distr:  one band on NCORES_PER_BAND=   1 cores,    1 groups


--------------------------------------------------------------------------------------------------------


 INCAR:
 POTCAR:    PAW_PBE Pd 04Jan2005                  
 POTCAR:    PAW_PBE C 08Apr2002                   
 POTCAR:    PAW_PBE O 08Apr2002                   
 POTCAR:    PAW_PBE Pd 04Jan2005                  
   VRHFIN =Pd : s1 d9                                                           
   LEXCH  = PE                                                                  
   EATOM  =   809.7530 eV,   59.5152 Ry                                         
                                                                                
   TITEL  = PAW_PBE Pd 04Jan2005                                                
   LULTRA =        F    use ultrasoft PP ?                                      
   IUNSCR =        1    unscreen: 0-lin 1-nonlin 2-no                           
   RPACOR =    2.000    partial core radius                                     
   POMASS =  106.420; ZVAL   =   10.000    mass and valenz                      
   RCORE  =    2.600    outmost cutoff radius                                   
   RWIGS  =    2.710; RWIGS  =    1.434    wigner-seitz radius (au A)           
   ENMAX  =  250.925; ENMIN  =  188.194 eV                                      
   ICORE  =        3    local potential                                         
   LCOR   =        T    correct aug charges                                     
   LPAW   =        T    paw PP                                                  
   EAUG   =  416.230                                                            
   DEXC   =    0.000                                                            
   RMAX   =    2.653    core radius for proj-oper                               
   RAUG   =    1.300    factor for augmentation sphere                          
   RDEP   =    2.734    radius for radial grids                                 
   RDEPT  =    2.103    core radius for aug-charge                              
                                                                                
   Atomic configuration                                                         
   12 entries                                                                   
     n  l   j            E        occ.                                          
     1  0  0.50    -24164.6631   2.0000                                         
     2  0  0.50     -3530.9218   2.0000                                         
     2  1  1.50     -3165.6822   6.0000                                         
     3  0  0.50      -639.4577   2.0000                                         
     3  1  1.50      -519.4532   6.0000                                         
     3  2  2.50      -328.9757  10.0000                                         
     4  0  0.50       -88.7014   2.0000                                         
     4  1  1.50       -54.4540   6.0000                                         
     4  2  2.50        -6.6878   9.0000                                         
     5  0  0.50        -4.3543   1.0000                                         
     5  1  0.50        -1.3606   0.0000                                         
     4  3  2.50        -1.3606   0.0000                                         
   Description                                                                  
     l       E           TYP  RCUT    TYP  RCUT                                 
     2     -6.6878251     23  2.400                                             
     2     -8.0484077     23  2.400                                             
     0     -4.3542939     23  2.400                                             
     0      4.3406793     23  2.400                                             
     1     -4.0817478     23  2.600                                             
     1     15.8380318     23  2.600                                             
     3     -4.0817478     23  2.400                                             
  local pseudopotential read in
  partial core-charges read in
  partial kinetic energy density read in
  atomic valenz-charges read in
  non local Contribution for L=           2  read in
    real space projection operators read in
  non local Contribution for L=           2  read in
    real space projection operators read in
  non local Contribution for L=           0  read in
    real space projection operators read in
  non local Contribution for L=           0  read in
    real space projection operators read in
  non local Contribution for L=           1  read in
    real space projection operators read in
  non local Contribution for L=           1  read in
    real space projection operators read in
    PAW grid and wavefunctions read in
 
   number of l-projection  operators is LMAX  =           6
   number of lm-projection operators is LMMAX =          18
 
 POTCAR:    PAW_PBE C 08Apr2002                   
   VRHFIN =C: s2p2                                                              
   LEXCH  = PE                                                                  
   EATOM  =   147.1560 eV,   10.8157 Ry                                         
                                                                                
   TITEL  = PAW_PBE C 08Apr2002                                                 
   LULTRA =        F    use ultrasoft PP ?                                      
   IUNSCR =        1    unscreen: 0-lin 1-nonlin 2-no                           
   RPACOR =    1.200    partial core radius                                     
   POMASS =   12.011; ZVAL   =    4.000    mass and valenz                      
   RCORE  =    1.500    outmost cutoff radius                                   
   RWIGS  =    1.630; RWIGS  =    0.863    wigner-seitz radius (au A)           
   ENMAX  =  400.000; ENMIN  =  300.000 eV                                      
   ICORE  =        2    local potential                                         
   LCOR   =        T    correct aug charges                                     
   LPAW   =        T    paw PP                                                  
   EAUG   =  644.873                                                            
   DEXC   =    0.000                                                            
   RMAX   =    1.529    core radius for proj-oper                               
   RAUG   =    1.300    factor for augmentation sphere                          
   RDEP   =    1.501    radius for radial grids                                 
   RDEPT  =    1.300    core radius for aug-charge                              
                                                                                
   Atomic configuration                                                         
    4 entries                                                                   
     n  l   j            E        occ.                                          
     1  0  0.50      -273.3789   2.0000                                         
     2  0  0.50       -13.7508   2.0000                                         
     2  1  0.50        -5.2854   2.0000                                         
     3  2  1.50        -5.4423   0.0000                                         
   Description                                                                  
     l       E           TYP  RCUT    TYP  RCUT                                 
     0    -13.7508458     23  1.200                                             
     0     -8.2022199     23  1.200                                             
     1     -5.2854383     23  1.500                                             
     1     34.0145650     23  1.500                                             
     2     -5.4423304      7  1.500                                             
  local pseudopotential read in
  partial core-charges read in
  partial kinetic energy density read in
  atomic valenz-charges read in
  non local Contribution for L=           0  read in
    real space projection operators read in
  non local Contribution for L=           0  read in
    real space projection operators read in
  non local Contribution for L=           1  read in
    real space projection operators read in
  non local Contribution for L=           1  read in
    real space projection operators read in
    PAW grid and wavefunctions read in
 
   number of l-projection  operators is LMAX  =           4
   number of lm-projection operators is LMMAX =           8
 
 POTCAR:    PAW_PBE O 08Apr2002                   
   VRHFIN =O: s2p4                                                              
   LEXCH  = PE                                                                  
   EATOM  =   432.3788 eV,   31.7789 Ry                                         
                                                                                
   TITEL  = PAW_PBE O 08Apr2002                                                 
   LULTRA =        F    use ultrasoft PP ?                                      
   IUNSCR =        1    unscreen: 0-lin 1-nonlin 2-no                           
   RPACOR =    1.200    partial core radius                                     
   POMASS =   16.000; ZVAL   =    6.000    mass and valenz                      
   RCORE  =    1.520    outmost cutoff radius                                   
   RWIGS  =    1.550; RWIGS  =    0.820    wigner-seitz radius (au A)           
   ENMAX  =  400.000; ENMIN  =  300.000 eV                                      
   ICORE  =        2    local potential                                         
   LCOR   =        T    correct aug charges                                     
   LPAW   =        T    paw PP                                                  
   EAUG   =  605.392                                                            
   DEXC   =    0.000                                                            
   RMAX   =    1.553    core radius for proj-oper                               
   RAUG   =    1.300    factor for augmentation sphere                          
   RDEP   =    1.550    radius for radial grids                                 
   RDEPT  =    1.329    core radius for aug-charge                              
                                                                                
   Atomic configuration                                                         
    4 entries                                                                   
     n  l   j            E        occ.                                          
     1  0  0.50      -514.6923   2.0000                                         
     2  0  0.50       -23.9615   2.0000                                         
     2  1  0.50        -9.0305   4.0000                                         
     3  2  1.50        -9.5241   0.0000                                         
   Description                                                                  
     l       E           TYP  RCUT    TYP  RCUT                                 
     0    -23.9615318     23  1.200                                             
     0     -9.5240782     23  1.200                                             
     1     -9.0304911     23  1.520                                             
     1      8.1634956     23  1.520                                             
     2     -9.5240782      7  1.500                                             
  local pseudopotential read in
  partial core-charges read in
  partial kinetic energy density read in
  kinetic energy density of atom read in
  atomic valenz-charges read in
  non local Contribution for L=           0  read in
    real space projection operators read in
  non local Contribution for L=           0  read in
    real space projection operators read in
  non local Contribution for L=           1  read in
    real space projection operators read in
  non local Contribution for L=           1  read in
    real space projection operators read in
    PAW grid and wavefunctions read in
 
   number of l-projection  operators is LMAX  =           4
   number of lm-projection operators is LMMAX =           8
 
 Optimization of the real space projectors (new method)

 maximal supplied QI-value         = 14.36
 optimisation between [QCUT,QGAM] = [ 10.20, 20.39] = [ 29.12,116.47] Ry 
 Optimized for a Real-space Cutoff    1.51 Angstroem

   l    n(q)    QCUT    max X(q) W(low)/X(q) W(high)/X(q)  e(spline) 
   2      8    10.197    59.108    0.26E-03    0.14E-03    0.96E-07
   2      8    10.197    58.101    0.27E-03    0.14E-03    0.98E-07
   0      9    10.197   102.235    0.54E-04    0.60E-05    0.72E-07
   0      9    10.197    58.388    0.52E-04    0.60E-05    0.68E-07
   1      9    10.197    22.191    0.18E-03    0.25E-03    0.79E-07
   1      9    10.197    15.590    0.15E-03    0.21E-03    0.69E-07
 Optimization of the real space projectors (new method)

 maximal supplied QI-value         = 25.13
 optimisation between [QCUT,QGAM] = [ 10.05, 20.36] = [ 28.30,116.06] Ry 
 Optimized for a Real-space Cutoff    1.30 Angstroem

   l    n(q)    QCUT    max X(q) W(low)/X(q) W(high)/X(q)  e(spline) 
   0      8    10.053   115.676    0.49E-03    0.72E-03    0.18E-06
   0      8    10.053    87.132    0.49E-03    0.71E-03    0.18E-06
   1      7    10.053     4.429    0.32E-03    0.31E-03    0.18E-06
   1      7    10.053     2.733    0.23E-03    0.19E-03    0.20E-06
 Optimization of the real space projectors (new method)

 maximal supplied QI-value         = 24.76
 optimisation between [QCUT,QGAM] = [ 10.15, 20.30] = [ 28.85,115.39] Ry 
 Optimized for a Real-space Cutoff    1.38 Angstroem

   l    n(q)    QCUT    max X(q) W(low)/X(q) W(high)/X(q)  e(spline) 
   0      8    10.150    20.381    0.22E-03    0.32E-03    0.29E-06
   0      8    10.150    15.268    0.23E-03    0.35E-03    0.30E-06
   1      8    10.150     5.964    0.46E-03    0.53E-03    0.21E-06
   1      8    10.150     5.382    0.38E-03    0.45E-03    0.19E-06

 ----------------------------------------------------------------------------- 
|                                                                             |
|  ADVICE TO THIS USER RUNNING 'VASP/VAMP'   (HEAR YOUR MASTER'S VOICE ...):  |
|                                                                             |
|      You enforced a specific xc-type in the INCAR file,                     |
|      a different type was found on the POTCAR file                          |
|          I HOPE YOU KNOW, WHAT YOU ARE  DOING                               |
|                                                                             |
 ----------------------------------------------------------------------------- 

  PAW_PBE Pd 04Jan2005                  :
 energy of atom  1       EATOM= -809.7530
 kinetic energy error for atom=    0.0091 (will be added to EATOM!!)
  PAW_PBE C 08Apr2002                   :
 energy of atom  2       EATOM= -147.1560
 kinetic energy error for atom=    0.0288 (will be added to EATOM!!)
  PAW_PBE O 08Apr2002                   :
 energy of atom  3       EATOM= -432.3788
 kinetic energy error for atom=    0.1156 (will be added to EATOM!!)
 
 
 POSCAR: Pd55PES                                 
  positions in cartesian coordinates
  No initial velocities read in
 exchange correlation table for  LEXCH =        9
   RHO(1)=    0.500       N(1)  =     2000
   RHO(2)=  100.500       N(2)  =     4000
 


--------------------------------------------------------------------------------------------------------


 ion  position               nearest neighbor table
   1  0.446  0.328  0.417-   3 3.25   5 3.25   7 3.36  15 3.36  29 3.42  28 3.42
   2  0.672  0.554  0.417-  26 3.25  30 3.25  17 3.36   9 3.36  47 3.42  49 3.42
   3  0.554  0.328  0.417-   1 3.25   5 3.25   7 3.36  11 3.36  29 3.42  21 3.42
   4  0.328  0.554  0.417-  32 3.25  22 3.25  13 3.36   8 3.36  43 3.42  48 3.42
   5  0.500  0.383  0.340-   1 3.25   3 3.25  11 3.36  15 3.36  21 3.42  28 3.42
   6  0.500  0.383  0.660-  24 3.25  19 3.25  16 3.36  12 3.36  42 3.42  44 3.42
   7  0.500  0.276  0.500-  29 3.24   3 3.36   1 3.36  19 3.36  24 3.36
   8  0.276  0.500  0.500-  48 3.24  22 3.36  40 3.36   4 3.36  25 3.36
   9  0.724  0.500  0.500-  56 2.30  57 2.41  49 3.24  26 3.36  45 3.36   2 3.36  20 3.36
  10  0.500  0.724  0.500-  55 3.24  27 3.36  23 3.36  46 3.36  41 3.36
  11  0.612  0.388  0.342-  21 3.24   5 3.36   3 3.36  30 3.36  26 3.36
  12  0.612  0.388  0.658-  42 3.24  24 3.36  45 3.36   6 3.36  31 3.36
  13  0.388  0.612  0.342-  43 3.24  32 3.36  50 3.36   4 3.36  27 3.36
  14  0.388  0.612  0.658-  53 3.24  25 3.36  33 3.36  51 3.36  46 3.36
  15  0.388  0.388  0.342-  28 3.24   5 3.36   1 3.36  32 3.36  22 3.36
  16  0.388  0.388  0.658-  44 3.24  19 3.36  40 3.36   6 3.36  33 3.36
  17  0.612  0.612  0.342-  47 3.24  30 3.36  50 3.36   2 3.36  23 3.36
  18  0.612  0.612  0.658-  54 3.24  31 3.36  20 3.36  51 3.36  41 3.36
  19  0.446  0.328  0.583-   6 3.25  24 3.25  16 3.36   7 3.36  44 3.42  29 3.42
  20  0.672  0.554  0.583-  56 1.86  57 2.34  31 3.25  45 3.25  18 3.36   9 3.36  54 3.42  49 3.42

  21  0.558  0.442  0.418-  11 3.24   5 3.42   3 3.42  30 3.42  26 3.42
  22  0.328  0.446  0.417-   4 3.25  32 3.25   8 3.36  15 3.36  48 3.42  28 3.42
  23  0.554  0.672  0.417-  27 3.25  50 3.25  10 3.36  17 3.36  55 3.42  47 3.42
  24  0.554  0.328  0.583-   6 3.25  19 3.25  12 3.36   7 3.36  42 3.42  29 3.42
  25  0.328  0.554  0.583-  33 3.25  40 3.25  14 3.36   8 3.36  53 3.42  48 3.42
  26  0.672  0.446  0.417-   2 3.25  30 3.25   9 3.36  11 3.36  49 3.42  21 3.42
  27  0.446  0.672  0.417-  23 3.25  50 3.25  10 3.36  13 3.36  55 3.42  43 3.42
  28  0.442  0.442  0.418-  15 3.24   5 3.42   1 3.42  32 3.42  22 3.42
  29  0.500  0.384  0.500-   7 3.24   3 3.42   1 3.42  24 3.42  19 3.42
  30  0.617  0.500  0.340-   2 3.25  26 3.25  17 3.36  11 3.36  47 3.42  21 3.42
  31  0.617  0.500  0.660-  20 3.25  45 3.25  18 3.36  12 3.36  54 3.42  42 3.42
  32  0.383  0.500  0.340-   4 3.25  22 3.25  13 3.36  15 3.36  43 3.42  28 3.42
  33  0.383  0.500  0.660-  25 3.25  40 3.25  14 3.36  16 3.36  53 3.42  44 3.42
  34  0.383  0.383  0.500-
  35  0.617  0.617  0.500-
  36  0.617  0.383  0.500-
  37  0.383  0.617  0.500-
  38  0.500  0.500  0.335-
  39  0.500  0.500  0.665-
  40  0.328  0.446  0.583-  33 3.25  25 3.25  16 3.36   8 3.36  44 3.42  48 3.42
  41  0.554  0.672  0.583-  46 3.25  51 3.25  10 3.36  18 3.36  54 3.42  55 3.42
  42  0.558  0.442  0.582-  12 3.24   6 3.42  24 3.42  31 3.42  45 3.42
  43  0.442  0.558  0.418-  13 3.24   4 3.42  32 3.42  27 3.42  50 3.42
  44  0.442  0.442  0.582-  16 3.24   6 3.42  19 3.42  33 3.42  40 3.42
  45  0.672  0.446  0.583-  20 3.25  31 3.25   9 3.36  12 3.36  49 3.42  42 3.42
  46  0.446  0.672  0.583-  41 3.25  51 3.25  10 3.36  14 3.36  53 3.42  55 3.42
  47  0.558  0.558  0.418-  17 3.24   2 3.42  30 3.42  23 3.42  50 3.42
  48  0.384  0.500  0.500-   8 3.24   4 3.42  22 3.42  25 3.42  40 3.42
  49  0.616  0.500  0.500-   9 3.24   2 3.42  26 3.42  20 3.42  45 3.42
  50  0.500  0.617  0.340-  27 3.25  23 3.25  13 3.36  17 3.36  43 3.42  47 3.42
  51  0.500  0.617  0.660-  41 3.25  46 3.25  14 3.36  18 3.36  53 3.42  54 3.42
  52  0.500  0.500  0.500-
  53  0.442  0.558  0.582-  14 3.24  25 3.42  33 3.42  51 3.42  46 3.42
  54  0.558  0.558  0.582-  18 3.24  31 3.42  20 3.42  51 3.42  41 3.42
  55  0.500  0.616  0.500-  10 3.24  23 3.42  27 3.42  41 3.42  46 3.42
  56  0.688  0.563  0.524-  57 1.13  20 1.86   9 2.30
  57  0.723  0.575  0.528-  56 1.13  20 2.34   9 2.41
 
  LATTYP: Found a simple cubic cell.
 ALAT       =    30.0000000000
  
  Lattice vectors:
  
 A1 = (  30.0000000000,   0.0000000000,   0.0000000000)
 A2 = (   0.0000000000,  30.0000000000,   0.0000000000)
 A3 = (   0.0000000000,   0.0000000000,  30.0000000000)


Analysis of symmetry for initial positions (statically):
=====================================================================
 Subroutine PRICEL returns:
 Original cell was already a primitive cell.
 

 Routine SETGRP: Setting up the symmetry group for a 
 simple cubic supercell.


 Subroutine GETGRP returns: Found  1 space group operations
 (whereof  1 operations were pure point group operations)
 out of a pool of 48 trial point group operations.


The static configuration has the point symmetry C_1 .


Analysis of symmetry for dynamics (positions and initial velocities):
=====================================================================
 Subroutine PRICEL returns:
 Original cell was already a primitive cell.
 

 Routine SETGRP: Setting up the symmetry group for a 
 simple cubic supercell.


 Subroutine GETGRP returns: Found  1 space group operations
 (whereof  1 operations were pure point group operations)
 out of a pool of 48 trial point group operations.


The dynamic configuration has the point symmetry C_1 .


Analysis of constrained symmetry for selective dynamics:
=====================================================================
 Subroutine PRICEL returns:
 Original cell was already a primitive cell.
 

 Routine SETGRP: Setting up the symmetry group for a 
 simple cubic supercell.


 Subroutine GETGRP returns: Found  1 space group operations
 (whereof  1 operations were pure point group operations)
 out of a pool of 48 trial point group operations.


The constrained configuration has the point symmetry C_1 .


 Subroutine INISYM returns: Found  1 space group operations
 (whereof  1 operations are pure point group operations),
 and found     1 'primitive' translations

 
 
 KPOINTS: K-points                                

Automatic generation of k-mesh.
Space group operators:
 irot       det(A)        alpha          n_x          n_y          n_z        tau_x        tau_y        tau_z
    1     1.000000     0.000000     1.000000     0.000000     0.000000     0.000000     0.000000     0.000000
 
 Subroutine IBZKPT returns following result:
 ===========================================
 
 Found      1 irreducible k-points:
 
 Following reciprocal coordinates:
            Coordinates               Weight
  0.000000  0.000000  0.000000      1.000000
 
 Following cartesian coordinates:
            Coordinates               Weight
  0.000000  0.000000  0.000000      1.000000
 


--------------------------------------------------------------------------------------------------------




 Dimension of arrays:
   k-points           NKPTS =      1   k-points in BZ     NKDIM =      1   number of bands    NBANDS=    336
   number of dos      NEDOS =    301   number of ions     NIONS =     57
   non local maximal  LDIM  =      6   non local SUM 2l+1 LMDIM =     18
   total plane-waves  NPLWV = ******
   max r-space proj   IRMAX =   1847   max aug-charges    IRDMAX=   6262
   dimension x,y,z NGX =   150 NGY =  150 NGZ =  150
   dimension x,y,z NGXF=   300 NGYF=  300 NGZF=  300
   support grid    NGXF=   300 NGYF=  300 NGZF=  300
   ions per type =              55   1   1
   NGX,Y,Z   is equivalent  to a cutoff of   8.31,  8.31,  8.31 a.u.
   NGXF,Y,Z  is equivalent  to a cutoff of  16.62, 16.62, 16.62 a.u.

 SYSTEM =  6_Pd100_top_free_z(O)                   
 POSCAR =  Pd55PES                                 

 Startparameter for this run:
   NWRITE =      2    write-flag & timer
   PREC   = normal    normal or accurate (medium, high low for compatibility)
   ISTART =      0    job   : 0-new  1-cont  2-samecut
   ICHARG =      2    charge: 1-file 2-atom 10-const
   ISPIN  =      1    spin polarized calculation?
   LNONCOLLINEAR =      F non collinear calculations
   LSORBIT =      F    spin-orbit coupling
   INIWAV =      1    electr: 0-lowe 1-rand  2-diag
   LASPH  =      F    aspherical Exc in radial PAW
   METAGGA=      F    non-selfconsistent MetaGGA calc.

 Electronic Relaxation 1
   ENCUT  =  400.0 eV  29.40 Ry    5.42 a.u.  48.92 48.92 48.92*2*pi/ulx,y,z
   ENINI  =  400.0     initial cutoff
   ENAUG  =  644.9 eV  augmentation charge cutoff
   NELM   =    100;   NELMIN=  6; NELMDL= -5     # of ELM steps 
   EDIFF  = 0.1E-03   stopping-criterion for ELM
   LREAL  =      T    real-space projection
   NLSPLINE    = F    spline interpolate recip. space projectors
   LCOMPAT=      F    compatible to vasp.4.4
   GGA_COMPAT  = T    GGA compatible to vasp.4.4-vasp.4.6
   LMAXPAW     = -100 max onsite density
   LMAXMIX     =    2 max onsite mixed and CHGCAR
   VOSKOWN=      0    Vosko Wilk Nusair interpolation
   ROPT   =   -0.00050  -0.00050  -0.00050
 Ionic relaxation
   EDIFFG = -.5E-01   stopping-criterion for IOM
   NSW    =      0    number of steps for IOM
   NBLOCK =      1;   KBLOCK =      1    inner block; outer block 
   IBRION =     -1    ionic relax: 0-MD 1-quasi-New 2-CG
   NFREE  =      1    steps in history (QN), initial steepest desc. (CG)
   ISIF   =      2    stress and relaxation
   IWAVPR =     10    prediction:  0-non 1-charg 2-wave 3-comb
   ISYM   =      2    0-nonsym 1-usesym 2-fastsym
   LCORR  =      T    Harris-Foulkes like correction to forces

   POTIM  = 0.5000    time-step for ionic-motion
   TEIN   =    0.0    initial temperature
   TEBEG  =    0.0;   TEEND  =   0.0 temperature during run
   SMASS  =  -3.00    Nose mass-parameter (am)
   estimated Nose-frequenzy (Omega)   =  0.10E-29 period in steps =****** mass=  -0.206E-25a.u.
   SCALEE = 1.0000    scale energy and forces
   NPACO  =    256;   APACO  = 16.0  distance and # of slots for P.C.
   PSTRESS=    0.0 pullay stress

  Mass of Ions in am
   POMASS = 106.42 12.01 16.00
  Ionic Valenz
   ZVAL   =  10.00  4.00  6.00
  Atomic Wigner-Seitz radii
   RWIGS  =  -1.00 -1.00 -1.00
  virtual crystal weights 
   VCA    =   1.00  1.00  1.00
   NELECT =     560.0000    total number of electrons
   NUPDOWN=      -1.0000    fix difference up-down

 DOS related values:
   EMIN   =  10.00;   EMAX   =-10.00  energy-range for DOS
   EFERMI =   0.00
   ISMEAR =     2;   SIGMA  =   0.20  broadening in eV -4-tet -1-fermi 0-gaus

 Electronic relaxation 2 (details)
   IALGO  =     68    algorithm
   LDIAG  =      T    sub-space diagonalisation (order eigenvalues)
   LSUBROT=      F    optimize rotation matrix (better conditioning)
   TURBO    =      0    0=normal 1=particle mesh
   IRESTART =      0    0=no restart 2=restart with 2 vectors
   NREBOOT  =      0    no. of reboots
   NMIN     =      0    reboot dimension
   EREF     =   0.00    reference energy to select bands
   IMIX   =      4    mixing-type and parameters
     AMIX     =   0.40;   BMIX     =  1.00
     AMIX_MAG =   1.60;   BMIX_MAG =  1.00
     AMIN     =   0.10
     WC   =   100.;   INIMIX=   1;  MIXPRE=   1;  MAXMIX= -45

 Intra band minimization:
   WEIMIN = 0.0000     energy-eigenvalue tresh-hold
   EBREAK =  0.74E-07  absolut break condition
   DEPER  =   0.30     relativ break condition  

   TIME   =   0.40     timestep for ELM

  volume/ion in A,a.u.               =     473.68      3196.58
  Fermi-wavevector in a.u.,A,eV,Ry     =   0.449797  0.849992  2.752691  0.202317
  Thomas-Fermi vector in A             =   1.430086
 
 Write flags
   LWAVE        =      F    write WAVECAR
   LDOWNSAMPLE  =      F    k-point downsampling of WAVECAR
   LCHARG       =      F    write CHGCAR
   LVTOT        =      F    write LOCPOT, total local potential
   LVHAR        =      F    write LOCPOT, Hartree potential only
   LELF         =      F    write electronic localiz. function (ELF)
   LORBIT       =      0    0 simple, 1 ext, 2 COOP (PROOUT), +10 PAW based schemes


 Dipole corrections
   LMONO  =      F    monopole corrections only (constant potential shift)
   LDIPOL =      F    correct potential (dipole corrections)
   IDIPOL =      0    1-x, 2-y, 3-z, 4-all directions 
   EPSILON=  1.0000000 bulk dielectric constant

 Exchange correlation treatment:
   GGA     =    RP    GGA type
   LEXCH   =     9    internal setting for exchange type
   VOSKOWN=      0    Vosko Wilk Nusair interpolation
   LHFCALC =     F    Hartree Fock is set to
   LHFONE  =     F    Hartree Fock one center treatment
   AEXX    =    0.0000 exact exchange contribution

 Linear response parameters
   LEPSILON=     F    determine dielectric tensor
   LRPA    =     F    only Hartree local field effects (RPA)
   LNABLA  =     F    use nabla operator in PAW spheres
   LVEL    =     F    velocity operator in full k-point grid
   LINTERFAST=   F  fast interpolation
   KINTER  =     0    interpolate to denser k-point grid
   CSHIFT  =0.1000    complex shift for real part using Kramers Kronig
   OMEGAMAX=  -1.0    maximum frequency
   DEG_THRESHOLD= 0.2000000E-02 threshold for treating states as degnerate
   RTIME   =   -0.100 relaxation time in fs
  (WPLASMAI=    0.000 imaginary part of plasma frequency in eV, 0.658/RTIME)
   DFIELD  = 0.0000000 0.0000000 0.0000000 field for delta impulse in time
 
 Orbital magnetization related:
   ORBITALMAG=     F  switch on orbital magnetization
   LCHIMAG   =     F  perturbation theory with respect to B field
   DQ        =  0.001000  dq finite difference perturbation B field
   LLRAUG    =     F  two centre corrections for induced B field



--------------------------------------------------------------------------------------------------------


 Static calculation
 charge density and potential will be updated during run
 non-spin polarized calculation
 RMM-DIIS sequential band-by-band and
  variant of blocked Davidson during initial phase
 perform sub-space diagonalisation
    before iterative eigenvector-optimisation
 modified Broyden-mixing scheme, WC =      100.0
 initial mixing is a Kerker type mixing with AMIX =  0.4000 and BMIX =      1.0000
 Hartree-type preconditioning will be used
 using additional bands           56
 real space projection scheme for non local part
 use partial core corrections
 calculate Harris-corrections to forces 
   (improved forces if not selfconsistent)
 use gradient corrections 
 use of overlap-Matrix (Vanderbilt PP)
 Methfessel and Paxton  Order N= 2 SIGMA  =   0.20


--------------------------------------------------------------------------------------------------------


  energy-cutoff  :      400.00
  volume of cell :    27000.00
      direct lattice vectors                 reciprocal lattice vectors
    30.000000000  0.000000000  0.000000000     0.033333333  0.000000000  0.000000000
     0.000000000 30.000000000  0.000000000     0.000000000  0.033333333  0.000000000
     0.000000000  0.000000000 30.000000000     0.000000000  0.000000000  0.033333333

  length of vectors
    30.000000000 30.000000000 30.000000000     0.033333333  0.033333333  0.033333333


 
 k-points in units of 2pi/SCALE and weight: K-points                                
   0.00000000  0.00000000  0.00000000       1.000
 
 k-points in reciprocal lattice and weights: K-points                                
   0.00000000  0.00000000  0.00000000       1.000
 
 position of ions in fractional coordinates (direct lattice) 
   0.44576020  0.32826710  0.41691983
   0.67173288  0.55423978  0.41691983
   0.55423980  0.32826710  0.41691983
   0.32826712  0.55423978  0.41691983
   0.50000000  0.38250690  0.34021317
   0.50000000  0.38250690  0.65978680
   0.50000000  0.27609440  0.50000000
   0.27609443  0.49999998  0.50000000
   0.72390557  0.49999998  0.50000000
   0.50000000  0.72390555  0.50000000
   0.61195280  0.38804720  0.34167483
   0.61195280  0.38804720  0.65832513
   0.38804722  0.61195278  0.34167483
   0.38804722  0.61195278  0.65832513
   0.38804720  0.38804720  0.34167483
   0.38804720  0.38804720  0.65832513
   0.61195278  0.61195278  0.34167483
   0.61195278  0.61195278  0.65832513
   0.44576020  0.32826710  0.58308023
   0.67173288  0.55423978  0.58308023
   0.55791699  0.44208301  0.41809300
   0.32826705  0.44576024  0.41691983
   0.55423973  0.67173293  0.41691983
   0.55423980  0.32826710  0.58308023
   0.32826712  0.55423978  0.58308023
   0.67173295  0.44576024  0.41691983
   0.44576027  0.67173293  0.41691983
   0.44208301  0.44208301  0.41809300
   0.50000000  0.38416601  0.50000000
   0.61749315  0.50000005  0.34021317
   0.61749315  0.50000005  0.65978680
   0.38250685  0.50000005  0.34021317
   0.38250685  0.50000005  0.65978680
   0.38317830  0.38317830  0.50000000
   0.61682172  0.61682172  0.50000000
   0.61682170  0.38317830  0.50000000
   0.38317828  0.61682172  0.50000000
   0.50000000  0.50000000  0.33478917
   0.50000000  0.50000000  0.66521087
   0.32826705  0.44576024  0.58308023
   0.55423973  0.67173293  0.58308023
   0.55791699  0.44208301  0.58190703
   0.44208298  0.55791702  0.41809300
   0.44208301  0.44208301  0.58190703
   0.67173295  0.44576024  0.58308023
   0.44576027  0.67173293  0.58308023
   0.55791702  0.55791702  0.41809300
   0.38416599  0.50000002  0.50000000
   0.61583401  0.50000002  0.50000000
   0.50000000  0.61749319  0.34021317
   0.50000000  0.61749319  0.65978680
   0.50000000  0.50000000  0.50000000
   0.44208298  0.55791702  0.58190703
   0.55791702  0.55791702  0.58190703
   0.50000000  0.61583404  0.50000000
   0.68778870  0.56331093  0.52382407
   0.72316360  0.57523720  0.52831193
 
 position of ions in cartesian coordinates  (Angst):
  13.37280588  9.84801292 12.50759500
  20.15198637 16.62719342 12.50759500
  16.62719412  9.84801292 12.50759500
   9.84801363 16.62719342 12.50759500
  15.00000000 11.47520705 10.20639500
  15.00000000 11.47520705 19.79360400
  15.00000000  8.28283206 15.00000000
   8.28283277 14.99999929 15.00000000
  21.71716723 14.99999929 15.00000000
  15.00000000 21.71716652 14.99999999
  18.35858397 11.64141603 10.25024500
  18.35858397 11.64141603 19.74975399
  11.64141674 18.35858326 10.25024500
  11.64141674 18.35858326 19.74975400
  11.64141603 11.64141603 10.25024500
  11.64141603 11.64141603 19.74975400
  18.35858326 18.35858326 10.25024500
  18.35858326 18.35858326 19.74975400
  13.37280588  9.84801291 17.49240700
  20.15198638 16.62719341 17.49240700
  16.73750985 13.26249015 12.54279000
   9.84801151 13.37280729 12.50759500
  16.62719200 20.15198779 12.50759500
  16.62719412  9.84801292 17.49240700
   9.84801363 16.62719342 17.49240700
  20.15198849 13.37280729 12.50759500
  13.37280800 20.15198779 12.50759500
  13.26249015 13.26249015 12.54279000
  15.00000000 11.52498029 15.00000000
  18.52479437 15.00000140 10.20639500
  18.52479437 15.00000141 19.79360400
  11.47520562 15.00000141 10.20639501
  11.47520563 15.00000141 19.79360400
  11.49534898 11.49534898 15.00000000
  18.50465172 18.50465172 15.00000000
  18.50465102 11.49534898 15.00000000
  11.49534828 18.50465172 15.00000000
  15.00000000 15.00000000 10.04367500
  15.00000000 15.00000000 19.95632599
   9.84801151 13.37280729 17.49240700
  16.62719200 20.15198779 17.49240700
  16.73750985 13.26249015 17.45721100
  13.26248944 16.73751056 12.54279001
  13.26249015 13.26249015 17.45721100
  20.15198849 13.37280729 17.49240699
  13.37280800 20.15198779 17.49240700
  16.73751056 16.73751056 12.54279000
  11.52497959 15.00000071 15.00000000
  18.47502041 15.00000071 15.00000000
  14.99999999 18.52479579 10.20639500
  15.00000000 18.52479578 19.79360400
  15.00000000 15.00000000 15.00000000
  13.26248944 16.73751057 17.45721101
  16.73751056 16.73751057 17.45721100
  15.00000000 18.47502112 15.00000000
  20.63366100 16.89932800 15.71472200
  21.69490800 17.25711600 15.84935800
 


--------------------------------------------------------------------------------------------------------


 k-point  1 :   0.0000 0.0000 0.0000  plane waves:  490521

 maximum and minimum number of plane-waves per node :    490521   490521

 maximum number of plane-waves:    490521
 maximum index in each direction: 
   IXMAX=   48   IYMAX=   48   IZMAX=   48
   IXMIN=  -48   IYMIN=  -48   IZMIN=  -48


 serial   3D FFT for wavefunctions
 parallel 3D FFT for charge:
    minimum data exchange during FFTs selected (reduces bandwidth)


 total amount of memory used by VASP MPI-rank0  5486941. kBytes
=======================================================================

   base      :      30000. kBytes
   nonlr-proj:      17126. kBytes
   fftplans  :     924480. kBytes
   grid      :    1872000. kBytes
   one-center:        886. kBytes
   wavefun   :    2642449. kBytes
 
     INWAV:  cpu time    0.0001: real time    0.0005
 Broyden mixing: mesh for mixing (old mesh)
   NGX = 97   NGY = 97   NGZ = 97
  (NGX  =300   NGY  =300   NGZ  =300)
  gives a total of 912673 points

 initial charge density was supplied:
 charge density of overlapping atoms calculated
 number of electron     560.0000000 magnetization 
 keeping initial charge density in first step


--------------------------------------------------------------------------------------------------------


 Maximum index for non-local projection operator         1763
 Maximum index for augmentation-charges         5898 (set IRDMAX)


--------------------------------------------------------------------------------------------------------


 First call to EWALD:  gamma=   0.059
 Maximum number of real-space cells 3x 3x 3
 Maximum number of reciprocal cells 3x 3x 3

    FEWALD:  cpu time    0.0150: real time    0.0150


--------------------------------------- Iteration      1(   1)  ---------------------------------------


    POTLOK:  cpu time   13.5062: real time   13.5100
    SETDIJ:  cpu time    0.1149: real time    0.1149
     EDDAV:  cpu time  344.2524: real time  344.3075
       DOS:  cpu time    0.0012: real time    0.0012
    --------------------------------------------
      LOOP:  cpu time  357.8747: real time  357.9336

 eigenvalue-minimisations  :   688
 total energy-change (2. order) : 0.4398033E+04  (-0.1005544E+05)
 number of electron     560.0000000 magnetization 
 augmentation part      560.0000000 magnetization 

 Free energy of the ion-electron system (eV)
  ---------------------------------------------------
  alpha Z        PSCENC =        75.25431677
  Ewald energy   TEWEN  =    139861.74578960
  -Hartree energ DENC   =   -183212.27972456
  -exchange      EXHF   =         0.00000000
  -V(xc)+E(xc)   XCENC  =     -1701.63163193
  PAW double counting   =     44873.02882129   -41398.84523641
  entropy T*S    EENTRO =         0.01839259
  eigenvalues    EBANDS =       814.23692033
  atomic energy  EATOM  =     45086.50549395
  Solvation  Ediel_sol  =         0.00000000
  ---------------------------------------------------
  free energy    TOTEN  =      4398.03314164 eV

  energy without entropy =     4398.01474905  energy(sigma->0) =     4398.02854349


--------------------------------------------------------------------------------------------------------




--------------------------------------- Iteration      1(   2)  ---------------------------------------


     EDDAV:  cpu time  549.8971: real time  549.8979
       DOS:  cpu time    0.0012: real time    0.0012
    --------------------------------------------
      LOOP:  cpu time  549.8983: real time  549.8991

 eigenvalue-minimisations  :  1224
 total energy-change (2. order) :-0.2385450E+04  (-0.2147830E+04)
 number of electron     560.0000000 magnetization 
 augmentation part      560.0000000 magnetization 

 Free energy of the ion-electron system (eV)
  ---------------------------------------------------
  alpha Z        PSCENC =        75.25431677
  Ewald energy   TEWEN  =    139861.74578960
  -Hartree energ DENC   =   -183212.27972456
  -exchange      EXHF   =         0.00000000
  -V(xc)+E(xc)   XCENC  =     -1701.63163193
  PAW double counting   =     44873.02882129   -41398.84523641
  entropy T*S    EENTRO =        -0.02624012
  eigenvalues    EBANDS =     -1571.16883031
  atomic energy  EATOM  =     45086.50549395
  Solvation  Ediel_sol  =         0.00000000
  ---------------------------------------------------
  free energy    TOTEN  =      2012.58275829 eV

  energy without entropy =     2012.60899841  energy(sigma->0) =     2012.58931832


--------------------------------------------------------------------------------------------------------




--------------------------------------- Iteration      1(   3)  ---------------------------------------


     EDDAV:  cpu time  465.9984: real time  465.9996
       DOS:  cpu time    0.0011: real time    0.0011
    --------------------------------------------
      LOOP:  cpu time  465.9995: real time  466.0006

 eigenvalue-minimisations  :  1000
 total energy-change (2. order) :-0.1779199E+04  (-0.1673651E+04)
 number of electron     560.0000000 magnetization 
 augmentation part      560.0000000 magnetization 

 Free energy of the ion-electron system (eV)
  ---------------------------------------------------
  alpha Z        PSCENC =        75.25431677
  Ewald energy   TEWEN  =    139861.74578960
  -Hartree energ DENC   =   -183212.27972456
  -exchange      EXHF   =         0.00000000
  -V(xc)+E(xc)   XCENC  =     -1701.63163193
  PAW double counting   =     44873.02882129   -41398.84523641
  entropy T*S    EENTRO =         0.02056151
  eigenvalues    EBANDS =     -3350.41493977
  atomic energy  EATOM  =     45086.50549395
  Solvation  Ediel_sol  =         0.00000000
  ---------------------------------------------------
  free energy    TOTEN  =       233.38345046 eV

  energy without entropy =      233.36288895  energy(sigma->0) =      233.37831009


--------------------------------------------------------------------------------------------------------




--------------------------------------- Iteration      1(   4)  ---------------------------------------


     EDDAV:  cpu time  396.4749: real time  396.4739
       DOS:  cpu time    0.0012: real time    0.0012
    --------------------------------------------
      LOOP:  cpu time  396.4760: real time  396.4751

 eigenvalue-minimisations  :   824
 total energy-change (2. order) :-0.3669607E+03  (-0.3110249E+03)
 number of electron     560.0000000 magnetization 
 augmentation part      560.0000000 magnetization 

 Free energy of the ion-electron system (eV)
  ---------------------------------------------------
  alpha Z        PSCENC =        75.25431677
  Ewald energy   TEWEN  =    139861.74578960
  -Hartree energ DENC   =   -183212.27972456
  -exchange      EXHF   =         0.00000000
  -V(xc)+E(xc)   XCENC  =     -1701.63163193
  PAW double counting   =     44873.02882129   -41398.84523641
  entropy T*S    EENTRO =        -0.04824742
  eigenvalues    EBANDS =     -3717.30687499
  atomic energy  EATOM  =     45086.50549395
  Solvation  Ediel_sol  =         0.00000000
  ---------------------------------------------------
  free energy    TOTEN  =      -133.57729369 eV

  energy without entropy =     -133.52904627  energy(sigma->0) =     -133.56523183


--------------------------------------------------------------------------------------------------------




--------------------------------------- Iteration      1(   5)  ---------------------------------------


     EDDAV:  cpu time  487.6349: real time  487.6388
       DOS:  cpu time    0.0014: real time    0.0014
    CHARGE:  cpu time   24.0716: real time   24.0713
    MIXING:  cpu time    0.4183: real time    0.4183
    --------------------------------------------
      LOOP:  cpu time  512.1262: real time  512.1298

 eigenvalue-minimisations  :  1064
 total energy-change (2. order) :-0.4595216E+02  (-0.3778331E+02)
 number of electron     559.9999822 magnetization 
 augmentation part      245.0943693 magnetization 

 Broyden mixing:
  rms(total) = 0.16209E+01    rms(broyden)= 0.16201E+01
  rms(prec ) = 0.17213E+01
  weight for this iteration     100.00

 Free energy of the ion-electron system (eV)
  ---------------------------------------------------
  alpha Z        PSCENC =        75.25431677
  Ewald energy   TEWEN  =    139861.74578960
  -Hartree energ DENC   =   -183212.27972456
  -exchange      EXHF   =         0.00000000
  -V(xc)+E(xc)   XCENC  =     -1701.63163193
  PAW double counting   =     44873.02882129   -41398.84523641
  entropy T*S    EENTRO =         0.48260951
  eigenvalues    EBANDS =     -3763.78988943
  atomic energy  EATOM  =     45086.50549395
  Solvation  Ediel_sol  =         0.00000000
  ---------------------------------------------------
  free energy    TOTEN  =      -179.52945120 eV

  energy without entropy =     -180.01206071  energy(sigma->0) =     -179.65010358


--------------------------------------------------------------------------------------------------------




--------------------------------------- Iteration      1(   6)  ---------------------------------------


    POTLOK:  cpu time   12.5066: real time   12.5086
    SETDIJ:  cpu time    0.1169: real time    0.1169
    EDDIAG:  cpu time   64.6143: real time   64.6148
  RMM-DIIS:  cpu time  179.6011: real time  179.6034
    ORTHCH:  cpu time   12.8200: real time   12.8199
       DOS:  cpu time    0.0014: real time    0.0014
    CHARGE:  cpu time   24.2064: real time   24.2064
    MIXING:  cpu time    0.4386: real time    0.4386
    --------------------------------------------
      LOOP:  cpu time  294.3052: real time  294.3100

 eigenvalue-minimisations  :   731
 total energy-change (2. order) : 0.1040524E+01  (-0.5912174E+01)
 number of electron     559.9999875 magnetization 
 augmentation part      240.8132225 magnetization 

 Broyden mixing:
  rms(total) = 0.20649E+01    rms(broyden)= 0.20647E+01
  rms(prec ) = 0.23933E+01
  weight for this iteration     100.00

 eigenvalues of (default mixing * dielectric matrix)
  average eigenvalue GAMMA=   0.4007
  0.4007

 Free energy of the ion-electron system (eV)
  ---------------------------------------------------
  alpha Z        PSCENC =        75.25431677
  Ewald energy   TEWEN  =    139861.74578960
  -Hartree energ DENC   =   -183624.58731362
  -exchange      EXHF   =         0.00000000
  -V(xc)+E(xc)   XCENC  =     -1695.23484520
  PAW double counting   =     45673.41840291   -42172.78126581
  entropy T*S    EENTRO =        -0.09738596
  eigenvalues    EBANDS =     -3382.71211958
  atomic energy  EATOM  =     45086.50549395
  Solvation  Ediel_sol  =         0.00000000
  ---------------------------------------------------
  free energy    TOTEN  =      -178.48892694 eV

  energy without entropy =     -178.39154097  energy(sigma->0) =     -178.46458045


--------------------------------------------------------------------------------------------------------




--------------------------------------- Iteration      1(   7)  ---------------------------------------


    POTLOK:  cpu time   12.6458: real time   12.6478
    SETDIJ:  cpu time    0.1185: real time    0.1185
    EDDIAG:  cpu time   65.1417: real time   65.1423
  RMM-DIIS:  cpu time  205.2246: real time  205.2282
    ORTHCH:  cpu time   13.0635: real time   13.0634
       DOS:  cpu time    0.0015: real time    0.0015
    CHARGE:  cpu time   24.2166: real time   24.2166
    MIXING:  cpu time    0.4686: real time    0.4686
    --------------------------------------------
      LOOP:  cpu time  320.8807: real time  320.8868

 eigenvalue-minimisations  :   837
 total energy-change (2. order) :-0.3468151E+01  (-0.1941043E+01)
 number of electron     559.9999834 magnetization 
 augmentation part      240.4350293 magnetization 

 Broyden mixing:
  rms(total) = 0.20956E+01    rms(broyden)= 0.20953E+01
  rms(prec ) = 0.25311E+01
  weight for this iteration     100.00

 eigenvalues of (default mixing * dielectric matrix)
  average eigenvalue GAMMA=   0.4114
  0.6473  0.1755

 Free energy of the ion-electron system (eV)
  ---------------------------------------------------
  alpha Z        PSCENC =        75.25431677
  Ewald energy   TEWEN  =    139861.74578960
  -Hartree energ DENC   =   -183724.80933657
  -exchange      EXHF   =         0.00000000
  -V(xc)+E(xc)   XCENC  =     -1695.41779885
  PAW double counting   =     45768.02410137   -42264.15713924
  entropy T*S    EENTRO =        -0.20656317
  eigenvalues    EBANDS =     -3288.89594215
  atomic energy  EATOM  =     45086.50549395
  Solvation  Ediel_sol  =         0.00000000
  ---------------------------------------------------
  free energy    TOTEN  =      -181.95707827 eV

  energy without entropy =     -181.75051511  energy(sigma->0) =     -181.90543748


--------------------------------------------------------------------------------------------------------




--------------------------------------- Iteration      1(   8)  ---------------------------------------


    POTLOK:  cpu time   12.6407: real time   12.6432
    SETDIJ:  cpu time    0.1193: real time    0.1193
    EDDIAG:  cpu time   64.7685: real time   64.7692
  RMM-DIIS:  cpu time  188.6066: real time  188.6061
    ORTHCH:  cpu time   12.9391: real time   12.9391
       DOS:  cpu time    0.0014: real time    0.0014
    CHARGE:  cpu time   24.3836: real time   24.3834
    MIXING:  cpu time    0.5091: real time    0.5091
    --------------------------------------------
      LOOP:  cpu time  303.9683: real time  303.9707

 eigenvalue-minimisations  :   765
 total energy-change (2. order) :-0.3731691E+01  (-0.7986838E+00)
 number of electron     559.9999832 magnetization 
 augmentation part      239.9092390 magnetization 

 Broyden mixing:
  rms(total) = 0.33070E+01    rms(broyden)= 0.33067E+01
  rms(prec ) = 0.39321E+01
  weight for this iteration     100.00

 eigenvalues of (default mixing * dielectric matrix)
  average eigenvalue GAMMA=   0.3475
  0.7589  0.1761  0.1076

 Free energy of the ion-electron system (eV)
  ---------------------------------------------------
  alpha Z        PSCENC =        75.25431677
  Ewald energy   TEWEN  =    139861.74578960
  -Hartree energ DENC   =   -183773.14614470
  -exchange      EXHF   =         0.00000000
  -V(xc)+E(xc)   XCENC  =     -1695.41735244
  PAW double counting   =     45868.05672614   -42360.73672666
  entropy T*S    EENTRO =        -0.08950719
  eigenvalues    EBANDS =     -3247.86136507
  atomic energy  EATOM  =     45086.50549395
  Solvation  Ediel_sol  =         0.00000000
  ---------------------------------------------------
  free energy    TOTEN  =      -185.68876961 eV

  energy without entropy =     -185.59926241  energy(sigma->0) =     -185.66639281


--------------------------------------------------------------------------------------------------------




--------------------------------------- Iteration      1(   9)  ---------------------------------------


    POTLOK:  cpu time   12.6662: real time   12.6690
    SETDIJ:  cpu time    0.1179: real time    0.1179
    EDDIAG:  cpu time   65.0185: real time   65.0196
  RMM-DIIS:  cpu time  181.0852: real time  181.0872
    ORTHCH:  cpu time   12.8772: real time   12.8771
       DOS:  cpu time    0.0014: real time    0.0014
    CHARGE:  cpu time   24.3478: real time   24.3475
    MIXING:  cpu time    0.5026: real time    0.5026
    --------------------------------------------
      LOOP:  cpu time  296.6167: real time  296.6222

 eigenvalue-minimisations  :   738
 total energy-change (2. order) : 0.3773505E+01  (-0.5187772E+00)
 number of electron     559.9999777 magnetization 
 augmentation part      241.0843560 magnetization 

 Broyden mixing:
  rms(total) = 0.27108E+01    rms(broyden)= 0.27104E+01
  rms(prec ) = 0.31303E+01
  weight for this iteration     100.00

 eigenvalues of (default mixing * dielectric matrix)
  average eigenvalue GAMMA=   0.3123
  0.8434  0.1499  0.1499  0.1058

 Free energy of the ion-electron system (eV)
  ---------------------------------------------------
  alpha Z        PSCENC =        75.25431677
  Ewald energy   TEWEN  =    139861.74578960
  -Hartree energ DENC   =   -183780.23957153
  -exchange      EXHF   =         0.00000000
  -V(xc)+E(xc)   XCENC  =     -1695.41894618
  PAW double counting   =     45919.90257945   -42410.96416619
  entropy T*S    EENTRO =        -0.01261329
  eigenvalues    EBANDS =     -3238.68814738
  atomic energy  EATOM  =     45086.50549395
  Solvation  Ediel_sol  =         0.00000000
  ---------------------------------------------------
  free energy    TOTEN  =      -181.91526480 eV

  energy without entropy =     -181.90265151  energy(sigma->0) =     -181.91211147


--------------------------------------------------------------------------------------------------------




--------------------------------------- Iteration      1(  10)  ---------------------------------------


    POTLOK:  cpu time   12.4449: real time   12.4455
    SETDIJ:  cpu time    0.1163: real time    0.1163
    EDDIAG:  cpu time   64.8154: real time   64.8148
  RMM-DIIS:  cpu time  179.7768: real time  179.7790
    ORTHCH:  cpu time   12.9360: real time   12.9358
       DOS:  cpu time    0.0013: real time    0.0013
    CHARGE:  cpu time   24.2350: real time   24.2346
    MIXING:  cpu time    0.5625: real time    0.5632
    --------------------------------------------
      LOOP:  cpu time  294.8883: real time  294.8907

 eigenvalue-minimisations  :   733
 total energy-change (2. order) : 0.2356572E+01  (-0.3394723E+00)
 number of electron     559.9999813 magnetization 
 augmentation part      241.4611957 magnetization 

 Broyden mixing:
  rms(total) = 0.20437E+01    rms(broyden)= 0.20433E+01
  rms(prec ) = 0.24815E+01
  weight for this iteration     100.00

 eigenvalues of (default mixing * dielectric matrix)
  average eigenvalue GAMMA=   0.2972
  0.9237  0.1768  0.1768  0.1166  0.0924

 Free energy of the ion-electron system (eV)
  ---------------------------------------------------
  alpha Z        PSCENC =        75.25431677
  Ewald energy   TEWEN  =    139861.74578960
  -Hartree energ DENC   =   -183800.93236134
  -exchange      EXHF   =         0.00000000
  -V(xc)+E(xc)   XCENC  =     -1695.29928844
  PAW double counting   =     45964.18339596   -42453.77004203
  entropy T*S    EENTRO =        -0.04685979
  eigenvalues    EBANDS =     -3217.19913699
  atomic energy  EATOM  =     45086.50549395
  Solvation  Ediel_sol  =         0.00000000
  ---------------------------------------------------
  free energy    TOTEN  =      -179.55869230 eV

  energy without entropy =     -179.51183251  energy(sigma->0) =     -179.54697736


--------------------------------------------------------------------------------------------------------




--------------------------------------- Iteration      1(  11)  ---------------------------------------


    POTLOK:  cpu time   12.4340: real time   12.4347
    SETDIJ:  cpu time    0.1172: real time    0.1172
    EDDIAG:  cpu time   64.7860: real time   64.7856
  RMM-DIIS:  cpu time  180.5598: real time  180.5623
    ORTHCH:  cpu time   13.5672: real time   13.5715
       DOS:  cpu time    0.0015: real time    0.0015
    CHARGE:  cpu time   24.3075: real time   24.3074
    MIXING:  cpu time    0.5782: real time    0.5782
    --------------------------------------------
      LOOP:  cpu time  296.3514: real time  296.3585

 eigenvalue-minimisations  :   735
 total energy-change (2. order) : 0.1053340E+01  (-0.2156273E+00)
 number of electron     559.9999848 magnetization 
 augmentation part      241.5423462 magnetization 

 Broyden mixing:
  rms(total) = 0.20178E+01    rms(broyden)= 0.20174E+01
  rms(prec ) = 0.23695E+01
  weight for this iteration     100.00

 eigenvalues of (default mixing * dielectric matrix)
  average eigenvalue GAMMA=   0.2836
  0.9974  0.1986  0.1705  0.1705  0.0896  0.0749

 Free energy of the ion-electron system (eV)
  ---------------------------------------------------
  alpha Z        PSCENC =        75.25431677
  Ewald energy   TEWEN  =    139861.74578960
  -Hartree energ DENC   =   -183823.51226441
  -exchange      EXHF   =         0.00000000
  -V(xc)+E(xc)   XCENC  =     -1695.11493015
  PAW double counting   =     46006.25799397   -42494.26454255
  entropy T*S    EENTRO =        -0.05073144
  eigenvalues    EBANDS =     -3195.32647824
  atomic energy  EATOM  =     45086.50549395
  Solvation  Ediel_sol  =         0.00000000
  ---------------------------------------------------
  free energy    TOTEN  =      -178.50535248 eV

  energy without entropy =     -178.45462105  energy(sigma->0) =     -178.49266962


--------------------------------------------------------------------------------------------------------




--------------------------------------- Iteration      1(  12)  ---------------------------------------


    POTLOK:  cpu time   12.4973: real time   12.4979
    SETDIJ:  cpu time    0.1184: real time    0.1184
    EDDIAG:  cpu time   64.9384: real time   64.9389
  RMM-DIIS:  cpu time  175.5065: real time  175.5069
    ORTHCH:  cpu time   12.9521: real time   12.9521
       DOS:  cpu time    0.0015: real time    0.0015
    CHARGE:  cpu time   24.3208: real time   24.3207
    MIXING:  cpu time    0.6117: real time    0.6117
    --------------------------------------------
      LOOP:  cpu time  290.9467: real time  290.9481

 eigenvalue-minimisations  :   712
 total energy-change (2. order) : 0.1940383E+01  (-0.1981643E+00)
 number of electron     559.9999836 magnetization 
 augmentation part      241.7726326 magnetization 

 Broyden mixing:
  rms(total) = 0.14471E+01    rms(broyden)= 0.14467E+01
  rms(prec ) = 0.17173E+01
  weight for this iteration     100.00

 eigenvalues of (default mixing * dielectric matrix)
  average eigenvalue GAMMA=   0.2811
  1.0421  0.2553  0.2553  0.1328  0.1328  0.0749  0.0749

 Free energy of the ion-electron system (eV)
  ---------------------------------------------------
  alpha Z        PSCENC =        75.25431677
  Ewald energy   TEWEN  =    139861.74578960
  -Hartree energ DENC   =   -183843.52760572
  -exchange      EXHF   =         0.00000000
  -V(xc)+E(xc)   XCENC  =     -1694.87600491
  PAW double counting   =     46047.60648519   -42534.02098114
  entropy T*S    EENTRO =         0.00189523
  eigenvalues    EBANDS =     -3175.25435821
  atomic energy  EATOM  =     45086.50549395
  Solvation  Ediel_sol  =         0.00000000
  ---------------------------------------------------
  free energy    TOTEN  =      -176.56496924 eV

  energy without entropy =     -176.56686446  energy(sigma->0) =     -176.56544304


--------------------------------------------------------------------------------------------------------




--------------------------------------- Iteration      1(  13)  ---------------------------------------


    POTLOK:  cpu time   12.5544: real time   12.5550
    SETDIJ:  cpu time    0.1197: real time    0.1197
    EDDIAG:  cpu time   65.3056: real time   65.3059
  RMM-DIIS:  cpu time  179.5728: real time  179.5729
    ORTHCH:  cpu time   13.0691: real time   13.0689
       DOS:  cpu time    0.0015: real time    0.0015
    CHARGE:  cpu time   24.3097: real time   24.3094
    MIXING:  cpu time    0.6425: real time    0.6425
    --------------------------------------------
      LOOP:  cpu time  295.5754: real time  295.5759

 eigenvalue-minimisations  :   728
 total energy-change (2. order) : 0.8862457E-01  (-0.1146594E+00)
 number of electron     559.9999826 magnetization 
 augmentation part      241.7283323 magnetization 

 Broyden mixing:
  rms(total) = 0.17942E+01    rms(broyden)= 0.17939E+01
  rms(prec ) = 0.22012E+01
  weight for this iteration     100.00

 eigenvalues of (default mixing * dielectric matrix)
  average eigenvalue GAMMA=   0.2829
  1.0990  0.3321  0.3321  0.1402  0.1402  0.0796  0.0796  0.0601

 Free energy of the ion-electron system (eV)
  ---------------------------------------------------
  alpha Z        PSCENC =        75.25431677
  Ewald energy   TEWEN  =    139861.74578960
  -Hartree energ DENC   =   -183865.74248558
  -exchange      EXHF   =         0.00000000
  -V(xc)+E(xc)   XCENC  =     -1694.62664682
  PAW double counting   =     46082.21688516   -42567.14964640
  entropy T*S    EENTRO =         0.01792388
  eigenvalues    EBANDS =     -3154.69797523
  atomic energy  EATOM  =     45086.50549395
  Solvation  Ediel_sol  =         0.00000000
  ---------------------------------------------------
  free energy    TOTEN  =      -176.47634467 eV

  energy without entropy =     -176.49426855  energy(sigma->0) =     -176.48082564


--------------------------------------------------------------------------------------------------------




--------------------------------------- Iteration      1(  14)  ---------------------------------------


    POTLOK:  cpu time   12.4682: real time   12.4688
    SETDIJ:  cpu time    0.1202: real time    0.1202
    EDDIAG:  cpu time   65.1147: real time   65.1143
  RMM-DIIS:  cpu time  177.2978: real time  177.2989
    ORTHCH:  cpu time   13.0327: real time   13.0326
       DOS:  cpu time    0.0015: real time    0.0015
    CHARGE:  cpu time   24.3270: real time   24.3267
    MIXING:  cpu time    0.6800: real time    0.6800
    --------------------------------------------
      LOOP:  cpu time  293.0422: real time  293.0430

 eigenvalue-minimisations  :   721
 total energy-change (2. order) : 0.1583366E+00  (-0.1048503E+00)
 number of electron     559.9999834 magnetization 
 augmentation part      241.6048552 magnetization 

 Broyden mixing:
  rms(total) = 0.23217E+01    rms(broyden)= 0.23214E+01
  rms(prec ) = 0.26710E+01
  weight for this iteration     100.00

 eigenvalues of (default mixing * dielectric matrix)
  average eigenvalue GAMMA=   0.3054
  1.2934  0.5904  0.2752  0.1490  0.1490  0.0852  0.0852  0.0676  0.0536

 Free energy of the ion-electron system (eV)
  ---------------------------------------------------
  alpha Z        PSCENC =        75.25431677
  Ewald energy   TEWEN  =    139861.74578960
  -Hartree energ DENC   =   -183892.43575122
  -exchange      EXHF   =         0.00000000
  -V(xc)+E(xc)   XCENC  =     -1694.30248427
  PAW double counting   =     46122.39164641   -42605.53835004
  entropy T*S    EENTRO =         0.07100680
  eigenvalues    EBANDS =     -3130.00967603
  atomic energy  EATOM  =     45086.50549395
  Solvation  Ediel_sol  =         0.00000000
  ---------------------------------------------------
  free energy    TOTEN  =      -176.31800802 eV

  energy without entropy =     -176.38901482  energy(sigma->0) =     -176.33575972


--------------------------------------------------------------------------------------------------------




--------------------------------------- Iteration      1(  15)  ---------------------------------------


    POTLOK:  cpu time   12.4934: real time   12.4938
    SETDIJ:  cpu time    0.1165: real time    0.1165
    EDDIAG:  cpu time   64.9894: real time   64.9893
  RMM-DIIS:  cpu time  171.0154: real time  171.0168
    ORTHCH:  cpu time   13.0729: real time   13.0727
       DOS:  cpu time    0.0015: real time    0.0015
    CHARGE:  cpu time   24.1785: real time   24.1782
    MIXING:  cpu time    0.7284: real time    0.7284
    --------------------------------------------
      LOOP:  cpu time  286.5961: real time  286.5971

 eigenvalue-minimisations  :   700
 total energy-change (2. order) : 0.5585723E+00  (-0.1757757E+00)
 number of electron     559.9999850 magnetization 
 augmentation part      241.4060110 magnetization 

 Broyden mixing:
  rms(total) = 0.12080E+01    rms(broyden)= 0.12076E+01
  rms(prec ) = 0.13584E+01
  weight for this iteration     100.00

 eigenvalues of (default mixing * dielectric matrix)
  average eigenvalue GAMMA=   0.3222
  1.5213  0.7117  0.1547  0.1547  0.2095  0.1754  0.0839  0.0839  0.0740  0.0533

 Free energy of the ion-electron system (eV)
  ---------------------------------------------------
  alpha Z        PSCENC =        75.25431677
  Ewald energy   TEWEN  =    139861.74578960
  -Hartree energ DENC   =   -183930.76484768
  -exchange      EXHF   =         0.00000000
  -V(xc)+E(xc)   XCENC  =     -1693.68345890
  PAW double counting   =     46195.23716783   -42675.26719453
  entropy T*S    EENTRO =        -0.08444726
  eigenvalues    EBANDS =     -3094.70225553
  atomic energy  EATOM  =     45086.50549395
  Solvation  Ediel_sol  =         0.00000000
  ---------------------------------------------------
  free energy    TOTEN  =      -175.75943574 eV

  energy without entropy =     -175.67498848  energy(sigma->0) =     -175.73832393


--------------------------------------------------------------------------------------------------------




--------------------------------------- Iteration      1(  16)  ---------------------------------------


    POTLOK:  cpu time   12.5035: real time   12.5039
    SETDIJ:  cpu time    0.1162: real time    0.1162
    EDDIAG:  cpu time   64.9275: real time   64.9271
  RMM-DIIS:  cpu time  172.8848: real time  172.8837
    ORTHCH:  cpu time   12.9559: real time   12.9558
       DOS:  cpu time    0.0013: real time    0.0013
    CHARGE:  cpu time   24.2464: real time   24.2461
    MIXING:  cpu time    0.7723: real time    0.7723
    --------------------------------------------
      LOOP:  cpu time  288.4080: real time  288.4065

 eigenvalue-minimisations  :   708
 total energy-change (2. order) : 0.3596805E+00  (-0.1053618E+00)
 number of electron     559.9999855 magnetization 
 augmentation part      241.1783213 magnetization 

 Broyden mixing:
  rms(total) = 0.13717E+01    rms(broyden)= 0.13714E+01
  rms(prec ) = 0.16299E+01
  weight for this iteration     100.00

 eigenvalues of (default mixing * dielectric matrix)
  average eigenvalue GAMMA=   0.3239
  1.6282  0.7353  0.2616  0.2616  0.1405  0.1405  0.0944  0.0944  0.0768  0.0768
  0.0529

 Free energy of the ion-electron system (eV)
  ---------------------------------------------------
  alpha Z        PSCENC =        75.25431677
  Ewald energy   TEWEN  =    139861.74578960
  -Hartree energ DENC   =   -183975.58064604
  -exchange      EXHF   =         0.00000000
  -V(xc)+E(xc)   XCENC  =     -1693.10445494
  PAW double counting   =     46260.55880475   -42737.64416971
  entropy T*S    EENTRO =         0.08529820
  eigenvalues    EBANDS =     -3053.22018785
  atomic energy  EATOM  =     45086.50549395
  Solvation  Ediel_sol  =         0.00000000
  ---------------------------------------------------
  free energy    TOTEN  =      -175.39975527 eV

  energy without entropy =     -175.48505347  energy(sigma->0) =     -175.42107982


--------------------------------------------------------------------------------------------------------




--------------------------------------- Iteration      1(  17)  ---------------------------------------


    POTLOK:  cpu time   12.5366: real time   12.5372
    SETDIJ:  cpu time    0.1174: real time    0.1174
    EDDIAG:  cpu time   64.9272: real time   64.9268
  RMM-DIIS:  cpu time  174.5399: real time  174.5401
    ORTHCH:  cpu time   13.1598: real time   13.1596
       DOS:  cpu time    0.0015: real time    0.0015
    CHARGE:  cpu time   24.4898: real time   24.4898
    MIXING:  cpu time    0.8219: real time    0.8219
    --------------------------------------------
      LOOP:  cpu time  290.5940: real time  290.5943

 eigenvalue-minimisations  :   712
 total energy-change (2. order) :-0.1075684E+00  (-0.4729649E-01)
 number of electron     559.9999848 magnetization 
 augmentation part      241.1960220 magnetization 

 Broyden mixing:
  rms(total) = 0.15683E+01    rms(broyden)= 0.15682E+01
  rms(prec ) = 0.18732E+01
  weight for this iteration     100.00

 eigenvalues of (default mixing * dielectric matrix)
  average eigenvalue GAMMA=   0.3251
  1.7155  0.7880  0.3223  0.3223  0.1452  0.1452  0.0962  0.0962  0.0813  0.0813
  0.0582  0.0500

 Free energy of the ion-electron system (eV)
  ---------------------------------------------------
  alpha Z        PSCENC =        75.25431677
  Ewald energy   TEWEN  =    139861.74578960
  -Hartree energ DENC   =   -183986.80092857
  -exchange      EXHF   =         0.00000000
  -V(xc)+E(xc)   XCENC  =     -1692.93507433
  PAW double counting   =     46277.13429509   -42753.29817789
  entropy T*S    EENTRO =         0.15967022
  eigenvalues    EBANDS =     -3043.27270848
  atomic energy  EATOM  =     45086.50549395
  Solvation  Ediel_sol  =         0.00000000
  ---------------------------------------------------
  free energy    TOTEN  =      -175.50732363 eV

  energy without entropy =     -175.66699385  energy(sigma->0) =     -175.54724118


--------------------------------------------------------------------------------------------------------




--------------------------------------- Iteration      1(  18)  ---------------------------------------


    POTLOK:  cpu time   12.5607: real time   12.5613
    SETDIJ:  cpu time    0.1198: real time    0.1198
    EDDIAG:  cpu time   65.4609: real time   65.4606
  RMM-DIIS:  cpu time  175.5746: real time  175.5772
    ORTHCH:  cpu time   13.0753: real time   13.0751
       DOS:  cpu time    0.0015: real time    0.0015
    CHARGE:  cpu time   24.3339: real time   24.3336
    MIXING:  cpu time    0.8601: real time    0.8601
    --------------------------------------------
      LOOP:  cpu time  291.9868: real time  291.9892

 eigenvalue-minimisations  :   712
 total energy-change (2. order) : 0.4537192E+00  (-0.4110126E-01)
 number of electron     559.9999845 magnetization 
 augmentation part      241.1660392 magnetization 

 Broyden mixing:
  rms(total) = 0.97482E+00    rms(broyden)= 0.97458E+00
  rms(prec ) = 0.11142E+01
  weight for this iteration     100.00

 eigenvalues of (default mixing * dielectric matrix)
  average eigenvalue GAMMA=   0.3335
  1.8336  0.8937  0.3681  0.3681  0.1486  0.1486  0.1109  0.1034  0.1034  0.0746
  0.0746  0.0596  0.0487

 Free energy of the ion-electron system (eV)
  ---------------------------------------------------
  alpha Z        PSCENC =        75.25431677
  Ewald energy   TEWEN  =    139861.74578960
  -Hartree energ DENC   =   -184003.65213858
  -exchange      EXHF   =         0.00000000
  -V(xc)+E(xc)   XCENC  =     -1692.74597069
  PAW double counting   =     46292.38286555   -42767.53769498
  entropy T*S    EENTRO =         0.02987836
  eigenvalues    EBANDS =     -3027.03614442
  atomic energy  EATOM  =     45086.50549395
  Solvation  Ediel_sol  =         0.00000000
  ---------------------------------------------------
  free energy    TOTEN  =      -175.05360445 eV

  energy without entropy =     -175.08348280  energy(sigma->0) =     -175.06107403


--------------------------------------------------------------------------------------------------------




--------------------------------------- Iteration      1(  19)  ---------------------------------------


    POTLOK:  cpu time   12.3775: real time   12.3782
    SETDIJ:  cpu time    0.1154: real time    0.1154
    EDDIAG:  cpu time   65.2472: real time   65.2498
  RMM-DIIS:  cpu time  171.0315: real time  171.0345
    ORTHCH:  cpu time   13.0539: real time   13.0539
       DOS:  cpu time    0.0015: real time    0.0015
    CHARGE:  cpu time   24.4254: real time   24.4253
    MIXING:  cpu time    0.9073: real time    0.9073
    --------------------------------------------
      LOOP:  cpu time  287.1597: real time  287.1659

 eigenvalue-minimisations  :   695
 total energy-change (2. order) : 0.2889792E+00  (-0.3989026E-01)
 number of electron     559.9999827 magnetization 
 augmentation part      241.2268082 magnetization 

 Broyden mixing:
  rms(total) = 0.85091E+00    rms(broyden)= 0.85071E+00
  rms(prec ) = 0.99694E+00
  weight for this iteration     100.00

 eigenvalues of (default mixing * dielectric matrix)
  average eigenvalue GAMMA=   0.3343
  1.9218  0.9677  0.3844  0.3844  0.1487  0.1487  0.1339  0.1339  0.1012  0.1012
  0.0749  0.0749  0.0562  0.0482

 Free energy of the ion-electron system (eV)
  ---------------------------------------------------
  alpha Z        PSCENC =        75.25431677
  Ewald energy   TEWEN  =    139861.74578960
  -Hartree energ DENC   =   -184026.17175399
  -exchange      EXHF   =         0.00000000
  -V(xc)+E(xc)   XCENC  =     -1692.49056361
  PAW double counting   =     46308.77819286   -42782.63384021
  entropy T*S    EENTRO =        -0.00283480
  eigenvalues    EBANDS =     -3005.74942585
  atomic energy  EATOM  =     45086.50549395
  Solvation  Ediel_sol  =         0.00000000
  ---------------------------------------------------
  free energy    TOTEN  =      -174.76462528 eV

  energy without entropy =     -174.76179048  energy(sigma->0) =     -174.76391658


--------------------------------------------------------------------------------------------------------




--------------------------------------- Iteration      1(  20)  ---------------------------------------


    POTLOK:  cpu time   12.4568: real time   12.4575
    SETDIJ:  cpu time    0.1163: real time    0.1163
    EDDIAG:  cpu time   65.2186: real time   65.2184
  RMM-DIIS:  cpu time  173.6357: real time  173.6362
    ORTHCH:  cpu time   13.4346: real time   13.4344
       DOS:  cpu time    0.0015: real time    0.0015
    CHARGE:  cpu time   25.2895: real time   25.2892
    MIXING:  cpu time    1.0497: real time    1.0497
    --------------------------------------------
      LOOP:  cpu time  291.2027: real time  291.2031

 eigenvalue-minimisations  :   695
 total energy-change (2. order) : 0.8749219E-01  (-0.2596139E-01)
 number of electron     559.9999837 magnetization 
 augmentation part      241.2138737 magnetization 

 Broyden mixing:
  rms(total) = 0.82121E+00    rms(broyden)= 0.82104E+00
  rms(prec ) = 0.94876E+00
  weight for this iteration     100.00

 eigenvalues of (default mixing * dielectric matrix)
  average eigenvalue GAMMA=   0.3363
  1.9756  1.0444  0.4237  0.3094  0.3094  0.1458  0.1458  0.1539  0.0971  0.0971
  0.0924  0.0728  0.0728  0.0565  0.0481

 Free energy of the ion-electron system (eV)
  ---------------------------------------------------
  alpha Z        PSCENC =        75.25431677
  Ewald energy   TEWEN  =    139861.74578960
  -Hartree energ DENC   =   -184042.54347495
  -exchange      EXHF   =         0.00000000
  -V(xc)+E(xc)   XCENC  =     -1692.29065616
  PAW double counting   =     46318.06312183   -42790.94922759
  entropy T*S    EENTRO =         0.02306689
  eigenvalues    EBANDS =     -2990.48556344
  atomic energy  EATOM  =     45086.50549395
  Solvation  Ediel_sol  =         0.00000000
  ---------------------------------------------------
  free energy    TOTEN  =      -174.67713309 eV

  energy without entropy =     -174.70019998  energy(sigma->0) =     -174.68289981


--------------------------------------------------------------------------------------------------------




--------------------------------------- Iteration      1(  21)  ---------------------------------------


    POTLOK:  cpu time   12.9006: real time   12.9010
    SETDIJ:  cpu time    0.1199: real time    0.1199
    EDDIAG:  cpu time   66.7232: real time   66.7270
  RMM-DIIS:  cpu time  177.7119: real time  177.7118
    ORTHCH:  cpu time   13.4962: real time   13.4960
       DOS:  cpu time    0.0015: real time    0.0015
    CHARGE:  cpu time   25.2509: real time   25.2506
    MIXING:  cpu time    1.0334: real time    1.0333
    --------------------------------------------
      LOOP:  cpu time  297.2375: real time  297.2412

 eigenvalue-minimisations  :   695
 total energy-change (2. order) : 0.1232844E+00  (-0.1941964E-01)
 number of electron     559.9999833 magnetization 
 augmentation part      241.1341180 magnetization 

 Broyden mixing:
  rms(total) = 0.64862E+00    rms(broyden)= 0.64845E+00
  rms(prec ) = 0.74046E+00
  weight for this iteration     100.00

 eigenvalues of (default mixing * dielectric matrix)
  average eigenvalue GAMMA=   0.3410
  2.0098  1.0568  0.6134  0.3457  0.3457  0.1469  0.1469  0.1378  0.1261  0.1002
  0.1002  0.0743  0.0743  0.0731  0.0562  0.0481

 Free energy of the ion-electron system (eV)
  ---------------------------------------------------
  alpha Z        PSCENC =        75.25431677
  Ewald energy   TEWEN  =    139861.74578960
  -Hartree energ DENC   =   -184059.73555392
  -exchange      EXHF   =         0.00000000
  -V(xc)+E(xc)   XCENC  =     -1692.10154819
  PAW double counting   =     46322.48585923   -42794.60986964
  entropy T*S    EENTRO =         0.00007057
  eigenvalues    EBANDS =     -2974.09840702
  atomic energy  EATOM  =     45086.50549395
  Solvation  Ediel_sol  =         0.00000000
  ---------------------------------------------------
  free energy    TOTEN  =      -174.55384865 eV

  energy without entropy =     -174.55391922  energy(sigma->0) =     -174.55386629


--------------------------------------------------------------------------------------------------------




--------------------------------------- Iteration      1(  22)  ---------------------------------------


    POTLOK:  cpu time   12.8621: real time   12.8628
    SETDIJ:  cpu time    0.1221: real time    0.1221
    EDDIAG:  cpu time   66.6681: real time   66.6677
  RMM-DIIS:  cpu time  176.6640: real time  176.6690
    ORTHCH:  cpu time   13.3643: real time   13.3641
       DOS:  cpu time    0.0015: real time    0.0015
    CHARGE:  cpu time   24.9525: real time   24.9522
    MIXING:  cpu time    1.1956: real time    1.1956
    --------------------------------------------
      LOOP:  cpu time  295.8303: real time  295.8350

 eigenvalue-minimisations  :   693
 total energy-change (2. order) : 0.1164951E+00  (-0.1493053E-01)
 number of electron     559.9999845 magnetization 
 augmentation part      241.1670451 magnetization 

 Broyden mixing:
  rms(total) = 0.57023E+00    rms(broyden)= 0.57009E+00
  rms(prec ) = 0.65514E+00
  weight for this iteration     100.00

 eigenvalues of (default mixing * dielectric matrix)
  average eigenvalue GAMMA=   0.3462
  2.0584  1.0412  0.8296  0.3528  0.3528  0.1969  0.1473  0.1473  0.1235  0.1235
  0.0967  0.0967  0.0749  0.0749  0.0651  0.0564  0.0482

 Free energy of the ion-electron system (eV)
  ---------------------------------------------------
  alpha Z        PSCENC =        75.25431677
  Ewald energy   TEWEN  =    139861.74578960
  -Hartree energ DENC   =   -184070.08614618
  -exchange      EXHF   =         0.00000000
  -V(xc)+E(xc)   XCENC  =     -1691.96090328
  PAW double counting   =     46322.15870553   -42793.77765763
  entropy T*S    EENTRO =        -0.01030551
  eigenvalues    EBANDS =     -2964.26664676
  atomic energy  EATOM  =     45086.50549395
  Solvation  Ediel_sol  =         0.00000000
  ---------------------------------------------------
  free energy    TOTEN  =      -174.43735351 eV

  energy without entropy =     -174.42704800  energy(sigma->0) =     -174.43477713


--------------------------------------------------------------------------------------------------------




--------------------------------------- Iteration      1(  23)  ---------------------------------------


    POTLOK:  cpu time   13.0759: real time   13.0765
    SETDIJ:  cpu time    0.1184: real time    0.1184
    EDDIAG:  cpu time   66.2568: real time   66.2589
  RMM-DIIS:  cpu time  176.3707: real time  176.3724
    ORTHCH:  cpu time   13.3393: real time   13.3392
       DOS:  cpu time    0.0016: real time    0.0016
    CHARGE:  cpu time   25.0302: real time   25.0299
    MIXING:  cpu time    1.1630: real time    1.1630
    --------------------------------------------
      LOOP:  cpu time  295.3560: real time  295.3599

 eigenvalue-minimisations  :   697
 total energy-change (2. order) : 0.1611246E-01  (-0.1294698E-01)
 number of electron     559.9999839 magnetization 
 augmentation part      241.1681022 magnetization 

 Broyden mixing:
  rms(total) = 0.61270E+00    rms(broyden)= 0.61256E+00
  rms(prec ) = 0.71031E+00
  weight for this iteration     100.00

 eigenvalues of (default mixing * dielectric matrix)
  average eigenvalue GAMMA=   0.3461
[...]
 -0.007  -0.012   0.004   0.004   0.005  -0.006  -0.012   0.004
 -0.011  -0.020   0.006   0.007   0.009  -0.011  -0.020   0.006
 -0.015  -0.005   0.012   0.000   0.022  -0.014  -0.005   0.012
  0.000  -0.023  -0.006  -0.015  -0.000   0.000  -0.022  -0.006
 -0.022   0.000   0.009  -0.005  -0.016  -0.021   0.000   0.008
 -0.017  -0.006   0.015   0.000   0.027  -0.017  -0.006   0.015
  0.000  -0.027  -0.007  -0.018   0.000   0.000  -0.026  -0.007
 -0.027   0.000   0.010  -0.006  -0.019  -0.026   0.000   0.010
 total augmentation occupancy for first ion, spin component:           1
  1.538  -0.029   0.003   0.017   0.022   0.076  -0.008  -0.002   0.035  -0.009   0.097  -0.033   0.011   0.002   0.003  -0.019
 -0.029   1.404   0.031   0.070   0.001  -0.007   0.070   0.011  -0.014  -0.008   0.217  -0.065   0.019   0.001   0.002  -0.006
  0.003   0.031   1.544   0.003   0.001  -0.002   0.012   0.073  -0.013   0.017  -0.056   0.018  -0.003  -0.007  -0.005   0.016
  0.017   0.070   0.003   1.339   0.044   0.033  -0.013  -0.012   0.091  -0.023  -0.082   0.021  -0.001  -0.009  -0.004   0.001
  0.022   0.001   0.001   0.044   1.439  -0.010  -0.009   0.016  -0.022   0.067  -0.092   0.030  -0.003  -0.010  -0.009   0.026
  0.076  -0.007  -0.002   0.033  -0.010   0.217   0.019  -0.002  -0.045   0.003  -0.048   0.002   0.017  -0.010   0.034  -0.004
 -0.008   0.070   0.012  -0.013  -0.009   0.019   0.262  -0.023  -0.003   0.006  -0.109   0.007  -0.001   0.051  -0.010  -0.000
 -0.002   0.011   0.073  -0.012   0.016  -0.002  -0.023   0.215   0.014  -0.020   0.028  -0.001  -0.012   0.009  -0.018   0.003
  0.035  -0.014  -0.013   0.091  -0.022  -0.045  -0.003   0.014   0.260   0.007   0.044  -0.004  -0.009   0.036   0.004   0.000
 -0.009  -0.008   0.017  -0.023   0.067   0.003   0.006  -0.020   0.007   0.258   0.047  -0.003  -0.038   0.002   0.049   0.007
  0.097   0.217  -0.056  -0.082  -0.092  -0.048  -0.109   0.028   0.044   0.047   0.953  -0.141   0.084   0.014   0.064  -0.013
 -0.033  -0.065   0.018   0.021   0.030   0.002   0.007  -0.001  -0.004  -0.003  -0.141   0.023  -0.014  -0.003  -0.010   0.003
  0.011   0.019  -0.003  -0.001  -0.003   0.017  -0.001  -0.012  -0.009  -0.038   0.084  -0.014   0.029  -0.008  -0.004  -0.003
  0.002   0.001  -0.007  -0.009  -0.010  -0.010   0.051   0.009   0.036   0.002   0.014  -0.003  -0.008   0.036   0.005   0.000
  0.003   0.002  -0.005  -0.004  -0.009   0.034  -0.010  -0.018   0.004   0.049   0.064  -0.010  -0.004   0.005   0.034  -0.000
 -0.019  -0.006   0.016   0.001   0.026  -0.004  -0.000   0.003   0.000   0.007  -0.013   0.003  -0.003   0.000  -0.000   0.001
  0.001  -0.028  -0.007  -0.018   0.001   0.001  -0.008  -0.002  -0.006  -0.000  -0.003   0.001   0.000  -0.003  -0.000   0.000
 -0.028   0.001   0.012  -0.005  -0.019  -0.006   0.001   0.003  -0.001  -0.007  -0.008   0.001  -0.000  -0.000  -0.003   0.000


------------------------ aborting loop because EDIFF is reached ----------------------------------------


    CHARGE:  cpu time   25.0546: real time   25.0544
    FORLOC:  cpu time    6.7445: real time    6.7444
    FORNL :  cpu time   64.4976: real time   64.4972
    STRESS:  cpu time  199.7793: real time  199.7817
    FORCOR:  cpu time   22.1450: real time   22.1450
    FORHAR:  cpu time    9.8050: real time    9.8050
    MIXING:  cpu time    3.6414: real time    3.6414
    OFIELD:  cpu time    0.0000: real time    0.0000

  FORCE on cell =-STRESS in cart. coord.  units (eV):
  Direction    XX          YY          ZZ          XY          YZ          ZX
  --------------------------------------------------------------------------------------
  Alpha Z    75.25432    75.25432    75.25432
  Ewald   49111.52383 45445.95160 45304.16450   988.91253   205.39683   215.46005
  Hartree 63785.50612 60315.32164 60124.85336   924.94068   182.65873   247.30924
  E(xc)   -2905.80739 -2906.28977 -2906.46631     0.15169     0.08620    -0.00573
  Local  ************************************ -1905.81731  -386.69623  -461.28091
  n-local  -892.32481  -886.13397  -877.38379    -3.19051    -2.17631    -2.63664
  augment  4105.23715  4104.33673  4100.89711     0.94340     0.75210     0.28698
  Kinetic  7807.01876  7816.90104  7812.61314    -0.96130    -0.00587    -0.83551
  Fock        0.00000     0.00000     0.00000     0.00000     0.00000     0.00000
  -------------------------------------------------------------------------------------
  Total    -103.56015  -111.57835  -108.38107     4.97918     0.01544    -1.70252
  in kB      -6.14525    -6.62105    -6.43132     0.29546     0.00092    -0.10103
  external pressure =       -6.40 kB  Pullay stress =        0.00 kB


 VOLUME and BASIS-vectors are now :
 -----------------------------------------------------------------------------
  energy-cutoff  :      400.00
  volume of cell :    27000.00
      direct lattice vectors                 reciprocal lattice vectors
    30.000000000  0.000000000  0.000000000     0.033333333  0.000000000  0.000000000
     0.000000000 30.000000000  0.000000000     0.000000000  0.033333333  0.000000000
     0.000000000  0.000000000 30.000000000     0.000000000  0.000000000  0.033333333

  length of vectors
    30.000000000 30.000000000 30.000000000     0.033333333  0.033333333  0.033333333


 FORCES acting on ions
    electron-ion (+dipol)            ewald-force                    non-local-force                 convergence-correction
 -----------------------------------------------------------------------------------------------
   0.400E+03 0.976E+03 0.419E+03   -.398E+03 -.973E+03 -.418E+03   -.149E+01 -.182E+01 -.224E+00   -.117E-01 0.713E-02 -.126E-02
   -.937E+03 -.379E+03 0.523E+03   0.934E+03 0.376E+03 -.523E+03   0.184E+01 0.141E+01 0.127E+00   -.229E-02 0.527E-02 0.548E-02
   -.386E+03 0.982E+03 0.421E+03   0.384E+03 -.979E+03 -.421E+03   0.150E+01 -.180E+01 -.227E+00   -.127E-03 0.178E-02 0.194E-02
   0.976E+03 -.393E+03 0.418E+03   -.973E+03 0.391E+03 -.418E+03   -.184E+01 0.150E+01 -.232E+00   0.143E-01 0.475E-02 -.334E-02
   0.752E+01 0.592E+03 0.970E+03   -.755E+01 -.592E+03 -.967E+03   0.246E-01 -.298E+00 -.235E+01   -.108E-01 0.166E-01 -.819E-02
   0.979E+01 0.594E+03 -.970E+03   -.984E+01 -.594E+03 0.966E+03   0.207E-01 -.301E+00 0.234E+01   0.105E-01 0.124E-01 0.520E-02
   0.602E+01 0.114E+04 0.803E+00   -.602E+01 -.114E+04 -.808E+00   0.235E-02 -.311E+01 0.203E-02   -.892E-03 -.516E-02 0.177E-02
   0.114E+04 0.137E+01 0.532E+00   -.113E+04 -.135E+01 -.513E+00   -.311E+01 -.167E-01 -.577E-02   0.966E-02 0.935E-02 -.950E-02
   -.118E+04 0.229E+03 0.858E+02   0.118E+04 -.228E+03 -.860E+02   0.305E+01 -.708E+00 -.887E-01   -.229E-02 0.466E-02 0.641E-02
   0.174E+02 -.115E+04 0.225E+01   -.174E+02 0.114E+04 -.226E+01   -.384E-02 0.312E+01 0.221E-03   -.277E-02 -.116E-01 0.325E-02
   -.571E+03 0.590E+03 0.824E+03   0.568E+03 -.588E+03 -.821E+03   0.151E+01 -.157E+01 -.220E+01   0.361E-02 0.750E-02 -.711E-02
   -.567E+03 0.596E+03 -.825E+03   0.565E+03 -.594E+03 0.822E+03   0.150E+01 -.157E+01 0.224E+01   0.477E-02 0.118E-01 0.234E-02
   0.585E+03 -.579E+03 0.816E+03   -.583E+03 0.576E+03 -.813E+03   -.156E+01 0.156E+01 -.220E+01   0.573E-03 -.914E-02 0.102E-01
   0.587E+03 -.579E+03 -.816E+03   -.585E+03 0.577E+03 0.813E+03   -.156E+01 0.156E+01 0.220E+01   0.783E-02 0.186E-02 -.121E-01
   0.583E+03 0.581E+03 0.815E+03   -.580E+03 -.579E+03 -.812E+03   -.157E+01 -.156E+01 -.220E+01   -.703E-02 0.159E-01 -.152E-02
   0.584E+03 0.582E+03 -.815E+03   -.581E+03 -.579E+03 0.811E+03   -.156E+01 -.156E+01 0.220E+01   0.216E-03 0.592E-02 0.292E-02
   -.562E+03 -.584E+03 0.841E+03   0.560E+03 0.582E+03 -.838E+03   0.154E+01 0.158E+01 -.220E+01   -.488E-02 0.157E-02 0.150E-02
   -.547E+03 -.591E+03 -.854E+03   0.544E+03 0.589E+03 0.851E+03   0.160E+01 0.167E+01 0.221E+01   -.550E-02 -.486E-02 -.777E-02
   0.401E+03 0.977E+03 -.417E+03   -.399E+03 -.974E+03 0.417E+03   -.149E+01 -.182E+01 0.232E+00   0.110E-02 0.378E-02 -.333E-02
   -.823E+03 -.326E+03 -.687E+03   0.820E+03 0.325E+03 0.684E+03   0.372E+00 0.799E-01 0.507E+01   -.989E-02 0.107E-02 0.353E-02
   -.300E+03 0.338E+03 0.467E+03   0.301E+03 -.338E+03 -.468E+03   -.428E+00 0.319E+00 0.456E+00   -.100E-01 0.204E-01 0.346E-02
   0.975E+03 0.396E+03 0.418E+03   -.972E+03 -.394E+03 -.417E+03   -.184E+01 -.151E+01 -.199E+00   0.662E-02 0.135E-01 -.795E-02
   -.370E+03 -.986E+03 0.433E+03   0.368E+03 0.983E+03 -.432E+03   0.151E+01 0.187E+01 -.276E+00   -.779E-02 -.365E-02 0.775E-02
   -.385E+03 0.984E+03 -.419E+03   0.382E+03 -.981E+03 0.419E+03   0.149E+01 -.181E+01 0.230E+00   0.785E-02 0.594E-02 0.402E-02
   0.977E+03 -.393E+03 -.417E+03   -.974E+03 0.391E+03 0.417E+03   -.184E+01 0.150E+01 0.239E+00   0.943E-02 0.113E-01 -.117E-01
   -.959E+03 0.433E+03 0.451E+03   0.956E+03 -.431E+03 -.450E+03   0.184E+01 -.142E+01 -.268E+00   0.392E-02 0.807E-02 0.402E-02
   0.407E+03 -.976E+03 0.421E+03   -.405E+03 0.973E+03 -.421E+03   -.151E+01 0.182E+01 -.226E+00   -.525E-02 -.121E-01 0.749E-02
   0.332E+03 0.326E+03 0.458E+03   -.333E+03 -.327E+03 -.458E+03   0.381E+00 0.370E+00 0.531E+00   -.862E-02 0.237E-01 -.299E-02
   0.138E+02 0.650E+03 0.180E+01   -.138E+02 -.651E+03 -.180E+01   0.222E-01 0.736E+00 -.636E-03   -.377E-02 0.195E-01 0.253E-02
   -.572E+03 0.103E+02 0.991E+03   0.572E+03 -.103E+02 -.987E+03   0.287E+00 -.282E-01 -.238E+01   -.710E-02 0.839E-02 -.184E-02
   -.560E+03 0.200E+02 -.100E+04   0.559E+03 -.200E+02 0.998E+03   0.248E+00 -.889E-01 0.250E+01   -.263E-02 0.682E-02 -.433E-02
   0.592E+03 0.179E+01 0.968E+03   -.592E+03 -.181E+01 -.964E+03   -.309E+00 0.857E-02 -.236E+01   0.249E-02 0.100E-01 0.712E-02
   0.594E+03 0.218E+01 -.968E+03   -.593E+03 -.221E+01 0.964E+03   -.305E+00 0.124E-01 0.236E+01   0.762E-02 0.115E-01 -.630E-02
   0.767E+03 0.764E+03 0.742E+00   -.765E+03 -.762E+03 -.721E+00   -.117E+01 -.113E+01 -.922E-02   -.314E-02 0.128E-01 -.865E-02
   -.638E+03 -.828E+03 0.361E+02   0.637E+03 0.826E+03 -.361E+02   0.782E+00 0.103E+01 0.210E-01   -.942E-02 0.778E-04 0.897E-02
   -.744E+03 0.791E+03 0.438E+01   0.742E+03 -.789E+03 -.442E+01   0.113E+01 -.122E+01 0.133E-01   0.417E-02 0.106E-01 0.927E-02
   0.771E+03 -.761E+03 0.110E+01   -.769E+03 0.759E+03 -.110E+01   -.112E+01 0.115E+01 0.373E-02   0.787E-02 -.347E-02 -.537E-02
   0.121E+02 0.421E+01 0.108E+04   -.121E+02 -.420E+01 -.108E+04   -.244E-02 -.123E-01 -.161E+01   -.137E-01 0.111E-01 0.197E-02
   0.175E+02 0.606E+01 -.108E+04   -.175E+02 -.603E+01 0.108E+04   -.201E-01 -.314E-01 0.162E+01   0.943E-02 0.117E-01 -.779E-02
   0.976E+03 0.396E+03 -.417E+03   -.973E+03 -.394E+03 0.416E+03   -.184E+01 -.151E+01 0.205E+00   0.100E-02 0.964E-02 -.770E-02
   -.361E+03 -.992E+03 -.428E+03   0.359E+03 0.989E+03 0.427E+03   0.152E+01 0.184E+01 0.248E+00   -.414E-02 -.885E-02 -.366E-02
   -.293E+03 0.344E+03 -.463E+03   0.294E+03 -.344E+03 0.463E+03   -.424E+00 0.327E+00 -.490E+00   0.216E-02 0.196E-01 0.359E-02
   0.336E+03 -.320E+03 0.459E+03   -.337E+03 0.320E+03 -.460E+03   0.378E+00 -.361E+00 0.521E+00   -.822E-02 0.375E-02 0.243E-02
   0.334E+03 0.327E+03 -.455E+03   -.335E+03 -.328E+03 0.456E+03   0.394E+00 0.371E+00 -.517E+00   0.882E-02 0.222E-01 -.944E-02
   -.951E+03 0.462E+03 -.447E+03   0.948E+03 -.460E+03 0.447E+03   0.192E+01 -.127E+01 0.102E+00   -.281E-02 0.100E-01 0.650E-02
   0.409E+03 -.976E+03 -.419E+03   -.407E+03 0.974E+03 0.419E+03   -.152E+01 0.182E+01 0.227E+00   0.520E-02 -.882E-02 -.115E-01
   -.284E+03 -.318E+03 0.479E+03   0.284E+03 0.318E+03 -.480E+03   -.334E+00 -.368E+00 0.531E+00   -.145E-01 0.483E-02 0.630E-02
   0.649E+03 0.284E+01 0.108E+01   -.650E+03 -.282E+01 -.107E+01   0.708E+00 -.239E-01 -.152E-02   0.943E-02 0.190E-01 -.102E-01
   -.548E+03 0.709E+02 0.266E+02   0.549E+03 -.716E+02 -.269E+02   -.225E-01 0.635E+00 0.268E+00   -.560E-02 0.121E-01 0.111E-01
   0.132E+02 -.589E+03 0.975E+03   -.132E+02 0.588E+03 -.972E+03   0.115E-02 0.313E+00 -.234E+01   -.109E-01 -.656E-02 0.611E-02
   0.193E+02 -.590E+03 -.976E+03   -.193E+02 0.589E+03 0.972E+03   0.460E-02 0.322E+00 0.235E+01   0.661E-02 -.264E-02 -.127E-01
   0.297E+02 0.101E+02 0.382E+01   -.296E+02 -.101E+02 -.382E+01   -.325E-01 -.614E-02 -.649E-02   -.673E-02 0.178E-01 0.331E-02
   0.339E+03 -.320E+03 -.457E+03   -.340E+03 0.320E+03 0.457E+03   0.369E+00 -.366E+00 -.520E+00   0.909E-02 0.867E-02 -.146E-01
   -.263E+03 -.316E+03 -.474E+03   0.263E+03 0.317E+03 0.475E+03   -.277E+00 -.338E+00 -.642E+00   -.481E-02 0.573E-02 -.652E-03
   0.323E+02 -.645E+03 0.413E+01   -.322E+02 0.646E+03 -.415E+01   -.740E-01 -.746E+00 0.571E-02   -.863E-02 -.385E-02 0.543E-02
   -.198E+03 -.160E+03 0.574E+02   0.176E+03 0.154E+03 -.620E+02   0.151E+02 0.323E+01 0.241E+01   -.275E-02 0.928E-03 0.277E-02
   -.844E+03 -.417E+03 -.698E+02   0.906E+03 0.441E+03 0.758E+02   -.531E+02 -.204E+02 -.604E+01   -.435E-02 0.479E-04 0.250E-02
 -----------------------------------------------------------------------------------------------
   0.394E+02 0.182E+02 -.161E+01   0.227E-12 -.188E-11 -.115E-11   -.394E+02 -.186E+02 0.163E+01   -.487E-01 0.350E+00 -.305E-01
 
 
 POSITION                                       TOTAL-FORCE (eV/Angst)
 -----------------------------------------------------------------------------------
     13.37281      9.84801     12.50759         0.700912      1.105737      0.293233
     20.15199     16.62719     12.50759        -1.163538     -0.685383      0.208451
     16.62719      9.84801     12.50759        -0.705608      1.111206      0.297536
      9.84801     16.62719     12.50759         1.109479     -0.695805      0.291984
     15.00000     11.47521     10.20639        -0.015383      0.407095      1.278352
     15.00000     11.47521     19.79360        -0.011042      0.412753     -1.280786
     15.00000      8.28283     15.00000        -0.000582      1.516270     -0.000706
      8.28283     15.00000     15.00000         1.511921      0.009779      0.003328
     21.71717     15.00000     15.00000        -1.634468     -0.157058     -0.229486
     15.00000     21.71717     15.00000         0.001722     -1.519477      0.000860
     18.35858     11.64142     10.25025        -0.735555      0.746596      1.070153
     18.35858     11.64142     19.74975        -0.718583      0.762037     -1.091328
     11.64142     18.35858     10.25025         0.754804     -0.755967      1.066585
     11.64142     18.35858     19.74975         0.757160     -0.755864     -1.067577
     11.64142     11.64142     10.25025         0.758986      0.752951      1.068341
     11.64142     11.64142     19.74975         0.756143      0.754813     -1.069478
     18.35858     18.35858     10.25025        -0.752134     -0.762160      1.068051
     18.35858     18.35858     19.74975        -0.808779     -0.722426     -0.999499
     13.37281      9.84801     17.49241         0.699438      1.107715     -0.294995
     20.15199     16.62719     17.49241        -2.520447     -1.111308      1.979300
     16.73751     13.26249     12.54279         0.115803     -0.105120     -0.142390
      9.84801     13.37281     12.50759         1.110627      0.700536      0.277727
     16.62719     20.15199     12.50759        -0.715973     -1.095604      0.286406
     16.62719      9.84801     17.49241        -0.702639      1.110775     -0.296618
      9.84801     16.62719     17.49241         1.110816     -0.694768     -0.291596
     20.15199     13.37281     12.50759        -1.141416      0.664883      0.227958
     13.37281     20.15199     12.50759         0.706818     -1.105678      0.302470
     13.26249     13.26249     12.54279        -0.110269     -0.110652     -0.153687
     15.00000     11.52498     15.00000         0.002931     -0.228186      0.000024
     18.52479     15.00000     10.20639        -0.405836      0.011186      1.277256
     18.52479     15.00000     19.79360        -0.465438     -0.031020     -1.222737
     11.47521     15.00000     10.20640         0.411683     -0.002225      1.277011
     11.47521     15.00000     19.79360         0.410769     -0.002518     -1.278858
     11.49535     11.49535     15.00000         0.839263      0.819893      0.002819
     18.50465     18.50465     15.00000        -0.358454     -1.117366      0.064926
     18.50465     11.49535     15.00000        -0.841353      0.832201     -0.009282
     11.49535     18.50465     15.00000         0.816320     -0.829085     -0.001660
     15.00000     15.00000     10.04368         0.002202      0.006558      1.182641
     15.00000     15.00000     19.95633         0.008075      0.008131     -1.183929
      9.84801     13.37281     17.49241         1.112526      0.697301     -0.279892
     16.62719     20.15199     17.49241        -0.734747     -1.092523     -0.284063
     16.73751     13.26249     17.45721         0.113616     -0.107996      0.154655
     13.26249     16.73751     12.54279        -0.112893      0.110246     -0.142765
     13.26249     13.26249     17.45721        -0.119095     -0.112178      0.152710
     20.15199     13.37281     17.49241        -1.171313      0.552166     -0.168919
     13.37281     20.15199     17.49241         0.709781     -1.104243     -0.300073
     16.73751     16.73751     12.54279         0.089850      0.106603     -0.180004
     11.52498     15.00000     15.00000        -0.225101      0.007762      0.001278
     18.47502     15.00000     15.00000         0.127639     -0.030099     -0.055618
     15.00000     18.52480     10.20639         0.001374     -0.413758      1.277011
     15.00000     18.52480     19.79360         0.009788     -0.417144     -1.272282
     15.00000     15.00000     15.00000         0.013025     -0.011637     -0.001364
     13.26249     16.73751     17.45721        -0.126181      0.107934      0.148145
     16.73751     16.73751     17.45721         0.045872      0.102223      0.209662
     15.00000     18.47502     15.00000        -0.007554      0.229150     -0.001053
     20.63366     16.89933     15.71472        -7.781794     -3.061489     -2.168750
     21.69491     17.25712     15.84936         9.276831      4.084240      0.000521
 -----------------------------------------------------------------------------------
    total drift:                               -0.002480     -0.004066     -0.007184


--------------------------------------------------------------------------------------------------------



  FREE ENERGIE OF THE ION-ELECTRON SYSTEM (eV)
  ---------------------------------------------------
  free  energy   TOTEN  =      -174.19285177 eV

  energy  without entropy=     -174.17133479  energy(sigma->0) =     -174.18747253
 


--------------------------------------------------------------------------------------------------------


    POTLOK:  cpu time   14.1229: real time   14.1229


--------------------------------------------------------------------------------------------------------


     LOOP+:  cpu time16655.6045: real time16655.8986
    4ORBIT:  cpu time    0.0000: real time    0.0000

 total amount of memory used by VASP MPI-rank0  5486941. kBytes
=======================================================================

   base      :      30000. kBytes
   nonlr-proj:      17126. kBytes
   fftplans  :     924480. kBytes
   grid      :    1872000. kBytes
   one-center:        886. kBytes
   wavefun   :    2642449. kBytes
 
  
  
 General timing and accounting informations for this job:
 ========================================================
  
                  Total CPU time used (sec):    16727.725
                            User time (sec):    15828.938
                          System time (sec):      898.787
                         Elapsed time (sec):    16728.061
  
                   Maximum memory used (kb):     7179108.
                   Average memory used (kb):           0.
  
                          Minor page faults:    774028706
                          Major page faults:            0
                 Voluntary context switches:          440
