 vasp.5.4.4.18Apr17-6-g9f103f2a35 (build Sep 03 2018 23:53:05) complex          
  
 executed on             LinuxIFC date 2021.12.01  15:26:24
 running on    1 total cores
 distrk:  each k-point on    1 cores,    1 groups
 distr:  one band on NCORES_PER_BAND=   1 cores,    1 groups


--------------------------------------------------------------------------------------------------------


 INCAR:
 POTCAR:    PAW_PBE Pd 04Jan2005                  
 POTCAR:    PAW_PBE C 08Apr2002                   
 POTCAR:    PAW_PBE O 08Apr2002                   
 POTCAR:    PAW_PBE Pd 04Jan2005                  
   VRHFIN =Pd : s1 d9                                                           
   LEXCH  = PE                                                                  
   EATOM  =   809.7530 eV,   59.5152 Ry                                         
                                                                                
   TITEL  = PAW_PBE Pd 04Jan2005                                                
   LULTRA =        F    use ultrasoft PP ?                                      
   IUNSCR =        1    unscreen: 0-lin 1-nonlin 2-no                           
   RPACOR =    2.000    partial core radius                                     
   POMASS =  106.420; ZVAL   =   10.000    mass and valenz                      
   RCORE  =    2.600    outmost cutoff radius                                   
   RWIGS  =    2.710; RWIGS  =    1.434    wigner-seitz radius (au A)           
   ENMAX  =  250.925; ENMIN  =  188.194 eV                                      
   ICORE  =        3    local potential                                         
   LCOR   =        T    correct aug charges                                     
   LPAW   =        T    paw PP                                                  
   EAUG   =  416.230                                                            
   DEXC   =    0.000                                                            
   RMAX   =    2.653    core radius for proj-oper                               
   RAUG   =    1.300    factor for augmentation sphere                          
   RDEP   =    2.734    radius for radial grids                                 
   RDEPT  =    2.103    core radius for aug-charge                              
                                                                                
   Atomic configuration                                                         
   12 entries                                                                   
     n  l   j            E        occ.                                          
     1  0  0.50    -24164.6631   2.0000                                         
     2  0  0.50     -3530.9218   2.0000                                         
     2  1  1.50     -3165.6822   6.0000                                         
     3  0  0.50      -639.4577   2.0000                                         
     3  1  1.50      -519.4532   6.0000                                         
     3  2  2.50      -328.9757  10.0000                                         
     4  0  0.50       -88.7014   2.0000                                         
     4  1  1.50       -54.4540   6.0000                                         
     4  2  2.50        -6.6878   9.0000                                         
     5  0  0.50        -4.3543   1.0000                                         
     5  1  0.50        -1.3606   0.0000                                         
     4  3  2.50        -1.3606   0.0000                                         
   Description                                                                  
     l       E           TYP  RCUT    TYP  RCUT                                 
     2     -6.6878251     23  2.400                                             
     2     -8.0484077     23  2.400                                             
     0     -4.3542939     23  2.400                                             
     0      4.3406793     23  2.400                                             
     1     -4.0817478     23  2.600                                             
     1     15.8380318     23  2.600                                             
     3     -4.0817478     23  2.400                                             
  local pseudopotential read in
  partial core-charges read in
  partial kinetic energy density read in
  atomic valenz-charges read in
  non local Contribution for L=           2  read in
    real space projection operators read in
  non local Contribution for L=           2  read in
    real space projection operators read in
  non local Contribution for L=           0  read in
    real space projection operators read in
  non local Contribution for L=           0  read in
    real space projection operators read in
  non local Contribution for L=           1  read in
    real space projection operators read in
  non local Contribution for L=           1  read in
    real space projection operators read in
    PAW grid and wavefunctions read in
 
   number of l-projection  operators is LMAX  =           6
   number of lm-projection operators is LMMAX =          18
 
 POTCAR:    PAW_PBE C 08Apr2002                   
   VRHFIN =C: s2p2                                                              
   LEXCH  = PE                                                                  
   EATOM  =   147.1560 eV,   10.8157 Ry                                         
                                                                                
   TITEL  = PAW_PBE C 08Apr2002                                                 
   LULTRA =        F    use ultrasoft PP ?                                      
   IUNSCR =        1    unscreen: 0-lin 1-nonlin 2-no                           
   RPACOR =    1.200    partial core radius                                     
   POMASS =   12.011; ZVAL   =    4.000    mass and valenz                      
   RCORE  =    1.500    outmost cutoff radius                                   
   RWIGS  =    1.630; RWIGS  =    0.863    wigner-seitz radius (au A)           
   ENMAX  =  400.000; ENMIN  =  300.000 eV                                      
   ICORE  =        2    local potential                                         
   LCOR   =        T    correct aug charges                                     
   LPAW   =        T    paw PP                                                  
   EAUG   =  644.873                                                            
   DEXC   =    0.000                                                            
   RMAX   =    1.529    core radius for proj-oper                               
   RAUG   =    1.300    factor for augmentation sphere                          
   RDEP   =    1.501    radius for radial grids                                 
   RDEPT  =    1.300    core radius for aug-charge                              
                                                                                
   Atomic configuration                                                         
    4 entries                                                                   
     n  l   j            E        occ.                                          
     1  0  0.50      -273.3789   2.0000                                         
     2  0  0.50       -13.7508   2.0000                                         
     2  1  0.50        -5.2854   2.0000                                         
     3  2  1.50        -5.4423   0.0000                                         
   Description                                                                  
     l       E           TYP  RCUT    TYP  RCUT                                 
     0    -13.7508458     23  1.200                                             
     0     -8.2022199     23  1.200                                             
     1     -5.2854383     23  1.500                                             
     1     34.0145650     23  1.500                                             
     2     -5.4423304      7  1.500                                             
  local pseudopotential read in
  partial core-charges read in
  partial kinetic energy density read in
  atomic valenz-charges read in
  non local Contribution for L=           0  read in
    real space projection operators read in
  non local Contribution for L=           0  read in
    real space projection operators read in
  non local Contribution for L=           1  read in
    real space projection operators read in
  non local Contribution for L=           1  read in
    real space projection operators read in
    PAW grid and wavefunctions read in
 
   number of l-projection  operators is LMAX  =           4
   number of lm-projection operators is LMMAX =           8
 
 POTCAR:    PAW_PBE O 08Apr2002                   
   VRHFIN =O: s2p4                                                              
   LEXCH  = PE                                                                  
   EATOM  =   432.3788 eV,   31.7789 Ry                                         
                                                                                
   TITEL  = PAW_PBE O 08Apr2002                                                 
   LULTRA =        F    use ultrasoft PP ?                                      
   IUNSCR =        1    unscreen: 0-lin 1-nonlin 2-no                           
   RPACOR =    1.200    partial core radius                                     
   POMASS =   16.000; ZVAL   =    6.000    mass and valenz                      
   RCORE  =    1.520    outmost cutoff radius                                   
   RWIGS  =    1.550; RWIGS  =    0.820    wigner-seitz radius (au A)           
   ENMAX  =  400.000; ENMIN  =  300.000 eV                                      
   ICORE  =        2    local potential                                         
   LCOR   =        T    correct aug charges                                     
   LPAW   =        T    paw PP                                                  
   EAUG   =  605.392                                                            
   DEXC   =    0.000                                                            
   RMAX   =    1.553    core radius for proj-oper                               
   RAUG   =    1.300    factor for augmentation sphere                          
   RDEP   =    1.550    radius for radial grids                                 
   RDEPT  =    1.329    core radius for aug-charge                              
                                                                                
   Atomic configuration                                                         
    4 entries                                                                   
     n  l   j            E        occ.                                          
     1  0  0.50      -514.6923   2.0000                                         
     2  0  0.50       -23.9615   2.0000                                         
     2  1  0.50        -9.0305   4.0000                                         
     3  2  1.50        -9.5241   0.0000                                         
   Description                                                                  
     l       E           TYP  RCUT    TYP  RCUT                                 
     0    -23.9615318     23  1.200                                             
     0     -9.5240782     23  1.200                                             
     1     -9.0304911     23  1.520                                             
     1      8.1634956     23  1.520                                             
     2     -9.5240782      7  1.500                                             
  local pseudopotential read in
  partial core-charges read in
  partial kinetic energy density read in
  kinetic energy density of atom read in
  atomic valenz-charges read in
  non local Contribution for L=           0  read in
    real space projection operators read in
  non local Contribution for L=           0  read in
    real space projection operators read in
  non local Contribution for L=           1  read in
    real space projection operators read in
  non local Contribution for L=           1  read in
    real space projection operators read in
    PAW grid and wavefunctions read in
 
   number of l-projection  operators is LMAX  =           4
   number of lm-projection operators is LMMAX =           8
 
 Optimization of the real space projectors (new method)

 maximal supplied QI-value         = 14.36
 optimisation between [QCUT,QGAM] = [ 10.20, 20.39] = [ 29.12,116.47] Ry 
 Optimized for a Real-space Cutoff    1.51 Angstroem

   l    n(q)    QCUT    max X(q) W(low)/X(q) W(high)/X(q)  e(spline) 
   2      8    10.197    59.108    0.26E-03    0.14E-03    0.96E-07
   2      8    10.197    58.101    0.27E-03    0.14E-03    0.98E-07
   0      9    10.197   102.235    0.54E-04    0.60E-05    0.72E-07
   0      9    10.197    58.388    0.52E-04    0.60E-05    0.68E-07
   1      9    10.197    22.191    0.18E-03    0.25E-03    0.79E-07
   1      9    10.197    15.590    0.15E-03    0.21E-03    0.69E-07
 Optimization of the real space projectors (new method)

 maximal supplied QI-value         = 25.13
 optimisation between [QCUT,QGAM] = [ 10.05, 20.36] = [ 28.30,116.06] Ry 
 Optimized for a Real-space Cutoff    1.30 Angstroem

   l    n(q)    QCUT    max X(q) W(low)/X(q) W(high)/X(q)  e(spline) 
   0      8    10.053   115.676    0.49E-03    0.72E-03    0.18E-06
   0      8    10.053    87.132    0.49E-03    0.71E-03    0.18E-06
   1      7    10.053     4.429    0.32E-03    0.31E-03    0.18E-06
   1      7    10.053     2.733    0.23E-03    0.19E-03    0.20E-06
 Optimization of the real space projectors (new method)

 maximal supplied QI-value         = 24.76
 optimisation between [QCUT,QGAM] = [ 10.15, 20.30] = [ 28.85,115.39] Ry 
 Optimized for a Real-space Cutoff    1.38 Angstroem

   l    n(q)    QCUT    max X(q) W(low)/X(q) W(high)/X(q)  e(spline) 
   0      8    10.150    20.381    0.22E-03    0.32E-03    0.29E-06
   0      8    10.150    15.268    0.23E-03    0.35E-03    0.30E-06
   1      8    10.150     5.964    0.46E-03    0.53E-03    0.21E-06
   1      8    10.150     5.382    0.38E-03    0.45E-03    0.19E-06

 ----------------------------------------------------------------------------- 
|                                                                             |
|  ADVICE TO THIS USER RUNNING 'VASP/VAMP'   (HEAR YOUR MASTER'S VOICE ...):  |
|                                                                             |
|      You enforced a specific xc-type in the INCAR file,                     |
|      a different type was found on the POTCAR file                          |
|          I HOPE YOU KNOW, WHAT YOU ARE  DOING                               |
|                                                                             |
 ----------------------------------------------------------------------------- 

  PAW_PBE Pd 04Jan2005                  :
 energy of atom  1       EATOM= -809.7530
 kinetic energy error for atom=    0.0091 (will be added to EATOM!!)
  PAW_PBE C 08Apr2002                   :
 energy of atom  2       EATOM= -147.1560
 kinetic energy error for atom=    0.0288 (will be added to EATOM!!)
  PAW_PBE O 08Apr2002                   :
 energy of atom  3       EATOM= -432.3788
 kinetic energy error for atom=    0.1156 (will be added to EATOM!!)
 
 
 POSCAR: Pd55PES                                 
  positions in cartesian coordinates
  No initial velocities read in
 exchange correlation table for  LEXCH =        9
   RHO(1)=    0.500       N(1)  =     2000
   RHO(2)=  100.500       N(2)  =     4000
 


--------------------------------------------------------------------------------------------------------


 ion  position               nearest neighbor table
   1  0.446  0.328  0.417-   3 3.25   5 3.25   7 3.36  15 3.36  29 3.42  28 3.42
   2  0.672  0.554  0.417-  26 3.25  30 3.25  17 3.36   9 3.36  47 3.42  49 3.42
   3  0.554  0.328  0.417-   1 3.25   5 3.25   7 3.36  11 3.36  29 3.42  21 3.42
   4  0.328  0.554  0.417-  32 3.25  22 3.25  13 3.36   8 3.36  43 3.42  48 3.42
   5  0.500  0.383  0.340-   1 3.25   3 3.25  11 3.36  15 3.36  21 3.42  28 3.42
   6  0.500  0.383  0.660-  24 3.25  19 3.25  16 3.36  12 3.36  42 3.42  44 3.42
   7  0.500  0.276  0.500-  29 3.24   3 3.36   1 3.36  19 3.36  24 3.36
   8  0.276  0.500  0.500-  48 3.24  22 3.36  40 3.36   4 3.36  25 3.36
   9  0.724  0.500  0.500-  49 3.24  26 3.36  45 3.36   2 3.36  20 3.36
  10  0.500  0.724  0.500-  55 3.24  27 3.36  23 3.36  46 3.36  41 3.36
  11  0.612  0.388  0.342-  21 3.24   5 3.36   3 3.36  30 3.36  26 3.36
  12  0.612  0.388  0.658-  42 3.24  24 3.36  45 3.36   6 3.36  31 3.36
  13  0.388  0.612  0.342-  43 3.24  32 3.36  50 3.36   4 3.36  27 3.36
  14  0.388  0.612  0.658-  53 3.24  25 3.36  33 3.36  51 3.36  46 3.36
  15  0.388  0.388  0.342-  28 3.24   5 3.36   1 3.36  32 3.36  22 3.36
  16  0.388  0.388  0.658-  44 3.24  19 3.36  40 3.36   6 3.36  33 3.36
  17  0.612  0.612  0.342-  47 3.24  30 3.36  50 3.36   2 3.36  23 3.36
  18  0.612  0.612  0.658-  54 3.24  31 3.36  20 3.36  51 3.36  41 3.36
  19  0.446  0.328  0.583-   6 3.25  24 3.25  16 3.36   7 3.36  44 3.42  29 3.42
  20  0.672  0.554  0.583-  31 3.25  45 3.25  18 3.36   9 3.36  54 3.42  49 3.42
  21  0.558  0.442  0.418-  11 3.24   5 3.42   3 3.42  30 3.42  26 3.42
  22  0.328  0.446  0.417-   4 3.25  32 3.25   8 3.36  15 3.36  48 3.42  28 3.42
  23  0.554  0.672  0.417-  27 3.25  50 3.25  10 3.36  17 3.36  55 3.42  47 3.42
  24  0.554  0.328  0.583-   6 3.25  19 3.25  12 3.36   7 3.36  42 3.42  29 3.42
  25  0.328  0.554  0.583-  33 3.25  40 3.25  14 3.36   8 3.36  53 3.42  48 3.42
  26  0.672  0.446  0.417-   2 3.25  30 3.25   9 3.36  11 3.36  49 3.42  21 3.42
  27  0.446  0.672  0.417-  23 3.25  50 3.25  10 3.36  13 3.36  55 3.42  43 3.42
  28  0.442  0.442  0.418-  15 3.24   5 3.42   1 3.42  32 3.42  22 3.42
  29  0.500  0.384  0.500-   7 3.24   3 3.42   1 3.42  24 3.42  19 3.42
  30  0.617  0.500  0.340-  56 1.86   2 3.25  26 3.25  17 3.36  11 3.36  47 3.42  21 3.42
  31  0.617  0.500  0.660-  20 3.25  45 3.25  18 3.36  12 3.36  54 3.42  42 3.42
  32  0.383  0.500  0.340-   4 3.25  22 3.25  13 3.36  15 3.36  43 3.42  28 3.42
  33  0.383  0.500  0.660-  25 3.25  40 3.25  14 3.36  16 3.36  53 3.42  44 3.42
  34  0.383  0.383  0.500-
  35  0.617  0.617  0.500-
  36  0.617  0.383  0.500-
  37  0.383  0.617  0.500-
  38  0.500  0.500  0.335-
  39  0.500  0.500  0.665-
  40  0.328  0.446  0.583-  33 3.25  25 3.25  16 3.36   8 3.36  44 3.42  48 3.42
  41  0.554  0.672  0.583-  46 3.25  51 3.25  10 3.36  18 3.36  54 3.42  55 3.42
  42  0.558  0.442  0.582-  12 3.24   6 3.42  24 3.42  31 3.42  45 3.42
  43  0.442  0.558  0.418-  13 3.24   4 3.42  32 3.42  27 3.42  50 3.42
  44  0.442  0.442  0.582-  16 3.24   6 3.42  19 3.42  33 3.42  40 3.42
  45  0.672  0.446  0.583-  20 3.25  31 3.25   9 3.36  12 3.36  49 3.42  42 3.42
  46  0.446  0.672  0.583-  41 3.25  51 3.25  10 3.36  14 3.36  53 3.42  55 3.42
  47  0.558  0.558  0.418-  17 3.24   2 3.42  30 3.42  23 3.42  50 3.42
  48  0.384  0.500  0.500-   8 3.24   4 3.42  22 3.42  25 3.42  40 3.42
  49  0.616  0.500  0.500-   9 3.24   2 3.42  26 3.42  20 3.42  45 3.42
  50  0.500  0.617  0.340-  27 3.25  23 3.25  13 3.36  17 3.36  43 3.42  47 3.42
  51  0.500  0.617  0.660-  41 3.25  46 3.25  14 3.36  18 3.36  53 3.42  54 3.42
  52  0.500  0.500  0.500-
  53  0.442  0.558  0.582-  14 3.24  25 3.42  33 3.42  51 3.42  46 3.42
  54  0.558  0.558  0.582-  18 3.24  31 3.42  20 3.42  51 3.42  41 3.42
  55  0.500  0.616  0.500-  10 3.24  23 3.42  27 3.42  41 3.42  46 3.42
  56  0.674  0.514  0.319-  57 1.13  30 1.86
  57  0.700  0.516  0.292-  56 1.13
 
  LATTYP: Found a simple cubic cell.
 ALAT       =    30.0000000000
  
  Lattice vectors:
  
 A1 = (  30.0000000000,   0.0000000000,   0.0000000000)
 A2 = (   0.0000000000,  30.0000000000,   0.0000000000)
 A3 = (   0.0000000000,   0.0000000000,  30.0000000000)


Analysis of symmetry for initial positions (statically):
=====================================================================
 Subroutine PRICEL returns:
 Original cell was already a primitive cell.
 

 Routine SETGRP: Setting up the symmetry group for a 
 simple cubic supercell.


 Subroutine GETGRP returns: Found  1 space group operations
 (whereof  1 operations were pure point group operations)
 out of a pool of 48 trial point group operations.


The static configuration has the point symmetry C_1 .


Analysis of symmetry for dynamics (positions and initial velocities):
=====================================================================
 Subroutine PRICEL returns:
 Original cell was already a primitive cell.
 

 Routine SETGRP: Setting up the symmetry group for a 
 simple cubic supercell.


 Subroutine GETGRP returns: Found  1 space group operations
 (whereof  1 operations were pure point group operations)
 out of a pool of 48 trial point group operations.


The dynamic configuration has the point symmetry C_1 .


Analysis of constrained symmetry for selective dynamics:
=====================================================================
 Subroutine PRICEL returns:
 Original cell was already a primitive cell.
 

 Routine SETGRP: Setting up the symmetry group for a 
 simple cubic supercell.


 Subroutine GETGRP returns: Found  1 space group operations
 (whereof  1 operations were pure point group operations)
 out of a pool of 48 trial point group operations.


The constrained configuration has the point symmetry C_1 .


 Subroutine INISYM returns: Found  1 space group operations
 (whereof  1 operations are pure point group operations),
 and found     1 'primitive' translations

 
 
 KPOINTS: K-points                                

Automatic generation of k-mesh.
Space group operators:
 irot       det(A)        alpha          n_x          n_y          n_z        tau_x        tau_y        tau_z
    1     1.000000     0.000000     1.000000     0.000000     0.000000     0.000000     0.000000     0.000000
 
 Subroutine IBZKPT returns following result:
 ===========================================
 
 Found      1 irreducible k-points:
 
 Following reciprocal coordinates:
            Coordinates               Weight
  0.000000  0.000000  0.000000      1.000000
 
 Following cartesian coordinates:
            Coordinates               Weight
  0.000000  0.000000  0.000000      1.000000
 


--------------------------------------------------------------------------------------------------------




 Dimension of arrays:
   k-points           NKPTS =      1   k-points in BZ     NKDIM =      1   number of bands    NBANDS=    336
   number of dos      NEDOS =    301   number of ions     NIONS =     57
   non local maximal  LDIM  =      6   non local SUM 2l+1 LMDIM =     18
   total plane-waves  NPLWV = ******
   max r-space proj   IRMAX =   1847   max aug-charges    IRDMAX=   6262
   dimension x,y,z NGX =   150 NGY =  150 NGZ =  150
   dimension x,y,z NGXF=   300 NGYF=  300 NGZF=  300
   support grid    NGXF=   300 NGYF=  300 NGZF=  300
   ions per type =              55   1   1
   NGX,Y,Z   is equivalent  to a cutoff of   8.31,  8.31,  8.31 a.u.
   NGXF,Y,Z  is equivalent  to a cutoff of  16.62, 16.62, 16.62 a.u.

 SYSTEM =  6_Pd100_top_free_z(O)                   
 POSCAR =  Pd55PES                                 

 Startparameter for this run:
   NWRITE =      2    write-flag & timer
   PREC   = normal    normal or accurate (medium, high low for compatibility)
   ISTART =      0    job   : 0-new  1-cont  2-samecut
   ICHARG =      2    charge: 1-file 2-atom 10-const
   ISPIN  =      1    spin polarized calculation?
   LNONCOLLINEAR =      F non collinear calculations
   LSORBIT =      F    spin-orbit coupling
   INIWAV =      1    electr: 0-lowe 1-rand  2-diag
   LASPH  =      F    aspherical Exc in radial PAW
   METAGGA=      F    non-selfconsistent MetaGGA calc.

 Electronic Relaxation 1
   ENCUT  =  400.0 eV  29.40 Ry    5.42 a.u.  48.92 48.92 48.92*2*pi/ulx,y,z
   ENINI  =  400.0     initial cutoff
   ENAUG  =  644.9 eV  augmentation charge cutoff
   NELM   =    100;   NELMIN=  6; NELMDL= -5     # of ELM steps 
   EDIFF  = 0.1E-03   stopping-criterion for ELM
   LREAL  =      T    real-space projection
   NLSPLINE    = F    spline interpolate recip. space projectors
   LCOMPAT=      F    compatible to vasp.4.4
   GGA_COMPAT  = T    GGA compatible to vasp.4.4-vasp.4.6
   LMAXPAW     = -100 max onsite density
   LMAXMIX     =    2 max onsite mixed and CHGCAR
   VOSKOWN=      0    Vosko Wilk Nusair interpolation
   ROPT   =   -0.00050  -0.00050  -0.00050
 Ionic relaxation
   EDIFFG = -.5E-01   stopping-criterion for IOM
   NSW    =      0    number of steps for IOM
   NBLOCK =      1;   KBLOCK =      1    inner block; outer block 
   IBRION =     -1    ionic relax: 0-MD 1-quasi-New 2-CG
   NFREE  =      1    steps in history (QN), initial steepest desc. (CG)
   ISIF   =      2    stress and relaxation
   IWAVPR =     10    prediction:  0-non 1-charg 2-wave 3-comb
   ISYM   =      2    0-nonsym 1-usesym 2-fastsym
   LCORR  =      T    Harris-Foulkes like correction to forces

   POTIM  = 0.5000    time-step for ionic-motion
   TEIN   =    0.0    initial temperature
   TEBEG  =    0.0;   TEEND  =   0.0 temperature during run
   SMASS  =  -3.00    Nose mass-parameter (am)
   estimated Nose-frequenzy (Omega)   =  0.10E-29 period in steps =****** mass=  -0.206E-25a.u.
   SCALEE = 1.0000    scale energy and forces
   NPACO  =    256;   APACO  = 16.0  distance and # of slots for P.C.
   PSTRESS=    0.0 pullay stress

  Mass of Ions in am
   POMASS = 106.42 12.01 16.00
  Ionic Valenz
   ZVAL   =  10.00  4.00  6.00
  Atomic Wigner-Seitz radii
   RWIGS  =  -1.00 -1.00 -1.00
  virtual crystal weights 
   VCA    =   1.00  1.00  1.00
   NELECT =     560.0000    total number of electrons
   NUPDOWN=      -1.0000    fix difference up-down

 DOS related values:
   EMIN   =  10.00;   EMAX   =-10.00  energy-range for DOS
   EFERMI =   0.00
   ISMEAR =     2;   SIGMA  =   0.20  broadening in eV -4-tet -1-fermi 0-gaus

 Electronic relaxation 2 (details)
   IALGO  =     68    algorithm
   LDIAG  =      T    sub-space diagonalisation (order eigenvalues)
   LSUBROT=      F    optimize rotation matrix (better conditioning)
   TURBO    =      0    0=normal 1=particle mesh
   IRESTART =      0    0=no restart 2=restart with 2 vectors
   NREBOOT  =      0    no. of reboots
   NMIN     =      0    reboot dimension
   EREF     =   0.00    reference energy to select bands
   IMIX   =      4    mixing-type and parameters
     AMIX     =   0.40;   BMIX     =  1.00
     AMIX_MAG =   1.60;   BMIX_MAG =  1.00
     AMIN     =   0.10
     WC   =   100.;   INIMIX=   1;  MIXPRE=   1;  MAXMIX= -45

 Intra band minimization:
   WEIMIN = 0.0000     energy-eigenvalue tresh-hold
   EBREAK =  0.74E-07  absolut break condition
   DEPER  =   0.30     relativ break condition  

   TIME   =   0.40     timestep for ELM

  volume/ion in A,a.u.               =     473.68      3196.58
  Fermi-wavevector in a.u.,A,eV,Ry     =   0.449797  0.849992  2.752691  0.202317
  Thomas-Fermi vector in A             =   1.430086
 
 Write flags
   LWAVE        =      F    write WAVECAR
   LDOWNSAMPLE  =      F    k-point downsampling of WAVECAR
   LCHARG       =      F    write CHGCAR
   LVTOT        =      F    write LOCPOT, total local potential
   LVHAR        =      F    write LOCPOT, Hartree potential only
   LELF         =      F    write electronic localiz. function (ELF)
   LORBIT       =      0    0 simple, 1 ext, 2 COOP (PROOUT), +10 PAW based schemes


 Dipole corrections
   LMONO  =      F    monopole corrections only (constant potential shift)
   LDIPOL =      F    correct potential (dipole corrections)
   IDIPOL =      0    1-x, 2-y, 3-z, 4-all directions 
   EPSILON=  1.0000000 bulk dielectric constant

 Exchange correlation treatment:
   GGA     =    RP    GGA type
   LEXCH   =     9    internal setting for exchange type
   VOSKOWN=      0    Vosko Wilk Nusair interpolation
   LHFCALC =     F    Hartree Fock is set to
   LHFONE  =     F    Hartree Fock one center treatment
   AEXX    =    0.0000 exact exchange contribution

 Linear response parameters
   LEPSILON=     F    determine dielectric tensor
   LRPA    =     F    only Hartree local field effects (RPA)
   LNABLA  =     F    use nabla operator in PAW spheres
   LVEL    =     F    velocity operator in full k-point grid
   LINTERFAST=   F  fast interpolation
   KINTER  =     0    interpolate to denser k-point grid
   CSHIFT  =0.1000    complex shift for real part using Kramers Kronig
   OMEGAMAX=  -1.0    maximum frequency
   DEG_THRESHOLD= 0.2000000E-02 threshold for treating states as degnerate
   RTIME   =   -0.100 relaxation time in fs
  (WPLASMAI=    0.000 imaginary part of plasma frequency in eV, 0.658/RTIME)
   DFIELD  = 0.0000000 0.0000000 0.0000000 field for delta impulse in time
 
 Orbital magnetization related:
   ORBITALMAG=     F  switch on orbital magnetization
   LCHIMAG   =     F  perturbation theory with respect to B field
   DQ        =  0.001000  dq finite difference perturbation B field
   LLRAUG    =     F  two centre corrections for induced B field



--------------------------------------------------------------------------------------------------------


 Static calculation
 charge density and potential will be updated during run
 non-spin polarized calculation
 RMM-DIIS sequential band-by-band and
  variant of blocked Davidson during initial phase
 perform sub-space diagonalisation
    before iterative eigenvector-optimisation
 modified Broyden-mixing scheme, WC =      100.0
 initial mixing is a Kerker type mixing with AMIX =  0.4000 and BMIX =      1.0000
 Hartree-type preconditioning will be used
 using additional bands           56
 real space projection scheme for non local part
 use partial core corrections
 calculate Harris-corrections to forces 
   (improved forces if not selfconsistent)
 use gradient corrections 
 use of overlap-Matrix (Vanderbilt PP)
 Methfessel and Paxton  Order N= 2 SIGMA  =   0.20


--------------------------------------------------------------------------------------------------------


  energy-cutoff  :      400.00
  volume of cell :    27000.00
      direct lattice vectors                 reciprocal lattice vectors
    30.000000000  0.000000000  0.000000000     0.033333333  0.000000000  0.000000000
     0.000000000 30.000000000  0.000000000     0.000000000  0.033333333  0.000000000
     0.000000000  0.000000000 30.000000000     0.000000000  0.000000000  0.033333333

  length of vectors
    30.000000000 30.000000000 30.000000000     0.033333333  0.033333333  0.033333333


 
 k-points in units of 2pi/SCALE and weight: K-points                                
   0.00000000  0.00000000  0.00000000       1.000
 
 k-points in reciprocal lattice and weights: K-points                                
   0.00000000  0.00000000  0.00000000       1.000
 
 position of ions in fractional coordinates (direct lattice) 
   0.44576020  0.32826710  0.41691983
   0.67173288  0.55423978  0.41691983
   0.55423980  0.32826710  0.41691983
   0.32826712  0.55423978  0.41691983
   0.50000000  0.38250690  0.34021317
   0.50000000  0.38250690  0.65978680
   0.50000000  0.27609440  0.50000000
   0.27609443  0.49999998  0.50000000
   0.72390557  0.49999998  0.50000000
   0.50000000  0.72390555  0.50000000
   0.61195280  0.38804720  0.34167483
   0.61195280  0.38804720  0.65832513
   0.38804722  0.61195278  0.34167483
   0.38804722  0.61195278  0.65832513
   0.38804720  0.38804720  0.34167483
   0.38804720  0.38804720  0.65832513
   0.61195278  0.61195278  0.34167483
   0.61195278  0.61195278  0.65832513
   0.44576020  0.32826710  0.58308023
   0.67173288  0.55423978  0.58308023
   0.55791699  0.44208301  0.41809300
   0.32826705  0.44576024  0.41691983
   0.55423973  0.67173293  0.41691983
   0.55423980  0.32826710  0.58308023
   0.32826712  0.55423978  0.58308023
   0.67173295  0.44576024  0.41691983
   0.44576027  0.67173293  0.41691983
   0.44208301  0.44208301  0.41809300
   0.50000000  0.38416601  0.50000000
   0.61749315  0.50000005  0.34021317
   0.61749315  0.50000005  0.65978680
   0.38250685  0.50000005  0.34021317
   0.38250685  0.50000005  0.65978680
   0.38317830  0.38317830  0.50000000
   0.61682172  0.61682172  0.50000000
   0.61682170  0.38317830  0.50000000
   0.38317828  0.61682172  0.50000000
   0.50000000  0.50000000  0.33478917
   0.50000000  0.50000000  0.66521087
   0.32826705  0.44576024  0.58308023
   0.55423973  0.67173293  0.58308023
   0.55791699  0.44208301  0.58190703
   0.44208298  0.55791702  0.41809300
   0.44208301  0.44208301  0.58190703
   0.67173295  0.44576024  0.58308023
   0.44576027  0.67173293  0.58308023
   0.55791702  0.55791702  0.41809300
   0.38416599  0.50000002  0.50000000
   0.61583401  0.50000002  0.50000000
   0.50000000  0.61749319  0.34021317
   0.50000000  0.61749319  0.65978680
   0.50000000  0.50000000  0.50000000
   0.44208298  0.55791702  0.58190703
   0.55791702  0.55791702  0.58190703
   0.50000000  0.61583404  0.50000000
   0.67425167  0.51364550  0.31917663
   0.70030390  0.51568563  0.29214183
 
 position of ions in cartesian coordinates  (Angst):
  13.37280588  9.84801292 12.50759500
  20.15198637 16.62719342 12.50759500
  16.62719412  9.84801292 12.50759500
   9.84801363 16.62719342 12.50759500
  15.00000000 11.47520705 10.20639500
  15.00000000 11.47520705 19.79360400
  15.00000000  8.28283206 15.00000000
   8.28283277 14.99999929 15.00000000
  21.71716723 14.99999929 15.00000000
  15.00000000 21.71716652 14.99999999
  18.35858397 11.64141603 10.25024500
  18.35858397 11.64141603 19.74975399
  11.64141674 18.35858326 10.25024500
  11.64141674 18.35858326 19.74975400
  11.64141603 11.64141603 10.25024500
  11.64141603 11.64141603 19.74975400
  18.35858326 18.35858326 10.25024500
  18.35858326 18.35858326 19.74975400
  13.37280588  9.84801291 17.49240700
  20.15198638 16.62719341 17.49240700
  16.73750985 13.26249015 12.54279000
   9.84801151 13.37280729 12.50759500
  16.62719200 20.15198779 12.50759500
  16.62719412  9.84801292 17.49240700
   9.84801363 16.62719342 17.49240700
  20.15198849 13.37280729 12.50759500
  13.37280800 20.15198779 12.50759500
  13.26249015 13.26249015 12.54279000
  15.00000000 11.52498029 15.00000000
  18.52479437 15.00000140 10.20639500
  18.52479437 15.00000141 19.79360400
  11.47520562 15.00000141 10.20639501
  11.47520563 15.00000141 19.79360400
  11.49534898 11.49534898 15.00000000
  18.50465172 18.50465172 15.00000000
  18.50465102 11.49534898 15.00000000
  11.49534828 18.50465172 15.00000000
  15.00000000 15.00000000 10.04367500
  15.00000000 15.00000000 19.95632599
   9.84801151 13.37280729 17.49240700
  16.62719200 20.15198779 17.49240700
  16.73750985 13.26249015 17.45721100
  13.26248944 16.73751056 12.54279001
  13.26249015 13.26249015 17.45721100
  20.15198849 13.37280729 17.49240699
  13.37280800 20.15198779 17.49240700
  16.73751056 16.73751056 12.54279000
  11.52497959 15.00000071 15.00000000
  18.47502041 15.00000071 15.00000000
  14.99999999 18.52479579 10.20639500
  15.00000000 18.52479578 19.79360400
  15.00000000 15.00000000 15.00000000
  13.26248944 16.73751057 17.45721101
  16.73751056 16.73751057 17.45721100
  15.00000000 18.47502112 15.00000000
  20.22755000 15.40936500  9.57529900
  21.00911700 15.47056900  8.76425500
 


--------------------------------------------------------------------------------------------------------


 k-point  1 :   0.0000 0.0000 0.0000  plane waves:  490521

 maximum and minimum number of plane-waves per node :    490521   490521

 maximum number of plane-waves:    490521
 maximum index in each direction: 
   IXMAX=   48   IYMAX=   48   IZMAX=   48
   IXMIN=  -48   IYMIN=  -48   IZMIN=  -48


 serial   3D FFT for wavefunctions
 parallel 3D FFT for charge:
    minimum data exchange during FFTs selected (reduces bandwidth)


 total amount of memory used by VASP MPI-rank0  5486941. kBytes
=======================================================================

   base      :      30000. kBytes
   nonlr-proj:      17126. kBytes
   fftplans  :     924480. kBytes
   grid      :    1872000. kBytes
   one-center:        886. kBytes
   wavefun   :    2642449. kBytes
 
     INWAV:  cpu time    0.0001: real time    0.0004
 Broyden mixing: mesh for mixing (old mesh)
   NGX = 97   NGY = 97   NGZ = 97
  (NGX  =300   NGY  =300   NGZ  =300)
  gives a total of 912673 points

 initial charge density was supplied:
 charge density of overlapping atoms calculated
 number of electron     560.0000000 magnetization 
 keeping initial charge density in first step


--------------------------------------------------------------------------------------------------------


 Maximum index for non-local projection operator         1763
 Maximum index for augmentation-charges         5898 (set IRDMAX)


--------------------------------------------------------------------------------------------------------


 First call to EWALD:  gamma=   0.059
 Maximum number of real-space cells 3x 3x 3
 Maximum number of reciprocal cells 3x 3x 3

    FEWALD:  cpu time    0.0153: real time    0.0153


--------------------------------------- Iteration      1(   1)  ---------------------------------------


    POTLOK:  cpu time   13.9472: real time   13.9538
    SETDIJ:  cpu time    0.1160: real time    0.1160
     EDDAV:  cpu time  346.8021: real time  346.8808
       DOS:  cpu time    0.0013: real time    0.0013
    --------------------------------------------
      LOOP:  cpu time  360.8667: real time  360.9519

 eigenvalue-minimisations  :   688
 total energy-change (2. order) : 0.4391515E+04  (-0.1005116E+05)
 number of electron     560.0000000 magnetization 
 augmentation part      560.0000000 magnetization 

 Free energy of the ion-electron system (eV)
  ---------------------------------------------------
  alpha Z        PSCENC =        75.25431677
  Ewald energy   TEWEN  =    138205.93982535
  -Hartree energ DENC   =   -181564.34700899
  -exchange      EXHF   =         0.00000000
  -V(xc)+E(xc)   XCENC  =     -1702.86555392
  PAW double counting   =     44873.02882129   -41398.84523641
  entropy T*S    EENTRO =         0.01395964
  eigenvalues    EBANDS =       816.83038081
  atomic energy  EATOM  =     45086.50549395
  Solvation  Ediel_sol  =         0.00000000
  ---------------------------------------------------
  free energy    TOTEN  =      4391.51499850 eV

  energy without entropy =     4391.50103886  energy(sigma->0) =     4391.51150859


--------------------------------------------------------------------------------------------------------




--------------------------------------- Iteration      1(   2)  ---------------------------------------


     EDDAV:  cpu time  561.2860: real time  561.3149
       DOS:  cpu time    0.0012: real time    0.0012
    --------------------------------------------
      LOOP:  cpu time  561.2872: real time  561.3161

 eigenvalue-minimisations  :  1224
 total energy-change (2. order) :-0.2378033E+04  (-0.2138881E+04)
 number of electron     560.0000000 magnetization 
 augmentation part      560.0000000 magnetization 

 Free energy of the ion-electron system (eV)
  ---------------------------------------------------
  alpha Z        PSCENC =        75.25431677
  Ewald energy   TEWEN  =    138205.93982535
  -Hartree energ DENC   =   -181564.34700899
  -exchange      EXHF   =         0.00000000
  -V(xc)+E(xc)   XCENC  =     -1702.86555392
  PAW double counting   =     44873.02882129   -41398.84523641
  entropy T*S    EENTRO =        -0.00060650
  eigenvalues    EBANDS =     -1561.18804734
  atomic energy  EATOM  =     45086.50549395
  Solvation  Ediel_sol  =         0.00000000
  ---------------------------------------------------
  free energy    TOTEN  =      2013.48200421 eV

  energy without entropy =     2013.48261071  energy(sigma->0) =     2013.48215583


--------------------------------------------------------------------------------------------------------




--------------------------------------- Iteration      1(   3)  ---------------------------------------


     EDDAV:  cpu time  469.9814: real time  469.9902
       DOS:  cpu time    0.0011: real time    0.0011
    --------------------------------------------
      LOOP:  cpu time  469.9825: real time  469.9913

 eigenvalue-minimisations  :   992
 total energy-change (2. order) :-0.1775858E+04  (-0.1671032E+04)
 number of electron     560.0000000 magnetization 
 augmentation part      560.0000000 magnetization 

 Free energy of the ion-electron system (eV)
  ---------------------------------------------------
  alpha Z        PSCENC =        75.25431677
  Ewald energy   TEWEN  =    138205.93982535
  -Hartree energ DENC   =   -181564.34700899
  -exchange      EXHF   =         0.00000000
  -V(xc)+E(xc)   XCENC  =     -1702.86555392
  PAW double counting   =     44873.02882129   -41398.84523641
  entropy T*S    EENTRO =         0.03783621
  eigenvalues    EBANDS =     -3337.08484946
  atomic energy  EATOM  =     45086.50549395
  Solvation  Ediel_sol  =         0.00000000
  ---------------------------------------------------
  free energy    TOTEN  =       237.62364480 eV

  energy without entropy =      237.58580859  energy(sigma->0) =      237.61418575


--------------------------------------------------------------------------------------------------------




--------------------------------------- Iteration      1(   4)  ---------------------------------------


     EDDAV:  cpu time  404.8121: real time  404.8150
       DOS:  cpu time    0.0012: real time    0.0012
    --------------------------------------------
      LOOP:  cpu time  404.8133: real time  404.8162

 eigenvalue-minimisations  :   824
 total energy-change (2. order) :-0.3731357E+03  (-0.3146145E+03)
 number of electron     560.0000000 magnetization 
 augmentation part      560.0000000 magnetization 

 Free energy of the ion-electron system (eV)
  ---------------------------------------------------
  alpha Z        PSCENC =        75.25431677
  Ewald energy   TEWEN  =    138205.93982535
  -Hartree energ DENC   =   -181564.34700899
  -exchange      EXHF   =         0.00000000
  -V(xc)+E(xc)   XCENC  =     -1702.86555392
  PAW double counting   =     44873.02882129   -41398.84523641
  entropy T*S    EENTRO =        -0.02683499
  eigenvalues    EBANDS =     -3710.15588877
  atomic energy  EATOM  =     45086.50549395
  Solvation  Ediel_sol  =         0.00000000
  ---------------------------------------------------
  free energy    TOTEN  =      -135.51206572 eV

  energy without entropy =     -135.48523072  energy(sigma->0) =     -135.50535697


--------------------------------------------------------------------------------------------------------




--------------------------------------- Iteration      1(   5)  ---------------------------------------


     EDDAV:  cpu time  495.9175: real time  495.9228
       DOS:  cpu time    0.0014: real time    0.0014
    CHARGE:  cpu time   24.9970: real time   24.9968
    MIXING:  cpu time    0.4353: real time    0.4353
    --------------------------------------------
      LOOP:  cpu time  521.3513: real time  521.3563

 eigenvalue-minimisations  :  1056
 total energy-change (2. order) :-0.4474003E+02  (-0.3663954E+02)
 number of electron     559.9999863 magnetization 
 augmentation part      245.0205725 magnetization 

 Broyden mixing:
  rms(total) = 0.16496E+01    rms(broyden)= 0.16488E+01
  rms(prec ) = 0.17540E+01
  weight for this iteration     100.00

 Free energy of the ion-electron system (eV)
  ---------------------------------------------------
  alpha Z        PSCENC =        75.25431677
  Ewald energy   TEWEN  =    138205.93982535
  -Hartree energ DENC   =   -181564.34700899
  -exchange      EXHF   =         0.00000000
  -V(xc)+E(xc)   XCENC  =     -1702.86555392
  PAW double counting   =     44873.02882129   -41398.84523641
  entropy T*S    EENTRO =         0.46439645
  eigenvalues    EBANDS =     -3755.38714999
  atomic energy  EATOM  =     45086.50549395
  Solvation  Ediel_sol  =         0.00000000
  ---------------------------------------------------
  free energy    TOTEN  =      -180.25209550 eV

  energy without entropy =     -180.71649195  energy(sigma->0) =     -180.36819461


--------------------------------------------------------------------------------------------------------




--------------------------------------- Iteration      1(   6)  ---------------------------------------


    POTLOK:  cpu time   13.0030: real time   13.0064
    SETDIJ:  cpu time    0.1182: real time    0.1182
    EDDIAG:  cpu time   66.3788: real time   66.3788
  RMM-DIIS:  cpu time  183.7124: real time  183.7161
    ORTHCH:  cpu time   13.2139: real time   13.2138
       DOS:  cpu time    0.0014: real time    0.0014
    CHARGE:  cpu time   25.1469: real time   25.1468
    MIXING:  cpu time    0.4490: real time    0.4490
    --------------------------------------------
      LOOP:  cpu time  302.0236: real time  302.0305

 eigenvalue-minimisations  :   728
 total energy-change (2. order) :-0.5274235E-01  (-0.6399581E+01)
 number of electron     559.9999894 magnetization 
 augmentation part      240.4618370 magnetization 

 Broyden mixing:
  rms(total) = 0.23372E+01    rms(broyden)= 0.23370E+01
  rms(prec ) = 0.26626E+01
  weight for this iteration     100.00

 eigenvalues of (default mixing * dielectric matrix)
  average eigenvalue GAMMA=   0.3515
  0.3515

 Free energy of the ion-electron system (eV)
  ---------------------------------------------------
  alpha Z        PSCENC =        75.25431677
  Ewald energy   TEWEN  =    138205.93982535
  -Hartree energ DENC   =   -181964.83251902
  -exchange      EXHF   =         0.00000000
  -V(xc)+E(xc)   XCENC  =     -1696.50810812
  PAW double counting   =     45660.12043161   -42159.69368203
  entropy T*S    EENTRO =        -0.23048076
  eigenvalues    EBANDS =     -3386.86011561
  atomic energy  EATOM  =     45086.50549395
  Solvation  Ediel_sol  =         0.00000000
  ---------------------------------------------------
  free energy    TOTEN  =      -180.30483785 eV

  energy without entropy =     -180.07435710  energy(sigma->0) =     -180.24721766


--------------------------------------------------------------------------------------------------------




--------------------------------------- Iteration      1(   7)  ---------------------------------------


    POTLOK:  cpu time   13.0218: real time   13.0239
    SETDIJ:  cpu time    0.1226: real time    0.1226
    EDDIAG:  cpu time   67.7474: real time   67.7488
  RMM-DIIS:  cpu time  216.8364: real time  216.8531
    ORTHCH:  cpu time   13.6522: real time   13.6559
       DOS:  cpu time    0.0014: real time    0.0014
    CHARGE:  cpu time   25.1985: real time   25.2002
    MIXING:  cpu time    0.5039: real time    0.5039
    --------------------------------------------
      LOOP:  cpu time  337.0842: real time  337.1099

 eigenvalue-minimisations  :   853
 total energy-change (2. order) :-0.2500290E+01  (-0.2090826E+01)
 number of electron     559.9999858 magnetization 
 augmentation part      240.2787502 magnetization 

 Broyden mixing:
  rms(total) = 0.24472E+01    rms(broyden)= 0.24469E+01
  rms(prec ) = 0.29398E+01
  weight for this iteration     100.00

 eigenvalues of (default mixing * dielectric matrix)
  average eigenvalue GAMMA=   0.3238
  0.4863  0.1612

 Free energy of the ion-electron system (eV)
  ---------------------------------------------------
  alpha Z        PSCENC =        75.25431677
  Ewald energy   TEWEN  =    138205.93982535
  -Hartree energ DENC   =   -182055.80296844
  -exchange      EXHF   =         0.00000000
  -V(xc)+E(xc)   XCENC  =     -1696.77571640
  PAW double counting   =     45738.50453357   -42235.47263488
  entropy T*S    EENTRO =        -0.05250165
  eigenvalues    EBANDS =     -3300.90547647
  atomic energy  EATOM  =     45086.50549395
  Solvation  Ediel_sol  =         0.00000000
  ---------------------------------------------------
  free energy    TOTEN  =      -182.80512820 eV

  energy without entropy =     -182.75262655  energy(sigma->0) =     -182.79200278


--------------------------------------------------------------------------------------------------------




--------------------------------------- Iteration      1(   8)  ---------------------------------------


    POTLOK:  cpu time   13.4463: real time   13.4495
    SETDIJ:  cpu time    0.1249: real time    0.1249
    EDDIAG:  cpu time   68.3681: real time   68.3744
  RMM-DIIS:  cpu time  200.5869: real time  200.5946
    ORTHCH:  cpu time   13.3850: real time   13.3852
       DOS:  cpu time    0.0014: real time    0.0014
    CHARGE:  cpu time   24.9300: real time   24.9304
    MIXING:  cpu time    0.5232: real time    0.5232
    --------------------------------------------
      LOOP:  cpu time  321.3656: real time  321.3837

 eigenvalue-minimisations  :   786
 total energy-change (2. order) :-0.2522663E+01  (-0.7736006E+00)
 number of electron     559.9999828 magnetization 
 augmentation part      240.0659340 magnetization 

 Broyden mixing:
  rms(total) = 0.29541E+01    rms(broyden)= 0.29539E+01
  rms(prec ) = 0.35481E+01
  weight for this iteration     100.00

 eigenvalues of (default mixing * dielectric matrix)
  average eigenvalue GAMMA=   0.2973
  0.6064  0.1681  0.1175

 Free energy of the ion-electron system (eV)
  ---------------------------------------------------
  alpha Z        PSCENC =        75.25431677
  Ewald energy   TEWEN  =    138205.93982535
  -Hartree energ DENC   =   -182086.31952541
  -exchange      EXHF   =         0.00000000
  -V(xc)+E(xc)   XCENC  =     -1696.79654169
  PAW double counting   =     45802.01552247   -42296.80197017
  entropy T*S    EENTRO =        -0.00671230
  eigenvalues    EBANDS =     -3275.11820013
  atomic energy  EATOM  =     45086.50549395
  Solvation  Ediel_sol  =         0.00000000
  ---------------------------------------------------
  free energy    TOTEN  =      -185.32779115 eV

  energy without entropy =     -185.32107885  energy(sigma->0) =     -185.32611307


--------------------------------------------------------------------------------------------------------




--------------------------------------- Iteration      1(   9)  ---------------------------------------


    POTLOK:  cpu time   12.9828: real time   12.9853
    SETDIJ:  cpu time    0.1212: real time    0.1212
    EDDIAG:  cpu time   67.8342: real time   67.8374
  RMM-DIIS:  cpu time  186.4870: real time  186.4928
    ORTHCH:  cpu time   13.4317: real time   13.4320
       DOS:  cpu time    0.0015: real time    0.0014
    CHARGE:  cpu time   24.9915: real time   24.9921
    MIXING:  cpu time    0.5270: real time    0.5270
    --------------------------------------------
      LOOP:  cpu time  306.3769: real time  306.3894

 eigenvalue-minimisations  :   737
 total energy-change (2. order) : 0.2026001E+01  (-0.5757781E+00)
 number of electron     559.9999864 magnetization 
 augmentation part      240.7184966 magnetization 

 Broyden mixing:
  rms(total) = 0.25320E+01    rms(broyden)= 0.25317E+01
  rms(prec ) = 0.29248E+01
  weight for this iteration     100.00

 eigenvalues of (default mixing * dielectric matrix)
  average eigenvalue GAMMA=   0.2884
  0.7154  0.1686  0.1686  0.1008

 Free energy of the ion-electron system (eV)
  ---------------------------------------------------
  alpha Z        PSCENC =        75.25431677
  Ewald energy   TEWEN  =    138205.93982535
  -Hartree energ DENC   =   -182097.62706535
  -exchange      EXHF   =         0.00000000
  -V(xc)+E(xc)   XCENC  =     -1696.79861237
  PAW double counting   =     45854.13363799   -42347.17228098
  entropy T*S    EENTRO =        -0.12346255
  eigenvalues    EBANDS =     -3263.41364317
  atomic energy  EATOM  =     45086.50549395
  Solvation  Ediel_sol  =         0.00000000
  ---------------------------------------------------
  free energy    TOTEN  =      -183.30179035 eV

  energy without entropy =     -183.17832780  energy(sigma->0) =     -183.27092471


--------------------------------------------------------------------------------------------------------




--------------------------------------- Iteration      1(  10)  ---------------------------------------


    POTLOK:  cpu time   13.1200: real time   13.1241
    SETDIJ:  cpu time    0.1250: real time    0.1250
    EDDIAG:  cpu time   67.8111: real time   67.8167
  RMM-DIIS:  cpu time  188.1363: real time  188.1431
    ORTHCH:  cpu time   13.2551: real time   13.2554
       DOS:  cpu time    0.0014: real time    0.0013
    CHARGE:  cpu time   25.4265: real time   25.4271
    MIXING:  cpu time    0.5968: real time    0.5968
    --------------------------------------------
      LOOP:  cpu time  308.4721: real time  308.4895

 eigenvalue-minimisations  :   737
 total energy-change (2. order) : 0.2009805E+01  (-0.4381228E+00)
 number of electron     559.9999863 magnetization 
 augmentation part      241.1396168 magnetization 

 Broyden mixing:
  rms(total) = 0.25090E+01    rms(broyden)= 0.25086E+01
  rms(prec ) = 0.29903E+01
  weight for this iteration     100.00

 eigenvalues of (default mixing * dielectric matrix)
  average eigenvalue GAMMA=   0.2688
  0.7817  0.1801  0.1801  0.1011  0.1011

 Free energy of the ion-electron system (eV)
  ---------------------------------------------------
  alpha Z        PSCENC =        75.25431677
  Ewald energy   TEWEN  =    138205.93982535
  -Hartree energ DENC   =   -182125.29769947
  -exchange      EXHF   =         0.00000000
  -V(xc)+E(xc)   XCENC  =     -1696.69867538
  PAW double counting   =     45906.56358278   -42397.88792810
  entropy T*S    EENTRO =        -0.05689919
  eigenvalues    EBANDS =     -3235.61400171
  atomic energy  EATOM  =     45086.50549395
  Solvation  Ediel_sol  =         0.00000000
  ---------------------------------------------------
  free energy    TOTEN  =      -181.29198499 eV

  energy without entropy =     -181.23508581  energy(sigma->0) =     -181.27776020


--------------------------------------------------------------------------------------------------------




--------------------------------------- Iteration      1(  11)  ---------------------------------------


    POTLOK:  cpu time   12.9174: real time   12.9200
    SETDIJ:  cpu time    0.1179: real time    0.1179
    EDDIAG:  cpu time   67.8225: real time   67.8254
  RMM-DIIS:  cpu time  184.4808: real time  184.4905
    ORTHCH:  cpu time   13.2470: real time   13.2469
       DOS:  cpu time    0.0015: real time    0.0015
    CHARGE:  cpu time   25.0528: real time   25.0526
    MIXING:  cpu time    0.5932: real time    0.5932
    --------------------------------------------
      LOOP:  cpu time  304.2329: real time  304.2478

 eigenvalue-minimisations  :   727
 total energy-change (2. order) : 0.2455915E+01  (-0.2422372E+00)
 number of electron     559.9999851 magnetization 
 augmentation part      241.3525887 magnetization 

 Broyden mixing:
  rms(total) = 0.16649E+01    rms(broyden)= 0.16645E+01
  rms(prec ) = 0.19045E+01
  weight for this iteration     100.00

 eigenvalues of (default mixing * dielectric matrix)
  average eigenvalue GAMMA=   0.2808
  0.9260  0.2213  0.2213  0.1190  0.1190  0.0784

 Free energy of the ion-electron system (eV)
  ---------------------------------------------------
  alpha Z        PSCENC =        75.25431677
  Ewald energy   TEWEN  =    138205.93982535
  -Hartree energ DENC   =   -182143.62743711
  -exchange      EXHF   =         0.00000000
  -V(xc)+E(xc)   XCENC  =     -1696.58912224
  PAW double counting   =     45940.06207763   -42430.14903622
  entropy T*S    EENTRO =        -0.12927849
  eigenvalues    EBANDS =     -3216.10290975
  atomic energy  EATOM  =     45086.50549395
  Solvation  Ediel_sol  =         0.00000000
  ---------------------------------------------------
  free energy    TOTEN  =      -178.83607011 eV

  energy without entropy =     -178.70679162  energy(sigma->0) =     -178.80375049


--------------------------------------------------------------------------------------------------------




--------------------------------------- Iteration      1(  12)  ---------------------------------------


    POTLOK:  cpu time   12.9018: real time   12.9050
    SETDIJ:  cpu time    0.1196: real time    0.1196
    EDDIAG:  cpu time   67.7172: real time   67.7172
  RMM-DIIS:  cpu time  182.4305: real time  182.4316
    ORTHCH:  cpu time   13.3281: real time   13.3280
       DOS:  cpu time    0.0015: real time    0.0015
    CHARGE:  cpu time   24.8356: real time   24.8354
    MIXING:  cpu time    0.6329: real time    0.6329
    --------------------------------------------
      LOOP:  cpu time  301.9671: real time  301.9711

 eigenvalue-minimisations  :   718
 total energy-change (2. order) : 0.1358211E+01  (-0.2801079E+00)
 number of electron     559.9999848 magnetization 
 augmentation part      241.8070659 magnetization 

 Broyden mixing:
  rms(total) = 0.17186E+01    rms(broyden)= 0.17182E+01
  rms(prec ) = 0.20492E+01
  weight for this iteration     100.00

 eigenvalues of (default mixing * dielectric matrix)
  average eigenvalue GAMMA=   0.2788
  1.0125  0.2442  0.2442  0.1418  0.1418  0.0836  0.0836

 Free energy of the ion-electron system (eV)
  ---------------------------------------------------
  alpha Z        PSCENC =        75.25431677
  Ewald energy   TEWEN  =    138205.93982535
  -Hartree energ DENC   =   -182165.55623255
  -exchange      EXHF   =         0.00000000
  -V(xc)+E(xc)   XCENC  =     -1696.28260974
  PAW double counting   =     45996.45548565   -42484.32957305
  entropy T*S    EENTRO =        -0.12020580
  eigenvalues    EBANDS =     -3195.34435928
  atomic energy  EATOM  =     45086.50549395
  Solvation  Ediel_sol  =         0.00000000
  ---------------------------------------------------
  free energy    TOTEN  =      -177.47785871 eV

  energy without entropy =     -177.35765291  energy(sigma->0) =     -177.44780726


--------------------------------------------------------------------------------------------------------




--------------------------------------- Iteration      1(  13)  ---------------------------------------


    POTLOK:  cpu time   12.8899: real time   12.8932
    SETDIJ:  cpu time    0.1209: real time    0.1209
    EDDIAG:  cpu time   67.4659: real time   67.4671
  RMM-DIIS:  cpu time  181.4818: real time  181.4828
    ORTHCH:  cpu time   12.8740: real time   12.8740
       DOS:  cpu time    0.0015: real time    0.0015
    CHARGE:  cpu time   24.1433: real time   24.1432
    MIXING:  cpu time    0.6519: real time    0.6519
    --------------------------------------------
      LOOP:  cpu time  299.6292: real time  299.6346

 eigenvalue-minimisations  :   718
 total energy-change (2. order) :-0.1209850E+00  (-0.1784139E+00)
 number of electron     559.9999864 magnetization 
 augmentation part      241.6366641 magnetization 

 Broyden mixing:
  rms(total) = 0.18728E+01    rms(broyden)= 0.18725E+01
  rms(prec ) = 0.22279E+01
  weight for this iteration     100.00

 eigenvalues of (default mixing * dielectric matrix)
  average eigenvalue GAMMA=   0.2867
  1.1515  0.3479  0.1901  0.1901  0.1320  0.1083  0.1083  0.0651

 Free energy of the ion-electron system (eV)
  ---------------------------------------------------
  alpha Z        PSCENC =        75.25431677
  Ewald energy   TEWEN  =    138205.93982535
  -Hartree energ DENC   =   -182191.31793118
  -exchange      EXHF   =         0.00000000
  -V(xc)+E(xc)   XCENC  =     -1695.96694887
  PAW double counting   =     46039.06642609   -42525.14056476
  entropy T*S    EENTRO =        -0.05846241
  eigenvalues    EBANDS =     -3171.88099862
  atomic energy  EATOM  =     45086.50549395
  Solvation  Ediel_sol  =         0.00000000
  ---------------------------------------------------
  free energy    TOTEN  =      -177.59884368 eV

  energy without entropy =     -177.54038127  energy(sigma->0) =     -177.58422807


--------------------------------------------------------------------------------------------------------




--------------------------------------- Iteration      1(  14)  ---------------------------------------


    POTLOK:  cpu time   12.5018: real time   12.5053
    SETDIJ:  cpu time    0.1232: real time    0.1232
    EDDIAG:  cpu time   65.9002: real time   65.9030
  RMM-DIIS:  cpu time  178.0626: real time  178.0704
    ORTHCH:  cpu time   13.1196: real time   13.1248
       DOS:  cpu time    0.0014: real time    0.0014
    CHARGE:  cpu time   24.2254: real time   24.2255
    MIXING:  cpu time    0.6864: real time    0.6864
    --------------------------------------------
      LOOP:  cpu time  294.6206: real time  294.6401

 eigenvalue-minimisations  :   721
 total energy-change (2. order) :-0.8305382E+00  (-0.1667087E+00)
 number of electron     559.9999882 magnetization 
 augmentation part      241.3540300 magnetization 

 Broyden mixing:
  rms(total) = 0.32232E+01    rms(broyden)= 0.32230E+01
  rms(prec ) = 0.37517E+01
  weight for this iteration     100.00

 eigenvalues of (default mixing * dielectric matrix)
  average eigenvalue GAMMA=   0.2934
  1.3060  0.4428  0.2122  0.2122  0.1180  0.1180  0.1098  0.0662  0.0552

 Free energy of the ion-electron system (eV)
  ---------------------------------------------------
  alpha Z        PSCENC =        75.25431677
  Ewald energy   TEWEN  =    138205.93982535
  -Hartree energ DENC   =   -182235.42296417
  -exchange      EXHF   =         0.00000000
  -V(xc)+E(xc)   XCENC  =     -1695.50876714
  PAW double counting   =     46099.63817473   -42583.10827683
  entropy T*S    EENTRO =         0.30228733
  eigenvalues    EBANDS =     -3132.02947185
  atomic energy  EATOM  =     45086.50549395
  Solvation  Ediel_sol  =         0.00000000
  ---------------------------------------------------
  free energy    TOTEN  =      -178.42938185 eV

  energy without entropy =     -178.73166918  energy(sigma->0) =     -178.50495368


--------------------------------------------------------------------------------------------------------




--------------------------------------- Iteration      1(  15)  ---------------------------------------


    POTLOK:  cpu time   12.5424: real time   12.5446
    SETDIJ:  cpu time    0.1192: real time    0.1192
    EDDIAG:  cpu time   66.0529: real time   66.0557
  RMM-DIIS:  cpu time  174.6724: real time  174.6753
    ORTHCH:  cpu time   12.8961: real time   12.8961
       DOS:  cpu time    0.0014: real time    0.0014
    CHARGE:  cpu time   24.1476: real time   24.1475
    MIXING:  cpu time    0.7385: real time    0.7385
    --------------------------------------------
      LOOP:  cpu time  291.1705: real time  291.1782

 eigenvalue-minimisations  :   712
 total energy-change (2. order) : 0.6415665E-01  (-0.1564529E+00)
 number of electron     559.9999857 magnetization 
 augmentation part      241.1053064 magnetization 

 Broyden mixing:
  rms(total) = 0.29468E+01    rms(broyden)= 0.29466E+01
  rms(prec ) = 0.34728E+01
  weight for this iteration     100.00

 eigenvalues of (default mixing * dielectric matrix)
  average eigenvalue GAMMA=   0.2817
  1.3713  0.4823  0.2206  0.2206  0.1204  0.1204  0.1034  0.0673  0.0673  0.0437

 Free energy of the ion-electron system (eV)
  ---------------------------------------------------
  alpha Z        PSCENC =        75.25431677
  Ewald energy   TEWEN  =    138205.93982535
  -Hartree energ DENC   =   -182270.19706625
  -exchange      EXHF   =         0.00000000
  -V(xc)+E(xc)   XCENC  =     -1695.08415705
  PAW double counting   =     46152.61656589   -42633.78824762
  entropy T*S    EENTRO =         0.18007497
  eigenvalues    EBANDS =     -3099.79203120
  atomic energy  EATOM  =     45086.50549395
  Solvation  Ediel_sol  =         0.00000000
  ---------------------------------------------------
  free energy    TOTEN  =      -178.36522519 eV

  energy without entropy =     -178.54530017  energy(sigma->0) =     -178.41024394


--------------------------------------------------------------------------------------------------------




--------------------------------------- Iteration      1(  16)  ---------------------------------------


    POTLOK:  cpu time   12.4654: real time   12.4681
    SETDIJ:  cpu time    0.1226: real time    0.1226
    EDDIAG:  cpu time   66.0321: real time   66.0325
  RMM-DIIS:  cpu time  178.5981: real time  178.6025
    ORTHCH:  cpu time   12.9258: real time   12.9258
       DOS:  cpu time    0.0014: real time    0.0014
    CHARGE:  cpu time   24.2499: real time   24.2499
    MIXING:  cpu time    0.7814: real time    0.7814
    --------------------------------------------
      LOOP:  cpu time  295.1767: real time  295.1843

 eigenvalue-minimisations  :   724
 total energy-change (2. order) : 0.1502288E+01  (-0.8323637E-01)
 number of electron     559.9999868 magnetization 
 augmentation part      241.0578686 magnetization 

 Broyden mixing:
  rms(total) = 0.17058E+01    rms(broyden)= 0.17056E+01
  rms(prec ) = 0.20244E+01
  weight for this iteration     100.00

 eigenvalues of (default mixing * dielectric matrix)
  average eigenvalue GAMMA=   0.2819
  1.4729  0.5390  0.2367  0.2367  0.1248  0.1248  0.0951  0.0951  0.0687  0.0687
  0.0385

 Free energy of the ion-electron system (eV)
  ---------------------------------------------------
  alpha Z        PSCENC =        75.25431677
  Ewald energy   TEWEN  =    138205.93982535
  -Hartree energ DENC   =   -182283.53947443
  -exchange      EXHF   =         0.00000000
  -V(xc)+E(xc)   XCENC  =     -1694.88824279
  PAW double counting   =     46175.02504202   -42655.20278693
  entropy T*S    EENTRO =        -0.00365778
  eigenvalues    EBANDS =     -3085.95345351
  atomic energy  EATOM  =     45086.50549395
  Solvation  Ediel_sol  =         0.00000000
  ---------------------------------------------------
  free energy    TOTEN  =      -176.86293734 eV

  energy without entropy =     -176.85927956  energy(sigma->0) =     -176.86202290


--------------------------------------------------------------------------------------------------------




--------------------------------------- Iteration      1(  17)  ---------------------------------------


    POTLOK:  cpu time   12.4952: real time   12.4983
    SETDIJ:  cpu time    0.1175: real time    0.1174
    EDDIAG:  cpu time   66.0599: real time   66.0603
  RMM-DIIS:  cpu time  174.6841: real time  174.6871
    ORTHCH:  cpu time   12.9526: real time   12.9525
       DOS:  cpu time    0.0014: real time    0.0014
    CHARGE:  cpu time   24.7450: real time   24.7472
    MIXING:  cpu time    0.8287: real time    0.8287
    --------------------------------------------
      LOOP:  cpu time  291.8844: real time  291.8930

 eigenvalue-minimisations  :   709
 total energy-change (2. order) : 0.6821216E+00  (-0.8813342E-01)
 number of electron     559.9999865 magnetization 
 augmentation part      241.1133797 magnetization 

 Broyden mixing:
  rms(total) = 0.12690E+01    rms(broyden)= 0.12687E+01
  rms(prec ) = 0.15245E+01
  weight for this iteration     100.00

 eigenvalues of (default mixing * dielectric matrix)
  average eigenvalue GAMMA=   0.2784
  1.5095  0.5871  0.2610  0.2610  0.1178  0.1178  0.1202  0.1202  0.0716  0.0716
  0.0667  0.0367

 Free energy of the ion-electron system (eV)
  ---------------------------------------------------
  alpha Z        PSCENC =        75.25431677
  Ewald energy   TEWEN  =    138205.93982535
  -Hartree energ DENC   =   -182300.13820690
  -exchange      EXHF   =         0.00000000
  -V(xc)+E(xc)   XCENC  =     -1694.65154883
  PAW double counting   =     46202.96506968   -42681.87878030
  entropy T*S    EENTRO =        -0.04969170
  eigenvalues    EBANDS =     -3070.12729380
  atomic energy  EATOM  =     45086.50549395
  Solvation  Ediel_sol  =         0.00000000
  ---------------------------------------------------
  free energy    TOTEN  =      -176.18081578 eV

  energy without entropy =     -176.13112408  energy(sigma->0) =     -176.16839285


--------------------------------------------------------------------------------------------------------




--------------------------------------- Iteration      1(  18)  ---------------------------------------


    POTLOK:  cpu time   12.4452: real time   12.4486
    SETDIJ:  cpu time    0.1162: real time    0.1162
    EDDIAG:  cpu time   65.7518: real time   65.7530
  RMM-DIIS:  cpu time  175.3045: real time  175.3068
    ORTHCH:  cpu time   12.9971: real time   12.9970
       DOS:  cpu time    0.0014: real time    0.0014
    CHARGE:  cpu time   24.1857: real time   24.1855
    MIXING:  cpu time    0.8675: real time    0.8675
    --------------------------------------------
      LOOP:  cpu time  291.6696: real time  291.6761

 eigenvalue-minimisations  :   710
 total energy-change (2. order) : 0.3016993E+00  (-0.4520218E-01)
 number of electron     559.9999862 magnetization 
 augmentation part      241.1601539 magnetization 

 Broyden mixing:
  rms(total) = 0.10761E+01    rms(broyden)= 0.10759E+01
  rms(prec ) = 0.12761E+01
  weight for this iteration     100.00

 eigenvalues of (default mixing * dielectric matrix)
  average eigenvalue GAMMA=   0.2888
  1.5274  0.7401  0.3167  0.3167  0.1712  0.1194  0.1194  0.1092  0.0816  0.0816
  0.0754  0.0595  0.0360

 Free energy of the ion-electron system (eV)
  ---------------------------------------------------
  alpha Z        PSCENC =        75.25431677
  Ewald energy   TEWEN  =    138205.93982535
  -Hartree energ DENC   =   -182308.63205181
  -exchange      EXHF   =         0.00000000
  -V(xc)+E(xc)   XCENC  =     -1694.52346278
  PAW double counting   =     46214.24246180   -42692.50232502
  entropy T*S    EENTRO =        -0.07400559
  eigenvalues    EBANDS =     -3062.08936912
  atomic energy  EATOM  =     45086.50549395
  Solvation  Ediel_sol  =         0.00000000
  ---------------------------------------------------
  free energy    TOTEN  =      -175.87911645 eV

  energy without entropy =     -175.80511086  energy(sigma->0) =     -175.86061505


--------------------------------------------------------------------------------------------------------




--------------------------------------- Iteration      1(  19)  ---------------------------------------


    POTLOK:  cpu time   12.4718: real time   12.4738
    SETDIJ:  cpu time    0.1160: real time    0.1160
    EDDIAG:  cpu time   65.8428: real time   65.8455
  RMM-DIIS:  cpu time  172.2031: real time  172.2186
    ORTHCH:  cpu time   12.9740: real time   12.9741
       DOS:  cpu time    0.0014: real time    0.0014
    CHARGE:  cpu time   24.2040: real time   24.2063
    MIXING:  cpu time    0.9194: real time    0.9194
    --------------------------------------------
      LOOP:  cpu time  288.7327: real time  288.7552

 eigenvalue-minimisations  :   698
 total energy-change (2. order) :-0.7401432E-03  (-0.4670397E-01)
 number of electron     559.9999862 magnetization 
 augmentation part      241.0346071 magnetization 

 Broyden mixing:
  rms(total) = 0.10012E+01    rms(broyden)= 0.10009E+01
  rms(prec ) = 0.11672E+01
  weight for this iteration     100.00

 eigenvalues of (default mixing * dielectric matrix)
  average eigenvalue GAMMA=   0.3100
  1.6512  0.9976  0.3221  0.3221  0.2534  0.1260  0.1260  0.1093  0.1093  0.0786
  0.0786  0.0692  0.0611  0.0359

 Free energy of the ion-electron system (eV)
  ---------------------------------------------------
  alpha Z        PSCENC =        75.25431677
  Ewald energy   TEWEN  =    138205.93982535
  -Hartree energ DENC   =   -182332.03442496
  -exchange      EXHF   =         0.00000000
  -V(xc)+E(xc)   XCENC  =     -1694.26678535
  PAW double counting   =     46232.25019035   -42709.22538759
  entropy T*S    EENTRO =        -0.10541222
  eigenvalues    EBANDS =     -3040.19767290
  atomic energy  EATOM  =     45086.50549395
  Solvation  Ediel_sol  =         0.00000000
  ---------------------------------------------------
  free energy    TOTEN  =      -175.87985659 eV

  energy without entropy =     -175.77444438  energy(sigma->0) =     -175.85350354


--------------------------------------------------------------------------------------------------------




--------------------------------------- Iteration      1(  20)  ---------------------------------------


    POTLOK:  cpu time   12.4960: real time   12.4995
    SETDIJ:  cpu time    0.1161: real time    0.1161
    EDDIAG:  cpu time   65.7664: real time   65.7675
  RMM-DIIS:  cpu time  171.7645: real time  171.7787
    ORTHCH:  cpu time   12.9689: real time   12.9700
       DOS:  cpu time    0.0015: real time    0.0015
    CHARGE:  cpu time   24.2102: real time   24.2114
    MIXING:  cpu time    0.9871: real time    0.9871
    --------------------------------------------
      LOOP:  cpu time  288.3106: real time  288.3317

 eigenvalue-minimisations  :   695
 total energy-change (2. order) : 0.1985848E+00  (-0.3962416E-01)
 number of electron     559.9999876 magnetization 
 augmentation part      241.1036168 magnetization 

 Broyden mixing:
  rms(total) = 0.91497E+00    rms(broyden)= 0.91473E+00
  rms(prec ) = 0.10539E+01
  weight for this iteration     100.00

 eigenvalues of (default mixing * dielectric matrix)
  average eigenvalue GAMMA=   0.3091
  1.7348  1.0752  0.3331  0.3331  0.2026  0.1213  0.1213  0.1415  0.1415  0.1090
  0.0805  0.0805  0.0630  0.0630  0.0359

 Free energy of the ion-electron system (eV)
  ---------------------------------------------------
  alpha Z        PSCENC =        75.25431677
  Ewald energy   TEWEN  =    138205.93982535
  -Hartree energ DENC   =   -182358.80958886
  -exchange      EXHF   =         0.00000000
  -V(xc)+E(xc)   XCENC  =     -1693.87843458
  PAW double counting   =     46255.88196273   -42731.07501952
  entropy T*S    EENTRO =        -0.08221652
  eigenvalues    EBANDS =     -3015.41761113
  atomic energy  EATOM  =     45086.50549395
  Solvation  Ediel_sol  =         0.00000000
  ---------------------------------------------------
  free energy    TOTEN  =      -175.68127180 eV

  energy without entropy =     -175.59905528  energy(sigma->0) =     -175.66071767


--------------------------------------------------------------------------------------------------------




--------------------------------------- Iteration      1(  21)  ---------------------------------------


    POTLOK:  cpu time   12.6324: real time   12.6409
    SETDIJ:  cpu time    0.1343: real time    0.1343
    EDDIAG:  cpu time   65.8205: real time   65.8235
  RMM-DIIS:  cpu time  172.0126: real time  172.0284
    ORTHCH:  cpu time   12.9998: real time   13.0019
       DOS:  cpu time    0.0015: real time    0.0015
    CHARGE:  cpu time   24.2632: real time   24.2646
    MIXING:  cpu time    1.0349: real time    1.0349
    --------------------------------------------
      LOOP:  cpu time  288.8992: real time  288.9298

 eigenvalue-minimisations  :   697
 total energy-change (2. order) : 0.1959166E+00  (-0.2432673E-01)
 number of electron     559.9999868 magnetization 
 augmentation part      241.1258952 magnetization 

 Broyden mixing:
  rms(total) = 0.77911E+00    rms(broyden)= 0.77894E+00
  rms(prec ) = 0.92395E+00
  weight for this iteration     100.00

 eigenvalues of (default mixing * dielectric matrix)
  average eigenvalue GAMMA=   0.3220
  1.8028  1.1982  0.4080  0.4080  0.2340  0.2340  0.1217  0.1217  0.1106  0.1106
  0.0827  0.0827  0.0700  0.0700  0.0613  0.0359

 Free energy of the ion-electron system (eV)
  ---------------------------------------------------
  alpha Z        PSCENC =        75.25431677
  Ewald energy   TEWEN  =    138205.93982535
  -Hartree energ DENC   =   -182369.31614899
  -exchange      EXHF   =         0.00000000
  -V(xc)+E(xc)   XCENC  =     -1693.71841046
  PAW double counting   =     46263.22312677   -42737.72984051
  entropy T*S    EENTRO =        -0.07098616
  eigenvalues    EBANDS =     -3005.57273189
  atomic energy  EATOM  =     45086.50549395
  Solvation  Ediel_sol  =         0.00000000
  ---------------------------------------------------
  free energy    TOTEN  =      -175.48535516 eV

  energy without entropy =     -175.41436901  energy(sigma->0) =     -175.46760862


--------------------------------------------------------------------------------------------------------




--------------------------------------- Iteration      1(  22)  ---------------------------------------


    POTLOK:  cpu time   12.5979: real time   12.5987
    SETDIJ:  cpu time    0.1198: real time    0.1198
    EDDIAG:  cpu time   65.8262: real time   65.8306
  RMM-DIIS:  cpu time  172.4499: real time  172.4699
    ORTHCH:  cpu time   13.0565: real time   13.0576
       DOS:  cpu time    0.0014: real time    0.0014
    CHARGE:  cpu time   24.3449: real time   24.3452
    MIXING:  cpu time    1.1278: real time    1.1278
    --------------------------------------------
      LOOP:  cpu time  289.5245: real time  289.5511

 eigenvalue-minimisations  :   699
 total energy-change (2. order) :-0.6413923E-02  (-0.1958338E-01)
 number of electron     559.9999866 magnetization 
 augmentation part      241.0874856 magnetization 

 Broyden mixing:
  rms(total) = 0.88718E+00    rms(broyden)= 0.88703E+00
  rms(prec ) = 0.10358E+01
  weight for this iteration     100.00

 eigenvalues of (default mixing * dielectric matrix)
  average eigenvalue GAMMA=   0.3318
  1.9028  1.3259  0.4694  0.4694  0.2586  0.2586  0.1238  0.1238  0.1117  0.1117
  0.0847  0.0847  0.0870  0.0669  0.0669  0.0593  0.0359

 Free energy of the ion-electron system (eV)
  ---------------------------------------------------
  alpha Z        PSCENC =        75.25431677
  Ewald energy   TEWEN  =    138205.93982535
  -Hartree energ DENC   =   -182384.62625426
  -exchange      EXHF   =         0.00000000
  -V(xc)+E(xc)   XCENC  =     -1693.54049958
  PAW double counting   =     46268.43577323   -42742.20191291
  entropy T*S    EENTRO =        -0.05030149
  eigenvalues    EBANDS =     -2991.20821015
  atomic energy  EATOM  =     45086.50549395
  Solvation  Ediel_sol  =         0.00000000
  ---------------------------------------------------
  free energy    TOTEN  =      -175.49176909 eV

  energy without entropy =     -175.44146760  energy(sigma->0) =     -175.47919371


--------------------------------------------------------------------------------------------------------




--------------------------------------- Iteration      1(  23)  ---------------------------------------


    POTLOK:  cpu time   12.4310: real time   12.4347
    SETDIJ:  cpu time    0.1180: real time    0.1180
    EDDIAG:  cpu time   65.9748: real time   65.9799
  RMM-DIIS:  cpu time  173.4058: real time  173.4152
    ORTHCH:  cpu time   13.0807: real time   13.0862
       DOS:  cpu time    0.0015: real time    0.0015
    CHARGE:  cpu time   24.2747: real time   24.2782
    MIXING:  cpu time    1.1670: real time    1.1670
    --------------------------------------------
      LOOP:  cpu time  290.4534: real time  290.4806

 eigenvalue-minimisations  :   703
 total energy-change (2. order) :-0.6377979E-02  (-0.1702567E-01)
 number of electron     559.9999871 magnetization 
 augmentation part      241.0457789 magnetization 

 Broyden mixing:
  rms(total) = 0.92295E+00    rms(broyden)= 0.92283E+00
  rms(prec ) = 0.10900E+01
  weight for this iteration     100.00

 eigenvalues of (default mixing * dielectric matrix)
  average eigenvalue GAMMA=   0.3332
  2.0296  1.3544  0.5049  0.5049  0.2716  0.2716  0.1243  0.1243  0.1174  0.1174
[...]
 -0.006  -0.012   0.003   0.004   0.005  -0.006  -0.012   0.003
 -0.011  -0.021   0.006   0.007   0.009  -0.010  -0.020   0.005
 -0.015  -0.005   0.013   0.000   0.022  -0.014  -0.005   0.012
  0.000  -0.023  -0.006  -0.015  -0.000   0.000  -0.022  -0.006
 -0.022   0.000   0.009  -0.005  -0.016  -0.022   0.000   0.008
 -0.018  -0.006   0.015   0.000   0.027  -0.017  -0.006   0.015
  0.000  -0.027  -0.007  -0.018   0.000   0.000  -0.027  -0.007
 -0.027   0.000   0.010  -0.006  -0.019  -0.026   0.000   0.010
 total augmentation occupancy for first ion, spin component:           1
  1.537  -0.032   0.005   0.019   0.026   0.073  -0.008  -0.001   0.035  -0.010   0.086  -0.030   0.012   0.002   0.002  -0.019
 -0.032   1.405   0.028   0.072   0.001  -0.007   0.070   0.011  -0.015  -0.008   0.218  -0.066   0.019   0.002   0.002  -0.006
  0.005   0.028   1.548   0.001   0.002  -0.001   0.013   0.072  -0.013   0.017  -0.049   0.015  -0.003  -0.007  -0.005   0.016
  0.019   0.072   0.001   1.341   0.044   0.033  -0.014  -0.012   0.090  -0.023  -0.081   0.022  -0.001  -0.009  -0.003   0.001
  0.026   0.001   0.002   0.044   1.447  -0.011  -0.009   0.016  -0.022   0.065  -0.094   0.031  -0.002  -0.010  -0.010   0.026
  0.073  -0.007  -0.001   0.033  -0.011   0.216   0.018  -0.002  -0.045   0.004  -0.048   0.002   0.017  -0.010   0.035  -0.004
 -0.008   0.070   0.013  -0.014  -0.009   0.018   0.262  -0.023  -0.003   0.006  -0.109   0.007  -0.001   0.051  -0.010  -0.000
 -0.001   0.011   0.072  -0.012   0.016  -0.002  -0.023   0.214   0.014  -0.020   0.028  -0.001  -0.012   0.009  -0.018   0.003
  0.035  -0.015  -0.013   0.090  -0.022  -0.045  -0.003   0.014   0.259   0.007   0.042  -0.004  -0.009   0.036   0.004   0.000
 -0.010  -0.008   0.017  -0.023   0.065   0.004   0.006  -0.020   0.007   0.257   0.046  -0.002  -0.038   0.002   0.049   0.007
  0.086   0.218  -0.049  -0.081  -0.094  -0.048  -0.109   0.028   0.042   0.046   0.949  -0.140   0.084   0.014   0.064  -0.012
 -0.030  -0.066   0.015   0.022   0.031   0.002   0.007  -0.001  -0.004  -0.002  -0.140   0.023  -0.014  -0.003  -0.010   0.003
  0.012   0.019  -0.003  -0.001  -0.002   0.017  -0.001  -0.012  -0.009  -0.038   0.084  -0.014   0.029  -0.008  -0.004  -0.003
  0.002   0.002  -0.007  -0.009  -0.010  -0.010   0.051   0.009   0.036   0.002   0.014  -0.003  -0.008   0.036   0.004   0.000
  0.002   0.002  -0.005  -0.003  -0.010   0.035  -0.010  -0.018   0.004   0.049   0.064  -0.010  -0.004   0.004   0.035  -0.000
 -0.019  -0.006   0.016   0.001   0.026  -0.004  -0.000   0.003   0.000   0.007  -0.012   0.003  -0.003   0.000  -0.000   0.001
  0.001  -0.028  -0.007  -0.018   0.001   0.001  -0.008  -0.001  -0.006  -0.000  -0.003   0.001   0.000  -0.003  -0.000   0.000
 -0.028   0.001   0.012  -0.005  -0.020  -0.006   0.001   0.003  -0.001  -0.007  -0.008   0.001  -0.000  -0.000  -0.003   0.000


------------------------ aborting loop because EDIFF is reached ----------------------------------------


    CHARGE:  cpu time   23.8559: real time   23.8557
    FORLOC:  cpu time    6.6311: real time    6.6311
    FORNL :  cpu time   62.7768: real time   62.7782
    STRESS:  cpu time  194.2313: real time  194.2352
    FORCOR:  cpu time   21.3937: real time   21.3938
    FORHAR:  cpu time    9.3998: real time    9.3999
    MIXING:  cpu time    3.3021: real time    3.3022
    OFIELD:  cpu time    0.0000: real time    0.0000

  FORCE on cell =-STRESS in cart. coord.  units (eV):
  Direction    XX          YY          ZZ          XY          YZ          ZX
  --------------------------------------------------------------------------------------
  Alpha Z    75.25432    75.25432    75.25432
  Ewald   47020.48330 44012.11267 47173.23811   189.91859  -195.60655 -2275.66186
  Hartree 61693.90933 58939.44620 61919.26366   152.55943  -173.75426 -2054.31764
  E(xc)   -2903.81922 -2905.87798 -2904.73960     0.33120    -0.12300    -1.34448
  Local  ************************************  -336.70941   366.79623  4305.69360
  n-local  -877.86190  -880.25544  -881.73648    -0.12194    -0.39222     0.47483
  augment  4098.87741  4107.24869  4104.31023    -1.31072     0.61144     4.03636
  Kinetic  7790.61657  7818.60201  7802.96461    -4.45786     2.04911    18.10910
  Fock        0.00000     0.00000     0.00000     0.00000     0.00000     0.00000
  -------------------------------------------------------------------------------------
  Total    -110.75270  -113.51244  -111.14944     0.20931    -0.41926    -3.01010
  in kB      -6.57205    -6.73582    -6.59560     0.01242    -0.02488    -0.17862
  external pressure =       -6.63 kB  Pullay stress =        0.00 kB


 VOLUME and BASIS-vectors are now :
 -----------------------------------------------------------------------------
  energy-cutoff  :      400.00
  volume of cell :    27000.00
      direct lattice vectors                 reciprocal lattice vectors
    30.000000000  0.000000000  0.000000000     0.033333333  0.000000000  0.000000000
     0.000000000 30.000000000  0.000000000     0.000000000  0.033333333  0.000000000
     0.000000000  0.000000000 30.000000000     0.000000000  0.000000000  0.033333333

  length of vectors
    30.000000000 30.000000000 30.000000000     0.033333333  0.033333333  0.033333333


 FORCES acting on ions
    electron-ion (+dipol)            ewald-force                    non-local-force                 convergence-correction
 -----------------------------------------------------------------------------------------------
   0.403E+03 0.978E+03 0.411E+03   -.401E+03 -.975E+03 -.410E+03   -.149E+01 -.182E+01 -.220E+00   0.750E-02 -.762E-03 0.257E-03
   -.957E+03 -.430E+03 0.314E+03   0.954E+03 0.428E+03 -.313E+03   0.150E+01 0.125E+01 -.481E+00   -.649E-03 -.469E-02 0.330E-02
   -.382E+03 0.987E+03 0.406E+03   0.379E+03 -.984E+03 -.405E+03   0.148E+01 -.186E+01 -.200E+00   0.438E-02 0.393E-02 0.113E-02
   0.977E+03 -.395E+03 0.413E+03   -.974E+03 0.392E+03 -.412E+03   -.181E+01 0.152E+01 -.197E+00   -.767E-03 0.227E-02 -.242E-02
   0.224E+02 0.601E+03 0.959E+03   -.223E+02 -.601E+03 -.956E+03   -.362E-01 -.348E+00 -.237E+01   0.747E-02 -.595E-03 0.178E-02
   0.339E+01 0.588E+03 -.968E+03   -.335E+01 -.587E+03 0.965E+03   -.223E-01 -.293E+00 0.236E+01   0.479E-02 -.117E-02 -.333E-02
   0.541E+01 0.114E+04 -.557E+01   -.543E+01 -.113E+04 0.561E+01   0.915E-02 -.310E+01 -.280E-01   0.454E-02 0.359E-02 0.258E-02
   0.114E+04 0.238E+00 -.295E+01   -.113E+04 -.239E+00 0.293E+01   -.310E+01 0.133E-02 0.124E-01   -.374E-02 -.116E-03 0.562E-03
   -.114E+04 0.288E+01 -.375E+02   0.113E+04 -.286E+01 0.376E+02   0.313E+01 -.128E-01 -.639E-01   -.528E-02 -.968E-03 0.238E-02
   0.644E+01 -.114E+04 -.664E+01   -.646E+01 0.113E+04 0.669E+01   0.119E-01 0.309E+01 -.272E-01   0.437E-02 0.286E-02 -.294E-03
   -.544E+03 0.633E+03 0.796E+03   0.542E+03 -.631E+03 -.792E+03   0.165E+01 -.145E+01 -.223E+01   0.832E-04 0.932E-03 0.477E-02
   -.575E+03 0.581E+03 -.818E+03   0.573E+03 -.578E+03 0.815E+03   0.157E+01 -.155E+01 0.219E+01   0.275E-03 0.306E-02 -.406E-02
   0.590E+03 -.582E+03 0.810E+03   -.587E+03 0.580E+03 -.807E+03   -.154E+01 0.155E+01 -.220E+01   -.926E-03 0.866E-04 -.400E-02
   0.581E+03 -.579E+03 -.815E+03   -.578E+03 0.576E+03 0.811E+03   -.155E+01 0.155E+01 0.219E+01   -.984E-03 -.193E-02 0.543E-02
   0.588E+03 0.583E+03 0.810E+03   -.586E+03 -.580E+03 -.807E+03   -.154E+01 -.156E+01 -.221E+01   0.384E-02 -.374E-02 -.366E-02
   0.580E+03 0.579E+03 -.814E+03   -.578E+03 -.577E+03 0.811E+03   -.155E+01 -.156E+01 0.220E+01   0.529E-02 -.265E-02 0.145E-02
   -.523E+03 -.648E+03 0.786E+03   0.521E+03 0.646E+03 -.782E+03   0.157E+01 0.130E+01 -.211E+01   0.435E-02 -.416E-02 0.167E-02
   -.575E+03 -.580E+03 -.819E+03   0.573E+03 0.578E+03 0.816E+03   0.157E+01 0.155E+01 0.219E+01   0.638E-02 -.738E-02 -.142E-02
   0.398E+03 0.974E+03 -.420E+03   -.396E+03 -.971E+03 0.420E+03   -.153E+01 -.181E+01 0.235E+00   0.671E-02 -.167E-03 0.184E-02
   -.969E+03 -.396E+03 -.433E+03   0.966E+03 0.394E+03 0.433E+03   0.181E+01 0.150E+01 0.257E+00   -.210E-02 -.465E-02 0.951E-03
   -.290E+03 0.338E+03 0.425E+03   0.290E+03 -.338E+03 -.426E+03   -.398E+00 0.233E+00 0.718E+00   0.701E-02 -.324E-02 0.114E-02
   0.977E+03 0.395E+03 0.413E+03   -.974E+03 -.393E+03 -.412E+03   -.181E+01 -.152E+01 -.199E+00   0.779E-03 -.354E-02 -.301E-02
   -.378E+03 -.988E+03 0.403E+03   0.376E+03 0.985E+03 -.402E+03   0.149E+01 0.187E+01 -.195E+00   0.867E-02 -.352E-02 -.131E-02
   -.390E+03 0.975E+03 -.423E+03   0.387E+03 -.973E+03 0.423E+03   0.153E+01 -.181E+01 0.193E+00   0.145E-02 0.364E-02 -.849E-04
   0.974E+03 -.394E+03 -.419E+03   -.971E+03 0.392E+03 0.419E+03   -.183E+01 0.150E+01 0.218E+00   -.409E-03 0.258E-03 0.438E-02
   -.960E+03 0.440E+03 0.341E+03   0.957E+03 -.438E+03 -.340E+03   0.167E+01 -.126E+01 -.474E+00   -.299E-02 -.199E-03 0.238E-02
   0.405E+03 -.978E+03 0.410E+03   -.403E+03 0.975E+03 -.410E+03   -.150E+01 0.182E+01 -.213E+00   0.484E-03 0.122E-03 -.249E-02
   0.336E+03 0.325E+03 0.445E+03   -.337E+03 -.326E+03 -.445E+03   0.357E+00 0.369E+00 0.522E+00   0.109E-01 -.370E-02 -.827E-03
   0.982E+01 0.644E+03 -.102E+02   -.987E+01 -.645E+03 0.102E+02   0.328E-01 0.759E+00 -.341E-01   0.928E-02 -.200E-02 0.258E-02
   -.339E+03 0.547E+02 0.853E+03   0.346E+03 -.529E+02 -.853E+03   -.768E+01 -.166E+01 0.180E+01   0.187E-02 -.414E-02 0.527E-02
   -.583E+03 0.460E+00 -.972E+03   0.583E+03 -.458E+00 0.968E+03   0.325E+00 -.410E-03 0.234E+01   0.319E-02 -.861E-03 -.503E-02
   0.599E+03 0.746E+00 0.962E+03   -.599E+03 -.747E+00 -.958E+03   -.226E+00 0.823E-03 -.237E+01   0.323E-02 -.191E-02 -.400E-02
   0.589E+03 0.209E+00 -.967E+03   -.588E+03 -.207E+00 0.963E+03   -.304E+00 0.222E-02 0.236E+01   0.341E-02 -.427E-02 0.500E-02
   0.766E+03 0.763E+03 -.460E+01   -.764E+03 -.761E+03 0.459E+01   -.115E+01 -.114E+01 0.409E-02   0.669E-02 -.545E-02 0.333E-02
   -.751E+03 -.772E+03 -.236E+02   0.749E+03 0.770E+03 0.236E+02   0.113E+01 0.120E+01 0.474E-01   0.702E-02 -.797E-02 0.221E-02
   -.752E+03 0.773E+03 -.195E+02   0.750E+03 -.771E+03 0.195E+02   0.112E+01 -.119E+01 0.542E-01   -.407E-03 0.273E-02 0.550E-03
   0.766E+03 -.762E+03 -.497E+01   -.764E+03 0.760E+03 0.497E+01   -.114E+01 0.114E+01 -.273E-02   -.167E-02 0.116E-03 -.575E-03
   0.417E+02 0.323E+01 0.106E+04   -.414E+02 -.327E+01 -.106E+04   -.279E+00 0.226E-01 -.176E+01   0.735E-02 -.485E-02 0.126E-02
   0.384E+01 0.324E+00 -.107E+04   -.384E+01 -.319E+00 0.107E+04   -.113E-01 0.887E-03 0.161E+01   0.769E-02 -.524E-02 -.509E-03
   0.974E+03 0.395E+03 -.419E+03   -.971E+03 -.392E+03 0.418E+03   -.183E+01 -.150E+01 0.214E+00   0.292E-02 -.424E-02 0.582E-02
   -.389E+03 -.975E+03 -.424E+03   0.387E+03 0.972E+03 0.424E+03   0.153E+01 0.180E+01 0.183E+00   0.105E-01 -.530E-02 0.306E-02
   -.314E+03 0.324E+03 -.464E+03   0.315E+03 -.324E+03 0.465E+03   -.352E+00 0.376E+00 -.551E+00   0.711E-02 -.218E-02 0.114E-02
   0.338E+03 -.323E+03 0.444E+03   -.338E+03 0.324E+03 -.445E+03   0.335E+00 -.374E+00 0.533E+00   0.597E-02 -.424E-02 -.108E-02
   0.326E+03 0.322E+03 -.459E+03   -.327E+03 -.323E+03 0.460E+03   0.381E+00 0.347E+00 -.514E+00   0.898E-02 -.619E-02 0.373E-02
   -.969E+03 0.398E+03 -.432E+03   0.966E+03 -.396E+03 0.431E+03   0.181E+01 -.150E+01 0.250E+00   -.326E-02 0.305E-02 0.239E-03
   0.398E+03 -.973E+03 -.421E+03   -.396E+03 0.970E+03 0.420E+03   -.153E+01 0.181E+01 0.225E+00   0.556E-03 0.302E-03 0.291E-02
   -.284E+03 -.333E+03 0.421E+03   0.285E+03 0.333E+03 -.422E+03   -.234E+00 -.299E+00 0.509E+00   0.882E-02 -.721E-02 0.130E-02
   0.646E+03 0.450E+00 -.567E+01   -.646E+03 -.450E+00 0.567E+01   0.727E+00 0.332E-03 -.106E-01   0.618E-02 -.208E-02 0.105E-02
   -.625E+03 0.252E+01 -.328E+02   0.626E+03 -.251E+01 0.328E+02   -.737E+00 -.136E-01 0.141E-01   0.459E-02 -.278E-02 0.227E-02
   0.277E+02 -.601E+03 0.958E+03   -.277E+02 0.600E+03 -.955E+03   -.120E-01 0.346E+00 -.239E+01   0.571E-02 -.349E-02 -.230E-02
   0.360E+01 -.588E+03 -.969E+03   -.358E+01 0.587E+03 0.965E+03   -.156E-01 0.284E+00 0.236E+01   0.839E-02 -.492E-02 0.371E-02
   0.138E+02 0.112E+01 -.143E+02   -.138E+02 -.110E+01 0.143E+02   -.192E-01 -.545E-02 0.293E-01   0.114E-01 -.636E-02 0.697E-03
   0.327E+03 -.322E+03 -.459E+03   -.327E+03 0.322E+03 0.460E+03   0.385E+00 -.351E+00 -.520E+00   0.611E-02 -.651E-02 0.295E-02
   -.314E+03 -.323E+03 -.465E+03   0.314E+03 0.323E+03 0.466E+03   -.359E+00 -.371E+00 -.541E+00   0.129E-01 -.736E-02 0.230E-02
   0.112E+02 -.644E+03 -.116E+02   -.112E+02 0.645E+03 0.116E+02   0.128E-01 -.750E+00 -.507E-02   0.907E-02 -.730E-02 -.109E-03
   -.230E+03 -.285E+02 0.191E+03   0.215E+03 0.272E+02 -.176E+03   0.112E+02 0.851E+00 -.120E+02   -.521E-03 -.102E-02 0.186E-02
   -.550E+03 -.433E+02 0.568E+03   0.595E+03 0.468E+02 -.616E+03   -.415E+02 -.303E+01 0.443E+02   -.994E-03 -.105E-02 0.222E-02
 -----------------------------------------------------------------------------------------------
   0.386E+02 0.419E+01 -.361E+02   -.227E-12 -.483E-12 -.148E-11   -.388E+02 -.407E+01 0.360E+02   0.223E+00 -.129E+00 0.510E-01
 
 
 POSITION                                       TOTAL-FORCE (eV/Angst)
 -----------------------------------------------------------------------------------
     13.37281      9.84801     12.50759         0.705472      1.110758      0.288798
     20.15199     16.62719     12.50759        -1.018753     -0.696490      0.238068
     16.62719      9.84801     12.50759        -0.701084      1.110624      0.278636
      9.84801     16.62719     12.50759         1.111179     -0.716135      0.284462
     15.00000     11.47521     10.20639         0.006813      0.411183      1.282068
     15.00000     11.47521     19.79360         0.014067      0.411249     -1.290035
     15.00000      8.28283     15.00000        -0.004411      1.524000      0.016398
      8.28283     15.00000     15.00000         1.520205      0.000278     -0.010007
     21.71717     15.00000     15.00000        -1.545642      0.006404      0.004353
     15.00000     21.71717     15.00000        -0.005622     -1.521230      0.018528
     18.35858     11.64142     10.25025        -0.793594      0.721213      1.090187
     18.35858     11.64142     19.74975        -0.765688      0.752867     -1.075213
     11.64142     18.35858     10.25025         0.750925     -0.759376      1.079205
     11.64142     18.35858     19.74975         0.761549     -0.754105     -1.075185
     11.64142     11.64142     10.25025         0.749968      0.759831      1.078937
     11.64142     11.64142     19.74975         0.758199      0.755017     -1.072936
     18.35858     18.35858     10.25025        -0.764572     -0.727191      1.063000
     18.35858     18.35858     19.74975        -0.766928     -0.752904     -1.075117
     13.37281      9.84801     17.49241         0.718193      1.102006     -0.300987
     20.15199     16.62719     17.49241        -1.102840     -0.705982     -0.297395
     16.73751     13.26249     12.54279         0.068884     -0.093428     -0.177736
      9.84801     13.37281     12.50759         1.110414      0.715031      0.284146
     16.62719     20.15199     12.50759        -0.713907     -1.101185      0.280875
     16.62719      9.84801     17.49241        -0.719361      1.104685     -0.281509
      9.84801     16.62719     17.49241         1.108403     -0.707365     -0.288038
     20.15199     13.37281     12.50759        -1.076599      0.619427      0.388503
     13.37281     20.15199     12.50759         0.711303     -1.111206      0.284894
     13.26249     13.26249     12.54279        -0.102828     -0.110380     -0.166957
     15.00000     11.52498     15.00000        -0.010949     -0.251084      0.026522
     18.52479     15.00000     10.20639        -0.315361      0.060166      1.357791
     18.52479     15.00000     19.79360        -0.416167      0.000146     -1.280091
     11.47521     15.00000     10.20640         0.365239     -0.001213      1.309096
     11.47521     15.00000     19.79360         0.408423      0.000333     -1.285606
     11.49535     11.49535     15.00000         0.824862      0.827463     -0.001830
     18.50465     18.50465     15.00000        -0.812787     -0.840229      0.002295
     18.50465     11.49535     15.00000        -0.810122      0.841956     -0.009696
     11.49535     18.50465     15.00000         0.824413     -0.826957      0.000427
     15.00000     15.00000     10.04368         0.038684     -0.022576      1.218891
     15.00000     15.00000     19.95633         0.000589      0.000958     -1.174849
      9.84801     13.37281     17.49241         1.110238      0.708202     -0.288743
     16.62719     20.15199     17.49241        -0.723219     -1.107174     -0.278349
     16.73751     13.26249     17.45721         0.106922     -0.117962      0.162287
     13.26249     16.73751     12.54279        -0.104382      0.112588     -0.162731
     13.26249     13.26249     17.45721        -0.115612     -0.105649      0.155266
     20.15199     13.37281     17.49241        -1.103134      0.706197     -0.297546
     13.37281     20.15199     17.49241         0.717875     -1.104722     -0.296237
     16.73751     16.73751     12.54279         0.027701      0.116408     -0.108012
     11.52498     15.00000     15.00000        -0.228154     -0.000821     -0.003120
     18.47502     15.00000     15.00000         0.220994     -0.002173      0.014813
     15.00000     18.52480     10.20639        -0.009863     -0.397403      1.284101
     15.00000     18.52480     19.79360         0.008866     -0.406698     -1.289619
     15.00000     15.00000     15.00000         0.021785      0.001697     -0.012062
     13.26249     16.73751     17.45721        -0.113617      0.109473      0.157410
     16.73751     16.73751     17.45721         0.112430      0.115275      0.157041
     15.00000     18.47502     15.00000        -0.007171      0.241035      0.019890
     20.22755     15.40937      9.57530        -3.711377     -0.419981      2.874810
     21.00912     15.47057      8.76425         3.679149      0.415148     -3.102093
 -----------------------------------------------------------------------------------
    total drift:                                0.003774     -0.005488     -0.001412


--------------------------------------------------------------------------------------------------------



  FREE ENERGIE OF THE ION-ELECTRON SYSTEM (eV)
  ---------------------------------------------------
  free  energy   TOTEN  =      -175.05227283 eV

  energy  without entropy=     -174.92651186  energy(sigma->0) =     -175.02083259
 


--------------------------------------------------------------------------------------------------------


    POTLOK:  cpu time   12.8030: real time   12.8031


--------------------------------------------------------------------------------------------------------


     LOOP+:  cpu time17959.6599: real time17960.8541
    4ORBIT:  cpu time    0.0000: real time    0.0000

 total amount of memory used by VASP MPI-rank0  5486941. kBytes
=======================================================================

   base      :      30000. kBytes
   nonlr-proj:      17126. kBytes
   fftplans  :     924480. kBytes
   grid      :    1872000. kBytes
   one-center:        886. kBytes
   wavefun   :    2642449. kBytes
 
  
  
 General timing and accounting informations for this job:
 ========================================================
  
                  Total CPU time used (sec):    18032.443
                            User time (sec):    17018.971
                          System time (sec):     1013.472
                         Elapsed time (sec):    18033.680
  
                   Maximum memory used (kb):     7178732.
                   Average memory used (kb):           0.
  
                          Minor page faults:    837929917
                          Major page faults:            0
                 Voluntary context switches:          604
