<?xml version="1.0" encoding="ISO-8859-1"?>
<modeling>
 <generator>
  <i name="program" type="string">vasp </i>
  <i name="version" type="string">5.4.4.18Apr17-6-g9f103f2a35  </i>
  <i name="subversion" type="string">(build Sep 03 2018 23:53:05) complex            parallel </i>
  <i name="platform" type="string">LinuxIFC </i>
  <i name="date" type="string">2021 12 01 </i>
  <i name="time" type="string">15:26:24 </i>
 </generator>
 <incar>
  <i type="string" name="SYSTEM"> 6_Pd100_top_free_z(O)</i>
  <i type="int" name="ISTART">     0</i>
  <i type="string" name="PREC">normal   			! encut=max(enmax), ngx,y,z</i>
  <i type="string" name="ALGO"> Fast     			! Mix RMM-DIIS and Dav</i>
  <i type="logical" name="ADDGRID"> F  </i>
  <i type="int" name="ISPIN">     1</i>
  <i type="int" name="ICHARG">     2</i>
  <i type="int" name="NELM">   100</i>
  <i type="int" name="NELMIN">     6</i>
  <i type="int" name="IBRION">     2</i>
  <i name="EDIFF">      0.00010000</i>
  <i name="EDIFFG">     -0.05000000</i>
  <i type="int" name="NSW">     0</i>
  <i type="int" name="ISIF">     2</i>
  <i type="int" name="ISYM">     2</i>
  <i name="ENCUT">    400.00000000</i>
  <i type="string" name="LREAL"> Auto     			! Auto or A projection done</i>
  <i type="int" name="ISMEAR">     2</i>
  <i name="SIGMA">      0.20000000</i>
  <i type="logical" name="LWAVE"> F  </i>
  <i type="logical" name="LCHARG"> F  </i>
  <v type="int" name="KPOINT_BSE">    -1     0     0     0</v>
  <i type="int" name="MAXMEM"> 10000</i>
  <i type="int" name="NELM">   100</i>
  <i type="string" name="GGA"> RP         			! Revised PBE</i>
 </incar>
 <structure name="primitive_cell" >
  <crystal>
   <varray name="basis" >
    <v>      30.00000000       0.00000000       0.00000000 </v>
    <v>       0.00000000      30.00000000       0.00000000 </v>
    <v>       0.00000000       0.00000000      30.00000000 </v>
   </varray>
   <i name="volume">  27000.00000000 </i>
   <varray name="rec_basis" >
    <v>       0.03333333       0.00000000       0.00000000 </v>
    <v>       0.00000000       0.03333333       0.00000000 </v>
    <v>       0.00000000       0.00000000       0.03333333 </v>
   </varray>
  </crystal>
  <varray name="positions" >
   <v>       0.44576020       0.32826710       0.41691983 </v>
   <v>      -0.44576020       0.32826710       0.41691983 </v>
   <v>      -0.50000000       0.38250690       0.34021317 </v>
   <v>      -0.50000000       0.27609440      -0.50000000 </v>
   <v>       0.38804720       0.38804720       0.34167483 </v>
   <v>      -0.50000000       0.38416601      -0.50000000 </v>
   <v>       0.44208300       0.44208300       0.41809300 </v>
   <v>       0.38317830       0.38317830      -0.50000000 </v>
   <v>      -0.44208300       0.44208300       0.41809300 </v>
   <v>       0.44576020       0.32826710      -0.41691977 </v>
   <v>       0.32826705       0.44576024       0.41691983 </v>
   <v>      -0.38804720       0.38804720       0.34167483 </v>
   <v>      -0.38317830       0.38317830      -0.50000000 </v>
   <v>      -0.50000000      -0.50000000       0.33478917 </v>
   <v>      -0.50000000      -0.50000000      -0.50000000 </v>
   <v>      -0.44576020       0.32826710      -0.41691977 </v>
   <v>       0.38250685      -0.49999995       0.34021317 </v>
   <v>       0.44208300       0.44208300      -0.41809297 </v>
   <v>       0.38416599      -0.49999998      -0.50000000 </v>
   <v>      -0.44208300       0.44208300      -0.41809297 </v>
   <v>       0.44208298      -0.44208298       0.41809300 </v>
   <v>       0.32826705       0.44576024      -0.41691977 </v>
   <v>      -0.50000000       0.38250690      -0.34021320 </v>
   <v>       0.32826712      -0.44576022       0.41691983 </v>
   <v>      -0.38250685      -0.49999995       0.34021317 </v>
   <v>      -0.32826705       0.44576024       0.41691983 </v>
   <v>       0.27609443       0.49999998      -0.50000000 </v>
   <v>       0.38804720       0.38804720      -0.34167487 </v>
   <v>      -0.38416599      -0.49999998      -0.50000000 </v>
   <v>      -0.44208298      -0.44208298       0.41809300 </v>
   <v>       0.44208298      -0.44208298      -0.41809297 </v>
   <v>      -0.38804720       0.38804720      -0.34167487 </v>
   <v>       0.38804722      -0.38804722       0.34167483 </v>
   <v>       0.38250685      -0.49999995      -0.34021320 </v>
   <v>       0.32826712      -0.44576022      -0.41691977 </v>
   <v>      -0.32826705       0.44576024      -0.41691977 </v>
   <v>       0.50000000      -0.38250681       0.34021317 </v>
   <v>      -0.50000000      -0.38416596      -0.50000000 </v>
   <v>      -0.44208298      -0.44208298      -0.41809297 </v>
   <v>      -0.50000000      -0.50000000      -0.33478913 </v>
   <v>       0.38317828      -0.38317828      -0.50000000 </v>
   <v>      -0.32574833      -0.48635450       0.31917663 </v>
   <v>      -0.32826712      -0.44576022       0.41691983 </v>
   <v>      -0.27609443       0.49999998      -0.50000000 </v>
   <v>      -0.38804722      -0.38804722       0.34167483 </v>
   <v>      -0.29969610      -0.48431437       0.29214183 </v>
   <v>      -0.38250685      -0.49999995      -0.34021320 </v>
   <v>       0.44576027      -0.32826707       0.41691983 </v>
   <v>      -0.38317828      -0.38317828      -0.50000000 </v>
   <v>      -0.32826712      -0.44576022      -0.41691977 </v>
   <v>      -0.44576027      -0.32826707       0.41691983 </v>
   <v>       0.38804722      -0.38804722      -0.34167487 </v>
   <v>      -0.50000000      -0.38250681      -0.34021320 </v>
   <v>       0.44576027      -0.32826707      -0.41691977 </v>
   <v>      -0.44576027      -0.32826707      -0.41691977 </v>
   <v>      -0.50000000      -0.27609445       0.50000000 </v>
   <v>      -0.38804722      -0.38804722      -0.34167487 </v>
  </varray>
 </structure>
 <varray name="primitive_index" >
  <v type="int" >        1 </v>
  <v type="int" >        3 </v>
  <v type="int" >        5 </v>
  <v type="int" >        7 </v>
  <v type="int" >       15 </v>
  <v type="int" >       29 </v>
  <v type="int" >       28 </v>
  <v type="int" >       34 </v>
  <v type="int" >       21 </v>
  <v type="int" >       19 </v>
  <v type="int" >       22 </v>
  <v type="int" >       11 </v>
  <v type="int" >       36 </v>
  <v type="int" >       38 </v>
  <v type="int" >       52 </v>
  <v type="int" >       24 </v>
  <v type="int" >       32 </v>
  <v type="int" >       44 </v>
  <v type="int" >       48 </v>
  <v type="int" >       42 </v>
  <v type="int" >       43 </v>
  <v type="int" >       40 </v>
  <v type="int" >        6 </v>
  <v type="int" >        4 </v>
  <v type="int" >       30 </v>
  <v type="int" >       26 </v>
  <v type="int" >        8 </v>
  <v type="int" >       16 </v>
  <v type="int" >       49 </v>
  <v type="int" >       47 </v>
  <v type="int" >       53 </v>
  <v type="int" >       12 </v>
  <v type="int" >       13 </v>
  <v type="int" >       33 </v>
  <v type="int" >       25 </v>
  <v type="int" >       45 </v>
  <v type="int" >       50 </v>
  <v type="int" >       55 </v>
  <v type="int" >       54 </v>
  <v type="int" >       39 </v>
  <v type="int" >       37 </v>
  <v type="int" >       56 </v>
  <v type="int" >        2 </v>
  <v type="int" >        9 </v>
  <v type="int" >       17 </v>
  <v type="int" >       57 </v>
  <v type="int" >       31 </v>
  <v type="int" >       27 </v>
  <v type="int" >       35 </v>
  <v type="int" >       20 </v>
  <v type="int" >       23 </v>
  <v type="int" >       14 </v>
  <v type="int" >       51 </v>
  <v type="int" >       46 </v>
  <v type="int" >       41 </v>
  <v type="int" >       10 </v>
  <v type="int" >       18 </v>
 </varray>
 <kpoints>
  <generation param="Monkhorst-Pack">
   <v type="int" name="divisions">       1        1        1 </v>
   <v name="usershift">      0.00000000       0.00000000       0.00000000 </v>
   <v name="genvec1">      1.00000000       0.00000000       0.00000000 </v>
   <v name="genvec2">      0.00000000       1.00000000       0.00000000 </v>
   <v name="genvec3">      0.00000000       0.00000000       1.00000000 </v>
   <v name="shift">      0.00000000       0.00000000       0.00000000 </v>
  </generation>
  <varray name="kpointlist" >
   <v>       0.00000000       0.00000000       0.00000000 </v>
  </varray>
  <varray name="weights" >
   <v>       1.00000000 </v>
  </varray>
 </kpoints>
 <parameters>
  <separator name="general" >
   <i type="string" name="SYSTEM">6_Pd100_top_free_z(O)</i>
   <i type="logical" name="LCOMPAT"> F  </i>
  </separator>
  <separator name="electronic" >
   <i type="string" name="PREC">normal</i>
   <i name="ENMAX">    400.00000000</i>
   <i name="ENAUG">    644.87300000</i>
   <i name="EDIFF">      0.00010000</i>
   <i type="int" name="IALGO">    68</i>
   <i type="int" name="IWAVPR">    10</i>
   <i type="int" name="NBANDS">   336</i>
   <i name="NELECT">    560.00000000</i>
   <i type="int" name="TURBO">     0</i>
   <i type="int" name="IRESTART">     0</i>
   <i type="int" name="NREBOOT">     0</i>
   <i type="int" name="NMIN">     0</i>
   <i name="EREF">      0.00000000</i>
   <separator name="electronic smearing" >
    <i type="int" name="ISMEAR">     2</i>
    <i name="SIGMA">      0.20000000</i>
    <i name="KSPACING">      0.50000000</i>
    <i type="logical" name="KGAMMA"> T  </i>
   </separator>
   <separator name="electronic projectors" >
    <i type="logical" name="LREAL"> T  </i>
    <v name="ROPT">     -0.00050000     -0.00050000     -0.00050000</v>
    <i type="int" name="LMAXPAW">  -100</i>
    <i type="int" name="LMAXMIX">     2</i>
    <i type="logical" name="NLSPLINE"> F  </i>
   </separator>
   <separator name="electronic startup" >
    <i type="int" name="ISTART">     0</i>
    <i type="int" name="ICHARG">     2</i>
    <i type="int" name="INIWAV">     1</i>
   </separator>
   <separator name="electronic spin" >
    <i type="int" name="ISPIN">     1</i>
    <i type="logical" name="LNONCOLLINEAR"> F  </i>
    <v name="MAGMOM">      1.00000000      1.00000000      1.00000000      1.00000000      1.00000000      1.00000000      1.00000000      1.00000000      1.00000000      1.00000000      1.00000000      1.00000000      1.00000000      1.00000000      1.00000000      1.00000000      1.00000000      1.00000000      1.00000000      1.00000000
      1.00000000      1.00000000      1.00000000      1.00000000      1.00000000      1.00000000      1.00000000      1.00000000      1.00000000      1.00000000      1.00000000      1.00000000      1.00000000      1.00000000      1.00000000      1.00000000      1.00000000      1.00000000      1.00000000      1.00000000
      1.00000000      1.00000000      1.00000000      1.00000000      1.00000000      1.00000000      1.00000000      1.00000000      1.00000000      1.00000000      1.00000000      1.00000000      1.00000000      1.00000000      1.00000000      1.00000000      1.00000000</v>
    <i name="NUPDOWN">     -1.00000000</i>
    <i type="logical" name="LSORBIT"> F  </i>
    <v name="SAXIS">      0.00000000      0.00000000      1.00000000</v>
    <i type="logical" name="LSPIRAL"> F  </i>
    <v name="QSPIRAL">      0.00000000      0.00000000      0.00000000</v>
    <i type="logical" name="LZEROZ"> F  </i>
   </separator>
   <separator name="electronic exchange-correlation" >
    <i type="logical" name="LASPH"> F  </i>
    <i type="logical" name="LMETAGGA"> F  </i>
   </separator>
   <separator name="electronic convergence" >
    <i type="int" name="NELM">   100</i>
    <i type="int" name="NELMDL">    -5</i>
    <i type="int" name="NELMIN">     6</i>
    <i name="ENINI">    400.00000000</i>
    <separator name="electronic convergence detail" >
     <i type="logical" name="LDIAG"> T  </i>
     <i type="logical" name="LSUBROT"> F  </i>
     <i name="WEIMIN">      0.00000000</i>
     <i name="EBREAK">      0.00000007</i>
     <i name="DEPER">      0.30000000</i>
     <i type="int" name="NRMM">     4</i>
     <i name="TIME">      0.40000000</i>
    </separator>
   </separator>
   <separator name="electronic mixer" >
    <i name="AMIX">      0.40000000</i>
    <i name="BMIX">      1.00000000</i>
    <i name="AMIN">      0.10000000</i>
    <i name="AMIX_MAG">      1.60000000</i>
    <i name="BMIX_MAG">      1.00000000</i>
    <separator name="electronic mixer details" >
     <i type="int" name="IMIX">     4</i>
     <i type="logical" name="MIXFIRST"> F  </i>
     <i type="int" name="MAXMIX">   -45</i>
     <i name="WC">    100.00000000</i>
     <i type="int" name="INIMIX">     1</i>
     <i type="int" name="MIXPRE">     1</i>
     <i type="int" name="MREMOVE">     5</i>
    </separator>
   </separator>
   <separator name="electronic dipolcorrection" >
    <i type="logical" name="LDIPOL"> F  </i>
    <i type="logical" name="LMONO"> F  </i>
    <i type="int" name="IDIPOL">     0</i>
    <i name="EPSILON">      1.00000000</i>
    <v name="DIPOL">   -100.00000000   -100.00000000   -100.00000000</v>
    <i name="EFIELD">      0.00000000</i>
   </separator>
  </separator>
  <separator name="grids" >
   <i type="int" name="NGX">   150</i>
   <i type="int" name="NGY">   150</i>
   <i type="int" name="NGZ">   150</i>
   <i type="int" name="NGXF">   300</i>
   <i type="int" name="NGYF">   300</i>
   <i type="int" name="NGZF">   300</i>
   <i type="logical" name="ADDGRID"> F  </i>
  </separator>
  <separator name="ionic" >
   <i type="int" name="NSW">     0</i>
   <i type="int" name="IBRION">    -1</i>
   <i type="int" name="MDALGO">     0</i>
   <i type="int" name="ISIF">     2</i>
   <i name="PSTRESS">      0.00000000</i>
   <i name="EDIFFG">     -0.05000000</i>
   <i type="int" name="NFREE">     1</i>
   <i name="POTIM">      0.50000000</i>
   <i name="SMASS">     -3.00000000</i>
   <i name="SCALEE">      1.00000000</i>
  </separator>
  <separator name="ionic md" >
   <i name="TEBEG">      0.00010000</i>
   <i name="TEEND">      0.00010000</i>
   <i type="int" name="NBLOCK">     1</i>
   <i type="int" name="KBLOCK">     1</i>
   <i type="int" name="NPACO">   256</i>
   <i name="APACO">     16.00000000</i>
  </separator>
  <separator name="symmetry" >
   <i type="int" name="ISYM">     2</i>
   <i name="SYMPREC">      0.00001000</i>
  </separator>
  <separator name="dos" >
   <i type="int" name="LORBIT">     0</i>
   <v name="RWIGS">     -1.00000000     -1.00000000     -1.00000000</v>
   <i type="int" name="NEDOS">   301</i>
   <i name="EMIN">     10.00000000</i>
   <i name="EMAX">    -10.00000000</i>
   <i name="EFERMI">      0.00000000</i>
  </separator>
  <separator name="writing" >
   <i type="int" name="NWRITE">     2</i>
   <i type="logical" name="LWAVE"> F  </i>
   <i type="logical" name="LDOWNSAMPLE"> F  </i>
   <i type="logical" name="LCHARG"> F  </i>
   <i type="logical" name="LPARD"> F  </i>
   <i type="logical" name="LVTOT"> F  </i>
   <i type="logical" name="LVHAR"> F  </i>
   <i type="logical" name="LELF"> F  </i>
   <i type="logical" name="LOPTICS"> F  </i>
   <v name="STM">      0.00000000      0.00000000      0.00000000      0.00000000      0.00000000      0.00000000      0.00000000</v>
  </separator>
  <separator name="performance" >
   <i type="int" name="NPAR">     1</i>
   <i type="int" name="NSIM">     4</i>
   <i type="int" name="NBLK">    -1</i>
   <i type="logical" name="LPLANE"> T  </i>
   <i type="logical" name="LSCALAPACK"> T  </i>
   <i type="logical" name="LSCAAWARE"> F  </i>
   <i type="logical" name="LSCALU"> F  </i>
   <i type="logical" name="LASYNC"> F  </i>
   <i type="logical" name="LORBITALREAL"> F  </i>
  </separator>
  <separator name="miscellaneous" >
   <i type="int" name="IDIOT">     3</i>
   <i type="int" name="ISPECIAL">     0</i>
   <i type="logical" name="LMUSIC"> F  </i>
   <v name="POMASS">    106.42000000     12.01100000     16.00000000</v>
   <v name="DARWINR">      0.00000000      0.00000000      0.00000000</v>
   <v name="DARWINV">      1.00000000      1.00000000      1.00000000</v>
   <i type="logical" name="LCORR"> T  </i>
  </separator>
  <i type="logical" name="GGA_COMPAT"> T  </i>
  <i type="logical" name="LBERRY"> F  </i>
  <i type="int" name="ICORELEVEL">     0</i>
  <i type="logical" name="LDAU"> F  </i>
  <i type="int" name="I_CONSTRAINED_M">     0</i>
  <separator name="electronic exchange-correlation" >
   <i type="string" name="GGA">RP</i>
   <i type="int" name="VOSKOWN">     0</i>
   <i type="logical" name="LHFCALC"> F  </i>
   <i type="string" name="PRECFOCK"></i>
   <i type="logical" name="LSYMGRAD"> F  </i>
   <i type="logical" name="LHFONE"> F  </i>
   <i type="logical" name="LRHFCALC"> F  </i>
   <i type="logical" name="LTHOMAS"> F  </i>
   <i type="logical" name="LMODELHF"> F  </i>
   <i name="ENCUT4O">     -1.00000000</i>
   <i type="int" name="EXXOEP">     0</i>
   <i type="int" name="FOURORBIT">     0</i>
   <i name="AEXX">      0.00000000</i>
   <i name="HFALPHA">      0.00000000</i>
   <i name="MCALPHA">      0.00000000</i>
   <i name="ALDAX">      1.00000000</i>
   <i name="AGGAX">      1.00000000</i>
   <i name="ALDAC">      1.00000000</i>
   <i name="AGGAC">      1.00000000</i>
   <i type="int" name="NKREDX">     1</i>
   <i type="int" name="NKREDY">     1</i>
   <i type="int" name="NKREDZ">     1</i>
   <i type="logical" name="SHIFTRED"> F  </i>
   <i type="logical" name="ODDONLY"> F  </i>
   <i type="logical" name="EVENONLY"> F  </i>
   <i type="int" name="LMAXFOCK">     0</i>
   <i type="int" name="NMAXFOCKAE">     0</i>
   <i type="logical" name="LFOCKAEDFT"> F  </i>
   <i name="HFSCREEN">      0.00000000</i>
   <i name="HFSCREENC">      0.00000000</i>
   <i type="int" name="NBANDSGWLOW">     0</i>
  </separator>
  <separator name="vdW DFT" >
   <i type="logical" name="LUSE_VDW"> F  </i>
   <i name="Zab_VDW">     -0.84910000</i>
   <i name="PARAM1">      0.12340000</i>
   <i name="PARAM2">      1.00000000</i>
   <i name="PARAM3">      0.00000000</i>
  </separator>
  <separator name="model GW" >
   <i type="int" name="MODEL_GW">     0</i>
   <i name="MODEL_EPS0">    284.21052632</i>
   <i name="MODEL_ALPHA">      1.00000000</i>
  </separator>
  <separator name="linear response parameters" >
   <i type="logical" name="LEPSILON"> F  </i>
   <i type="logical" name="LRPA"> F  </i>
   <i type="logical" name="LNABLA"> F  </i>
   <i type="logical" name="LVEL"> F  </i>
   <i type="int" name="KINTER">     0</i>
   <i name="CSHIFT">      0.10000000</i>
   <i name="OMEGAMAX">     -1.00000000</i>
   <i name="DEG_THRESHOLD">      0.00200000</i>
   <i name="RTIME">     -0.10000000</i>
   <i name="WPLASMAI">      0.00000000</i>
   <v name="DFIELD">      0.00000000      0.00000000      0.00000000</v>
   <v name="WPLASMA">      0.00000000      0.00000000      0.00000000      0.00000000      0.00000000      0.00000000      0.00000000      0.00000000      0.00000000</v>
  </separator>
  <separator name="orbital magnetization" >
   <i type="logical" name="NUCIND"> F  </i>
   <v name="MAGPOS">      0.00000000      0.00000000      0.00000000</v>
   <i type="logical" name="LNICSALL"> T  </i>
   <i type="logical" name="ORBITALMAG"> F  </i>
   <i type="logical" name="LMAGBLOCH"> F  </i>
   <i type="logical" name="LCHIMAG"> F  </i>
   <i type="logical" name="LGAUGE"> T  </i>
   <i type="int" name="MAGATOM">     0</i>
   <v name="MAGDIPOL">      0.00000000      0.00000000      0.00000000</v>
   <v name="AVECCONST">      0.00000000      0.00000000      0.00000000</v>
  </separator>
  <separator name="response functions" >
   <i type="logical" name="LADDER"> F  </i>
   <i type="logical" name="LRPAFORCE"> F  </i>
   <i type="logical" name="LFXC"> F  </i>
   <i type="logical" name="LHARTREE"> T  </i>
   <i type="int" name="IBSE">     0</i>
   <v type="int" name="KPOINT">    -1     0     0     0</v>
   <i type="logical" name="LTCTE"> F  </i>
   <i type="logical" name="LTETE"> F  </i>
   <i type="logical" name="LTRIPLET"> F  </i>
   <i type="logical" name="LFXCEPS"> F  </i>
   <i type="logical" name="LFXHEG"> F  </i>
   <i type="int" name="NATURALO">     2</i>
   <i type="logical" name="L2ORDER"> F  </i>
   <i type="logical" name="LMP2LT"> F  </i>
   <i type="logical" name="LUSEW"> F  </i>
   <i name="ENCUTGW">     -2.00000000</i>
   <i name="ENCUTGWSOFT">     -2.00000000</i>
   <i name="ENCUTLF">     -1.00000000</i>
   <i type="int" name="LMAXMP2">    -1</i>
   <i name="SCISSOR">      0.00000000</i>
   <i type="int" name="NOMEGA">     0</i>
   <i type="int" name="NOMEGAR">     0</i>
   <i type="int" name="NBANDSGW">    -1</i>
   <i type="int" name="NBANDSO">    -1</i>
   <i type="int" name="NBANDSV">    -1</i>
   <i type="int" name="NELM">   100</i>
   <i type="int" name="NELMHF">     1</i>
   <i type="int" name="DIM">     3</i>
   <i type="int" name="ANTIRES">     0</i>
   <i name="OMEGAMAX">    -30.00000000</i>
   <i name="OMEGAMIN">    -30.00000000</i>
   <i name="OMEGATL">   -200.00000000</i>
   <i type="int" name="OMEGAGRID">   140</i>
   <i name="CSHIFT">     -0.10000000</i>
   <i type="logical" name="SELFENERGY"> F  </i>
   <i type="logical" name="LSPECTRAL"> F  </i>
   <i type="logical" name="LSPECTRALGW"> F  </i>
   <i type="logical" name="LSINGLES"> F  </i>
   <i type="logical" name="LFERMIGW"> F  </i>
   <i type="logical" name="ODDONLYGW"> F  </i>
   <i type="logical" name="EVENONLYGW"> F  </i>
   <i type="int" name="NKREDLFX">     1</i>
   <i type="int" name="NKREDLFY">     1</i>
   <i type="int" name="NKREDLFZ">     1</i>
   <i type="int" name="MAXMEM"> 10000</i>
   <i type="int" name="TELESCOPE">     0</i>
   <i type="int" name="TAUPAR">     1</i>
   <i type="int" name="OMEGAPAR">    -1</i>
   <i name="LAMBDA">      1.00000000</i>
  </separator>
  <separator name="External order field" >
   <i name="OFIELD_KAPPA">      0.00000000</i>
   <v name="OFIELD_K">      0.00000000      0.00000000      0.00000000</v>
   <i name="OFIELD_Q6_NEAR">      0.00000000</i>
   <i name="OFIELD_Q6_FAR">      0.00000000</i>
   <i name="OFIELD_A">      0.00000000</i>
  </separator>
 </parameters>
 <atominfo>
  <atoms>      57 </atoms>
  <types>       3 </types>
  <array name="atoms" >
   <dimension dim="1">ion</dimension>
   <field type="string">element</field>
   <field type="int">atomtype</field>
   <set>
    <rc><c>Pd</c><c>   1</c></rc>
    <rc><c>Pd</c><c>   1</c></rc>
    <rc><c>Pd</c><c>   1</c></rc>
    <rc><c>Pd</c><c>   1</c></rc>
    <rc><c>Pd</c><c>   1</c></rc>
    <rc><c>Pd</c><c>   1</c></rc>
    <rc><c>Pd</c><c>   1</c></rc>
    <rc><c>Pd</c><c>   1</c></rc>
    <rc><c>Pd</c><c>   1</c></rc>
    <rc><c>Pd</c><c>   1</c></rc>
    <rc><c>Pd</c><c>   1</c></rc>
    <rc><c>Pd</c><c>   1</c></rc>
    <rc><c>Pd</c><c>   1</c></rc>
    <rc><c>Pd</c><c>   1</c></rc>
    <rc><c>Pd</c><c>   1</c></rc>
    <rc><c>Pd</c><c>   1</c></rc>
    <rc><c>Pd</c><c>   1</c></rc>
    <rc><c>Pd</c><c>   1</c></rc>
    <rc><c>Pd</c><c>   1</c></rc>
    <rc><c>Pd</c><c>   1</c></rc>
    <rc><c>Pd</c><c>   1</c></rc>
    <rc><c>Pd</c><c>   1</c></rc>
    <rc><c>Pd</c><c>   1</c></rc>
    <rc><c>Pd</c><c>   1</c></rc>
    <rc><c>Pd</c><c>   1</c></rc>
    <rc><c>Pd</c><c>   1</c></rc>
    <rc><c>Pd</c><c>   1</c></rc>
    <rc><c>Pd</c><c>   1</c></rc>
    <rc><c>Pd</c><c>   1</c></rc>
    <rc><c>Pd</c><c>   1</c></rc>
    <rc><c>Pd</c><c>   1</c></rc>
    <rc><c>Pd</c><c>   1</c></rc>
    <rc><c>Pd</c><c>   1</c></rc>
    <rc><c>Pd</c><c>   1</c></rc>
    <rc><c>Pd</c><c>   1</c></rc>
    <rc><c>Pd</c><c>   1</c></rc>
    <rc><c>Pd</c><c>   1</c></rc>
    <rc><c>Pd</c><c>   1</c></rc>
    <rc><c>Pd</c><c>   1</c></rc>
    <rc><c>Pd</c><c>   1</c></rc>
    <rc><c>Pd</c><c>   1</c></rc>
    <rc><c>Pd</c><c>   1</c></rc>
    <rc><c>Pd</c><c>   1</c></rc>
    <rc><c>Pd</c><c>   1</c></rc>
    <rc><c>Pd</c><c>   1</c></rc>
    <rc><c>Pd</c><c>   1</c></rc>
    <rc><c>Pd</c><c>   1</c></rc>
    <rc><c>Pd</c><c>   1</c></rc>
    <rc><c>Pd</c><c>   1</c></rc>
    <rc><c>Pd</c><c>   1</c></rc>
    <rc><c>Pd</c><c>   1</c></rc>
    <rc><c>Pd</c><c>   1</c></rc>
    <rc><c>Pd</c><c>   1</c></rc>
    <rc><c>Pd</c><c>   1</c></rc>
    <rc><c>Pd</c><c>   1</c></rc>
    <rc><c>C </c><c>   2</c></rc>
    <rc><c>O </c><c>   3</c></rc>
   </set>
  </array>
  <array name="atomtypes" >
   <dimension dim="1">type</dimension>
   <field type="int">atomspertype</field>
   <field type="string">element</field>
   <field>mass</field>
   <field>valence</field>
   <field type="string">pseudopotential</field>
   <set>
    <rc><c>  55</c><c>Pd</c><c>    106.42000000</c><c>     10.00000000</c><c>  PAW_PBE Pd 04Jan2005                  </c></rc>
    <rc><c>   1</c><c>C </c><c>     12.01100000</c><c>      4.00000000</c><c>  PAW_PBE C 08Apr2002                   </c></rc>
    <rc><c>   1</c><c>O </c><c>     16.00000000</c><c>      6.00000000</c><c>  PAW_PBE O 08Apr2002                   </c></rc>
   </set>
  </array>
 </atominfo>
 <structure name="initialpos" >
  <crystal>
   <varray name="basis" >
    <v>      30.00000000       0.00000000       0.00000000 </v>
    <v>       0.00000000      30.00000000       0.00000000 </v>
    <v>       0.00000000       0.00000000      30.00000000 </v>
   </varray>
   <i name="volume">  27000.00000000 </i>
   <varray name="rec_basis" >
    <v>       0.03333333       0.00000000       0.00000000 </v>
    <v>       0.00000000       0.03333333       0.00000000 </v>
    <v>       0.00000000       0.00000000       0.03333333 </v>
   </varray>
  </crystal>
  <varray name="positions" >
   <v>       0.44576020       0.32826710       0.41691983 </v>
   <v>       0.67173288       0.55423978       0.41691983 </v>
   <v>       0.55423980       0.32826710       0.41691983 </v>
   <v>       0.32826712       0.55423978       0.41691983 </v>
   <v>       0.50000000       0.38250690       0.34021317 </v>
   <v>       0.50000000       0.38250690       0.65978680 </v>
   <v>       0.50000000       0.27609440       0.50000000 </v>
   <v>       0.27609443       0.49999998       0.50000000 </v>
   <v>       0.72390557       0.49999998       0.50000000 </v>
   <v>       0.50000000       0.72390555       0.50000000 </v>
   <v>       0.61195280       0.38804720       0.34167483 </v>
   <v>       0.61195280       0.38804720       0.65832513 </v>
   <v>       0.38804722       0.61195278       0.34167483 </v>
   <v>       0.38804722       0.61195278       0.65832513 </v>
   <v>       0.38804720       0.38804720       0.34167483 </v>
   <v>       0.38804720       0.38804720       0.65832513 </v>
   <v>       0.61195278       0.61195278       0.34167483 </v>
   <v>       0.61195278       0.61195278       0.65832513 </v>
   <v>       0.44576020       0.32826710       0.58308023 </v>
   <v>       0.67173288       0.55423978       0.58308023 </v>
   <v>       0.55791699       0.44208301       0.41809300 </v>
   <v>       0.32826705       0.44576024       0.41691983 </v>
   <v>       0.55423973       0.67173293       0.41691983 </v>
   <v>       0.55423980       0.32826710       0.58308023 </v>
   <v>       0.32826712       0.55423978       0.58308023 </v>
   <v>       0.67173295       0.44576024       0.41691983 </v>
   <v>       0.44576027       0.67173293       0.41691983 </v>
   <v>       0.44208301       0.44208301       0.41809300 </v>
   <v>       0.50000000       0.38416601       0.50000000 </v>
   <v>       0.61749315       0.50000005       0.34021317 </v>
   <v>       0.61749315       0.50000005       0.65978680 </v>
   <v>       0.38250685       0.50000005       0.34021317 </v>
   <v>       0.38250685       0.50000005       0.65978680 </v>
   <v>       0.38317830       0.38317830       0.50000000 </v>
   <v>       0.61682172       0.61682172       0.50000000 </v>
   <v>       0.61682170       0.38317830       0.50000000 </v>
   <v>       0.38317828       0.61682172       0.50000000 </v>
   <v>       0.50000000       0.50000000       0.33478917 </v>
   <v>       0.50000000       0.50000000       0.66521087 </v>
   <v>       0.32826705       0.44576024       0.58308023 </v>
   <v>       0.55423973       0.67173293       0.58308023 </v>
   <v>       0.55791699       0.44208301       0.58190703 </v>
   <v>       0.44208298       0.55791702       0.41809300 </v>
   <v>       0.44208301       0.44208301       0.58190703 </v>
   <v>       0.67173295       0.44576024       0.58308023 </v>
   <v>       0.44576027       0.67173293       0.58308023 </v>
   <v>       0.55791702       0.55791702       0.41809300 </v>
   <v>       0.38416599       0.50000002       0.50000000 </v>
   <v>       0.61583401       0.50000002       0.50000000 </v>
   <v>       0.50000000       0.61749319       0.34021317 </v>
   <v>       0.50000000       0.61749319       0.65978680 </v>
   <v>       0.50000000       0.50000000       0.50000000 </v>
   <v>       0.44208298       0.55791702       0.58190703 </v>
   <v>       0.55791702       0.55791702       0.58190703 </v>
   <v>       0.50000000       0.61583404       0.50000000 </v>
   <v>       0.67425167       0.51364550       0.31917663 </v>
   <v>       0.70030390       0.51568563       0.29214183 </v>
  </varray>
  <varray name="selective"  type="logical" >
   <v type="logical" >  F  F  F </v>
   <v type="logical" >  F  F  F </v>
   <v type="logical" >  F  F  F </v>
   <v type="logical" >  F  F  F </v>
   <v type="logical" >  F  F  F </v>
   <v type="logical" >  F  F  F </v>
   <v type="logical" >  F  F  F </v>
   <v type="logical" >  F  F  F </v>
   <v type="logical" >  F  F  F </v>
   <v type="logical" >  F  F  F </v>
   <v type="logical" >  F  F  F </v>
   <v type="logical" >  F  F  F </v>
   <v type="logical" >  F  F  F </v>
   <v type="logical" >  F  F  F </v>
   <v type="logical" >  F  F  F </v>
   <v type="logical" >  F  F  F </v>
   <v type="logical" >  F  F  F </v>
   <v type="logical" >  F  F  F </v>
   <v type="logical" >  F  F  F </v>
   <v type="logical" >  F  F  F </v>
   <v type="logical" >  F  F  F </v>
   <v type="logical" >  F  F  F </v>
   <v type="logical" >  F  F  F </v>
   <v type="logical" >  F  F  F </v>
   <v type="logical" >  F  F  F </v>
   <v type="logical" >  F  F  F </v>
   <v type="logical" >  F  F  F </v>
   <v type="logical" >  F  F  F </v>
   <v type="logical" >  F  F  F </v>
   <v type="logical" >  F  F  F </v>
   <v type="logical" >  F  F  F </v>
   <v type="logical" >  F  F  F </v>
   <v type="logical" >  F  F  F </v>
   <v type="logical" >  F  F  F </v>
   <v type="logical" >  F  F  F </v>
   <v type="logical" >  F  F  F </v>
   <v type="logical" >  F  F  F </v>
   <v type="logical" >  F  F  F </v>
   <v type="logical" >  F  F  F </v>
   <v type="logical" >  F  F  F </v>
   <v type="logical" >  F  F  F </v>
   <v type="logical" >  F  F  F </v>
   <v type="logical" >  F  F  F </v>
   <v type="logical" >  F  F  F </v>
   <v type="logical" >  F  F  F </v>
   <v type="logical" >  F  F  F </v>
   <v type="logical" >  F  F  F </v>
   <v type="logical" >  F  F  F </v>
   <v type="logical" >  F  F  F </v>
   <v type="logical" >  F  F  F </v>
   <v type="logical" >  F  F  F </v>
   <v type="logical" >  F  F  F </v>
   <v type="logical" >  F  F  F </v>
   <v type="logical" >  F  F  F </v>
   <v type="logical" >  F  F  F </v>
   <v type="logical" >  F  F  F </v>
   <v type="logical" >  F  F  F </v>
  </varray>
  <nose>
   <v>      -3.00000000       0.00000000       0.00010000       0.00010000 </v>
  </nose>
 </structure>
 <calculation>
  <scstep>
   <time name="dav">  346.80  346.88</time>
   <time name="total">  360.87  360.95</time>
   <energy>
    <i name="alphaZ">     75.25431677 </i>
    <i name="ewald"> 138205.93982535 </i>
    <i name="hartreedc">-181564.34700899 </i>
    <i name="XCdc">  -1702.86555392 </i>
    <i name="pawpsdc">  44873.02882129 </i>
    <i name="pawaedc"> -41398.84523641 </i>
    <i name="eentropy">      0.01395964 </i>
    <i name="bandstr">    816.83038081 </i>
    <i name="atom">  45086.50549395 </i>
    <i name="e_fr_energy">   4391.51499850 </i>
    <i name="e_wo_entrp">   4391.50103886 </i>
    <i name="e_0_energy">   4391.51150859 </i>
   </energy>
  </scstep>
  <scstep>
   <time name="dav">  561.29  561.31</time>
   <time name="total">  561.29  561.32</time>
   <energy>
    <i name="e_fr_energy">   2013.48200421 </i>
    <i name="e_wo_entrp">   2013.48261071 </i>
    <i name="e_0_energy">   2013.48215583 </i>
   </energy>
  </scstep>
  <scstep>
   <time name="dav">  469.98  469.99</time>
   <time name="total">  469.98  469.99</time>
   <energy>
    <i name="e_fr_energy">    237.62364480 </i>
    <i name="e_wo_entrp">    237.58580859 </i>
    <i name="e_0_energy">    237.61418575 </i>
   </energy>
  </scstep>
  <scstep>
   <time name="dav">  404.81  404.82</time>
   <time name="total">  404.81  404.82</time>
   <energy>
    <i name="e_fr_energy">   -135.51206572 </i>
    <i name="e_wo_entrp">   -135.48523072 </i>
    <i name="e_0_energy">   -135.50535697 </i>
   </energy>
  </scstep>
  <scstep>
   <time name="dav">  495.92  495.92</time>
   <time name="total">  521.35  521.36</time>
   <energy>
    <i name="e_fr_energy">   -180.25209550 </i>
    <i name="e_wo_entrp">   -180.71649195 </i>
    <i name="e_0_energy">   -180.36819461 </i>
   </energy>
  </scstep>
  <scstep>
   <time name="diag">   66.38   66.38</time>
   <time name="diis">  183.71  183.72</time>
   <time name="orth">   13.21   13.21</time>
   <time name="total">  302.02  302.03</time>
   <energy>
    <i name="e_fr_energy">   -180.30483785 </i>
    <i name="e_wo_entrp">   -180.07435710 </i>
    <i name="e_0_energy">   -180.24721766 </i>
   </energy>
  </scstep>
  <scstep>
   <time name="diag">   67.75   67.75</time>
   <time name="diis">  216.84  216.85</time>
   <time name="orth">   13.65   13.66</time>
   <time name="total">  337.08  337.11</time>
   <energy>
    <i name="e_fr_energy">   -182.80512820 </i>
    <i name="e_wo_entrp">   -182.75262655 </i>
    <i name="e_0_energy">   -182.79200278 </i>
   </energy>
  </scstep>
  <scstep>
   <time name="diag">   68.37   68.37</time>
   <time name="diis">  200.59  200.59</time>
   <time name="orth">   13.38   13.39</time>
   <time name="total">  321.37  321.38</time>
   <energy>
    <i name="e_fr_energy">   -185.32779115 </i>
    <i name="e_wo_entrp">   -185.32107885 </i>
    <i name="e_0_energy">   -185.32611307 </i>
   </energy>
  </scstep>
  <scstep>
   <time name="diag">   67.83   67.84</time>
   <time name="diis">  186.49  186.49</time>
   <time name="orth">   13.43   13.43</time>
   <time name="total">  306.38  306.39</time>
   <energy>
    <i name="e_fr_energy">   -183.30179035 </i>
    <i name="e_wo_entrp">   -183.17832780 </i>
    <i name="e_0_energy">   -183.27092471 </i>
   </energy>
  </scstep>
  <scstep>
   <time name="diag">   67.81   67.82</time>
   <time name="diis">  188.14  188.14</time>
   <time name="orth">   13.26   13.26</time>
   <time name="total">  308.47  308.49</time>
   <energy>
    <i name="e_fr_energy">   -181.29198499 </i>
    <i name="e_wo_entrp">   -181.23508581 </i>
    <i name="e_0_energy">   -181.27776020 </i>
   </energy>
  </scstep>
  <scstep>
   <time name="diag">   67.82   67.83</time>
   <time name="diis">  184.48  184.49</time>
   <time name="orth">   13.25   13.25</time>
   <time name="total">  304.23  304.25</time>
   <energy>
    <i name="e_fr_energy">   -178.83607011 </i>
    <i name="e_wo_entrp">   -178.70679162 </i>
    <i name="e_0_energy">   -178.80375049 </i>
   </energy>
  </scstep>
  <scstep>
   <time name="diag">   67.72   67.72</time>
   <time name="diis">  182.43  182.43</time>
   <time name="orth">   13.33   13.33</time>
   <time name="total">  301.97  301.97</time>
   <energy>
    <i name="e_fr_energy">   -177.47785871 </i>
    <i name="e_wo_entrp">   -177.35765291 </i>
    <i name="e_0_energy">   -177.44780726 </i>
   </energy>
  </scstep>
  <scstep>
   <time name="diag">   67.47   67.47</time>
   <time name="diis">  181.48  181.48</time>
   <time name="orth">   12.87   12.87</time>
   <time name="total">  299.63  299.63</time>
   <energy>
    <i name="e_fr_energy">   -177.59884368 </i>
    <i name="e_wo_entrp">   -177.54038127 </i>
    <i name="e_0_energy">   -177.58422807 </i>
   </energy>
  </scstep>
  <scstep>
   <time name="diag">   65.90   65.90</time>
   <time name="diis">  178.06  178.07</time>
   <time name="orth">   13.12   13.12</time>
   <time name="total">  294.62  294.64</time>
   <energy>
    <i name="e_fr_energy">   -178.42938185 </i>
    <i name="e_wo_entrp">   -178.73166918 </i>
    <i name="e_0_energy">   -178.50495368 </i>
   </energy>
  </scstep>
  <scstep>
   <time name="diag">   66.05   66.06</time>
   <time name="diis">  174.67  174.68</time>
   <time name="orth">   12.90   12.90</time>
   <time name="total">  291.17  291.18</time>
   <energy>
    <i name="e_fr_energy">   -178.36522519 </i>
    <i name="e_wo_entrp">   -178.54530017 </i>
    <i name="e_0_energy">   -178.41024394 </i>
   </energy>
  </scstep>
  <scstep>
   <time name="diag">   66.03   66.03</time>
   <time name="diis">  178.60  178.60</time>
   <time name="orth">   12.93   12.93</time>
   <time name="total">  295.18  295.18</time>
   <energy>
    <i name="e_fr_energy">   -176.86293734 </i>
    <i name="e_wo_entrp">   -176.85927956 </i>
    <i name="e_0_energy">   -176.86202290 </i>
   </energy>
  </scstep>
  <scstep>
   <time name="diag">   66.06   66.06</time>
   <time name="diis">  174.68  174.69</time>
   <time name="orth">   12.95   12.95</time>
   <time name="total">  291.88  291.89</time>
   <energy>
    <i name="e_fr_energy">   -176.18081578 </i>
    <i name="e_wo_entrp">   -176.13112408 </i>
    <i name="e_0_energy">   -176.16839285 </i>
   </energy>
  </scstep>
  <scstep>
   <time name="diag">   65.75   65.75</time>
   <time name="diis">  175.30  175.31</time>
   <time name="orth">   13.00   13.00</time>
   <time name="total">  291.67  291.68</time>
   <energy>
    <i name="e_fr_energy">   -175.87911645 </i>
    <i name="e_wo_entrp">   -175.80511086 </i>
    <i name="e_0_energy">   -175.86061505 </i>
   </energy>
  </scstep>
  <scstep>
   <time name="diag">   65.84   65.85</time>
   <time name="diis">  172.20  172.22</time>
   <time name="orth">   12.97   12.97</time>
   <time name="total">  288.73  288.76</time>
   <energy>
    <i name="e_fr_energy">   -175.87985659 </i>
    <i name="e_wo_entrp">   -175.77444438 </i>
    <i name="e_0_energy">   -175.85350354 </i>
   </energy>
  </scstep>
  <scstep>
   <time name="diag">   65.77   65.77</time>
   <time name="diis">  171.76  171.78</time>
   <time name="orth">   12.97   12.97</time>
   <time name="total">  288.31  288.33</time>
   <energy>
    <i name="e_fr_energy">   -175.68127180 </i>
    <i name="e_wo_entrp">   -175.59905528 </i>
    <i name="e_0_energy">   -175.66071767 </i>
   </energy>
  </scstep>
  <scstep>
   <time name="diag">   65.82   65.82</time>
   <time name="diis">  172.01  172.03</time>
   <time name="orth">   13.00   13.00</time>
   <time name="total">  288.90  288.93</time>
   <energy>
    <i name="e_fr_energy">   -175.48535516 </i>
    <i name="e_wo_entrp">   -175.41436901 </i>
    <i name="e_0_energy">   -175.46760862 </i>
   </energy>
  </scstep>
  <scstep>
   <time name="diag">   65.83   65.83</time>
   <time name="diis">  172.45  172.47</time>
   <time name="orth">   13.06   13.06</time>
   <time name="total">  289.52  289.55</time>
   <energy>
    <i name="e_fr_energy">   -175.49176909 </i>
    <i name="e_wo_entrp">   -175.44146760 </i>
    <i name="e_0_energy">   -175.47919371 </i>
   </energy>
  </scstep>
  <scstep>
   <time name="diag">   65.97   65.98</time>
   <time name="diis">  173.41  173.42</time>
   <time name="orth">   13.08   13.09</time>
   <time name="total">  290.45  290.48</time>
   <energy>
    <i name="e_fr_energy">   -175.49814706 </i>
    <i name="e_wo_entrp">   -175.43149942 </i>
    <i name="e_0_energy">   -175.48148515 </i>
   </energy>
  </scstep>
  <scstep>
   <time name="diag">   65.89   65.89</time>
   <time name="diis">  171.81  171.83</time>
   <time name="orth">   12.96   12.97</time>
   <time name="total">  288.83  288.85</time>
   <energy>
    <i name="e_fr_energy">   -175.21857700 </i>
    <i name="e_wo_entrp">   -175.11357839 </i>
    <i name="e_0_energy">   -175.19232735 </i>
   </energy>
  </scstep>
  <scstep>
   <time name="diag">   65.89   65.90</time>
   <time name="diis">  171.72  171.73</time>
   <time name="orth">   13.00   13.00</time>
   <time name="total">  288.74  288.77</time>
   <energy>
    <i name="e_fr_energy">   -175.16853519 </i>
    <i name="e_wo_entrp">   -175.04581728 </i>
    <i name="e_0_energy">   -175.13785571 </i>
   </energy>
  </scstep>
  <scstep>
   <time name="diag">   67.10   67.11</time>
   <time name="diis">  178.40  178.42</time>
   <time name="orth">   13.31   13.31</time>
   <time name="total">  298.03  298.06</time>
   <energy>
    <i name="e_fr_energy">   -175.14798326 </i>
    <i name="e_wo_entrp">   -175.01874734 </i>
    <i name="e_0_energy">   -175.11567428 </i>
   </energy>
  </scstep>
  <scstep>
   <time name="diag">   67.51   67.52</time>
   <time name="diis">  177.46  177.47</time>
   <time name="orth">   13.34   13.34</time>
   <time name="total">  298.19  298.22</time>
   <energy>
    <i name="e_fr_energy">   -175.08910497 </i>
    <i name="e_wo_entrp">   -174.96874096 </i>
    <i name="e_0_energy">   -175.05901397 </i>
   </energy>
  </scstep>
  <scstep>
   <time name="diag">   67.53   67.53</time>
   <time name="diis">  176.59  176.60</time>
   <time name="orth">   13.41   13.41</time>
   <time name="total">  297.33  297.35</time>
   <energy>
    <i name="e_fr_energy">   -175.08207771 </i>
    <i name="e_wo_entrp">   -174.96354948 </i>
    <i name="e_0_energy">   -175.05244566 </i>
   </energy>
  </scstep>
  <scstep>
   <time name="diag">   67.34   67.34</time>
   <time name="diis">  177.94  177.95</time>
   <time name="orth">   13.33   13.33</time>
   <time name="total">  298.48  298.51</time>
   <energy>
    <i name="e_fr_energy">   -175.06926381 </i>
    <i name="e_wo_entrp">   -174.95483837 </i>
    <i name="e_0_energy">   -175.04065745 </i>
   </energy>
  </scstep>
  <scstep>
   <time name="diag">   67.37   67.37</time>
   <time name="diis">  176.90  176.92</time>
   <time name="orth">   13.45   13.45</time>
   <time name="total">  297.38  297.41</time>
   <energy>
    <i name="e_fr_energy">   -175.04973624 </i>
    <i name="e_wo_entrp">   -174.94212214 </i>
    <i name="e_0_energy">   -175.02283271 </i>
   </energy>
  </scstep>
  <scstep>
   <time name="diag">   67.53   67.53</time>
   <time name="diis">  176.82  176.83</time>
   <time name="orth">   13.35   13.35</time>
   <time name="total">  297.62  297.64</time>
   <energy>
    <i name="e_fr_energy">   -175.03681018 </i>
    <i name="e_wo_entrp">   -174.91243636 </i>
    <i name="e_0_energy">   -175.00571673 </i>
   </energy>
  </scstep>
  <scstep>
   <time name="diag">   67.25   67.25</time>
   <time name="diis">  176.35  176.37</time>
   <time name="orth">   13.39   13.39</time>
   <time name="total">  297.10  297.14</time>
   <energy>
    <i name="e_fr_energy">   -175.03347371 </i>
    <i name="e_wo_entrp">   -174.91077889 </i>
    <i name="e_0_energy">   -175.00280001 </i>
   </energy>
  </scstep>
  <scstep>
   <time name="diag">   67.34   67.34</time>
   <time name="diis">  175.92  175.93</time>
   <time name="orth">   12.90   12.90</time>
   <time name="total">  295.95  295.97</time>
   <energy>
    <i name="e_fr_energy">   -175.02887795 </i>
    <i name="e_wo_entrp">   -174.90416398 </i>
    <i name="e_0_energy">   -174.99769946 </i>
   </energy>
  </scstep>
  <scstep>
   <time name="diag">   66.46   66.46</time>
   <time name="diis">  174.38  174.39</time>
   <time name="orth">   13.31   13.31</time>
   <time name="total">  294.11  294.14</time>
   <energy>
    <i name="e_fr_energy">   -175.02429819 </i>
    <i name="e_wo_entrp">   -174.89718464 </i>
    <i name="e_0_energy">   -174.99251980 </i>
   </energy>
  </scstep>
  <scstep>
   <time name="diag">   66.88   66.89</time>
   <time name="diis">  173.03  173.04</time>
   <time name="orth">   13.41   13.41</time>
   <time name="total">  292.31  292.33</time>
   <energy>
    <i name="e_fr_energy">   -175.02602770 </i>
    <i name="e_wo_entrp">   -174.90154938 </i>
    <i name="e_0_energy">   -174.99490812 </i>
   </energy>
  </scstep>
  <scstep>
   <time name="diag">   67.02   67.02</time>
   <time name="diis">  173.09  173.09</time>
   <time name="orth">   12.92   12.92</time>
   <time name="total">  292.61  292.62</time>
   <energy>
    <i name="e_fr_energy">   -175.02483331 </i>
    <i name="e_wo_entrp">   -174.89803016 </i>
    <i name="e_0_energy">   -174.99313252 </i>
   </energy>
  </scstep>
  <scstep>
   <time name="diag">   66.40   66.40</time>
   <time name="diis">  173.31  173.31</time>
   <time name="orth">   13.19   13.19</time>
   <time name="total">  293.41  293.42</time>
   <energy>
    <i name="e_fr_energy">   -175.02586330 </i>
    <i name="e_wo_entrp">   -174.89929720 </i>
    <i name="e_0_energy">   -174.99422177 </i>
   </energy>
  </scstep>
  <scstep>
   <time name="diag">   66.39   66.40</time>
   <time name="diis">  173.45  173.47</time>
   <time name="orth">   13.34   13.35</time>
   <time name="total">  294.05  294.07</time>
   <energy>
    <i name="e_fr_energy">   -175.02763011 </i>
    <i name="e_wo_entrp">   -174.89985525 </i>
    <i name="e_0_energy">   -174.99568640 </i>
   </energy>
  </scstep>
  <scstep>
   <time name="diag">   65.99   65.99</time>
   <time name="diis">  168.10  168.11</time>
   <time name="orth">   13.08   13.08</time>
   <time name="total">  287.17  287.19</time>
   <energy>
    <i name="e_fr_energy">   -175.02819025 </i>
    <i name="e_wo_entrp">   -174.90127490 </i>
    <i name="e_0_energy">   -174.99646141 </i>
   </energy>
  </scstep>
  <scstep>
   <time name="diag">   66.08   66.09</time>
   <time name="diis">  156.66  156.67</time>
   <time name="orth">   13.06   13.06</time>
   <time name="total">  275.66  275.69</time>
   <energy>
    <i name="e_fr_energy">   -175.03026796 </i>
    <i name="e_wo_entrp">   -174.90462795 </i>
    <i name="e_0_energy">   -174.99885796 </i>
   </energy>
  </scstep>
  <scstep>
   <time name="diag">   65.87   65.87</time>
   <time name="diis">  154.96  154.98</time>
   <time name="orth">   13.20   13.20</time>
   <time name="total">  274.24  274.27</time>
   <energy>
    <i name="e_fr_energy">   -175.03286154 </i>
    <i name="e_wo_entrp">   -174.90815337 </i>
    <i name="e_0_energy">   -175.00168450 </i>
   </energy>
  </scstep>
  <scstep>
   <time name="diag">   65.92   65.92</time>
   <time name="diis">  114.87  114.88</time>
   <time name="orth">   13.26   13.26</time>
   <time name="total">  234.51  234.53</time>
   <energy>
    <i name="e_fr_energy">   -175.03412390 </i>
    <i name="e_wo_entrp">   -174.90860418 </i>
    <i name="e_0_energy">   -175.00274397 </i>
   </energy>
  </scstep>
  <scstep>
   <time name="diag">   66.37   66.38</time>
   <time name="diis">  139.58  139.59</time>
   <time name="orth">   12.84   12.84</time>
   <time name="total">  259.50  259.53</time>
   <energy>
    <i name="e_fr_energy">   -175.03721962 </i>
    <i name="e_wo_entrp">   -174.91023948 </i>
    <i name="e_0_energy">   -175.00547458 </i>
   </energy>
  </scstep>
  <scstep>
   <time name="diag">   65.63   65.63</time>
   <time name="diis">  121.99  122.00</time>
   <time name="orth">   12.91   12.91</time>
   <time name="total">  241.50  241.52</time>
   <energy>
    <i name="e_fr_energy">   -175.03935611 </i>
    <i name="e_wo_entrp">   -174.91205887 </i>
    <i name="e_0_energy">   -175.00753180 </i>
   </energy>
  </scstep>
  <scstep>
   <time name="diag">   66.24   66.24</time>
   <time name="diis">  131.68  131.69</time>
   <time name="orth">   12.66   12.66</time>
   <time name="total">  251.35  251.36</time>
   <energy>
    <i name="e_fr_energy">   -175.04190589 </i>
    <i name="e_wo_entrp">   -174.91511283 </i>
    <i name="e_0_energy">   -175.01020763 </i>
   </energy>
  </scstep>
  <scstep>
   <time name="diag">   65.64   65.64</time>
   <time name="diis">  113.10  113.10</time>
   <time name="orth">   12.81   12.81</time>
   <time name="total">  233.17  233.19</time>
   <energy>
    <i name="e_fr_energy">   -175.04314973 </i>
    <i name="e_wo_entrp">   -174.91756319 </i>
    <i name="e_0_energy">   -175.01175310 </i>
   </energy>
  </scstep>
  <scstep>
   <time name="diag">   65.45   65.45</time>
   <time name="diis">  113.40  113.41</time>
   <time name="orth">   13.27   13.27</time>
   <time name="total">  233.50  233.52</time>
   <energy>
    <i name="e_fr_energy">   -175.04509006 </i>
    <i name="e_wo_entrp">   -174.91907017 </i>
    <i name="e_0_energy">   -175.01358509 </i>
   </energy>
  </scstep>
  <scstep>
   <time name="diag">   65.47   65.48</time>
   <time name="diis">  114.61  114.61</time>
   <time name="orth">   13.07   13.07</time>
   <time name="total">  235.28  235.30</time>
   <energy>
    <i name="e_fr_energy">   -175.04667537 </i>
    <i name="e_wo_entrp">   -174.92098362 </i>
    <i name="e_0_energy">   -175.01525243 </i>
   </energy>
  </scstep>
  <scstep>
   <time name="diag">   65.09   65.09</time>
   <time name="diis">  112.51  112.53</time>
   <time name="orth">   12.89   12.89</time>
   <time name="total">  232.14  232.16</time>
   <energy>
    <i name="e_fr_energy">   -175.04726706 </i>
    <i name="e_wo_entrp">   -174.92136550 </i>
    <i name="e_0_energy">   -175.01579167 </i>
   </energy>
  </scstep>
  <scstep>
   <time name="diag">   65.48   65.49</time>
   <time name="diis">  111.25  111.26</time>
   <time name="orth">   12.85   12.85</time>
   <time name="total">  231.38  231.40</time>
   <energy>
    <i name="e_fr_energy">   -175.04839310 </i>
    <i name="e_wo_entrp">   -174.92247041 </i>
    <i name="e_0_energy">   -175.01691243 </i>
   </energy>
  </scstep>
  <scstep>
   <time name="diag">   65.24   65.24</time>
   <time name="diis">  110.59  110.60</time>
   <time name="orth">   13.05   13.05</time>
   <time name="total">  229.96  229.98</time>
   <energy>
    <i name="e_fr_energy">   -175.04883327 </i>
    <i name="e_wo_entrp">   -174.92291970 </i>
    <i name="e_0_energy">   -175.01735488 </i>
   </energy>
  </scstep>
  <scstep>
   <time name="diag">   66.11   66.11</time>
   <time name="diis">  110.27  110.27</time>
   <time name="orth">   12.97   12.97</time>
   <time name="total">  231.31  231.33</time>
   <energy>
    <i name="e_fr_energy">   -175.04949597 </i>
    <i name="e_wo_entrp">   -174.92362158 </i>
    <i name="e_0_energy">   -175.01802737 </i>
   </energy>
  </scstep>
  <scstep>
   <time name="diag">   65.69   65.70</time>
   <time name="diis">  107.09  107.10</time>
   <time name="orth">   13.03   13.03</time>
   <time name="total">  227.61  227.63</time>
   <energy>
    <i name="e_fr_energy">   -175.05000703 </i>
    <i name="e_wo_entrp">   -174.92438584 </i>
    <i name="e_0_energy">   -175.01860173 </i>
   </energy>
  </scstep>
  <scstep>
   <time name="diag">   65.63   65.64</time>
   <time name="diis">   97.25   97.26</time>
   <time name="orth">   12.77   12.77</time>
   <time name="total">  217.83  217.85</time>
   <energy>
    <i name="e_fr_energy">   -175.05043789 </i>
    <i name="e_wo_entrp">   -174.92467755 </i>
    <i name="e_0_energy">   -175.01899781 </i>
   </energy>
  </scstep>
  <scstep>
   <time name="diag">   65.63   65.64</time>
   <time name="diis">   88.02   88.03</time>
   <time name="orth">   13.00   13.00</time>
   <time name="total">  208.35  208.36</time>
   <energy>
    <i name="e_fr_energy">   -175.05077959 </i>
    <i name="e_wo_entrp">   -174.92503064 </i>
    <i name="e_0_energy">   -175.01934235 </i>
   </energy>
  </scstep>
  <scstep>
   <time name="diag">   65.23   65.24</time>
   <time name="diis">   97.93   97.93</time>
   <time name="orth">   13.45   13.45</time>
   <time name="total">  217.72  217.73</time>
   <energy>
    <i name="e_fr_energy">   -175.05121283 </i>
    <i name="e_wo_entrp">   -174.92551754 </i>
    <i name="e_0_energy">   -175.01978900 </i>
   </energy>
  </scstep>
  <scstep>
   <time name="diag">   65.25   65.26</time>
   <time name="diis">   84.77   84.78</time>
   <time name="orth">   12.73   12.73</time>
   <time name="total">  204.80  204.82</time>
   <energy>
    <i name="e_fr_energy">   -175.05154899 </i>
    <i name="e_wo_entrp">   -174.92586248 </i>
    <i name="e_0_energy">   -175.02012736 </i>
   </energy>
  </scstep>
  <scstep>
   <time name="diag">   65.21   65.21</time>
   <time name="diis">   78.86   78.86</time>
   <time name="orth">   13.00   13.00</time>
   <time name="total">  198.42  198.44</time>
   <energy>
    <i name="e_fr_energy">   -175.05166892 </i>
    <i name="e_wo_entrp">   -174.92583986 </i>
    <i name="e_0_energy">   -175.02021165 </i>
   </energy>
  </scstep>
  <scstep>
   <time name="diag">   64.89   64.90</time>
   <time name="diis">   78.82   78.83</time>
   <time name="orth">   12.53   12.54</time>
   <time name="total">  198.59  198.61</time>
   <energy>
    <i name="e_fr_energy">   -175.05192469 </i>
    <i name="e_wo_entrp">   -174.92615981 </i>
    <i name="e_0_energy">   -175.02048347 </i>
   </energy>
  </scstep>
  <scstep>
   <time name="diag">   64.83   64.83</time>
   <time name="diis">   77.22   77.22</time>
   <time name="orth">   13.10   13.10</time>
   <time name="total">  196.93  196.94</time>
   <energy>
    <i name="e_fr_energy">   -175.05202728 </i>
    <i name="e_wo_entrp">   -174.92625497 </i>
    <i name="e_0_energy">   -175.02058420 </i>
   </energy>
  </scstep>
  <scstep>
   <time name="diag">   64.67   64.67</time>
   <time name="diis">   85.11   85.11</time>
   <time name="orth">   13.13   13.13</time>
   <time name="total">  204.19  204.19</time>
   <energy>
    <i name="e_fr_energy">   -175.05218106 </i>
    <i name="e_wo_entrp">   -174.92635818 </i>
    <i name="e_0_energy">   -175.02072534 </i>
   </energy>
  </scstep>
  <scstep>
   <time name="diag">   64.66   64.66</time>
   <time name="diis">   75.58   75.58</time>
   <time name="orth">   12.80   12.80</time>
   <time name="total">  165.94  165.95</time>
   <energy>
    <i name="alphaZ">     75.25431677 </i>
    <i name="ewald"> 138205.93982535 </i>
    <i name="hartreedc">-182552.39701893 </i>
    <i name="XCdc">  -1692.29472306 </i>
    <i name="pawpsdc">  46216.25665892 </i>
    <i name="pawaedc"> -42687.88281755 </i>
    <i name="eentropy">     -0.12576097 </i>
    <i name="bandstr">  -2826.30824731 </i>
    <i name="atom">  45086.50549395 </i>
    <i name="e_fr_energy">   -175.05227283 </i>
    <i name="e_wo_entrp">   -174.92651186 </i>
    <i name="e_0_energy">   -175.02083259 </i>
   </energy>
  </scstep>
  <structure>
   <crystal>
    <varray name="basis" >
     <v>      30.00000000       0.00000000       0.00000000 </v>
     <v>       0.00000000      30.00000000       0.00000000 </v>
     <v>       0.00000000       0.00000000      30.00000000 </v>
    </varray>
    <i name="volume">  27000.00000000 </i>
    <varray name="rec_basis" >
     <v>       0.03333333       0.00000000       0.00000000 </v>
     <v>       0.00000000       0.03333333       0.00000000 </v>
     <v>       0.00000000       0.00000000       0.03333333 </v>
    </varray>
   </crystal>
   <varray name="positions" >
    <v>       0.44576020       0.32826710       0.41691983 </v>
    <v>       0.67173288       0.55423978       0.41691983 </v>
    <v>       0.55423980       0.32826710       0.41691983 </v>
    <v>       0.32826712       0.55423978       0.41691983 </v>
    <v>       0.50000000       0.38250690       0.34021317 </v>
    <v>       0.50000000       0.38250690       0.65978680 </v>
    <v>       0.50000000       0.27609440       0.50000000 </v>
    <v>       0.27609443       0.49999998       0.50000000 </v>
    <v>       0.72390557       0.49999998       0.50000000 </v>
    <v>       0.50000000       0.72390555       0.50000000 </v>
    <v>       0.61195280       0.38804720       0.34167483 </v>
    <v>       0.61195280       0.38804720       0.65832513 </v>
    <v>       0.38804722       0.61195278       0.34167483 </v>
    <v>       0.38804722       0.61195278       0.65832513 </v>
    <v>       0.38804720       0.38804720       0.34167483 </v>
    <v>       0.38804720       0.38804720       0.65832513 </v>
    <v>       0.61195278       0.61195278       0.34167483 </v>
    <v>       0.61195278       0.61195278       0.65832513 </v>
    <v>       0.44576020       0.32826710       0.58308023 </v>
    <v>       0.67173288       0.55423978       0.58308023 </v>
    <v>       0.55791699       0.44208301       0.41809300 </v>
    <v>       0.32826705       0.44576024       0.41691983 </v>
    <v>       0.55423973       0.67173293       0.41691983 </v>
    <v>       0.55423980       0.32826710       0.58308023 </v>
    <v>       0.32826712       0.55423978       0.58308023 </v>
    <v>       0.67173295       0.44576024       0.41691983 </v>
    <v>       0.44576027       0.67173293       0.41691983 </v>
    <v>       0.44208301       0.44208301       0.41809300 </v>
    <v>       0.50000000       0.38416601       0.50000000 </v>
    <v>       0.61749315       0.50000005       0.34021317 </v>
    <v>       0.61749315       0.50000005       0.65978680 </v>
    <v>       0.38250685       0.50000005       0.34021317 </v>
    <v>       0.38250685       0.50000005       0.65978680 </v>
    <v>       0.38317830       0.38317830       0.50000000 </v>
    <v>       0.61682172       0.61682172       0.50000000 </v>
    <v>       0.61682170       0.38317830       0.50000000 </v>
    <v>       0.38317828       0.61682172       0.50000000 </v>
    <v>       0.50000000       0.50000000       0.33478917 </v>
    <v>       0.50000000       0.50000000       0.66521087 </v>
    <v>       0.32826705       0.44576024       0.58308023 </v>
    <v>       0.55423973       0.67173293       0.58308023 </v>
    <v>       0.55791699       0.44208301       0.58190703 </v>
    <v>       0.44208298       0.55791702       0.41809300 </v>
    <v>       0.44208301       0.44208301       0.58190703 </v>
    <v>       0.67173295       0.44576024       0.58308023 </v>
    <v>       0.44576027       0.67173293       0.58308023 </v>
    <v>       0.55791702       0.55791702       0.41809300 </v>
    <v>       0.38416599       0.50000002       0.50000000 </v>
    <v>       0.61583401       0.50000002       0.50000000 </v>
    <v>       0.50000000       0.61749319       0.34021317 </v>
    <v>       0.50000000       0.61749319       0.65978680 </v>
    <v>       0.50000000       0.50000000       0.50000000 </v>
    <v>       0.44208298       0.55791702       0.58190703 </v>
    <v>       0.55791702       0.55791702       0.58190703 </v>
    <v>       0.50000000       0.61583404       0.50000000 </v>
    <v>       0.67425167       0.51364550       0.31917663 </v>
    <v>       0.70030390       0.51568563       0.29214183 </v>
   </varray>
  </structure>
  <varray name="forces" >
   <v>       0.70547247       1.11075786       0.28879773 </v>
   <v>      -1.01875325      -0.69649044       0.23806823 </v>
   <v>      -0.70108359       1.11062375       0.27863630 </v>
   <v>       1.11117914      -0.71613527       0.28446160 </v>
   <v>       0.00681326       0.41118343       1.28206810 </v>
   <v>       0.01406740       0.41124872      -1.29003489 </v>
   <v>      -0.00441103       1.52400043       0.01639843 </v>
   <v>       1.52020451       0.00027803      -0.01000698 </v>
   <v>      -1.54564240       0.00640412       0.00435257 </v>
   <v>      -0.00562219      -1.52123008       0.01852837 </v>
   <v>      -0.79359388       0.72121255       1.09018733 </v>
   <v>      -0.76568840       0.75286684      -1.07521277 </v>
   <v>       0.75092483      -0.75937583       1.07920541 </v>
   <v>       0.76154938      -0.75410500      -1.07518471 </v>
   <v>       0.74996807       0.75983098       1.07893721 </v>
   <v>       0.75819861       0.75501661      -1.07293568 </v>
   <v>      -0.76457177      -0.72719115       1.06300035 </v>
   <v>      -0.76692825      -0.75290386      -1.07511690 </v>
   <v>       0.71819345       1.10200611      -0.30098702 </v>
   <v>      -1.10283995      -0.70598153      -0.29739531 </v>
   <v>       0.06888377      -0.09342791      -0.17773554 </v>
   <v>       1.11041371       0.71503083       0.28414582 </v>
   <v>      -0.71390688      -1.10118497       0.28087511 </v>
   <v>      -0.71936079       1.10468524      -0.28150907 </v>
   <v>       1.10840307      -0.70736526      -0.28803764 </v>
   <v>      -1.07659880       0.61942735       0.38850266 </v>
   <v>       0.71130340      -1.11120620       0.28489357 </v>
   <v>      -0.10282842      -0.11037954      -0.16695719 </v>
   <v>      -0.01094895      -0.25108391       0.02652163 </v>
   <v>      -0.31536111       0.06016617       1.35779092 </v>
   <v>      -0.41616734       0.00014567      -1.28009084 </v>
   <v>       0.36523949      -0.00121295       1.30909650 </v>
   <v>       0.40842316       0.00033349      -1.28560570 </v>
   <v>       0.82486184       0.82746267      -0.00182998 </v>
   <v>      -0.81278702      -0.84022906       0.00229459 </v>
   <v>      -0.81012238       0.84195583      -0.00969563 </v>
   <v>       0.82441318      -0.82695661       0.00042673 </v>
   <v>       0.03868367      -0.02257628       1.21889117 </v>
   <v>       0.00058879       0.00095829      -1.17484946 </v>
   <v>       1.11023849       0.70820153      -0.28874338 </v>
   <v>      -0.72321942      -1.10717357      -0.27834896 </v>
   <v>       0.10692209      -0.11796171       0.16228682 </v>
   <v>      -0.10438167       0.11258780      -0.16273146 </v>
   <v>      -0.11561247      -0.10564865       0.15526568 </v>
   <v>      -1.10313383       0.70619726      -0.29754586 </v>
   <v>       0.71787451      -1.10472229      -0.29623724 </v>
   <v>       0.02770116       0.11640764      -0.10801220 </v>
   <v>      -0.22815401      -0.00082138      -0.00312025 </v>
   <v>       0.22099421      -0.00217293       0.01481312 </v>
   <v>      -0.00986318      -0.39740284       1.28410146 </v>
   <v>       0.00886593      -0.40669815      -1.28961910 </v>
   <v>       0.02178534       0.00169699      -0.01206225 </v>
   <v>      -0.11361657       0.10947333       0.15741013 </v>
   <v>       0.11243016       0.11527477       0.15704077 </v>
   <v>      -0.00717109       0.24103535       0.01989023 </v>
   <v>      -3.71137726      -0.41998056       2.87481006 </v>
   <v>       3.67914882       0.41514833      -3.10209256 </v>
  </varray>
  <varray name="stress" >
   <v>      -6.57205451       0.01242018      -0.17861920 </v>
   <v>       0.01242016      -6.73581722      -0.02487866 </v>
   <v>      -0.17861918      -0.02487867      -6.59559699 </v>
  </varray>
  <energy>
   <i name="e_fr_energy">   -175.05227283 </i>
   <i name="e_wo_entrp">   -175.02083259 </i>
   <i name="e_0_energy">     -0.12576097 </i>
  </energy>
  <time name="totalsc">17959.6617960.85</time>
  <eigenvalues>
   <array>
    <dimension dim="1">band</dimension>
    <dimension dim="2">kpoint</dimension>
    <dimension dim="3">spin</dimension>
    <field>eigene</field>
    <field>occ</field>
    <set>
     <set comment="spin 1">
      <set comment="kpoint 1">
       <r>  -28.4830    1.0000 </r>
       <r>  -13.4695    1.0000 </r>
       <r>  -11.2257    1.0000 </r>
       <r>  -10.9813    1.0000 </r>
       <r>  -10.6818    1.0000 </r>
       <r>   -6.6696    1.0000 </r>
       <r>   -6.4684    1.0000 </r>
       <r>   -6.4338    1.0000 </r>
       <r>   -6.1988    1.0000 </r>
       <r>   -6.1406    1.0000 </r>
       <r>   -6.1390    1.0000 </r>
       <r>   -5.9146    1.0000 </r>
       <r>   -5.8662    1.0000 </r>
       <r>   -5.8385    1.0000 </r>
       <r>   -5.8049    1.0000 </r>
       <r>   -5.7730    1.0000 </r>
       <r>   -5.7633    1.0000 </r>
       <r>   -5.7231    1.0000 </r>
       <r>   -5.7057    1.0000 </r>
       <r>   -5.6988    1.0000 </r>
       <r>   -5.6874    1.0000 </r>
       <r>   -5.6418    1.0000 </r>
       <r>   -5.6385    1.0000 </r>
       <r>   -5.6255    1.0000 </r>
       <r>   -5.6106    1.0000 </r>
       <r>   -5.6002    1.0000 </r>
       <r>   -5.5966    1.0000 </r>
       <r>   -5.5749    1.0000 </r>
       <r>   -5.5637    1.0000 </r>
       <r>   -5.5632    1.0000 </r>
       <r>   -5.5565    1.0000 </r>
       <r>   -5.5404    1.0000 </r>
       <r>   -5.5342    1.0000 </r>
       <r>   -5.5331    1.0000 </r>
       <r>   -5.5286    1.0000 </r>
       <r>   -5.5275    1.0000 </r>
       <r>   -5.5243    1.0000 </r>
       <r>   -5.5183    1.0000 </r>
       <r>   -5.5076    1.0000 </r>
       <r>   -5.4969    1.0000 </r>
       <r>   -5.4892    1.0000 </r>
       <r>   -5.4877    1.0000 </r>
       <r>   -5.4849    1.0000 </r>
       <r>   -5.4821    1.0000 </r>
       <r>   -5.4804    1.0000 </r>
       <r>   -5.4663    1.0000 </r>
       <r>   -5.4469    1.0000 </r>
       <r>   -5.4453    1.0000 </r>
       <r>   -5.4429    1.0000 </r>
       <r>   -5.4410    1.0000 </r>
       <r>   -5.4373    1.0000 </r>
       <r>   -5.4337    1.0000 </r>
       <r>   -5.4266    1.0000 </r>
       <r>   -5.4220    1.0000 </r>
       <r>   -5.4188    1.0000 </r>
       <r>   -5.4167    1.0000 </r>
       <r>   -5.4008    1.0000 </r>
       <r>   -5.3554    1.0000 </r>
       <r>   -5.3510    1.0000 </r>
       <r>   -5.3426    1.0000 </r>
       <r>   -5.3411    1.0000 </r>
       <r>   -5.3358    1.0000 </r>
       <r>   -5.3315    1.0000 </r>
       <r>   -5.3206    1.0000 </r>
       <r>   -5.3158    1.0000 </r>
       <r>   -5.3140    1.0000 </r>
       <r>   -5.3104    1.0000 </r>
       <r>   -5.3038    1.0000 </r>
       <r>   -5.2996    1.0000 </r>
       <r>   -5.2308    1.0000 </r>
       <r>   -5.2241    1.0000 </r>
       <r>   -5.2204    1.0000 </r>
       <r>   -5.2082    1.0000 </r>
       <r>   -5.2051    1.0000 </r>
       <r>   -5.1974    1.0000 </r>
       <r>   -5.1962    1.0000 </r>
       <r>   -5.1902    1.0000 </r>
       <r>   -5.1884    1.0000 </r>
       <r>   -5.1814    1.0000 </r>
       <r>   -5.1785    1.0000 </r>
       <r>   -5.1716    1.0000 </r>
       <r>   -5.1586    1.0000 </r>
       <r>   -5.1481    1.0000 </r>
       <r>   -5.1477    1.0000 </r>
       <r>   -5.1398    1.0000 </r>
       <r>   -5.1278    1.0000 </r>
       <r>   -5.1251    1.0000 </r>
       <r>   -5.1155    1.0000 </r>
       <r>   -5.1038    1.0000 </r>
       <r>   -5.0958    1.0000 </r>
       <r>   -5.0847    1.0000 </r>
       <r>   -5.0713    1.0000 </r>
       <r>   -5.0689    1.0000 </r>
       <r>   -5.0676    1.0000 </r>
       <r>   -5.0649    1.0000 </r>
       <r>   -5.0631    1.0000 </r>
       <r>   -5.0584    1.0000 </r>
       <r>   -5.0539    1.0000 </r>
       <r>   -5.0446    1.0000 </r>
       <r>   -5.0437    1.0000 </r>
       <r>   -5.0400    1.0000 </r>
       <r>   -5.0350    1.0000 </r>
       <r>   -5.0260    1.0000 </r>
       <r>   -5.0182    1.0000 </r>
       <r>   -5.0171    1.0000 </r>
       <r>   -5.0132    1.0000 </r>
       <r>   -5.0079    1.0000 </r>
       <r>   -5.0058    1.0000 </r>
       <r>   -5.0035    1.0000 </r>
       <r>   -4.9936    1.0000 </r>
       <r>   -4.9922    1.0000 </r>
       <r>   -4.9818    1.0000 </r>
       <r>   -4.9762    1.0000 </r>
       <r>   -4.9748    1.0000 </r>
       <r>   -4.9717    1.0000 </r>
       <r>   -4.9672    1.0000 </r>
       <r>   -4.9632    1.0000 </r>
       <r>   -4.9488    1.0000 </r>
       <r>   -4.9477    1.0000 </r>
       <r>   -4.9424    1.0000 </r>
       <r>   -4.9296    1.0000 </r>
       <r>   -4.9258    1.0000 </r>
       <r>   -4.9234    1.0000 </r>
       <r>   -4.9181    1.0000 </r>
       <r>   -4.9170    1.0000 </r>
       <r>   -4.9145    1.0000 </r>
       <r>   -4.9039    1.0000 </r>
       <r>   -4.8860    1.0000 </r>
       <r>   -4.8673    1.0000 </r>
       <r>   -4.8580    1.0000 </r>
       <r>   -4.8567    1.0000 </r>
       <r>   -4.8535    1.0000 </r>
       <r>   -4.8517    1.0000 </r>
       <r>   -4.8483    1.0000 </r>
       <r>   -4.8441    1.0000 </r>
       <r>   -4.8279    0.9999 </r>
       <r>   -4.8159    0.9999 </r>
       <r>   -4.8079    0.9999 </r>
       <r>   -4.7996    0.9999 </r>
       <r>   -4.7918    0.9998 </r>
       <r>   -4.7905    0.9998 </r>
       <r>   -4.7797    0.9998 </r>
       <r>   -4.7667    0.9997 </r>
       <r>   -4.7623    0.9997 </r>
       <r>   -4.7547    0.9996 </r>
       <r>   -4.7511    0.9996 </r>
       <r>   -4.7445    0.9995 </r>
       <r>   -4.7335    0.9994 </r>
       <r>   -4.7286    0.9993 </r>
       <r>   -4.7162    0.9992 </r>
       <r>   -4.7037    0.9989 </r>
       <r>   -4.7013    0.9989 </r>
       <r>   -4.6953    0.9987 </r>
       <r>   -4.6914    0.9987 </r>
       <r>   -4.6862    0.9985 </r>
       <r>   -4.6855    0.9985 </r>
       <r>   -4.6841    0.9985 </r>
       <r>   -4.6821    0.9984 </r>
       <r>   -4.6800    0.9984 </r>
       <r>   -4.6724    0.9982 </r>
       <r>   -4.6651    0.9979 </r>
       <r>   -4.6623    0.9978 </r>
       <r>   -4.6605    0.9978 </r>
       <r>   -4.6596    0.9978 </r>
       <r>   -4.6588    0.9977 </r>
       <r>   -4.6577    0.9977 </r>
       <r>   -4.6554    0.9976 </r>
       <r>   -4.6477    0.9973 </r>
       <r>   -4.6471    0.9973 </r>
       <r>   -4.6306    0.9967 </r>
       <r>   -4.6291    0.9967 </r>
       <r>   -4.6235    0.9965 </r>
       <r>   -4.6170    0.9962 </r>
       <r>   -4.6116    0.9960 </r>
       <r>   -4.6080    0.9959 </r>
       <r>   -4.6077    0.9959 </r>
       <r>   -4.6037    0.9957 </r>
       <r>   -4.6035    0.9957 </r>
       <r>   -4.6007    0.9956 </r>
       <r>   -4.5897    0.9953 </r>
       <r>   -4.5887    0.9953 </r>
       <r>   -4.5814    0.9952 </r>
       <r>   -4.5769    0.9951 </r>
       <r>   -4.5742    0.9951 </r>
       <r>   -4.5710    0.9951 </r>
       <r>   -4.5649    0.9951 </r>
       <r>   -4.5640    0.9951 </r>
       <r>   -4.5632    0.9951 </r>
       <r>   -4.5616    0.9951 </r>
       <r>   -4.5536    0.9953 </r>
       <r>   -4.5437    0.9957 </r>
       <r>   -4.5345    0.9962 </r>
       <r>   -4.5256    0.9971 </r>
       <r>   -4.5219    0.9975 </r>
       <r>   -4.5191    0.9978 </r>
       <r>   -4.5133    0.9986 </r>
       <r>   -4.5068    0.9997 </r>
       <r>   -4.5063    0.9998 </r>
       <r>   -4.4911    1.0030 </r>
       <r>   -4.4892    1.0034 </r>
       <r>   -4.4848    1.0046 </r>
       <r>   -4.4802    1.0059 </r>
       <r>   -4.4734    1.0080 </r>
       <r>   -4.4718    1.0085 </r>
       <r>   -4.4677    1.0099 </r>
       <r>   -4.4649    1.0109 </r>
       <r>   -4.4602    1.0126 </r>
       <r>   -4.4586    1.0133 </r>
       <r>   -4.4533    1.0154 </r>
       <r>   -4.4522    1.0159 </r>
       <r>   -4.4389    1.0217 </r>
       <r>   -4.4361    1.0229 </r>
       <r>   -4.4335    1.0242 </r>
       <r>   -4.4237    1.0288 </r>
       <r>   -4.4215    1.0298 </r>
       <r>   -4.4208    1.0302 </r>
       <r>   -4.4187    1.0312 </r>
       <r>   -4.4180    1.0316 </r>
       <r>   -4.4172    1.0319 </r>
       <r>   -4.3927    1.0431 </r>
       <r>   -4.3906    1.0439 </r>
       <r>   -4.3835    1.0465 </r>
       <r>   -4.3775    1.0484 </r>
       <r>   -4.3743    1.0493 </r>
       <r>   -4.3638    1.0512 </r>
       <r>   -4.3567    1.0516 </r>
       <r>   -4.3527    1.0515 </r>
       <r>   -4.3503    1.0513 </r>
       <r>   -4.3487    1.0511 </r>
       <r>   -4.3470    1.0508 </r>
       <r>   -4.3453    1.0505 </r>
       <r>   -4.3449    1.0504 </r>
       <r>   -4.3410    1.0493 </r>
       <r>   -4.3401    1.0490 </r>
       <r>   -4.3382    1.0484 </r>
       <r>   -4.3376    1.0481 </r>
       <r>   -4.3352    1.0472 </r>
       <r>   -4.3344    1.0468 </r>
       <r>   -4.3320    1.0456 </r>
       <r>   -4.3240    1.0406 </r>
       <r>   -4.3211    1.0383 </r>
       <r>   -4.3158    1.0335 </r>
       <r>   -4.3143    1.0320 </r>
       <r>   -4.3071    1.0239 </r>
       <r>   -4.3025    1.0177 </r>
       <r>   -4.3012    1.0158 </r>
       <r>   -4.2969    1.0093 </r>
       <r>   -4.2948    1.0058 </r>
       <r>   -4.2936    1.0037 </r>
       <r>   -4.2858    0.9892 </r>
       <r>   -4.2806    0.9783 </r>
       <r>   -4.2751    0.9656 </r>
       <r>   -4.2745    0.9640 </r>
       <r>   -4.2712    0.9558 </r>
       <r>   -4.2701    0.9529 </r>
       <r>   -4.2649    0.9389 </r>
       <r>   -4.2628    0.9327 </r>
       <r>   -4.2613    0.9285 </r>
       <r>   -4.2589    0.9213 </r>
       <r>   -4.2572    0.9160 </r>
       <r>   -4.2559    0.9118 </r>
       <r>   -4.2535    0.9043 </r>
       <r>   -4.2514    0.8974 </r>
       <r>   -4.2503    0.8936 </r>
       <r>   -4.2496    0.8911 </r>
       <r>   -4.2407    0.8594 </r>
       <r>   -4.2380    0.8493 </r>
       <r>   -4.2361    0.8419 </r>
       <r>   -4.2329    0.8294 </r>
       <r>   -4.2321    0.8263 </r>
       <r>   -4.2288    0.8128 </r>
       <r>   -4.2224    0.7855 </r>
       <r>   -4.2159    0.7567 </r>
       <r>   -4.2051    0.7061 </r>
       <r>   -4.1968    0.6655 </r>
       <r>   -4.1958    0.6606 </r>
       <r>   -4.1902    0.6322 </r>
       <r>   -4.1899    0.6307 </r>
       <r>   -4.1880    0.6213 </r>
       <r>   -4.1837    0.5990 </r>
       <r>   -4.1737    0.5468 </r>
       <r>   -4.1724    0.5398 </r>
       <r>   -4.1511    0.4272 </r>
       <r>   -4.1428    0.3842 </r>
       <r>   -4.1421    0.3810 </r>
       <r>   -4.1411    0.3754 </r>
       <r>   -4.1392    0.3662 </r>
       <r>   -4.1299    0.3196 </r>
       <r>   -4.1245    0.2930 </r>
       <r>   -3.9739   -0.0516 </r>
       <r>   -3.8565   -0.0081 </r>
       <r>   -3.8416   -0.0037 </r>
       <r>   -3.8273   -0.0005 </r>
       <r>   -3.7380    0.0046 </r>
       <r>   -3.5185    0.0001 </r>
       <r>   -3.4997    0.0001 </r>
       <r>   -3.3772    0.0000 </r>
       <r>   -3.0817    0.0000 </r>
       <r>   -3.0711    0.0000 </r>
       <r>   -3.0687    0.0000 </r>
       <r>   -3.0424    0.0000 </r>
       <r>   -3.0313    0.0000 </r>
       <r>   -2.9536    0.0000 </r>
       <r>   -2.9491    0.0000 </r>
       <r>   -2.8047    0.0000 </r>
       <r>   -2.5598    0.0000 </r>
       <r>   -2.5325    0.0000 </r>
       <r>   -2.5296    0.0000 </r>
       <r>   -2.3204    0.0000 </r>
       <r>   -2.1266    0.0000 </r>
       <r>   -2.1236    0.0000 </r>
       <r>   -2.0722    0.0000 </r>
       <r>   -2.0263    0.0000 </r>
       <r>   -1.9590    0.0000 </r>
       <r>   -1.9492    0.0000 </r>
       <r>   -1.8862    0.0000 </r>
       <r>   -1.7979    0.0000 </r>
       <r>   -1.7047    0.0000 </r>
       <r>   -1.6692    0.0000 </r>
       <r>   -1.6554    0.0000 </r>
       <r>   -1.6497    0.0000 </r>
       <r>   -1.6067    0.0000 </r>
       <r>   -1.5621    0.0000 </r>
       <r>   -1.3662    0.0000 </r>
       <r>   -1.2485    0.0000 </r>
       <r>   -1.1865    0.0000 </r>
       <r>   -1.1326    0.0000 </r>
       <r>   -1.0392    0.0000 </r>
       <r>   -0.9927    0.0000 </r>
       <r>   -0.9810    0.0000 </r>
       <r>   -0.9539    0.0000 </r>
       <r>   -0.9389    0.0000 </r>
       <r>   -0.9297    0.0000 </r>
       <r>   -0.9006    0.0000 </r>
       <r>   -0.8706    0.0000 </r>
       <r>   -0.6509    0.0000 </r>
      </set>
     </set>
    </set>
   </array>
  </eigenvalues>
  <separator name="orbital magnetization" >
   <v name="MAGDIPOLOUT">      0.00000000      0.00000000      0.00000000</v>
  </separator>
  <dos>
   <i name="efermi">     -4.16486750 </i>
   <total>
    <array>
     <dimension dim="1">gridpoints</dimension>
     <dimension dim="2">spin</dimension>
     <field>energy</field>
     <field>total</field>
     <field>integrated</field>
     <set>
      <set comment="spin 1">
       <r>   -30.4830     0.0000     0.0000 </r>
       <r>   -30.3769     0.0000     0.0000 </r>
       <r>   -30.2708     0.0000     0.0000 </r>
       <r>   -30.1647     0.0000     0.0000 </r>
       <r>   -30.0586     0.0000     0.0000 </r>
       <r>   -29.9525     0.0000     0.0000 </r>
       <r>   -29.8463     0.0000     0.0000 </r>
       <r>   -29.7402     0.0000     0.0000 </r>
       <r>   -29.6341     0.0000     0.0000 </r>
       <r>   -29.5280     0.0000     0.0000 </r>
       <r>   -29.4219     0.0000     0.0000 </r>
       <r>   -29.3158     0.0000     0.0000 </r>
       <r>   -29.2097     0.0002     0.0000 </r>
       <r>   -29.1036     0.0033     0.0004 </r>
       <r>   -28.9975     0.0276     0.0033 </r>
       <r>   -28.8914     0.0617     0.0098 </r>
       <r>   -28.7853    -0.2833    -0.0202 </r>
       <r>   -28.6792    -0.7794    -0.1029 </r>
       <r>   -28.5731     2.6868     0.1822 </r>
       <r>   -28.4670     9.2979     1.1687 </r>
       <r>   -28.3608     7.6761     1.9832 </r>
       <r>   -28.2547     0.9668     2.0858 </r>
       <r>   -28.1486    -0.7874     2.0023 </r>
       <r>   -28.0425    -0.1006     1.9916 </r>
       <r>   -27.9364     0.0617     1.9981 </r>
       <r>   -27.8303     0.0160     1.9998 </r>
       <r>   -27.7242     0.0014     2.0000 </r>
       <r>   -27.6181     0.0001     2.0000 </r>
       <r>   -27.5120     0.0000     2.0000 </r>
       <r>   -27.4059     0.0000     2.0000 </r>
       <r>   -27.2998     0.0000     2.0000 </r>
       <r>   -27.1937     0.0000     2.0000 </r>
       <r>   -27.0876     0.0000     2.0000 </r>
       <r>   -26.9815     0.0000     2.0000 </r>
       <r>   -26.8754     0.0000     2.0000 </r>
       <r>   -26.7692     0.0000     2.0000 </r>
       <r>   -26.6631     0.0000     2.0000 </r>
       <r>   -26.5570     0.0000     2.0000 </r>
       <r>   -26.4509     0.0000     2.0000 </r>
       <r>   -26.3448     0.0000     2.0000 </r>
       <r>   -26.2387     0.0000     2.0000 </r>
       <r>   -26.1326     0.0000     2.0000 </r>
       <r>   -26.0265     0.0000     2.0000 </r>
       <r>   -25.9204     0.0000     2.0000 </r>
       <r>   -25.8143     0.0000     2.0000 </r>
       <r>   -25.7082     0.0000     2.0000 </r>
       <r>   -25.6021     0.0000     2.0000 </r>
       <r>   -25.4960     0.0000     2.0000 </r>
       <r>   -25.3899     0.0000     2.0000 </r>
       <r>   -25.2837     0.0000     2.0000 </r>
       <r>   -25.1776     0.0000     2.0000 </r>
       <r>   -25.0715     0.0000     2.0000 </r>
       <r>   -24.9654     0.0000     2.0000 </r>
       <r>   -24.8593     0.0000     2.0000 </r>
       <r>   -24.7532     0.0000     2.0000 </r>
       <r>   -24.6471     0.0000     2.0000 </r>
       <r>   -24.5410     0.0000     2.0000 </r>
       <r>   -24.4349     0.0000     2.0000 </r>
       <r>   -24.3288     0.0000     2.0000 </r>
       <r>   -24.2227     0.0000     2.0000 </r>
       <r>   -24.1166     0.0000     2.0000 </r>
       <r>   -24.0105     0.0000     2.0000 </r>
       <r>   -23.9044     0.0000     2.0000 </r>
       <r>   -23.7983     0.0000     2.0000 </r>
       <r>   -23.6921     0.0000     2.0000 </r>
       <r>   -23.5860     0.0000     2.0000 </r>
       <r>   -23.4799     0.0000     2.0000 </r>
       <r>   -23.3738     0.0000     2.0000 </r>
       <r>   -23.2677     0.0000     2.0000 </r>
       <r>   -23.1616     0.0000     2.0000 </r>
       <r>   -23.0555     0.0000     2.0000 </r>
       <r>   -22.9494     0.0000     2.0000 </r>
       <r>   -22.8433     0.0000     2.0000 </r>
       <r>   -22.7372     0.0000     2.0000 </r>
       <r>   -22.6311     0.0000     2.0000 </r>
       <r>   -22.5250     0.0000     2.0000 </r>
       <r>   -22.4189     0.0000     2.0000 </r>
       <r>   -22.3128     0.0000     2.0000 </r>
       <r>   -22.2066     0.0000     2.0000 </r>
       <r>   -22.1005     0.0000     2.0000 </r>
       <r>   -21.9944     0.0000     2.0000 </r>
       <r>   -21.8883     0.0000     2.0000 </r>
       <r>   -21.7822     0.0000     2.0000 </r>
       <r>   -21.6761     0.0000     2.0000 </r>
       <r>   -21.5700     0.0000     2.0000 </r>
       <r>   -21.4639     0.0000     2.0000 </r>
       <r>   -21.3578     0.0000     2.0000 </r>
       <r>   -21.2517     0.0000     2.0000 </r>
       <r>   -21.1456     0.0000     2.0000 </r>
       <r>   -21.0395     0.0000     2.0000 </r>
       <r>   -20.9334     0.0000     2.0000 </r>
       <r>   -20.8273     0.0000     2.0000 </r>
       <r>   -20.7212     0.0000     2.0000 </r>
       <r>   -20.6150     0.0000     2.0000 </r>
       <r>   -20.5089     0.0000     2.0000 </r>
       <r>   -20.4028     0.0000     2.0000 </r>
       <r>   -20.2967     0.0000     2.0000 </r>
       <r>   -20.1906     0.0000     2.0000 </r>
       <r>   -20.0845     0.0000     2.0000 </r>
       <r>   -19.9784     0.0000     2.0000 </r>
       <r>   -19.8723     0.0000     2.0000 </r>
       <r>   -19.7662     0.0000     2.0000 </r>
       <r>   -19.6601     0.0000     2.0000 </r>
       <r>   -19.5540     0.0000     2.0000 </r>
       <r>   -19.4479     0.0000     2.0000 </r>
       <r>   -19.3418     0.0000     2.0000 </r>
       <r>   -19.2357     0.0000     2.0000 </r>
       <r>   -19.1295     0.0000     2.0000 </r>
       <r>   -19.0234     0.0000     2.0000 </r>
       <r>   -18.9173     0.0000     2.0000 </r>
       <r>   -18.8112     0.0000     2.0000 </r>
       <r>   -18.7051     0.0000     2.0000 </r>
       <r>   -18.5990     0.0000     2.0000 </r>
       <r>   -18.4929     0.0000     2.0000 </r>
       <r>   -18.3868     0.0000     2.0000 </r>
       <r>   -18.2807     0.0000     2.0000 </r>
       <r>   -18.1746     0.0000     2.0000 </r>
       <r>   -18.0685     0.0000     2.0000 </r>
       <r>   -17.9624     0.0000     2.0000 </r>
       <r>   -17.8563     0.0000     2.0000 </r>
       <r>   -17.7502     0.0000     2.0000 </r>
       <r>   -17.6441     0.0000     2.0000 </r>
       <r>   -17.5379     0.0000     2.0000 </r>
       <r>   -17.4318     0.0000     2.0000 </r>
       <r>   -17.3257     0.0000     2.0000 </r>
       <r>   -17.2196     0.0000     2.0000 </r>
       <r>   -17.1135     0.0000     2.0000 </r>
       <r>   -17.0074     0.0000     2.0000 </r>
       <r>   -16.9013     0.0000     2.0000 </r>
       <r>   -16.7952     0.0000     2.0000 </r>
       <r>   -16.6891     0.0000     2.0000 </r>
       <r>   -16.5830     0.0000     2.0000 </r>
       <r>   -16.4769     0.0000     2.0000 </r>
       <r>   -16.3708     0.0000     2.0000 </r>
       <r>   -16.2647     0.0000     2.0000 </r>
       <r>   -16.1586     0.0000     2.0000 </r>
       <r>   -16.0524     0.0000     2.0000 </r>
       <r>   -15.9463     0.0000     2.0000 </r>
       <r>   -15.8402     0.0000     2.0000 </r>
       <r>   -15.7341     0.0000     2.0000 </r>
       <r>   -15.6280     0.0000     2.0000 </r>
       <r>   -15.5219     0.0000     2.0000 </r>
       <r>   -15.4158     0.0000     2.0000 </r>
       <r>   -15.3097     0.0000     2.0000 </r>
       <r>   -15.2036     0.0000     2.0000 </r>
       <r>   -15.0975     0.0000     2.0000 </r>
       <r>   -14.9914     0.0000     2.0000 </r>
       <r>   -14.8853     0.0000     2.0000 </r>
       <r>   -14.7792     0.0000     2.0000 </r>
       <r>   -14.6731     0.0000     2.0000 </r>
       <r>   -14.5670     0.0000     2.0000 </r>
       <r>   -14.4608     0.0000     2.0000 </r>
       <r>   -14.3547     0.0000     2.0000 </r>
       <r>   -14.2486     0.0000     2.0000 </r>
       <r>   -14.1425     0.0008     2.0001 </r>
       <r>   -14.0364     0.0108     2.0012 </r>
       <r>   -13.9303     0.0537     2.0069 </r>
       <r>   -13.8242    -0.0230     2.0045 </r>
       <r>   -13.7181    -0.6780     1.9326 </r>
       <r>   -13.6120     0.1798     1.9516 </r>
       <r>   -13.5059     6.3441     2.6248 </r>
       <r>   -13.3998     9.8711     3.6722 </r>
       <r>   -13.2937     4.0177     4.0985 </r>
       <r>   -13.1876    -0.5863     4.0363 </r>
       <r>   -13.0815    -0.4307     3.9906 </r>
       <r>   -12.9753     0.0462     3.9955 </r>
       <r>   -12.8692     0.0371     3.9994 </r>
       <r>   -12.7631     0.0053     4.0000 </r>
       <r>   -12.6570     0.0003     4.0000 </r>
       <r>   -12.5509     0.0000     4.0000 </r>
       <r>   -12.4448     0.0000     4.0000 </r>
       <r>   -12.3387     0.0000     4.0000 </r>
       <r>   -12.2326     0.0000     4.0000 </r>
       <r>   -12.1265     0.0000     4.0000 </r>
       <r>   -12.0204     0.0000     4.0000 </r>
       <r>   -11.9143     0.0005     4.0001 </r>
       <r>   -11.8082     0.0078     4.0009 </r>
       <r>   -11.7021     0.0463     4.0058 </r>
       <r>   -11.5960     0.0211     4.0080 </r>
       <r>   -11.4899    -0.5362     3.9511 </r>
       <r>   -11.3837    -0.1959     3.9303 </r>
       <r>   -11.2776     4.9380     4.4543 </r>
       <r>   -11.1715     9.3186     5.4431 </r>
       <r>   -11.0654     8.2045     6.3136 </r>
       <r>   -10.9593     8.7385     7.2408 </r>
       <r>   -10.8532     6.2328     7.9022 </r>
       <r>   -10.7471     5.0513     8.4381 </r>
       <r>   -10.6410     9.2227     9.4167 </r>
       <r>   -10.5349     5.9740    10.0506 </r>
       <r>   -10.4288     0.1034    10.0616 </r>
       <r>   -10.3227    -0.6339     9.9943 </r>
       <r>   -10.2166    -0.0088     9.9934 </r>
       <r>   -10.1105     0.0517     9.9989 </r>
       <r>   -10.0044     0.0099     9.9999 </r>
       <r>    -9.8982     0.0007    10.0000 </r>
       <r>    -9.7921     0.0000    10.0000 </r>
       <r>    -9.6860     0.0000    10.0000 </r>
       <r>    -9.5799     0.0000    10.0000 </r>
       <r>    -9.4738     0.0000    10.0000 </r>
       <r>    -9.3677     0.0000    10.0000 </r>
       <r>    -9.2616     0.0000    10.0000 </r>
       <r>    -9.1555     0.0000    10.0000 </r>
       <r>    -9.0494     0.0000    10.0000 </r>
       <r>    -8.9433     0.0000    10.0000 </r>
       <r>    -8.8372     0.0000    10.0000 </r>
       <r>    -8.7311     0.0000    10.0000 </r>
       <r>    -8.6250     0.0000    10.0000 </r>
       <r>    -8.5189     0.0000    10.0000 </r>
       <r>    -8.4128     0.0000    10.0000 </r>
       <r>    -8.3066     0.0000    10.0000 </r>
       <r>    -8.2005     0.0000    10.0000 </r>
       <r>    -8.0944     0.0000    10.0000 </r>
       <r>    -7.9883     0.0000    10.0000 </r>
       <r>    -7.8822     0.0000    10.0000 </r>
       <r>    -7.7761     0.0000    10.0000 </r>
       <r>    -7.6700     0.0000    10.0000 </r>
       <r>    -7.5639     0.0000    10.0000 </r>
       <r>    -7.4578     0.0000    10.0000 </r>
       <r>    -7.3517     0.0006    10.0001 </r>
       <r>    -7.2456     0.0090    10.0010 </r>
       <r>    -7.1395     0.0506    10.0064 </r>
       <r>    -7.0334     0.0189    10.0084 </r>
       <r>    -6.9273    -0.5227     9.9529 </r>
       <r>    -6.8211    -0.0692     9.9456 </r>
       <r>    -6.7150     4.6342    10.4373 </r>
       <r>    -6.6089     9.8193    11.4792 </r>
       <r>    -6.5028    14.9262    13.0630 </r>
       <r>    -6.3967    17.3423    14.9031 </r>
       <r>    -6.2906    12.3964    16.2185 </r>
       <r>    -6.1845    20.0128    18.3419 </r>
       <r>    -6.0784    24.5077    20.9424 </r>
       <r>    -5.9723    14.1752    22.4465 </r>
       <r>    -5.8662    27.0746    25.3193 </r>
       <r>    -5.7601    59.3153    31.6130 </r>
       <r>    -5.6540   109.6461    43.2472 </r>
       <r>    -5.5479   212.1126    65.7538 </r>
       <r>    -5.4418   290.5626    96.5845 </r>
       <r>    -5.3357   252.7950   123.4078 </r>
       <r>    -5.2295   204.3573   145.0915 </r>
       <r>    -5.1234   258.3321   172.5024 </r>
       <r>    -5.0173   347.4561   209.3699 </r>
       <r>    -4.9112   344.2515   245.8973 </r>
       <r>    -4.8051   285.0036   276.1382 </r>
       <r>    -4.6990   327.4895   310.8871 </r>
       <r>    -4.5929   420.1716   355.4702 </r>
       <r>    -4.4868   428.0904   400.8935 </r>
       <r>    -4.3807   460.7827   449.7857 </r>
       <r>    -4.2746   555.9332   508.7741 </r>
       <r>    -4.1685   471.3675   558.7894 </r>
       <r>    -4.0624   192.7416   579.2406 </r>
       <r>    -3.9563    16.5801   580.9999 </r>
       <r>    -3.8502    15.3521   582.6289 </r>
       <r>    -3.7440    33.5821   586.1922 </r>
       <r>    -3.6379    17.6001   588.0596 </r>
       <r>    -3.5318    14.6884   589.6182 </r>
       <r>    -3.4257    23.1525   592.0748 </r>
       <r>    -3.3196    13.3644   593.4929 </r>
       <r>    -3.2135     2.1307   593.7190 </r>
       <r>    -3.1074    25.8488   596.4617 </r>
       <r>    -3.0013    58.8499   602.7061 </r>
       <r>    -2.8952    46.9906   607.6921 </r>
       <r>    -2.7891    15.8843   609.3775 </r>
       <r>    -2.6830     5.1740   609.9265 </r>
       <r>    -2.5769    18.5462   611.8944 </r>
       <r>    -2.4708    28.8096   614.9513 </r>
       <r>    -2.3647    16.1934   616.6695 </r>
       <r>    -2.2586     7.5076   617.4662 </r>
       <r>    -2.1524    19.3347   619.5177 </r>
       <r>    -2.0463    40.3564   623.7998 </r>
       <r>    -1.9402    44.5377   628.5255 </r>
       <r>    -1.8341    31.8448   631.9045 </r>
       <r>    -1.7280    34.9757   635.6157 </r>
       <r>    -1.6219    52.8897   641.2276 </r>
       <r>    -1.5158    39.7298   645.4432 </r>
       <r>    -1.4097    12.5465   646.7745 </r>
       <r>    -1.3036    11.7333   648.0195 </r>
       <r>    -1.1975    21.8109   650.3338 </r>
       <r>    -1.0914    31.5041   653.6766 </r>
       <r>    -0.9853    56.6902   659.6918 </r>
       <r>    -0.8792    67.4035   666.8438 </r>
       <r>    -0.7731    33.2580   670.3727 </r>
       <r>    -0.6669     7.2762   671.1447 </r>
       <r>    -0.5608     6.0045   671.7818 </r>
       <r>    -0.4547     2.6600   672.0641 </r>
       <r>    -0.3486    -0.4822   672.0129 </r>
       <r>    -0.2425    -0.2202   671.9896 </r>
       <r>    -0.1364     0.0671   671.9967 </r>
       <r>    -0.0303     0.0279   671.9996 </r>
       <r>     0.0758     0.0033   672.0000 </r>
       <r>     0.1819     0.0002   672.0000 </r>
       <r>     0.2880     0.0000   672.0000 </r>
       <r>     0.3941     0.0000   672.0000 </r>
       <r>     0.5002     0.0000   672.0000 </r>
       <r>     0.6063     0.0000   672.0000 </r>
       <r>     0.7124     0.0000   672.0000 </r>
       <r>     0.8185     0.0000   672.0000 </r>
       <r>     0.9247     0.0000   672.0000 </r>
       <r>     1.0308     0.0000   672.0000 </r>
       <r>     1.1369     0.0000   672.0000 </r>
       <r>     1.2430     0.0000   672.0000 </r>
       <r>     1.3491     0.0000   672.0000 </r>
      </set>
     </set>
    </array>
   </total>
  </dos>
 </calculation>
 <structure name="finalpos" >
  <crystal>
   <varray name="basis" >
    <v>      30.00000000       0.00000000       0.00000000 </v>
    <v>       0.00000000      30.00000000       0.00000000 </v>
    <v>       0.00000000       0.00000000      30.00000000 </v>
   </varray>
   <i name="volume">  27000.00000000 </i>
   <varray name="rec_basis" >
    <v>       0.03333333       0.00000000       0.00000000 </v>
    <v>       0.00000000       0.03333333       0.00000000 </v>
    <v>       0.00000000       0.00000000       0.03333333 </v>
   </varray>
  </crystal>
  <varray name="positions" >
   <v>       0.44576020       0.32826710       0.41691983 </v>
   <v>       0.67173288       0.55423978       0.41691983 </v>
   <v>       0.55423980       0.32826710       0.41691983 </v>
   <v>       0.32826712       0.55423978       0.41691983 </v>
   <v>       0.50000000       0.38250690       0.34021317 </v>
   <v>       0.50000000       0.38250690       0.65978680 </v>
   <v>       0.50000000       0.27609440       0.50000000 </v>
   <v>       0.27609443       0.49999998       0.50000000 </v>
   <v>       0.72390557       0.49999998       0.50000000 </v>
   <v>       0.50000000       0.72390555       0.50000000 </v>
   <v>       0.61195280       0.38804720       0.34167483 </v>
   <v>       0.61195280       0.38804720       0.65832513 </v>
   <v>       0.38804722       0.61195278       0.34167483 </v>
   <v>       0.38804722       0.61195278       0.65832513 </v>
   <v>       0.38804720       0.38804720       0.34167483 </v>
   <v>       0.38804720       0.38804720       0.65832513 </v>
   <v>       0.61195278       0.61195278       0.34167483 </v>
   <v>       0.61195278       0.61195278       0.65832513 </v>
   <v>       0.44576020       0.32826710       0.58308023 </v>
   <v>       0.67173288       0.55423978       0.58308023 </v>
   <v>       0.55791699       0.44208301       0.41809300 </v>
   <v>       0.32826705       0.44576024       0.41691983 </v>
   <v>       0.55423973       0.67173293       0.41691983 </v>
   <v>       0.55423980       0.32826710       0.58308023 </v>
   <v>       0.32826712       0.55423978       0.58308023 </v>
   <v>       0.67173295       0.44576024       0.41691983 </v>
   <v>       0.44576027       0.67173293       0.41691983 </v>
   <v>       0.44208301       0.44208301       0.41809300 </v>
   <v>       0.50000000       0.38416601       0.50000000 </v>
   <v>       0.61749315       0.50000005       0.34021317 </v>
   <v>       0.61749315       0.50000005       0.65978680 </v>
   <v>       0.38250685       0.50000005       0.34021317 </v>
   <v>       0.38250685       0.50000005       0.65978680 </v>
   <v>       0.38317830       0.38317830       0.50000000 </v>
   <v>       0.61682172       0.61682172       0.50000000 </v>
   <v>       0.61682170       0.38317830       0.50000000 </v>
   <v>       0.38317828       0.61682172       0.50000000 </v>
   <v>       0.50000000       0.50000000       0.33478917 </v>
   <v>       0.50000000       0.50000000       0.66521087 </v>
   <v>       0.32826705       0.44576024       0.58308023 </v>
   <v>       0.55423973       0.67173293       0.58308023 </v>
   <v>       0.55791699       0.44208301       0.58190703 </v>
   <v>       0.44208298       0.55791702       0.41809300 </v>
   <v>       0.44208301       0.44208301       0.58190703 </v>
   <v>       0.67173295       0.44576024       0.58308023 </v>
   <v>       0.44576027       0.67173293       0.58308023 </v>
   <v>       0.55791702       0.55791702       0.41809300 </v>
   <v>       0.38416599       0.50000002       0.50000000 </v>
   <v>       0.61583401       0.50000002       0.50000000 </v>
   <v>       0.50000000       0.61749319       0.34021317 </v>
   <v>       0.50000000       0.61749319       0.65978680 </v>
   <v>       0.50000000       0.50000000       0.50000000 </v>
   <v>       0.44208298       0.55791702       0.58190703 </v>
   <v>       0.55791702       0.55791702       0.58190703 </v>
   <v>       0.50000000       0.61583404       0.50000000 </v>
   <v>       0.67425167       0.51364550       0.31917663 </v>
   <v>       0.70030390       0.51568563       0.29214183 </v>
  </varray>
  <varray name="selective"  type="logical" >
   <v type="logical" >  F  F  F </v>
   <v type="logical" >  F  F  F </v>
   <v type="logical" >  F  F  F </v>
   <v type="logical" >  F  F  F </v>
   <v type="logical" >  F  F  F </v>
   <v type="logical" >  F  F  F </v>
   <v type="logical" >  F  F  F </v>
   <v type="logical" >  F  F  F </v>
   <v type="logical" >  F  F  F </v>
   <v type="logical" >  F  F  F </v>
   <v type="logical" >  F  F  F </v>
   <v type="logical" >  F  F  F </v>
   <v type="logical" >  F  F  F </v>
   <v type="logical" >  F  F  F </v>
   <v type="logical" >  F  F  F </v>
   <v type="logical" >  F  F  F </v>
   <v type="logical" >  F  F  F </v>
   <v type="logical" >  F  F  F </v>
   <v type="logical" >  F  F  F </v>
   <v type="logical" >  F  F  F </v>
   <v type="logical" >  F  F  F </v>
   <v type="logical" >  F  F  F </v>
   <v type="logical" >  F  F  F </v>
   <v type="logical" >  F  F  F </v>
   <v type="logical" >  F  F  F </v>
   <v type="logical" >  F  F  F </v>
   <v type="logical" >  F  F  F </v>
   <v type="logical" >  F  F  F </v>
   <v type="logical" >  F  F  F </v>
   <v type="logical" >  F  F  F </v>
   <v type="logical" >  F  F  F </v>
   <v type="logical" >  F  F  F </v>
   <v type="logical" >  F  F  F </v>
   <v type="logical" >  F  F  F </v>
   <v type="logical" >  F  F  F </v>
   <v type="logical" >  F  F  F </v>
   <v type="logical" >  F  F  F </v>
   <v type="logical" >  F  F  F </v>
   <v type="logical" >  F  F  F </v>
   <v type="logical" >  F  F  F </v>
   <v type="logical" >  F  F  F </v>
   <v type="logical" >  F  F  F </v>
   <v type="logical" >  F  F  F </v>
   <v type="logical" >  F  F  F </v>
   <v type="logical" >  F  F  F </v>
   <v type="logical" >  F  F  F </v>
   <v type="logical" >  F  F  F </v>
   <v type="logical" >  F  F  F </v>
   <v type="logical" >  F  F  F </v>
   <v type="logical" >  F  F  F </v>
   <v type="logical" >  F  F  F </v>
   <v type="logical" >  F  F  F </v>
   <v type="logical" >  F  F  F </v>
   <v type="logical" >  F  F  F </v>
   <v type="logical" >  F  F  F </v>
   <v type="logical" >  F  F  F </v>
   <v type="logical" >  F  F  F </v>
  </varray>
  <nose>
   <v>      -3.00000000       0.00000000       0.00010000       0.00010000 </v>
  </nose>
 </structure>
</modeling>
