   57   57    1    1
  0.4736842E+03  0.3000000E-08  0.3000000E-08  0.3000000E-08  0.5000000E-15
  1.000000000000000E-004
  CAR 
 6_Pd100_top_free_z(O)                   
    560      1    336
 
  0.0000000E+00  0.0000000E+00  0.0000000E+00  0.1000000E+01
    1      -28.657483   1.000000
    2      -13.789220   1.000000
    3      -11.927473   1.000000
    4      -11.679390   1.000000
    5      -10.460246   1.000000
    6       -6.888222   1.000000
    7       -6.645649   1.000000
    8       -6.549174   1.000000
    9       -6.122623   1.000000
   10       -6.117454   1.000000
   11       -6.058985   1.000000
   12       -5.948513   1.000000
   13       -5.851362   1.000000
   14       -5.803183   1.000000
   15       -5.784168   1.000000
   16       -5.772743   1.000000
   17       -5.749713   1.000000
   18       -5.719329   1.000000
   19       -5.677691   1.000000
   20       -5.668842   1.000000
   21       -5.661853   1.000000
   22       -5.652809   1.000000
   23       -5.610336   1.000000
   24       -5.595570   1.000000
   25       -5.583429   1.000000
   26       -5.576524   1.000000
   27       -5.566277   1.000000
   28       -5.564924   1.000000
   29       -5.536540   1.000000
   30       -5.533799   1.000000
   31       -5.530724   1.000000
   32       -5.514285   1.000000
   33       -5.508516   1.000000
   34       -5.503009   1.000000
   35       -5.499309   1.000000
   36       -5.498637   1.000000
   37       -5.496219   1.000000
   38       -5.488159   1.000000
   39       -5.477720   1.000000
   40       -5.472771   1.000000
   41       -5.459149   1.000000
   42       -5.456257   1.000000
   43       -5.455441   1.000000
   44       -5.452080   1.000000
   45       -5.449402   1.000000
   46       -5.442062   1.000000
   47       -5.431935   1.000000
   48       -5.419278   1.000000
   49       -5.416185   1.000000
   50       -5.411037   1.000000
   51       -5.408989   1.000000
   52       -5.405214   1.000000
   53       -5.391431   1.000000
   54       -5.389057   1.000000
   55       -5.385274   1.000000
   56       -5.371988   1.000000
   57       -5.361591   1.000000
   58       -5.356599   1.000000
   59       -5.327144   1.000000
   60       -5.315676   1.000000
   61       -5.311321   1.000000
   62       -5.305872   1.000000
   63       -5.303987   1.000000
   64       -5.297820   1.000000
   65       -5.288541   1.000000
   66       -5.286021   1.000000
   67       -5.281800   1.000000
   68       -5.277424   1.000000
   69       -5.249955   1.000000
   70       -5.238304   1.000000
   71       -5.203064   1.000000
   72       -5.198548   1.000000
   73       -5.188435   1.000000
   74       -5.185853   1.000000
   75       -5.176232   1.000000
   76       -5.169013   1.000000
   77       -5.163625   1.000000
   78       -5.161878   1.000000
   79       -5.158211   1.000000
   80       -5.152576   1.000000
   81       -5.138641   1.000000
   82       -5.135106   1.000000
   83       -5.117474   1.000000
   84       -5.114538   1.000000
   85       -5.108640   1.000000
   86       -5.100882   1.000000
   87       -5.097063   1.000000
   88       -5.087226   1.000000
   89       -5.079319   1.000000
   90       -5.070292   1.000000
   91       -5.062314   1.000000
   92       -5.052192   1.000000
   93       -5.044100   1.000000
   94       -5.041802   1.000000
   95       -5.037789   1.000000
   96       -5.035940   1.000000
   97       -5.032694   1.000000
   98       -5.029983   1.000000
   99       -5.016071   1.000000
  100       -5.015444   1.000000
  101       -5.010987   1.000000
  102       -5.002530   1.000000
  103       -5.000329   1.000000
  104       -4.991836   1.000000
  105       -4.990585   1.000000
  106       -4.983655   1.000000
  107       -4.981037   1.000000
  108       -4.976212   1.000000
  109       -4.974223   1.000000
  110       -4.967389   1.000000
  111       -4.963635   1.000000
  112       -4.961791   1.000000
  113       -4.951135   1.000000
  114       -4.948559   1.000000
  115       -4.944527   0.999999
  116       -4.939483   0.999999
  117       -4.931048   0.999999
  118       -4.924289   0.999999
  119       -4.920543   0.999999
  120       -4.912287   0.999998
  121       -4.909648   0.999998
  122       -4.900169   0.999998
  123       -4.895482   0.999997
  124       -4.888713   0.999996
  125       -4.887677   0.999996
  126       -4.885122   0.999996
  127       -4.867629   0.999993
  128       -4.856088   0.999990
  129       -4.851753   0.999989
  130       -4.848458   0.999987
  131       -4.837131   0.999982
  132       -4.830812   0.999978
  133       -4.827637   0.999976
  134       -4.826253   0.999975
  135       -4.816376   0.999967
  136       -4.814760   0.999966
  137       -4.800837   0.999949
  138       -4.794108   0.999939
  139       -4.790569   0.999932
  140       -4.779996   0.999910
  141       -4.772671   0.999891
  142       -4.764196   0.999865
  143       -4.759639   0.999848
  144       -4.753855   0.999825
  145       -4.739961   0.999755
  146       -4.736642   0.999735
  147       -4.731670   0.999702
  148       -4.720273   0.999614
  149       -4.712808   0.999544
  150       -4.704806   0.999458
  151       -4.702250   0.999428
  152       -4.692467   0.999300
  153       -4.681007   0.999120
  154       -4.677389   0.999057
  155       -4.670535   0.998926
  156       -4.668747   0.998890
  157       -4.667889   0.998872
  158       -4.659782   0.998695
  159       -4.656075   0.998607
  160       -4.652581   0.998520
  161       -4.648584   0.998417
  162       -4.643654   0.998282
  163       -4.640714   0.998199
  164       -4.634903   0.998026
  165       -4.631562   0.997922
  166       -4.630891   0.997901
  167       -4.628672   0.997830
  168       -4.625666   0.997732
  169       -4.625448   0.997725
  170       -4.616042   0.997402
  171       -4.612718   0.997284
  172       -4.600096   0.996819
  173       -4.597457   0.996720
  174       -4.591823   0.996508
  175       -4.587764   0.996356
  176       -4.583097   0.996183
  177       -4.579537   0.996054
  178       -4.575246   0.995903
  179       -4.574341   0.995872
  180       -4.570954   0.995758
  181       -4.562110   0.995487
  182       -4.561488   0.995470
  183       -4.555657   0.995321
  184       -4.548682   0.995180
  185       -4.544510   0.995120
  186       -4.541298   0.995088
  187       -4.537149   0.995067
  188       -4.536304   0.995065
  189       -4.531780   0.995077
  190       -4.524189   0.995175
  191       -4.516876   0.995378
  192       -4.505755   0.995927
  193       -4.500120   0.996334
  194       -4.497606   0.996546
  195       -4.492879   0.996999
  196       -4.484943   0.997931
  197       -4.481942   0.998342
  198       -4.477320   0.999044
  199       -4.473382   0.999709
  200       -4.469774   1.000374
  201       -4.458575   1.002793
  202       -4.452805   1.004257
  203       -4.447683   1.005684
  204       -4.446088   1.006153
  205       -4.444042   1.006771
  206       -4.437559   1.008857
  207       -4.431853   1.010847
  208       -4.427198   1.012576
  209       -4.424782   1.013509
  210       -4.420289   1.015306
  211       -4.419030   1.015823
  212       -4.414595   1.017692
  213       -4.403684   1.022557
  214       -4.398896   1.024788
  215       -4.396800   1.025778
  216       -4.391411   1.028350
  217       -4.390000   1.029028
  218       -4.386433   1.030745
  219       -4.382439   1.032667
  220       -4.371324   1.037909
  221       -4.368012   1.039411
  222       -4.359996   1.042856
  223       -4.355143   1.044770
  224       -4.345088   1.048167
  225       -4.336984   1.050182
  226       -4.336015   1.050371
  227       -4.324361   1.051616
  228       -4.321863   1.051606
  229       -4.320042   1.051530
  230       -4.318461   1.051414
  231       -4.317457   1.051317
  232       -4.316711   1.051232
  233       -4.313333   1.050712
  234       -4.309263   1.049773
  235       -4.308191   1.049466
  236       -4.304177   1.048086
  237       -4.303963   1.048002
  238       -4.300881   1.046669
  239       -4.298262   1.045351
  240       -4.295348   1.043678
  241       -4.289267   1.039449
  242       -4.283239   1.034213
  243       -4.277995   1.028761
  244       -4.277727   1.028459
  245       -4.272251   1.021780
  246       -4.270382   1.019273
  247       -4.266265   1.013330
  248       -4.264788   1.011054
  249       -4.263497   1.009002
  250       -4.260617   1.004210
  251       -4.250892   0.985796
  252       -4.249473   0.982813
  253       -4.245901   0.974971
  254       -4.243939   0.970457
  255       -4.238087   0.956110
  256       -4.236794   0.952763
  257       -4.234086   0.945538
  258       -4.230509   0.935563
  259       -4.228555   0.929904
  260       -4.227739   0.927495
  261       -4.224638   0.918112
  262       -4.222950   0.912849
  263       -4.220849   0.906149
  264       -4.218747   0.899273
  265       -4.217646   0.895603
  266       -4.209279   0.866251
  267       -4.206351   0.855370
  268       -4.205131   0.850748
  269       -4.202901   0.842159
  270       -4.199200   0.827529
  271       -4.197253   0.819643
  272       -4.192680   0.800631
  273       -4.183353   0.759833
  274       -4.179999   0.744539
  275       -4.167696   0.686005
  276       -4.166239   0.678841
  277       -4.160189   0.648669
  278       -4.156391   0.629400
  279       -4.155697   0.625855
  280       -4.152066   0.607197
  281       -4.142965   0.559783
  282       -4.139754   0.542896
  283       -4.125209   0.466044
  284       -4.115374   0.414439
  285       -4.110308   0.388195
  286       -4.109769   0.385422
  287       -4.100877   0.340274
  288       -4.091918   0.296240
  289       -3.988790  -0.024614
  290       -3.946958  -0.051182
  291       -3.890385  -0.037190
  292       -3.808695  -0.003793
  293       -3.800453  -0.001813
  294       -3.673538   0.003571
  295       -3.482068   0.000087
  296       -3.471190   0.000065
  297       -3.294021   0.000000
  298       -3.064076   0.000000
  299       -3.044743   0.000000
  300       -3.028649   0.000000
  301       -3.014049   0.000000
  302       -3.003071   0.000000
  303       -2.961181   0.000000
  304       -2.924230   0.000000
  305       -2.774830   0.000000
  306       -2.528149   0.000000
  307       -2.506371   0.000000
  308       -2.376019   0.000000
  309       -2.233817   0.000000
  310       -2.117328   0.000000
  311       -2.101106   0.000000
  312       -2.075561   0.000000
  313       -1.956339   0.000000
  314       -1.940721   0.000000
  315       -1.885391   0.000000
  316       -1.851297   0.000000
  317       -1.809862   0.000000
  318       -1.763568   0.000000
  319       -1.656435   0.000000
  320       -1.613317   0.000000
  321       -1.574788   0.000000
  322       -1.550062   0.000000
  323       -1.440866   0.000000
  324       -1.348213   0.000000
  325       -1.254061   0.000000
  326       -1.163428   0.000000
  327       -1.007925   0.000000
  328       -0.984609   0.000000
  329       -0.963031   0.000000
  330       -0.946571   0.000000
  331       -0.917869   0.000000
  332       -0.908177   0.000000
  333       -0.882457   0.000000
  334       -0.802075   0.000000
  335       -0.779610   0.000000
  336       -0.734016   0.000000
