  57  57   0   0
  0.4736842E+03  0.3000000E-08  0.3000000E-08  0.3000000E-08  0.5000000E-15
  1.000000000000000E-004
  CAR 
 6_Pd100_top_free_z(O)                   
      1.35682036    -31.23065063  301     -4.12191694      1.00000000
    -31.231  0.0000E+00  0.0000E+00
    -31.122  0.0000E+00  0.0000E+00
    -31.013  0.0000E+00  0.0000E+00
    -30.905  0.5378E-27  0.5842E-28
    -30.796  0.2888E-23  0.3138E-24
    -30.688  0.8458E-20  0.9190E-21
    -30.579  0.1347E-16  0.1464E-17
    -30.470  0.1162E-13  0.1263E-14
    -30.362  0.5408E-11  0.5887E-12
    -30.253  0.1345E-08  0.1467E-09
    -30.144  0.1770E-06  0.1937E-07
    -30.036  0.1211E-04  0.1334E-05
    -29.927  0.4174E-03  0.4667E-04
    -29.819  0.6808E-02  0.7862E-03
    -29.710  0.4399E-01  0.5564E-02
    -29.601  0.1932E-01  0.7663E-02
    -29.493 -0.5729E+00 -0.5457E-01
    -29.384 -0.1580E+00 -0.7173E-01
    -29.275  0.5673E+01  0.5445E+00
    -29.167  0.9946E+01  0.1625E+01
    -29.058  0.4338E+01  0.2096E+01
    -28.950 -0.5447E+00  0.2037E+01
    -28.841 -0.4280E+00  0.1990E+01
    -28.732  0.4849E-01  0.1996E+01
    -28.624  0.3450E-01  0.1999E+01
    -28.515  0.4419E-02  0.2000E+01
    -28.406  0.2357E-03  0.2000E+01
    -28.298  0.6040E-05  0.2000E+01
    -28.189  0.7856E-07  0.2000E+01
    -28.081  0.5333E-09  0.2000E+01
    -27.972  0.1919E-11  0.2000E+01
    -27.863  0.4088E-14  0.2000E+01
    -27.755  0.0000E+00  0.2000E+01
    -27.646  0.0000E+00  0.2000E+01
    -27.537  0.0000E+00  0.2000E+01
    -27.429  0.0000E+00  0.2000E+01
    -27.320  0.0000E+00  0.2000E+01
    -27.212  0.0000E+00  0.2000E+01
    -27.103  0.0000E+00  0.2000E+01
    -26.994  0.0000E+00  0.2000E+01
    -26.886  0.0000E+00  0.2000E+01
    -26.777  0.0000E+00  0.2000E+01
    -26.668  0.0000E+00  0.2000E+01
    -26.560  0.0000E+00  0.2000E+01
    -26.451  0.0000E+00  0.2000E+01
    -26.343  0.0000E+00  0.2000E+01
    -26.234  0.0000E+00  0.2000E+01
    -26.125  0.0000E+00  0.2000E+01
    -26.017  0.0000E+00  0.2000E+01
    -25.908  0.0000E+00  0.2000E+01
    -25.799  0.0000E+00  0.2000E+01
    -25.691  0.0000E+00  0.2000E+01
    -25.582  0.0000E+00  0.2000E+01
    -25.474  0.0000E+00  0.2000E+01
    -25.365  0.0000E+00  0.2000E+01
    -25.256  0.0000E+00  0.2000E+01
    -25.148  0.0000E+00  0.2000E+01
    -25.039  0.0000E+00  0.2000E+01
    -24.930  0.0000E+00  0.2000E+01
    -24.822  0.0000E+00  0.2000E+01
    -24.713  0.0000E+00  0.2000E+01
    -24.605  0.0000E+00  0.2000E+01
    -24.496  0.0000E+00  0.2000E+01
    -24.387  0.0000E+00  0.2000E+01
    -24.279  0.0000E+00  0.2000E+01
    -24.170  0.0000E+00  0.2000E+01
    -24.061  0.0000E+00  0.2000E+01
    -23.953  0.0000E+00  0.2000E+01
    -23.844  0.0000E+00  0.2000E+01
    -23.736  0.0000E+00  0.2000E+01
    -23.627  0.0000E+00  0.2000E+01
    -23.518  0.0000E+00  0.2000E+01
    -23.410  0.0000E+00  0.2000E+01
    -23.301  0.0000E+00  0.2000E+01
    -23.192  0.0000E+00  0.2000E+01
    -23.084  0.0000E+00  0.2000E+01
    -22.975  0.0000E+00  0.2000E+01
    -22.867  0.0000E+00  0.2000E+01
    -22.758  0.0000E+00  0.2000E+01
    -22.649  0.0000E+00  0.2000E+01
    -22.541  0.0000E+00  0.2000E+01
    -22.432  0.0000E+00  0.2000E+01
    -22.323  0.0000E+00  0.2000E+01
    -22.215  0.0000E+00  0.2000E+01
    -22.106  0.0000E+00  0.2000E+01
    -21.998  0.0000E+00  0.2000E+01
    -21.889  0.0000E+00  0.2000E+01
    -21.780  0.0000E+00  0.2000E+01
    -21.672  0.0000E+00  0.2000E+01
    -21.563  0.0000E+00  0.2000E+01
    -21.454  0.0000E+00  0.2000E+01
    -21.346  0.0000E+00  0.2000E+01
    -21.237  0.0000E+00  0.2000E+01
    -21.129  0.0000E+00  0.2000E+01
    -21.020  0.0000E+00  0.2000E+01
    -20.911  0.0000E+00  0.2000E+01
    -20.803  0.0000E+00  0.2000E+01
    -20.694  0.0000E+00  0.2000E+01
    -20.585  0.0000E+00  0.2000E+01
    -20.477  0.0000E+00  0.2000E+01
    -20.368  0.0000E+00  0.2000E+01
    -20.260  0.0000E+00  0.2000E+01
    -20.151  0.0000E+00  0.2000E+01
    -20.042  0.0000E+00  0.2000E+01
    -19.934  0.0000E+00  0.2000E+01
    -19.825  0.0000E+00  0.2000E+01
    -19.716  0.0000E+00  0.2000E+01
    -19.608  0.0000E+00  0.2000E+01
    -19.499  0.0000E+00  0.2000E+01
    -19.391  0.0000E+00  0.2000E+01
    -19.282  0.0000E+00  0.2000E+01
    -19.173  0.0000E+00  0.2000E+01
    -19.065  0.0000E+00  0.2000E+01
    -18.956  0.0000E+00  0.2000E+01
    -18.847  0.0000E+00  0.2000E+01
    -18.739  0.0000E+00  0.2000E+01
    -18.630  0.0000E+00  0.2000E+01
    -18.522  0.0000E+00  0.2000E+01
    -18.413  0.0000E+00  0.2000E+01
    -18.304  0.0000E+00  0.2000E+01
    -18.196  0.0000E+00  0.2000E+01
    -18.087  0.0000E+00  0.2000E+01
    -17.978  0.0000E+00  0.2000E+01
    -17.870  0.0000E+00  0.2000E+01
    -17.761  0.0000E+00  0.2000E+01
    -17.653  0.0000E+00  0.2000E+01
    -17.544  0.0000E+00  0.2000E+01
    -17.435  0.0000E+00  0.2000E+01
    -17.327  0.0000E+00  0.2000E+01
    -17.218  0.0000E+00  0.2000E+01
    -17.109  0.0000E+00  0.2000E+01
    -17.001  0.0000E+00  0.2000E+01
    -16.892  0.0000E+00  0.2000E+01
    -16.784  0.0000E+00  0.2000E+01
    -16.675  0.0000E+00  0.2000E+01
    -16.566  0.0000E+00  0.2000E+01
    -16.458  0.0000E+00  0.2000E+01
    -16.349  0.0000E+00  0.2000E+01
    -16.240  0.0000E+00  0.2000E+01
    -16.132  0.0000E+00  0.2000E+01
    -16.023  0.0000E+00  0.2000E+01
    -15.915  0.0000E+00  0.2000E+01
    -15.806  0.0000E+00  0.2000E+01
    -15.697  0.0000E+00  0.2000E+01
    -15.589  0.0000E+00  0.2000E+01
    -15.480  0.0000E+00  0.2000E+01
    -15.371  0.3361E-25  0.2000E+01
    -15.263  0.1355E-21  0.2000E+01
    -15.154  0.2978E-18  0.2000E+01
    -15.046  0.3550E-15  0.2000E+01
    -14.937  0.2288E-12  0.2000E+01
    -14.828  0.7936E-10  0.2000E+01
    -14.720  0.1463E-07  0.2000E+01
    -14.611  0.1417E-05  0.2000E+01
    -14.502  0.7047E-04  0.2000E+01
    -14.394  0.1725E-02  0.2000E+01
    -14.285  0.1886E-01  0.2002E+01
    -14.177  0.6372E-01  0.2009E+01
    -14.068 -0.1722E+00  0.1990E+01
    -13.959 -0.8133E+00  0.1902E+01
    -13.851  0.1925E+01  0.2111E+01
    -13.742  0.8824E+01  0.3070E+01
    -13.633  0.8143E+01  0.3954E+01
    -13.525  0.1244E+01  0.4089E+01
    -13.416 -0.7938E+00  0.4003E+01
    -13.308 -0.1052E+00  0.3992E+01
    -13.199  0.6092E-01  0.3998E+01
    -13.090  0.1482E-01  0.4000E+01
    -12.982  0.1218E-02  0.4000E+01
    -12.873  0.4550E-04  0.4000E+01
    -12.764  0.8423E-06  0.4000E+01
    -12.656  0.8048E-08  0.4000E+01
    -12.547  0.3040E-08  0.4000E+01
    -12.439  0.3894E-06  0.4000E+01
    -12.330  0.2626E-04  0.4000E+01
    -12.221  0.8921E-03  0.4000E+01
    -12.113  0.1431E-01  0.4002E+01
    -12.004  0.9027E-01  0.4011E+01
    -11.895  0.2910E-01  0.4015E+01
    -11.787 -0.1179E+01  0.3887E+01
    -11.678 -0.1970E+00  0.3865E+01
    -11.570  0.1166E+02  0.5132E+01
    -11.461  0.1984E+02  0.7287E+01
    -11.352  0.8363E+01  0.8196E+01
    -11.244 -0.1156E+01  0.8070E+01
    -11.135 -0.8219E+00  0.7981E+01
    -11.026  0.1016E+00  0.7992E+01
    -10.918  0.6685E-01  0.7999E+01
    -10.809  0.8380E-02  0.8000E+01
    -10.701  0.4397E-03  0.8000E+01
    -10.592  0.1111E-04  0.8000E+01
    -10.483  0.1425E-06  0.8000E+01
    -10.375  0.1388E-07  0.8000E+01
    -10.266  0.1272E-05  0.8000E+01
    -10.157  0.6438E-04  0.8000E+01
    -10.049  0.1606E-02  0.8000E+01
     -9.940  0.1796E-01  0.8002E+01
     -9.832  0.6337E-01  0.8009E+01
     -9.723 -0.1572E+00  0.7992E+01
     -9.614 -0.8129E+00  0.7904E+01
     -9.506  0.1775E+01  0.8096E+01
     -9.397  0.8692E+01  0.9041E+01
     -9.288  0.8295E+01  0.9942E+01
     -9.180  0.1378E+01  0.1009E+02
     -9.071 -0.8013E+00  0.1000E+02
     -8.963 -0.1181E+00  0.9991E+01
     -8.854  0.6172E-01  0.9998E+01
     -8.745  0.1561E-01  0.1000E+02
     -8.637  0.1311E-02  0.1000E+02
     -8.528  0.4989E-04  0.1000E+02
     -8.419  0.9396E-06  0.1000E+02
     -8.311  0.9113E-08  0.1000E+02
     -8.202  0.4650E-10  0.1000E+02
     -8.094  0.1267E-12  0.1000E+02
     -7.985  0.4581E-17  0.1000E+02
     -7.876  0.4337E-14  0.1000E+02
     -7.768  0.2218E-11  0.1000E+02
     -7.659  0.6071E-09  0.1000E+02
     -7.550  0.8805E-07  0.1000E+02
     -7.442  0.6660E-05  0.1000E+02
     -7.333  0.2555E-03  0.1000E+02
     -7.225  0.4700E-02  0.1000E+02
     -7.116  0.3578E-01  0.1000E+02
     -7.007  0.4551E-01  0.1001E+02
     -6.899 -0.4481E+00  0.9961E+01
     -6.790 -0.5010E+00  0.9906E+01
     -6.681  0.4545E+01  0.1040E+02
     -6.573  0.1011E+02  0.1150E+02
     -6.464  0.5501E+01  0.1210E+02
     -6.356 -0.2056E+01  0.1187E+02
     -6.247 -0.2322E+00  0.1185E+02
     -6.138  0.1873E+02  0.1388E+02
     -6.030  0.2798E+02  0.1692E+02
     -5.921  0.1079E+02  0.1809E+02
     -5.812  0.1511E+02  0.1973E+02
     -5.704  0.5013E+02  0.2518E+02
     -5.595  0.1212E+03  0.3835E+02
     -5.487  0.2473E+03  0.6521E+02
     -5.378  0.3102E+03  0.9891E+02
     -5.269  0.2427E+03  0.1253E+03
     -5.161  0.2045E+03  0.1475E+03
     -5.052  0.2847E+03  0.1784E+03
     -4.943  0.3682E+03  0.2184E+03
     -4.835  0.3359E+03  0.2549E+03
     -4.726  0.2949E+03  0.2869E+03
     -4.618  0.3715E+03  0.3273E+03
     -4.509  0.4256E+03  0.3735E+03
     -4.400  0.4204E+03  0.4192E+03
     -4.292  0.5069E+03  0.4742E+03
     -4.183  0.5562E+03  0.5347E+03
     -4.074  0.3463E+03  0.5723E+03
     -3.966  0.8198E+02  0.5812E+03
     -3.857  0.1215E+02  0.5825E+03
     -3.749  0.3242E+02  0.5860E+03
     -3.640  0.1737E+02  0.5879E+03
     -3.531  0.9314E+01  0.5889E+03
     -3.423  0.2680E+02  0.5918E+03
     -3.314  0.1934E+02  0.5939E+03
     -3.205 -0.2898E+01  0.5936E+03
     -3.097  0.1137E+02  0.5949E+03
     -2.988  0.5749E+02  0.6011E+03
     -2.880  0.6225E+02  0.6079E+03
     -2.771  0.2071E+02  0.6101E+03
     -2.662 -0.4345E+00  0.6101E+03
     -2.554  0.1645E+02  0.6118E+03
     -2.445  0.2830E+02  0.6149E+03
     -2.336  0.1320E+02  0.6164E+03
     -2.228  0.9228E+01  0.6174E+03
     -2.119  0.2397E+02  0.6200E+03
     -2.011  0.3203E+02  0.6234E+03
     -1.902  0.4147E+02  0.6279E+03
     -1.793  0.5710E+02  0.6341E+03
     -1.685  0.4625E+02  0.6392E+03
     -1.576  0.3591E+02  0.6431E+03
     -1.467  0.4230E+02  0.6477E+03
     -1.359  0.2269E+02  0.6501E+03
     -1.250  0.2842E+00  0.6502E+03
     -1.142  0.7572E+01  0.6510E+03
     -1.033  0.3568E+02  0.6549E+03
     -0.924  0.6650E+02  0.6621E+03
     -0.816  0.5371E+02  0.6679E+03
     -0.707  0.2119E+02  0.6702E+03
     -0.598  0.1188E+02  0.6715E+03
     -0.490  0.5302E+01  0.6721E+03
     -0.381 -0.4487E+00  0.6720E+03
     -0.273 -0.4892E+00  0.6720E+03
     -0.164  0.7932E-01  0.6720E+03
     -0.055  0.5359E-01  0.6720E+03
      0.053  0.7446E-02  0.6720E+03
      0.162  0.4375E-03  0.6720E+03
      0.271  0.1243E-04  0.6720E+03
      0.379  0.1796E-06  0.6720E+03
      0.488  0.1357E-08  0.6720E+03
      0.596  0.5435E-11  0.6720E+03
      0.705  0.1226E-13  0.6720E+03
      0.814  0.0000E+00  0.6720E+03
      0.922  0.0000E+00  0.6720E+03
      1.031  0.0000E+00  0.6720E+03
      1.140  0.0000E+00  0.6720E+03
      1.248  0.0000E+00  0.6720E+03
      1.357  0.0000E+00  0.6720E+03
