 vasp.5.4.4.18Apr17-6-g9f103f2a35 (build Sep 03 2018 23:53:05) complex          
  
 executed on             LinuxIFC date 2021.11.25  21:49:50
 running on    1 total cores
 distrk:  each k-point on    1 cores,    1 groups
 distr:  one band on NCORES_PER_BAND=   1 cores,    1 groups


--------------------------------------------------------------------------------------------------------


 INCAR:
 POTCAR:    PAW_PBE Pd 04Jan2005                  
 POTCAR:    PAW_PBE C 08Apr2002                   
 POTCAR:    PAW_PBE O 08Apr2002                   
 POTCAR:    PAW_PBE Pd 04Jan2005                  
   VRHFIN =Pd : s1 d9                                                           
   LEXCH  = PE                                                                  
   EATOM  =   809.7530 eV,   59.5152 Ry                                         
                                                                                
   TITEL  = PAW_PBE Pd 04Jan2005                                                
   LULTRA =        F    use ultrasoft PP ?                                      
   IUNSCR =        1    unscreen: 0-lin 1-nonlin 2-no                           
   RPACOR =    2.000    partial core radius                                     
   POMASS =  106.420; ZVAL   =   10.000    mass and valenz                      
   RCORE  =    2.600    outmost cutoff radius                                   
   RWIGS  =    2.710; RWIGS  =    1.434    wigner-seitz radius (au A)           
   ENMAX  =  250.925; ENMIN  =  188.194 eV                                      
   ICORE  =        3    local potential                                         
   LCOR   =        T    correct aug charges                                     
   LPAW   =        T    paw PP                                                  
   EAUG   =  416.230                                                            
   DEXC   =    0.000                                                            
   RMAX   =    2.653    core radius for proj-oper                               
   RAUG   =    1.300    factor for augmentation sphere                          
   RDEP   =    2.734    radius for radial grids                                 
   RDEPT  =    2.103    core radius for aug-charge                              
                                                                                
   Atomic configuration                                                         
   12 entries                                                                   
     n  l   j            E        occ.                                          
     1  0  0.50    -24164.6631   2.0000                                         
     2  0  0.50     -3530.9218   2.0000                                         
     2  1  1.50     -3165.6822   6.0000                                         
     3  0  0.50      -639.4577   2.0000                                         
     3  1  1.50      -519.4532   6.0000                                         
     3  2  2.50      -328.9757  10.0000                                         
     4  0  0.50       -88.7014   2.0000                                         
     4  1  1.50       -54.4540   6.0000                                         
     4  2  2.50        -6.6878   9.0000                                         
     5  0  0.50        -4.3543   1.0000                                         
     5  1  0.50        -1.3606   0.0000                                         
     4  3  2.50        -1.3606   0.0000                                         
   Description                                                                  
     l       E           TYP  RCUT    TYP  RCUT                                 
     2     -6.6878251     23  2.400                                             
     2     -8.0484077     23  2.400                                             
     0     -4.3542939     23  2.400                                             
     0      4.3406793     23  2.400                                             
     1     -4.0817478     23  2.600                                             
     1     15.8380318     23  2.600                                             
     3     -4.0817478     23  2.400                                             
  local pseudopotential read in
  partial core-charges read in
  partial kinetic energy density read in
  atomic valenz-charges read in
  non local Contribution for L=           2  read in
    real space projection operators read in
  non local Contribution for L=           2  read in
    real space projection operators read in
  non local Contribution for L=           0  read in
    real space projection operators read in
  non local Contribution for L=           0  read in
    real space projection operators read in
  non local Contribution for L=           1  read in
    real space projection operators read in
  non local Contribution for L=           1  read in
    real space projection operators read in
    PAW grid and wavefunctions read in
 
   number of l-projection  operators is LMAX  =           6
   number of lm-projection operators is LMMAX =          18
 
 POTCAR:    PAW_PBE C 08Apr2002                   
   VRHFIN =C: s2p2                                                              
   LEXCH  = PE                                                                  
   EATOM  =   147.1560 eV,   10.8157 Ry                                         
                                                                                
   TITEL  = PAW_PBE C 08Apr2002                                                 
   LULTRA =        F    use ultrasoft PP ?                                      
   IUNSCR =        1    unscreen: 0-lin 1-nonlin 2-no                           
   RPACOR =    1.200    partial core radius                                     
   POMASS =   12.011; ZVAL   =    4.000    mass and valenz                      
   RCORE  =    1.500    outmost cutoff radius                                   
   RWIGS  =    1.630; RWIGS  =    0.863    wigner-seitz radius (au A)           
   ENMAX  =  400.000; ENMIN  =  300.000 eV                                      
   ICORE  =        2    local potential                                         
   LCOR   =        T    correct aug charges                                     
   LPAW   =        T    paw PP                                                  
   EAUG   =  644.873                                                            
   DEXC   =    0.000                                                            
   RMAX   =    1.529    core radius for proj-oper                               
   RAUG   =    1.300    factor for augmentation sphere                          
   RDEP   =    1.501    radius for radial grids                                 
   RDEPT  =    1.300    core radius for aug-charge                              
                                                                                
   Atomic configuration                                                         
    4 entries                                                                   
     n  l   j            E        occ.                                          
     1  0  0.50      -273.3789   2.0000                                         
     2  0  0.50       -13.7508   2.0000                                         
     2  1  0.50        -5.2854   2.0000                                         
     3  2  1.50        -5.4423   0.0000                                         
   Description                                                                  
     l       E           TYP  RCUT    TYP  RCUT                                 
     0    -13.7508458     23  1.200                                             
     0     -8.2022199     23  1.200                                             
     1     -5.2854383     23  1.500                                             
     1     34.0145650     23  1.500                                             
     2     -5.4423304      7  1.500                                             
  local pseudopotential read in
  partial core-charges read in
  partial kinetic energy density read in
  atomic valenz-charges read in
  non local Contribution for L=           0  read in
    real space projection operators read in
  non local Contribution for L=           0  read in
    real space projection operators read in
  non local Contribution for L=           1  read in
    real space projection operators read in
  non local Contribution for L=           1  read in
    real space projection operators read in
    PAW grid and wavefunctions read in
 
   number of l-projection  operators is LMAX  =           4
   number of lm-projection operators is LMMAX =           8
 
 POTCAR:    PAW_PBE O 08Apr2002                   
   VRHFIN =O: s2p4                                                              
   LEXCH  = PE                                                                  
   EATOM  =   432.3788 eV,   31.7789 Ry                                         
                                                                                
   TITEL  = PAW_PBE O 08Apr2002                                                 
   LULTRA =        F    use ultrasoft PP ?                                      
   IUNSCR =        1    unscreen: 0-lin 1-nonlin 2-no                           
   RPACOR =    1.200    partial core radius                                     
   POMASS =   16.000; ZVAL   =    6.000    mass and valenz                      
   RCORE  =    1.520    outmost cutoff radius                                   
   RWIGS  =    1.550; RWIGS  =    0.820    wigner-seitz radius (au A)           
   ENMAX  =  400.000; ENMIN  =  300.000 eV                                      
   ICORE  =        2    local potential                                         
   LCOR   =        T    correct aug charges                                     
   LPAW   =        T    paw PP                                                  
   EAUG   =  605.392                                                            
   DEXC   =    0.000                                                            
   RMAX   =    1.553    core radius for proj-oper                               
   RAUG   =    1.300    factor for augmentation sphere                          
   RDEP   =    1.550    radius for radial grids                                 
   RDEPT  =    1.329    core radius for aug-charge                              
                                                                                
   Atomic configuration                                                         
    4 entries                                                                   
     n  l   j            E        occ.                                          
     1  0  0.50      -514.6923   2.0000                                         
     2  0  0.50       -23.9615   2.0000                                         
     2  1  0.50        -9.0305   4.0000                                         
     3  2  1.50        -9.5241   0.0000                                         
   Description                                                                  
     l       E           TYP  RCUT    TYP  RCUT                                 
     0    -23.9615318     23  1.200                                             
     0     -9.5240782     23  1.200                                             
     1     -9.0304911     23  1.520                                             
     1      8.1634956     23  1.520                                             
     2     -9.5240782      7  1.500                                             
  local pseudopotential read in
  partial core-charges read in
  partial kinetic energy density read in
  kinetic energy density of atom read in
  atomic valenz-charges read in
  non local Contribution for L=           0  read in
    real space projection operators read in
  non local Contribution for L=           0  read in
    real space projection operators read in
  non local Contribution for L=           1  read in
    real space projection operators read in
  non local Contribution for L=           1  read in
    real space projection operators read in
    PAW grid and wavefunctions read in
 
   number of l-projection  operators is LMAX  =           4
   number of lm-projection operators is LMMAX =           8
 
 Optimization of the real space projectors (new method)

 maximal supplied QI-value         = 14.36
 optimisation between [QCUT,QGAM] = [ 10.20, 20.39] = [ 29.12,116.47] Ry 
 Optimized for a Real-space Cutoff    1.51 Angstroem

   l    n(q)    QCUT    max X(q) W(low)/X(q) W(high)/X(q)  e(spline) 
   2      8    10.197    59.108    0.26E-03    0.14E-03    0.96E-07
   2      8    10.197    58.101    0.27E-03    0.14E-03    0.98E-07
   0      9    10.197   102.235    0.54E-04    0.60E-05    0.72E-07
   0      9    10.197    58.388    0.52E-04    0.60E-05    0.68E-07
   1      9    10.197    22.191    0.18E-03    0.25E-03    0.79E-07
   1      9    10.197    15.590    0.15E-03    0.21E-03    0.69E-07
 Optimization of the real space projectors (new method)

 maximal supplied QI-value         = 25.13
 optimisation between [QCUT,QGAM] = [ 10.05, 20.36] = [ 28.30,116.06] Ry 
 Optimized for a Real-space Cutoff    1.30 Angstroem

   l    n(q)    QCUT    max X(q) W(low)/X(q) W(high)/X(q)  e(spline) 
   0      8    10.053   115.676    0.49E-03    0.72E-03    0.18E-06
   0      8    10.053    87.132    0.49E-03    0.71E-03    0.18E-06
   1      7    10.053     4.429    0.32E-03    0.31E-03    0.18E-06
   1      7    10.053     2.733    0.23E-03    0.19E-03    0.20E-06
 Optimization of the real space projectors (new method)

 maximal supplied QI-value         = 24.76
 optimisation between [QCUT,QGAM] = [ 10.15, 20.30] = [ 28.85,115.39] Ry 
 Optimized for a Real-space Cutoff    1.38 Angstroem

   l    n(q)    QCUT    max X(q) W(low)/X(q) W(high)/X(q)  e(spline) 
   0      8    10.150    20.381    0.22E-03    0.32E-03    0.29E-06
   0      8    10.150    15.268    0.23E-03    0.35E-03    0.30E-06
   1      8    10.150     5.964    0.46E-03    0.53E-03    0.21E-06
   1      8    10.150     5.382    0.38E-03    0.45E-03    0.19E-06

 ----------------------------------------------------------------------------- 
|                                                                             |
|  ADVICE TO THIS USER RUNNING 'VASP/VAMP'   (HEAR YOUR MASTER'S VOICE ...):  |
|                                                                             |
|      You enforced a specific xc-type in the INCAR file,                     |
|      a different type was found on the POTCAR file                          |
|          I HOPE YOU KNOW, WHAT YOU ARE  DOING                               |
|                                                                             |
 ----------------------------------------------------------------------------- 

  PAW_PBE Pd 04Jan2005                  :
 energy of atom  1       EATOM= -809.7530
 kinetic energy error for atom=    0.0091 (will be added to EATOM!!)
  PAW_PBE C 08Apr2002                   :
 energy of atom  2       EATOM= -147.1560
 kinetic energy error for atom=    0.0288 (will be added to EATOM!!)
  PAW_PBE O 08Apr2002                   :
 energy of atom  3       EATOM= -432.3788
 kinetic energy error for atom=    0.1156 (will be added to EATOM!!)
 
 
 POSCAR: Pd55PES                                 
  positions in cartesian coordinates
  No initial velocities read in
 exchange correlation table for  LEXCH =        9
   RHO(1)=    0.500       N(1)  =     2000
   RHO(2)=  100.500       N(2)  =     4000
 


--------------------------------------------------------------------------------------------------------


 ion  position               nearest neighbor table
   1  0.446  0.328  0.417-   3 3.25   5 3.25   7 3.36  15 3.36  29 3.42  28 3.42
   2  0.672  0.554  0.417-  26 3.25  30 3.25  17 3.36   9 3.36  47 3.42  49 3.42
   3  0.554  0.328  0.417-   1 3.25   5 3.25   7 3.36  11 3.36  29 3.42  21 3.42
   4  0.328  0.554  0.417-  32 3.25  22 3.25  13 3.36   8 3.36  43 3.42  48 3.42
   5  0.500  0.383  0.340-   1 3.25   3 3.25  11 3.36  15 3.36  21 3.42  28 3.42
   6  0.500  0.383  0.660-  24 3.25  19 3.25  16 3.36  12 3.36  42 3.42  44 3.42
   7  0.500  0.276  0.500-  29 3.24   3 3.36   1 3.36  19 3.36  24 3.36
   8  0.276  0.500  0.500-  48 3.24  22 3.36  40 3.36   4 3.36  25 3.36
   9  0.724  0.500  0.500-  49 3.24  26 3.36  45 3.36   2 3.36  20 3.36
  10  0.500  0.724  0.500-  55 3.24  27 3.36  23 3.36  46 3.36  41 3.36
  11  0.612  0.388  0.342-  21 3.24   5 3.36   3 3.36  30 3.36  26 3.36
  12  0.612  0.388  0.658-  42 3.24  24 3.36  45 3.36   6 3.36  31 3.36
  13  0.388  0.612  0.342-  43 3.24  32 3.36  50 3.36   4 3.36  27 3.36
  14  0.388  0.612  0.658-  53 3.24  25 3.36  33 3.36  51 3.36  46 3.36
  15  0.388  0.388  0.342-  28 3.24   5 3.36   1 3.36  32 3.36  22 3.36
  16  0.388  0.388  0.658-  44 3.24  19 3.36  40 3.36   6 3.36  33 3.36
  17  0.612  0.612  0.342-  47 3.24  30 3.36  50 3.36   2 3.36  23 3.36
  18  0.612  0.612  0.658-  54 3.24  31 3.36  20 3.36  51 3.36  41 3.36
  19  0.446  0.328  0.583-   6 3.25  24 3.25  16 3.36   7 3.36  44 3.42  29 3.42
  20  0.672  0.554  0.583-  31 3.25  45 3.25  18 3.36   9 3.36  54 3.42  49 3.42
  21  0.558  0.442  0.418-  11 3.24   5 3.42   3 3.42  30 3.42  26 3.42
  22  0.328  0.446  0.417-   4 3.25  32 3.25   8 3.36  15 3.36  48 3.42  28 3.42
  23  0.554  0.672  0.417-  27 3.25  50 3.25  10 3.36  17 3.36  55 3.42  47 3.42
  24  0.554  0.328  0.583-   6 3.25  19 3.25  12 3.36   7 3.36  42 3.42  29 3.42
  25  0.328  0.554  0.583-  33 3.25  40 3.25  14 3.36   8 3.36  53 3.42  48 3.42
  26  0.672  0.446  0.417-   2 3.25  30 3.25   9 3.36  11 3.36  49 3.42  21 3.42
  27  0.446  0.672  0.417-  23 3.25  50 3.25  10 3.36  13 3.36  55 3.42  43 3.42
  28  0.442  0.442  0.418-  15 3.24   5 3.42   1 3.42  32 3.42  22 3.42
  29  0.500  0.384  0.500-   7 3.24   3 3.42   1 3.42  24 3.42  19 3.42
  30  0.617  0.500  0.340-   2 3.25  26 3.25  17 3.36  11 3.36  47 3.42  21 3.42
  31  0.617  0.500  0.660-  20 3.25  45 3.25  18 3.36  12 3.36  54 3.42  42 3.42
  32  0.383  0.500  0.340-   4 3.25  22 3.25  13 3.36  15 3.36  43 3.42  28 3.42
  33  0.383  0.500  0.660-  25 3.25  40 3.25  14 3.36  16 3.36  53 3.42  44 3.42
  34  0.383  0.383  0.500-
  35  0.617  0.617  0.500-
  36  0.617  0.383  0.500-
  37  0.383  0.617  0.500-
  38  0.500  0.500  0.335-  56 2.62
  39  0.500  0.500  0.665-
  40  0.328  0.446  0.583-  33 3.25  25 3.25  16 3.36   8 3.36  44 3.42  48 3.42
  41  0.554  0.672  0.583-  46 3.25  51 3.25  10 3.36  18 3.36  54 3.42  55 3.42
  42  0.558  0.442  0.582-  12 3.24   6 3.42  24 3.42  31 3.42  45 3.42
  43  0.442  0.558  0.418-  13 3.24   4 3.42  32 3.42  27 3.42  50 3.42
  44  0.442  0.442  0.582-  16 3.24   6 3.42  19 3.42  33 3.42  40 3.42
  45  0.672  0.446  0.583-  20 3.25  31 3.25   9 3.36  12 3.36  49 3.42  42 3.42
  46  0.446  0.672  0.583-  41 3.25  51 3.25  10 3.36  14 3.36  53 3.42  55 3.42
  47  0.558  0.558  0.418-  17 3.24   2 3.42  30 3.42  23 3.42  50 3.42
  48  0.384  0.500  0.500-   8 3.24   4 3.42  22 3.42  25 3.42  40 3.42
  49  0.616  0.500  0.500-   9 3.24   2 3.42  26 3.42  20 3.42  45 3.42
  50  0.500  0.617  0.340-  27 3.25  23 3.25  13 3.36  17 3.36  43 3.42  47 3.42
  51  0.500  0.617  0.660-  41 3.25  46 3.25  14 3.36  18 3.36  53 3.42  54 3.42
  52  0.500  0.500  0.500-
  53  0.442  0.558  0.582-  14 3.24  25 3.42  33 3.42  51 3.42  46 3.42
  54  0.558  0.558  0.582-  18 3.24  31 3.42  20 3.42  51 3.42  41 3.42
  55  0.500  0.616  0.500-  10 3.24  23 3.42  27 3.42  41 3.42  46 3.42
  56  0.501  0.500  0.247-  57 1.13  38 2.62
  57  0.501  0.499  0.210-  56 1.13
 
  LATTYP: Found a simple cubic cell.
 ALAT       =    30.0000000000
  
  Lattice vectors:
  
 A1 = (  30.0000000000,   0.0000000000,   0.0000000000)
 A2 = (   0.0000000000,  30.0000000000,   0.0000000000)
 A3 = (   0.0000000000,   0.0000000000,  30.0000000000)


Analysis of symmetry for initial positions (statically):
=====================================================================
 Subroutine PRICEL returns:
 Original cell was already a primitive cell.
 

 Routine SETGRP: Setting up the symmetry group for a 
 simple cubic supercell.


 Subroutine GETGRP returns: Found  1 space group operations
 (whereof  1 operations were pure point group operations)
 out of a pool of 48 trial point group operations.


The static configuration has the point symmetry C_1 .


Analysis of symmetry for dynamics (positions and initial velocities):
=====================================================================
 Subroutine PRICEL returns:
 Original cell was already a primitive cell.
 

 Routine SETGRP: Setting up the symmetry group for a 
 simple cubic supercell.


 Subroutine GETGRP returns: Found  1 space group operations
 (whereof  1 operations were pure point group operations)
 out of a pool of 48 trial point group operations.


The dynamic configuration has the point symmetry C_1 .


Analysis of constrained symmetry for selective dynamics:
=====================================================================
 Subroutine PRICEL returns:
 Original cell was already a primitive cell.
 

 Routine SETGRP: Setting up the symmetry group for a 
 simple cubic supercell.


 Subroutine GETGRP returns: Found  1 space group operations
 (whereof  1 operations were pure point group operations)
 out of a pool of 48 trial point group operations.


The constrained configuration has the point symmetry C_1 .


 Subroutine INISYM returns: Found  1 space group operations
 (whereof  1 operations are pure point group operations),
 and found     1 'primitive' translations

 
 
 KPOINTS: K-points                                

Automatic generation of k-mesh.
Space group operators:
 irot       det(A)        alpha          n_x          n_y          n_z        tau_x        tau_y        tau_z
    1     1.000000     0.000000     1.000000     0.000000     0.000000     0.000000     0.000000     0.000000
 
 Subroutine IBZKPT returns following result:
 ===========================================
 
 Found      1 irreducible k-points:
 
 Following reciprocal coordinates:
            Coordinates               Weight
  0.000000  0.000000  0.000000      1.000000
 
 Following cartesian coordinates:
            Coordinates               Weight
  0.000000  0.000000  0.000000      1.000000
 


--------------------------------------------------------------------------------------------------------




 Dimension of arrays:
   k-points           NKPTS =      1   k-points in BZ     NKDIM =      1   number of bands    NBANDS=    336
   number of dos      NEDOS =    301   number of ions     NIONS =     57
   non local maximal  LDIM  =      6   non local SUM 2l+1 LMDIM =     18
   total plane-waves  NPLWV = ******
   max r-space proj   IRMAX =   1847   max aug-charges    IRDMAX=   6262
   dimension x,y,z NGX =   150 NGY =  150 NGZ =  150
   dimension x,y,z NGXF=   300 NGYF=  300 NGZF=  300
   support grid    NGXF=   300 NGYF=  300 NGZF=  300
   ions per type =              55   1   1
   NGX,Y,Z   is equivalent  to a cutoff of   8.31,  8.31,  8.31 a.u.
   NGXF,Y,Z  is equivalent  to a cutoff of  16.62, 16.62, 16.62 a.u.

 SYSTEM =  6_Pd100_top_free_z(O)                   
 POSCAR =  Pd55PES                                 

 Startparameter for this run:
   NWRITE =      2    write-flag & timer
   PREC   = normal    normal or accurate (medium, high low for compatibility)
   ISTART =      0    job   : 0-new  1-cont  2-samecut
   ICHARG =      2    charge: 1-file 2-atom 10-const
   ISPIN  =      1    spin polarized calculation?
   LNONCOLLINEAR =      F non collinear calculations
   LSORBIT =      F    spin-orbit coupling
   INIWAV =      1    electr: 0-lowe 1-rand  2-diag
   LASPH  =      F    aspherical Exc in radial PAW
   METAGGA=      F    non-selfconsistent MetaGGA calc.

 Electronic Relaxation 1
   ENCUT  =  400.0 eV  29.40 Ry    5.42 a.u.  48.92 48.92 48.92*2*pi/ulx,y,z
   ENINI  =  400.0     initial cutoff
   ENAUG  =  644.9 eV  augmentation charge cutoff
   NELM   =    100;   NELMIN=  6; NELMDL= -5     # of ELM steps 
   EDIFF  = 0.1E-03   stopping-criterion for ELM
   LREAL  =      T    real-space projection
   NLSPLINE    = F    spline interpolate recip. space projectors
   LCOMPAT=      F    compatible to vasp.4.4
   GGA_COMPAT  = T    GGA compatible to vasp.4.4-vasp.4.6
   LMAXPAW     = -100 max onsite density
   LMAXMIX     =    2 max onsite mixed and CHGCAR
   VOSKOWN=      0    Vosko Wilk Nusair interpolation
   ROPT   =   -0.00050  -0.00050  -0.00050
 Ionic relaxation
   EDIFFG = -.5E-01   stopping-criterion for IOM
   NSW    =      0    number of steps for IOM
   NBLOCK =      1;   KBLOCK =      1    inner block; outer block 
   IBRION =     -1    ionic relax: 0-MD 1-quasi-New 2-CG
   NFREE  =      1    steps in history (QN), initial steepest desc. (CG)
   ISIF   =      2    stress and relaxation
   IWAVPR =     10    prediction:  0-non 1-charg 2-wave 3-comb
   ISYM   =      2    0-nonsym 1-usesym 2-fastsym
   LCORR  =      T    Harris-Foulkes like correction to forces

   POTIM  = 0.5000    time-step for ionic-motion
   TEIN   =    0.0    initial temperature
   TEBEG  =    0.0;   TEEND  =   0.0 temperature during run
   SMASS  =  -3.00    Nose mass-parameter (am)
   estimated Nose-frequenzy (Omega)   =  0.10E-29 period in steps =****** mass=  -0.206E-25a.u.
   SCALEE = 1.0000    scale energy and forces
   NPACO  =    256;   APACO  = 16.0  distance and # of slots for P.C.
   PSTRESS=    0.0 pullay stress

  Mass of Ions in am
   POMASS = 106.42 12.01 16.00
  Ionic Valenz
   ZVAL   =  10.00  4.00  6.00
  Atomic Wigner-Seitz radii
   RWIGS  =  -1.00 -1.00 -1.00
  virtual crystal weights 
   VCA    =   1.00  1.00  1.00
   NELECT =     560.0000    total number of electrons
   NUPDOWN=      -1.0000    fix difference up-down

 DOS related values:
   EMIN   =  10.00;   EMAX   =-10.00  energy-range for DOS
   EFERMI =   0.00
   ISMEAR =     2;   SIGMA  =   0.20  broadening in eV -4-tet -1-fermi 0-gaus

 Electronic relaxation 2 (details)
   IALGO  =     68    algorithm
   LDIAG  =      T    sub-space diagonalisation (order eigenvalues)
   LSUBROT=      F    optimize rotation matrix (better conditioning)
   TURBO    =      0    0=normal 1=particle mesh
   IRESTART =      0    0=no restart 2=restart with 2 vectors
   NREBOOT  =      0    no. of reboots
   NMIN     =      0    reboot dimension
   EREF     =   0.00    reference energy to select bands
   IMIX   =      4    mixing-type and parameters
     AMIX     =   0.40;   BMIX     =  1.00
     AMIX_MAG =   1.60;   BMIX_MAG =  1.00
     AMIN     =   0.10
     WC   =   100.;   INIMIX=   1;  MIXPRE=   1;  MAXMIX= -45

 Intra band minimization:
   WEIMIN = 0.0000     energy-eigenvalue tresh-hold
   EBREAK =  0.74E-07  absolut break condition
   DEPER  =   0.30     relativ break condition  

   TIME   =   0.40     timestep for ELM

  volume/ion in A,a.u.               =     473.68      3196.58
  Fermi-wavevector in a.u.,A,eV,Ry     =   0.449797  0.849992  2.752691  0.202317
  Thomas-Fermi vector in A             =   1.430086
 
 Write flags
   LWAVE        =      F    write WAVECAR
   LDOWNSAMPLE  =      F    k-point downsampling of WAVECAR
   LCHARG       =      F    write CHGCAR
   LVTOT        =      F    write LOCPOT, total local potential
   LVHAR        =      F    write LOCPOT, Hartree potential only
   LELF         =      F    write electronic localiz. function (ELF)
   LORBIT       =      0    0 simple, 1 ext, 2 COOP (PROOUT), +10 PAW based schemes


 Dipole corrections
   LMONO  =      F    monopole corrections only (constant potential shift)
   LDIPOL =      F    correct potential (dipole corrections)
   IDIPOL =      0    1-x, 2-y, 3-z, 4-all directions 
   EPSILON=  1.0000000 bulk dielectric constant

 Exchange correlation treatment:
   GGA     =    RP    GGA type
   LEXCH   =     9    internal setting for exchange type
   VOSKOWN=      0    Vosko Wilk Nusair interpolation
   LHFCALC =     F    Hartree Fock is set to
   LHFONE  =     F    Hartree Fock one center treatment
   AEXX    =    0.0000 exact exchange contribution

 Linear response parameters
   LEPSILON=     F    determine dielectric tensor
   LRPA    =     F    only Hartree local field effects (RPA)
   LNABLA  =     F    use nabla operator in PAW spheres
   LVEL    =     F    velocity operator in full k-point grid
   LINTERFAST=   F  fast interpolation
   KINTER  =     0    interpolate to denser k-point grid
   CSHIFT  =0.1000    complex shift for real part using Kramers Kronig
   OMEGAMAX=  -1.0    maximum frequency
   DEG_THRESHOLD= 0.2000000E-02 threshold for treating states as degnerate
   RTIME   =   -0.100 relaxation time in fs
  (WPLASMAI=    0.000 imaginary part of plasma frequency in eV, 0.658/RTIME)
   DFIELD  = 0.0000000 0.0000000 0.0000000 field for delta impulse in time
 
 Orbital magnetization related:
   ORBITALMAG=     F  switch on orbital magnetization
   LCHIMAG   =     F  perturbation theory with respect to B field
   DQ        =  0.001000  dq finite difference perturbation B field
   LLRAUG    =     F  two centre corrections for induced B field



--------------------------------------------------------------------------------------------------------


 Static calculation
 charge density and potential will be updated during run
 non-spin polarized calculation
 RMM-DIIS sequential band-by-band and
  variant of blocked Davidson during initial phase
 perform sub-space diagonalisation
    before iterative eigenvector-optimisation
 modified Broyden-mixing scheme, WC =      100.0
 initial mixing is a Kerker type mixing with AMIX =  0.4000 and BMIX =      1.0000
 Hartree-type preconditioning will be used
 using additional bands           56
 real space projection scheme for non local part
 use partial core corrections
 calculate Harris-corrections to forces 
   (improved forces if not selfconsistent)
 use gradient corrections 
 use of overlap-Matrix (Vanderbilt PP)
 Methfessel and Paxton  Order N= 2 SIGMA  =   0.20


--------------------------------------------------------------------------------------------------------


  energy-cutoff  :      400.00
  volume of cell :    27000.00
      direct lattice vectors                 reciprocal lattice vectors
    30.000000000  0.000000000  0.000000000     0.033333333  0.000000000  0.000000000
     0.000000000 30.000000000  0.000000000     0.000000000  0.033333333  0.000000000
     0.000000000  0.000000000 30.000000000     0.000000000  0.000000000  0.033333333

  length of vectors
    30.000000000 30.000000000 30.000000000     0.033333333  0.033333333  0.033333333


 
 k-points in units of 2pi/SCALE and weight: K-points                                
   0.00000000  0.00000000  0.00000000       1.000
 
 k-points in reciprocal lattice and weights: K-points                                
   0.00000000  0.00000000  0.00000000       1.000
 
 position of ions in fractional coordinates (direct lattice) 
   0.44576020  0.32826710  0.41691983
   0.67173288  0.55423978  0.41691983
   0.55423980  0.32826710  0.41691983
   0.32826712  0.55423978  0.41691983
   0.50000000  0.38250690  0.34021317
   0.50000000  0.38250690  0.65978680
   0.50000000  0.27609440  0.50000000
   0.27609443  0.49999998  0.50000000
   0.72390557  0.49999998  0.50000000
   0.50000000  0.72390555  0.50000000
   0.61195280  0.38804720  0.34167483
   0.61195280  0.38804720  0.65832513
   0.38804722  0.61195278  0.34167483
   0.38804722  0.61195278  0.65832513
   0.38804720  0.38804720  0.34167483
   0.38804720  0.38804720  0.65832513
   0.61195278  0.61195278  0.34167483
   0.61195278  0.61195278  0.65832513
   0.44576020  0.32826710  0.58308023
   0.67173288  0.55423978  0.58308023
   0.55791699  0.44208301  0.41809300
   0.32826705  0.44576024  0.41691983
   0.55423973  0.67173293  0.41691983
   0.55423980  0.32826710  0.58308023
   0.32826712  0.55423978  0.58308023
   0.67173295  0.44576024  0.41691983
   0.44576027  0.67173293  0.41691983
   0.44208301  0.44208301  0.41809300
   0.50000000  0.38416601  0.50000000
   0.61749315  0.50000005  0.34021317
   0.61749315  0.50000005  0.65978680
   0.38250685  0.50000005  0.34021317
   0.38250685  0.50000005  0.65978680
   0.38317830  0.38317830  0.50000000
   0.61682172  0.61682172  0.50000000
   0.61682170  0.38317830  0.50000000
   0.38317828  0.61682172  0.50000000
   0.50000000  0.50000000  0.33478917
   0.50000000  0.50000000  0.66521087
   0.32826705  0.44576024  0.58308023
   0.55423973  0.67173293  0.58308023
   0.55791699  0.44208301  0.58190703
   0.44208298  0.55791702  0.41809300
   0.44208301  0.44208301  0.58190703
   0.67173295  0.44576024  0.58308023
   0.44576027  0.67173293  0.58308023
   0.55791702  0.55791702  0.41809300
   0.38416599  0.50000002  0.50000000
   0.61583401  0.50000002  0.50000000
   0.50000000  0.61749319  0.34021317
   0.50000000  0.61749319  0.65978680
   0.50000000  0.50000000  0.50000000
   0.44208298  0.55791702  0.58190703
   0.55791702  0.55791702  0.58190703
   0.50000000  0.61583404  0.50000000
   0.50080020  0.49955670  0.24745117
   0.50091933  0.49949070  0.20985143
 
 position of ions in cartesian coordinates  (Angst):
  13.37280588  9.84801292 12.50759500
  20.15198637 16.62719342 12.50759500
  16.62719412  9.84801292 12.50759500
   9.84801363 16.62719342 12.50759500
  15.00000000 11.47520705 10.20639500
  15.00000000 11.47520705 19.79360400
  15.00000000  8.28283206 15.00000000
   8.28283277 14.99999929 15.00000000
  21.71716723 14.99999929 15.00000000
  15.00000000 21.71716652 14.99999999
  18.35858397 11.64141603 10.25024500
  18.35858397 11.64141603 19.74975399
  11.64141674 18.35858326 10.25024500
  11.64141674 18.35858326 19.74975400
  11.64141603 11.64141603 10.25024500
  11.64141603 11.64141603 19.74975400
  18.35858326 18.35858326 10.25024500
  18.35858326 18.35858326 19.74975400
  13.37280588  9.84801291 17.49240700
  20.15198638 16.62719341 17.49240700
  16.73750985 13.26249015 12.54279000
   9.84801151 13.37280729 12.50759500
  16.62719200 20.15198779 12.50759500
  16.62719412  9.84801292 17.49240700
   9.84801363 16.62719342 17.49240700
  20.15198849 13.37280729 12.50759500
  13.37280800 20.15198779 12.50759500
  13.26249015 13.26249015 12.54279000
  15.00000000 11.52498029 15.00000000
  18.52479437 15.00000140 10.20639500
  18.52479437 15.00000141 19.79360400
  11.47520562 15.00000141 10.20639501
  11.47520563 15.00000141 19.79360400
  11.49534898 11.49534898 15.00000000
  18.50465172 18.50465172 15.00000000
  18.50465102 11.49534898 15.00000000
  11.49534828 18.50465172 15.00000000
  15.00000000 15.00000000 10.04367500
  15.00000000 15.00000000 19.95632599
   9.84801151 13.37280729 17.49240700
  16.62719200 20.15198779 17.49240700
  16.73750985 13.26249015 17.45721100
  13.26248944 16.73751056 12.54279001
  13.26249015 13.26249015 17.45721100
  20.15198849 13.37280729 17.49240699
  13.37280800 20.15198779 17.49240700
  16.73751056 16.73751056 12.54279000
  11.52497959 15.00000071 15.00000000
  18.47502041 15.00000071 15.00000000
  14.99999999 18.52479579 10.20639500
  15.00000000 18.52479578 19.79360400
  15.00000000 15.00000000 15.00000000
  13.26248944 16.73751057 17.45721101
  16.73751056 16.73751057 17.45721100
  15.00000000 18.47502112 15.00000000
  15.02400600 14.98670100  7.42353500
  15.02758000 14.98472100  6.29554300
 


--------------------------------------------------------------------------------------------------------


 k-point  1 :   0.0000 0.0000 0.0000  plane waves:  490521

 maximum and minimum number of plane-waves per node :    490521   490521

 maximum number of plane-waves:    490521
 maximum index in each direction: 
   IXMAX=   48   IYMAX=   48   IZMAX=   48
   IXMIN=  -48   IYMIN=  -48   IZMIN=  -48


 serial   3D FFT for wavefunctions
 parallel 3D FFT for charge:
    minimum data exchange during FFTs selected (reduces bandwidth)


 total amount of memory used by VASP MPI-rank0  5486941. kBytes
=======================================================================

   base      :      30000. kBytes
   nonlr-proj:      17126. kBytes
   fftplans  :     924480. kBytes
   grid      :    1872000. kBytes
   one-center:        886. kBytes
   wavefun   :    2642449. kBytes
 
     INWAV:  cpu time    0.0001: real time    0.0005
 Broyden mixing: mesh for mixing (old mesh)
   NGX = 97   NGY = 97   NGZ = 97
  (NGX  =300   NGY  =300   NGZ  =300)
  gives a total of 912673 points

 initial charge density was supplied:
 charge density of overlapping atoms calculated
 number of electron     560.0000000 magnetization 
 keeping initial charge density in first step


--------------------------------------------------------------------------------------------------------


 Maximum index for non-local projection operator         1763
 Maximum index for augmentation-charges         5898 (set IRDMAX)


--------------------------------------------------------------------------------------------------------


 First call to EWALD:  gamma=   0.059
 Maximum number of real-space cells 3x 3x 3
 Maximum number of reciprocal cells 3x 3x 3

    FEWALD:  cpu time    0.0147: real time    0.0147


--------------------------------------- Iteration      1(   1)  ---------------------------------------


    POTLOK:  cpu time   13.9454: real time   13.9494
    SETDIJ:  cpu time    0.1190: real time    0.1190
     EDDAV:  cpu time  353.7782: real time  353.8737
       DOS:  cpu time    0.0013: real time    0.0013
    --------------------------------------------
      LOOP:  cpu time  367.8439: real time  367.9434

 eigenvalue-minimisations  :   688
 total energy-change (2. order) : 0.4382485E+04  (-0.1004786E+05)
 number of electron     560.0000000 magnetization 
 augmentation part      560.0000000 magnetization 

 Free energy of the ion-electron system (eV)
  ---------------------------------------------------
  alpha Z        PSCENC =        75.25431677
  Ewald energy   TEWEN  =    137898.14613668
  -Hartree energ DENC   =   -181266.00689766
  -exchange      EXHF   =         0.00000000
  -V(xc)+E(xc)   XCENC  =     -1703.98564607
  PAW double counting   =     44873.02882129   -41398.84523641
  entropy T*S    EENTRO =         0.01470006
  eigenvalues    EBANDS =       818.37299378
  atomic energy  EATOM  =     45086.50549395
  Solvation  Ediel_sol  =         0.00000000
  ---------------------------------------------------
  free energy    TOTEN  =      4382.48468239 eV

  energy without entropy =     4382.46998232  energy(sigma->0) =     4382.48100737


--------------------------------------------------------------------------------------------------------




--------------------------------------- Iteration      1(   2)  ---------------------------------------


     EDDAV:  cpu time  569.4217: real time  569.4332
       DOS:  cpu time    0.0012: real time    0.0012
    --------------------------------------------
      LOOP:  cpu time  569.4229: real time  569.4345

 eigenvalue-minimisations  :  1224
 total energy-change (2. order) :-0.2370542E+04  (-0.2133500E+04)
 number of electron     560.0000000 magnetization 
 augmentation part      560.0000000 magnetization 

 Free energy of the ion-electron system (eV)
  ---------------------------------------------------
  alpha Z        PSCENC =        75.25431677
  Ewald energy   TEWEN  =    137898.14613668
  -Hartree energ DENC   =   -181266.00689766
  -exchange      EXHF   =         0.00000000
  -V(xc)+E(xc)   XCENC  =     -1703.98564607
  PAW double counting   =     44873.02882129   -41398.84523641
  entropy T*S    EENTRO =        -0.04962882
  eigenvalues    EBANDS =     -1552.10495496
  atomic energy  EATOM  =     45086.50549395
  Solvation  Ediel_sol  =         0.00000000
  ---------------------------------------------------
  free energy    TOTEN  =      2011.94240477 eV

  energy without entropy =     2011.99203359  energy(sigma->0) =     2011.95481198


--------------------------------------------------------------------------------------------------------




--------------------------------------- Iteration      1(   3)  ---------------------------------------


     EDDAV:  cpu time  477.3514: real time  477.3550
       DOS:  cpu time    0.0011: real time    0.0011
    --------------------------------------------
      LOOP:  cpu time  477.3524: real time  477.3560

 eigenvalue-minimisations  :   992
 total energy-change (2. order) :-0.1778064E+04  (-0.1670654E+04)
 number of electron     560.0000000 magnetization 
 augmentation part      560.0000000 magnetization 

 Free energy of the ion-electron system (eV)
  ---------------------------------------------------
  alpha Z        PSCENC =        75.25431677
  Ewald energy   TEWEN  =    137898.14613668
  -Hartree energ DENC   =   -181266.00689766
  -exchange      EXHF   =         0.00000000
  -V(xc)+E(xc)   XCENC  =     -1703.98564607
  PAW double counting   =     44873.02882129   -41398.84523641
  entropy T*S    EENTRO =         0.02035680
  eigenvalues    EBANDS =     -3330.23851141
  atomic energy  EATOM  =     45086.50549395
  Solvation  Ediel_sol  =         0.00000000
  ---------------------------------------------------
  free energy    TOTEN  =       233.87883394 eV

  energy without entropy =      233.85847714  energy(sigma->0) =      233.87374474


--------------------------------------------------------------------------------------------------------




--------------------------------------- Iteration      1(   4)  ---------------------------------------


     EDDAV:  cpu time  413.1981: real time  413.2032
       DOS:  cpu time    0.0011: real time    0.0011
    --------------------------------------------
      LOOP:  cpu time  413.1993: real time  413.2043

 eigenvalue-minimisations  :   832
 total energy-change (2. order) :-0.3692325E+03  (-0.3142123E+03)
 number of electron     560.0000000 magnetization 
 augmentation part      560.0000000 magnetization 

 Free energy of the ion-electron system (eV)
  ---------------------------------------------------
  alpha Z        PSCENC =        75.25431677
  Ewald energy   TEWEN  =    137898.14613668
  -Hartree energ DENC   =   -181266.00689766
  -exchange      EXHF   =         0.00000000
  -V(xc)+E(xc)   XCENC  =     -1703.98564607
  PAW double counting   =     44873.02882129   -41398.84523641
  entropy T*S    EENTRO =        -0.01147830
  eigenvalues    EBANDS =     -3699.43921600
  atomic energy  EATOM  =     45086.50549395
  Solvation  Ediel_sol  =         0.00000000
  ---------------------------------------------------
  free energy    TOTEN  =      -135.35370575 eV

  energy without entropy =     -135.34222745  energy(sigma->0) =     -135.35083618


--------------------------------------------------------------------------------------------------------




--------------------------------------- Iteration      1(   5)  ---------------------------------------


     EDDAV:  cpu time  499.9453: real time  499.9485
       DOS:  cpu time    0.0014: real time    0.0014
    CHARGE:  cpu time   25.1718: real time   25.1717
    MIXING:  cpu time    0.4360: real time    0.4360
    --------------------------------------------
      LOOP:  cpu time  525.5545: real time  525.5576

 eigenvalue-minimisations  :  1048
 total energy-change (2. order) :-0.4351258E+02  (-0.3589167E+02)
 number of electron     559.9999917 magnetization 
 augmentation part      245.3096667 magnetization 

 Broyden mixing:
  rms(total) = 0.13843E+01    rms(broyden)= 0.13833E+01
  rms(prec ) = 0.14901E+01
  weight for this iteration     100.00

 Free energy of the ion-electron system (eV)
  ---------------------------------------------------
  alpha Z        PSCENC =        75.25431677
  Ewald energy   TEWEN  =    137898.14613668
  -Hartree energ DENC   =   -181266.00689766
  -exchange      EXHF   =         0.00000000
  -V(xc)+E(xc)   XCENC  =     -1703.98564607
  PAW double counting   =     44873.02882129   -41398.84523641
  entropy T*S    EENTRO =         0.54805484
  eigenvalues    EBANDS =     -3743.51133197
  atomic energy  EATOM  =     45086.50549395
  Solvation  Ediel_sol  =         0.00000000
  ---------------------------------------------------
  free energy    TOTEN  =      -178.86628858 eV

  energy without entropy =     -179.41434342  energy(sigma->0) =     -179.00330229


--------------------------------------------------------------------------------------------------------




--------------------------------------- Iteration      1(   6)  ---------------------------------------


    POTLOK:  cpu time   13.0139: real time   13.0146
    SETDIJ:  cpu time    0.1213: real time    0.1213
    EDDIAG:  cpu time   66.4678: real time   66.4679
  RMM-DIIS:  cpu time  187.8293: real time  187.8311
    ORTHCH:  cpu time   13.3915: real time   13.3916
       DOS:  cpu time    0.0014: real time    0.0014
    CHARGE:  cpu time   25.0894: real time   25.0896
    MIXING:  cpu time    0.4594: real time    0.4594
    --------------------------------------------
      LOOP:  cpu time  306.3740: real time  306.3769

 eigenvalue-minimisations  :   726
 total energy-change (2. order) : 0.5089762E+00  (-0.5049617E+01)
 number of electron     559.9999925 magnetization 
 augmentation part      240.6285170 magnetization 

 Broyden mixing:
  rms(total) = 0.21607E+01    rms(broyden)= 0.21605E+01
  rms(prec ) = 0.25308E+01
  weight for this iteration     100.00

 eigenvalues of (default mixing * dielectric matrix)
  average eigenvalue GAMMA=   0.3285
  0.3285

 Free energy of the ion-electron system (eV)
  ---------------------------------------------------
  alpha Z        PSCENC =        75.25431677
  Ewald energy   TEWEN  =    137898.14613668
  -Hartree energ DENC   =   -181682.70727147
  -exchange      EXHF   =         0.00000000
  -V(xc)+E(xc)   XCENC  =     -1697.65040296
  PAW double counting   =     45620.87694827   -42119.26627513
  entropy T*S    EENTRO =        -0.16158571
  eigenvalues    EBANDS =     -3359.35467278
  atomic energy  EATOM  =     45086.50549395
  Solvation  Ediel_sol  =         0.00000000
  ---------------------------------------------------
  free energy    TOTEN  =      -178.35731239 eV

  energy without entropy =     -178.19572668  energy(sigma->0) =     -178.31691596


--------------------------------------------------------------------------------------------------------




--------------------------------------- Iteration      1(   7)  ---------------------------------------


    POTLOK:  cpu time   13.1166: real time   13.1176
    SETDIJ:  cpu time    0.1269: real time    0.1269
    EDDIAG:  cpu time   66.5345: real time   66.5359
  RMM-DIIS:  cpu time  227.6461: real time  227.6496
    ORTHCH:  cpu time   13.7844: real time   13.7844
       DOS:  cpu time    0.0014: real time    0.0014
    CHARGE:  cpu time   25.1517: real time   25.1517
    MIXING:  cpu time    0.4842: real time    0.4842
    --------------------------------------------
      LOOP:  cpu time  346.8458: real time  346.8517

 eigenvalue-minimisations  :   856
 total energy-change (2. order) :-0.2678214E+01  (-0.1716951E+01)
 number of electron     559.9999903 magnetization 
 augmentation part      240.3799241 magnetization 

 Broyden mixing:
  rms(total) = 0.23177E+01    rms(broyden)= 0.23174E+01
  rms(prec ) = 0.28462E+01
  weight for this iteration     100.00

 eigenvalues of (default mixing * dielectric matrix)
  average eigenvalue GAMMA=   0.3082
  0.4813  0.1351

 Free energy of the ion-electron system (eV)
  ---------------------------------------------------
  alpha Z        PSCENC =        75.25431677
  Ewald energy   TEWEN  =    137898.14613668
  -Hartree energ DENC   =   -181761.97881506
  -exchange      EXHF   =         0.00000000
  -V(xc)+E(xc)   XCENC  =     -1697.79943264
  PAW double counting   =     45677.18757840   -42173.00417881
  entropy T*S    EENTRO =        -0.04222231
  eigenvalues    EBANDS =     -3285.30440308
  atomic energy  EATOM  =     45086.50549395
  Solvation  Ediel_sol  =         0.00000000
  ---------------------------------------------------
  free energy    TOTEN  =      -181.03552611 eV

  energy without entropy =     -180.99330379  energy(sigma->0) =     -181.02497053


--------------------------------------------------------------------------------------------------------




--------------------------------------- Iteration      1(   8)  ---------------------------------------


    POTLOK:  cpu time   13.1991: real time   13.2002
    SETDIJ:  cpu time    0.1254: real time    0.1254
    EDDIAG:  cpu time   67.1387: real time   67.1388
  RMM-DIIS:  cpu time  214.4755: real time  214.4775
    ORTHCH:  cpu time   13.5956: real time   13.5957
       DOS:  cpu time    0.0015: real time    0.0015
    CHARGE:  cpu time   25.5820: real time   25.5819
    MIXING:  cpu time    0.5102: real time    0.5102
    --------------------------------------------
      LOOP:  cpu time  334.6279: real time  334.6311

 eigenvalue-minimisations  :   781
 total energy-change (2. order) :-0.1795979E+01  (-0.6088465E+00)
 number of electron     559.9999891 magnetization 
 augmentation part      240.1001427 magnetization 

 Broyden mixing:
  rms(total) = 0.25646E+01    rms(broyden)= 0.25643E+01
  rms(prec ) = 0.30141E+01
  weight for this iteration     100.00

 eigenvalues of (default mixing * dielectric matrix)
  average eigenvalue GAMMA=   0.3096
  0.6714  0.1286  0.1286

 Free energy of the ion-electron system (eV)
  ---------------------------------------------------
  alpha Z        PSCENC =        75.25431677
  Ewald energy   TEWEN  =    137898.14613668
  -Hartree energ DENC   =   -181807.37089098
  -exchange      EXHF   =         0.00000000
  -V(xc)+E(xc)   XCENC  =     -1697.83696139
  PAW double counting   =     45726.74833456   -42220.20069584
  entropy T*S    EENTRO =        -0.09231497
  eigenvalues    EBANDS =     -3243.98492348
  atomic energy  EATOM  =     45086.50549395
  Solvation  Ediel_sol  =         0.00000000
  ---------------------------------------------------
  free energy    TOTEN  =      -182.83150470 eV

  energy without entropy =     -182.73918973  energy(sigma->0) =     -182.80842596


--------------------------------------------------------------------------------------------------------




--------------------------------------- Iteration      1(   9)  ---------------------------------------


    POTLOK:  cpu time   13.0352: real time   13.0361
    SETDIJ:  cpu time    0.1229: real time    0.1229
    EDDIAG:  cpu time   67.6186: real time   67.6187
  RMM-DIIS:  cpu time  202.8196: real time  202.8216
    ORTHCH:  cpu time   13.8573: real time   13.8574
       DOS:  cpu time    0.0014: real time    0.0014
    CHARGE:  cpu time   25.4316: real time   25.4316
    MIXING:  cpu time    0.5341: real time    0.5341
    --------------------------------------------
      LOOP:  cpu time  323.4207: real time  323.4237

 eigenvalue-minimisations  :   738
 total energy-change (2. order) : 0.5810403E+00  (-0.4987877E+00)
 number of electron     559.9999902 magnetization 
 augmentation part      240.6764179 magnetization 

 Broyden mixing:
  rms(total) = 0.25880E+01    rms(broyden)= 0.25875E+01
  rms(prec ) = 0.30088E+01
  weight for this iteration     100.00

 eigenvalues of (default mixing * dielectric matrix)
  average eigenvalue GAMMA=   0.2909
  0.7777  0.1444  0.1444  0.0973

 Free energy of the ion-electron system (eV)
  ---------------------------------------------------
  alpha Z        PSCENC =        75.25431677
  Ewald energy   TEWEN  =    137898.14613668
  -Hartree energ DENC   =   -181829.16494015
  -exchange      EXHF   =         0.00000000
  -V(xc)+E(xc)   XCENC  =     -1697.82547690
  PAW double counting   =     45783.77589821   -42274.51252563
  entropy T*S    EENTRO =        -0.14572407
  eigenvalues    EBANDS =     -3224.28364331
  atomic energy  EATOM  =     45086.50549395
  Solvation  Ediel_sol  =         0.00000000
  ---------------------------------------------------
  free energy    TOTEN  =      -182.25046445 eV

  energy without entropy =     -182.10474038  energy(sigma->0) =     -182.21403343


--------------------------------------------------------------------------------------------------------




--------------------------------------- Iteration      1(  10)  ---------------------------------------


    POTLOK:  cpu time   13.1028: real time   13.1034
    SETDIJ:  cpu time    0.1232: real time    0.1232
    EDDIAG:  cpu time   67.3124: real time   67.3131
  RMM-DIIS:  cpu time  199.1993: real time  199.2000
    ORTHCH:  cpu time   13.8939: real time   13.8938
       DOS:  cpu time    0.0015: real time    0.0015
    CHARGE:  cpu time   25.6626: real time   25.6625
    MIXING:  cpu time    0.5671: real time    0.5671
    --------------------------------------------
      LOOP:  cpu time  319.8628: real time  319.8647

 eigenvalue-minimisations  :   731
 total energy-change (2. order) : 0.2714387E+01  (-0.2837470E+00)
 number of electron     559.9999901 magnetization 
 augmentation part      241.2665957 magnetization 

 Broyden mixing:
  rms(total) = 0.23952E+01    rms(broyden)= 0.23946E+01
  rms(prec ) = 0.27518E+01
  weight for this iteration     100.00

 eigenvalues of (default mixing * dielectric matrix)
  average eigenvalue GAMMA=   0.2698
  0.8508  0.1564  0.1564  0.1036  0.0820

 Free energy of the ion-electron system (eV)
  ---------------------------------------------------
  alpha Z        PSCENC =        75.25431677
  Ewald energy   TEWEN  =    137898.14613668
  -Hartree energ DENC   =   -181854.66350052
  -exchange      EXHF   =         0.00000000
  -V(xc)+E(xc)   XCENC  =     -1697.72138040
  PAW double counting   =     45823.37716954   -42312.39160427
  entropy T*S    EENTRO =        -0.08763244
  eigenvalues    EBANDS =     -3197.95507628
  atomic energy  EATOM  =     45086.50549395
  Solvation  Ediel_sol  =         0.00000000
  ---------------------------------------------------
  free energy    TOTEN  =      -179.53607697 eV

  energy without entropy =     -179.44844453  energy(sigma->0) =     -179.51416886


--------------------------------------------------------------------------------------------------------




--------------------------------------- Iteration      1(  11)  ---------------------------------------


    POTLOK:  cpu time   13.0795: real time   13.0802
    SETDIJ:  cpu time    0.1209: real time    0.1209
    EDDIAG:  cpu time   67.0184: real time   67.0187
  RMM-DIIS:  cpu time  198.9960: real time  198.9994
    ORTHCH:  cpu time   13.9439: real time   13.9439
       DOS:  cpu time    0.0015: real time    0.0015
    CHARGE:  cpu time   25.6342: real time   25.6342
    MIXING:  cpu time    0.6067: real time    0.6067
    --------------------------------------------
      LOOP:  cpu time  319.4011: real time  319.4056

 eigenvalue-minimisations  :   731
 total energy-change (2. order) : 0.2234685E+01  (-0.1902904E+00)
 number of electron     559.9999922 magnetization 
 augmentation part      241.5547088 magnetization 

 Broyden mixing:
  rms(total) = 0.16477E+01    rms(broyden)= 0.16474E+01
  rms(prec ) = 0.19362E+01
  weight for this iteration     100.00

 eigenvalues of (default mixing * dielectric matrix)
  average eigenvalue GAMMA=   0.2594
  0.9019  0.1880  0.1880  0.1061  0.1061  0.0665

 Free energy of the ion-electron system (eV)
  ---------------------------------------------------
  alpha Z        PSCENC =        75.25431677
  Ewald energy   TEWEN  =    137898.14613668
  -Hartree energ DENC   =   -181871.89033972
  -exchange      EXHF   =         0.00000000
  -V(xc)+E(xc)   XCENC  =     -1697.59789304
  PAW double counting   =     45853.98291056   -42341.51425488
  entropy T*S    EENTRO =        -0.11363373
  eigenvalues    EBANDS =     -3180.07412893
  atomic energy  EATOM  =     45086.50549395
  Solvation  Ediel_sol  =         0.00000000
  ---------------------------------------------------
  free energy    TOTEN  =      -177.30139234 eV

  energy without entropy =     -177.18775862  energy(sigma->0) =     -177.27298391


--------------------------------------------------------------------------------------------------------




--------------------------------------- Iteration      1(  12)  ---------------------------------------


    POTLOK:  cpu time   13.1331: real time   13.1339
    SETDIJ:  cpu time    0.1212: real time    0.1212
    EDDIAG:  cpu time   67.1251: real time   67.1256
  RMM-DIIS:  cpu time  194.9104: real time  194.9135
    ORTHCH:  cpu time   14.0031: real time   14.0032
       DOS:  cpu time    0.0015: real time    0.0015
    CHARGE:  cpu time   25.7311: real time   25.7312
    MIXING:  cpu time    0.6400: real time    0.6400
    --------------------------------------------
      LOOP:  cpu time  315.6656: real time  315.6701

 eigenvalue-minimisations  :   717
 total energy-change (2. order) : 0.7465626E+00  (-0.1161816E+00)
 number of electron     559.9999911 magnetization 
 augmentation part      241.7173520 magnetization 

 Broyden mixing:
  rms(total) = 0.18321E+01    rms(broyden)= 0.18318E+01
  rms(prec ) = 0.22251E+01
  weight for this iteration     100.00

 eigenvalues of (default mixing * dielectric matrix)
  average eigenvalue GAMMA=   0.2426
  0.9158  0.2170  0.2170  0.1096  0.1096  0.0745  0.0549

 Free energy of the ion-electron system (eV)
  ---------------------------------------------------
  alpha Z        PSCENC =        75.25431677
  Ewald energy   TEWEN  =    137898.14613668
  -Hartree energ DENC   =   -181885.47656661
  -exchange      EXHF   =         0.00000000
  -V(xc)+E(xc)   XCENC  =     -1697.39972433
  PAW double counting   =     45880.15600506   -42366.35801398
  entropy T*S    EENTRO =         0.02378156
  eigenvalues    EBANDS =     -3167.40625889
  atomic energy  EATOM  =     45086.50549395
  Solvation  Ediel_sol  =         0.00000000
  ---------------------------------------------------
  free energy    TOTEN  =      -176.55482979 eV

  energy without entropy =     -176.57861135  energy(sigma->0) =     -176.56077518


--------------------------------------------------------------------------------------------------------




--------------------------------------- Iteration      1(  13)  ---------------------------------------


    POTLOK:  cpu time   13.0892: real time   13.0901
    SETDIJ:  cpu time    0.1215: real time    0.1215
    EDDIAG:  cpu time   67.0981: real time   67.0985
  RMM-DIIS:  cpu time  200.5381: real time  200.5438
    ORTHCH:  cpu time   14.0802: real time   14.0802
       DOS:  cpu time    0.0015: real time    0.0015
    CHARGE:  cpu time   25.5888: real time   25.5887
    MIXING:  cpu time    0.6880: real time    0.6880
    --------------------------------------------
      LOOP:  cpu time  321.2054: real time  321.2122

 eigenvalue-minimisations  :   734
 total energy-change (2. order) : 0.1008020E+01  (-0.6110919E-01)
 number of electron     559.9999905 magnetization 
 augmentation part      241.7703709 magnetization 

 Broyden mixing:
  rms(total) = 0.11838E+01    rms(broyden)= 0.11835E+01
  rms(prec ) = 0.13597E+01
  weight for this iteration     100.00

 eigenvalues of (default mixing * dielectric matrix)
  average eigenvalue GAMMA=   0.2569
  0.9835  0.3045  0.3045  0.1323  0.1048  0.1048  0.0759  0.0449

 Free energy of the ion-electron system (eV)
  ---------------------------------------------------
  alpha Z        PSCENC =        75.25431677
  Ewald energy   TEWEN  =    137898.14613668
  -Hartree energ DENC   =   -181898.34463564
  -exchange      EXHF   =         0.00000000
  -V(xc)+E(xc)   XCENC  =     -1697.24167341
  PAW double counting   =     45896.64153564   -42381.95280334
  entropy T*S    EENTRO =        -0.09740306
  eigenvalues    EBANDS =     -3154.45777746
  atomic energy  EATOM  =     45086.50549395
  Solvation  Ediel_sol  =         0.00000000
  ---------------------------------------------------
  free energy    TOTEN  =      -175.54680987 eV

  energy without entropy =     -175.44940681  energy(sigma->0) =     -175.52245911


--------------------------------------------------------------------------------------------------------




--------------------------------------- Iteration      1(  14)  ---------------------------------------


    POTLOK:  cpu time   13.0854: real time   13.0862
    SETDIJ:  cpu time    0.1258: real time    0.1258
    EDDIAG:  cpu time   67.1294: real time   67.1296
  RMM-DIIS:  cpu time  195.1873: real time  195.1893
    ORTHCH:  cpu time   14.0879: real time   14.0878
       DOS:  cpu time    0.0015: real time    0.0015
    CHARGE:  cpu time   25.5690: real time   25.5689
    MIXING:  cpu time    0.7277: real time    0.7277
    --------------------------------------------
      LOOP:  cpu time  315.9140: real time  315.9168

 eigenvalue-minimisations  :   718
 total energy-change (2. order) :-0.5445434E+00  (-0.9234464E-01)
 number of electron     559.9999905 magnetization 
 augmentation part      241.5919375 magnetization 

 Broyden mixing:
  rms(total) = 0.24290E+01    rms(broyden)= 0.24288E+01
  rms(prec ) = 0.28214E+01
  weight for this iteration     100.00

 eigenvalues of (default mixing * dielectric matrix)
  average eigenvalue GAMMA=   0.2600
  1.0659  0.3676  0.3676  0.1497  0.1003  0.1003  0.0905  0.0556  0.0425

 Free energy of the ion-electron system (eV)
  ---------------------------------------------------
  alpha Z        PSCENC =        75.25431677
  Ewald energy   TEWEN  =    137898.14613668
  -Hartree energ DENC   =   -181931.36202664
  -exchange      EXHF   =         0.00000000
  -V(xc)+E(xc)   XCENC  =     -1696.76479557
  PAW double counting   =     45940.55950856   -42423.41098402
  entropy T*S    EENTRO =         0.12083005
  eigenvalues    EBANDS =     -3125.13983309
  atomic energy  EATOM  =     45086.50549395
  Solvation  Ediel_sol  =         0.00000000
  ---------------------------------------------------
  free energy    TOTEN  =      -176.09135331 eV

  energy without entropy =     -176.21218336  energy(sigma->0) =     -176.12156082


--------------------------------------------------------------------------------------------------------




--------------------------------------- Iteration      1(  15)  ---------------------------------------


    POTLOK:  cpu time   13.0628: real time   13.0635
    SETDIJ:  cpu time    0.1260: real time    0.1260
    EDDIAG:  cpu time   66.9540: real time   66.9567
  RMM-DIIS:  cpu time  192.1744: real time  192.1765
    ORTHCH:  cpu time   13.9240: real time   13.9240
       DOS:  cpu time    0.0015: real time    0.0015
    CHARGE:  cpu time   25.7134: real time   25.7134
    MIXING:  cpu time    0.7804: real time    0.7804
    --------------------------------------------
      LOOP:  cpu time  312.7366: real time  312.7420

 eigenvalue-minimisations  :   709
 total energy-change (2. order) : 0.7744835E+00  (-0.1017983E+00)
 number of electron     559.9999908 magnetization 
 augmentation part      241.3331813 magnetization 

 Broyden mixing:
  rms(total) = 0.11914E+01    rms(broyden)= 0.11910E+01
  rms(prec ) = 0.13389E+01
  weight for this iteration     100.00

 eigenvalues of (default mixing * dielectric matrix)
  average eigenvalue GAMMA=   0.2895
  1.2871  0.6680  0.2210  0.1723  0.1723  0.0964  0.0964  0.0840  0.0561  0.0412

 Free energy of the ion-electron system (eV)
  ---------------------------------------------------
  alpha Z        PSCENC =        75.25431677
  Ewald energy   TEWEN  =    137898.14613668
  -Hartree energ DENC   =   -181964.81312330
  -exchange      EXHF   =         0.00000000
  -V(xc)+E(xc)   XCENC  =     -1696.24269089
  PAW double counting   =     45984.54600986   -42464.87936058
  entropy T*S    EENTRO =        -0.11257833
  eigenvalues    EBANDS =     -3093.72107395
  atomic energy  EATOM  =     45086.50549395
  Solvation  Ediel_sol  =         0.00000000
  ---------------------------------------------------
  free energy    TOTEN  =      -175.31686980 eV

  energy without entropy =     -175.20429147  energy(sigma->0) =     -175.28872522


--------------------------------------------------------------------------------------------------------




--------------------------------------- Iteration      1(  16)  ---------------------------------------


    POTLOK:  cpu time   12.9959: real time   12.9967
    SETDIJ:  cpu time    0.1255: real time    0.1255
    EDDIAG:  cpu time   67.0039: real time   67.0047
  RMM-DIIS:  cpu time  192.7448: real time  192.7482
    ORTHCH:  cpu time   13.8024: real time   13.8024
       DOS:  cpu time    0.0015: real time    0.0015
    CHARGE:  cpu time   25.6810: real time   25.6811
    MIXING:  cpu time    0.8083: real time    0.8083
    --------------------------------------------
      LOOP:  cpu time  313.1634: real time  313.1685

 eigenvalue-minimisations  :   708
 total energy-change (2. order) : 0.4362226E+00  (-0.9766816E-01)
 number of electron     559.9999915 magnetization 
 augmentation part      241.0625445 magnetization 

 Broyden mixing:
  rms(total) = 0.10328E+01    rms(broyden)= 0.10323E+01
  rms(prec ) = 0.11803E+01
  weight for this iteration     100.00

 eigenvalues of (default mixing * dielectric matrix)
  average eigenvalue GAMMA=   0.3054
  1.4374  0.7676  0.2477  0.2477  0.1737  0.0963  0.0963  0.1083  0.0861  0.0572
  0.0415

 Free energy of the ion-electron system (eV)
  ---------------------------------------------------
  alpha Z        PSCENC =        75.25431677
  Ewald energy   TEWEN  =    137898.14613668
  -Hartree energ DENC   =   -182016.06903791
  -exchange      EXHF   =         0.00000000
  -V(xc)+E(xc)   XCENC  =     -1695.50681657
  PAW double counting   =     46048.65290435   -42525.30714895
  entropy T*S    EENTRO =        -0.09107525
  eigenvalues    EBANDS =     -3046.46542027
  atomic energy  EATOM  =     45086.50549395
  Solvation  Ediel_sol  =         0.00000000
  ---------------------------------------------------
  free energy    TOTEN  =      -174.88064720 eV

  energy without entropy =     -174.78957195  energy(sigma->0) =     -174.85787839


--------------------------------------------------------------------------------------------------------




--------------------------------------- Iteration      1(  17)  ---------------------------------------


    POTLOK:  cpu time   13.0362: real time   13.0372
    SETDIJ:  cpu time    0.1217: real time    0.1217
    EDDIAG:  cpu time   66.9100: real time   66.9109
  RMM-DIIS:  cpu time  193.1742: real time  193.1755
    ORTHCH:  cpu time   13.7480: real time   13.7480
       DOS:  cpu time    0.0015: real time    0.0014
    CHARGE:  cpu time   25.7954: real time   25.7955
    MIXING:  cpu time    0.8528: real time    0.8528
    --------------------------------------------
      LOOP:  cpu time  313.6397: real time  313.6430

 eigenvalue-minimisations  :   711
 total energy-change (2. order) : 0.1180583E+00  (-0.6396540E-01)
 number of electron     559.9999914 magnetization 
 augmentation part      240.9720419 magnetization 

 Broyden mixing:
  rms(total) = 0.10396E+01    rms(broyden)= 0.10393E+01
  rms(prec ) = 0.11835E+01
  weight for this iteration     100.00

 eigenvalues of (default mixing * dielectric matrix)
  average eigenvalue GAMMA=   0.3254
  1.6403  0.8751  0.3120  0.3120  0.1503  0.1503  0.0969  0.0969  0.0860  0.0860
  0.0573  0.0414

 Free energy of the ion-electron system (eV)
  ---------------------------------------------------
  alpha Z        PSCENC =        75.25431677
  Ewald energy   TEWEN  =    137898.14613668
  -Hartree energ DENC   =   -182041.26643110
  -exchange      EXHF   =         0.00000000
  -V(xc)+E(xc)   XCENC  =     -1695.21545489
  PAW double counting   =     46073.46927401   -42548.44564313
  entropy T*S    EENTRO =        -0.01982091
  eigenvalues    EBANDS =     -3023.19046026
  atomic energy  EATOM  =     45086.50549395
  Solvation  Ediel_sol  =         0.00000000
  ---------------------------------------------------
  free energy    TOTEN  =      -174.76258887 eV

  energy without entropy =     -174.74276797  energy(sigma->0) =     -174.75763364


--------------------------------------------------------------------------------------------------------




--------------------------------------- Iteration      1(  18)  ---------------------------------------


    POTLOK:  cpu time   13.0864: real time   13.0874
    SETDIJ:  cpu time    0.1209: real time    0.1209
    EDDIAG:  cpu time   66.8895: real time   66.8903
  RMM-DIIS:  cpu time  193.2048: real time  193.2077
    ORTHCH:  cpu time   13.6510: real time   13.6511
       DOS:  cpu time    0.0016: real time    0.0016
    CHARGE:  cpu time   25.7315: real time   25.7316
    MIXING:  cpu time    0.9007: real time    0.9007
    --------------------------------------------
      LOOP:  cpu time  313.5864: real time  313.5911

 eigenvalue-minimisations  :   709
 total energy-change (2. order) :-0.3163132E-01  (-0.5129509E-01)
 number of electron     559.9999920 magnetization 
 augmentation part      241.0873408 magnetization 

 Broyden mixing:
  rms(total) = 0.12577E+01    rms(broyden)= 0.12575E+01
  rms(prec ) = 0.14522E+01
  weight for this iteration     100.00

 eigenvalues of (default mixing * dielectric matrix)
  average eigenvalue GAMMA=   0.3351
  1.7009  1.0534  0.3679  0.3679  0.1582  0.1582  0.0966  0.0966  0.0920  0.0920
  0.0735  0.0583  0.0414

 Free energy of the ion-electron system (eV)
  ---------------------------------------------------
  alpha Z        PSCENC =        75.25431677
  Ewald energy   TEWEN  =    137898.14613668
  -Hartree energ DENC   =   -182059.84062276
  -exchange      EXHF   =         0.00000000
  -V(xc)+E(xc)   XCENC  =     -1694.96196979
  PAW double counting   =     46090.98075483   -42564.52809292
  entropy T*S    EENTRO =         0.04245568
  eigenvalues    EBANDS =     -3006.39269263
  atomic energy  EATOM  =     45086.50549395
  Solvation  Ediel_sol  =         0.00000000
  ---------------------------------------------------
  free energy    TOTEN  =      -174.79422019 eV

  energy without entropy =     -174.83667587  energy(sigma->0) =     -174.80483411


--------------------------------------------------------------------------------------------------------




--------------------------------------- Iteration      1(  19)  ---------------------------------------


    POTLOK:  cpu time   13.0633: real time   13.0640
    SETDIJ:  cpu time    0.1219: real time    0.1219
    EDDIAG:  cpu time   66.8778: real time   66.8784
  RMM-DIIS:  cpu time  193.7380: real time  193.7413
    ORTHCH:  cpu time   13.6768: real time   13.6769
       DOS:  cpu time    0.0016: real time    0.0016
    CHARGE:  cpu time   25.9244: real time   25.9278
    MIXING:  cpu time    1.0363: real time    1.0364
    --------------------------------------------
      LOOP:  cpu time  314.4402: real time  314.4484

 eigenvalue-minimisations  :   712
 total energy-change (2. order) : 0.1803405E+00  (-0.4084323E-01)
 number of electron     559.9999907 magnetization 
 augmentation part      241.1341636 magnetization 

 Broyden mixing:
  rms(total) = 0.88468E+00    rms(broyden)= 0.88449E+00
  rms(prec ) = 0.10167E+01
  weight for this iteration     100.00

 eigenvalues of (default mixing * dielectric matrix)
  average eigenvalue GAMMA=   0.3384
  1.7713  1.1672  0.3934  0.3934  0.1801  0.1801  0.0972  0.0972  0.1019  0.1019
  0.0856  0.0688  0.0587  0.0414

 Free energy of the ion-electron system (eV)
  ---------------------------------------------------
  alpha Z        PSCENC =        75.25431677
  Ewald energy   TEWEN  =    137898.14613668
  -Hartree energ DENC   =   -182076.19168456
  -exchange      EXHF   =         0.00000000
  -V(xc)+E(xc)   XCENC  =     -1694.87065426
  PAW double counting   =     46093.49788681   -42566.30194271
  entropy T*S    EENTRO =         0.00593056
  eigenvalues    EBANDS =     -2990.65936297
  atomic energy  EATOM  =     45086.50549395
  Solvation  Ediel_sol  =         0.00000000
  ---------------------------------------------------
  free energy    TOTEN  =      -174.61387973 eV

  energy without entropy =     -174.61981028  energy(sigma->0) =     -174.61536237


--------------------------------------------------------------------------------------------------------




--------------------------------------- Iteration      1(  20)  ---------------------------------------


    POTLOK:  cpu time   12.9311: real time   12.9319
    SETDIJ:  cpu time    0.1193: real time    0.1193
    EDDIAG:  cpu time   66.8420: real time   66.8436
  RMM-DIIS:  cpu time  194.1513: real time  194.1542
    ORTHCH:  cpu time   13.5258: real time   13.5258
       DOS:  cpu time    0.0015: real time    0.0015
    CHARGE:  cpu time   25.7538: real time   25.7538
    MIXING:  cpu time    1.0870: real time    1.0871
    --------------------------------------------
      LOOP:  cpu time  314.4119: real time  314.4171

 eigenvalue-minimisations  :   715
 total energy-change (2. order) : 0.1390845E+00  (-0.2711239E-01)
 number of electron     559.9999912 magnetization 
 augmentation part      241.1963631 magnetization 

 Broyden mixing:
  rms(total) = 0.89069E+00    rms(broyden)= 0.89056E+00
  rms(prec ) = 0.10318E+01
  weight for this iteration     100.00

 eigenvalues of (default mixing * dielectric matrix)
  average eigenvalue GAMMA=   0.3378
  1.8270  1.2671  0.4045  0.4045  0.2051  0.2051  0.0967  0.0967  0.1143  0.1143
  0.0414  0.0587  0.0805  0.0805  0.0709

 Free energy of the ion-electron system (eV)
  ---------------------------------------------------
  alpha Z        PSCENC =        75.25431677
  Ewald energy   TEWEN  =    137898.14613668
  -Hartree energ DENC   =   -182089.90002054
  -exchange      EXHF   =         0.00000000
  -V(xc)+E(xc)   XCENC  =     -1694.75215802
  PAW double counting   =     46095.53395426   -42567.70338945
  entropy T*S    EENTRO =        -0.01343522
  eigenvalues    EBANDS =     -2977.54569362
  atomic energy  EATOM  =     45086.50549395
  Solvation  Ediel_sol  =         0.00000000
  ---------------------------------------------------
  free energy    TOTEN  =      -174.47479519 eV

  energy without entropy =     -174.46135996  energy(sigma->0) =     -174.47143638


--------------------------------------------------------------------------------------------------------




--------------------------------------- Iteration      1(  21)  ---------------------------------------


    POTLOK:  cpu time   12.9708: real time   12.9714
    SETDIJ:  cpu time    0.1193: real time    0.1193
    EDDIAG:  cpu time   66.6209: real time   66.6214
  RMM-DIIS:  cpu time  194.8412: real time  194.8452
    ORTHCH:  cpu time   13.5082: real time   13.5082
       DOS:  cpu time    0.0016: real time    0.0016
    CHARGE:  cpu time   25.7405: real time   25.7405
    MIXING:  cpu time    1.1133: real time    1.1133
    --------------------------------------------
      LOOP:  cpu time  314.9157: real time  314.9209

 eigenvalue-minimisations  :   717
 total energy-change (2. order) :-0.4952154E-02  (-0.2023056E-01)
 number of electron     559.9999918 magnetization 
 augmentation part      241.1808000 magnetization 

 Broyden mixing:
  rms(total) = 0.86724E+00    rms(broyden)= 0.86708E+00
  rms(prec ) = 0.10502E+01
  weight for this iteration     100.00

 eigenvalues of (default mixing * dielectric matrix)
  average eigenvalue GAMMA=   0.3355
  1.9062  1.3069  0.3838  0.3838  0.2877  0.2234  0.1382  0.1382  0.0969  0.0969
  0.0889  0.0889  0.0731  0.0414  0.0570  0.0570

 Free energy of the ion-electron system (eV)
  ---------------------------------------------------
  alpha Z        PSCENC =        75.25431677
  Ewald energy   TEWEN  =    137898.14613668
  -Hartree energ DENC   =   -182103.48082451
  -exchange      EXHF   =         0.00000000
  -V(xc)+E(xc)   XCENC  =     -1694.63201681
  PAW double counting   =     46096.75157905   -42568.34327617
  entropy T*S    EENTRO =        -0.02184062
  eigenvalues    EBANDS =     -2964.65931568
  atomic energy  EATOM  =     45086.50549395
  Solvation  Ediel_sol  =         0.00000000
  ---------------------------------------------------
  free energy    TOTEN  =      -174.47974734 eV

  energy without entropy =     -174.45790672  energy(sigma->0) =     -174.47428719


--------------------------------------------------------------------------------------------------------




--------------------------------------- Iteration      1(  22)  ---------------------------------------


    POTLOK:  cpu time   12.9880: real time   12.9886
    SETDIJ:  cpu time    0.1188: real time    0.1188
    EDDIAG:  cpu time   66.8238: real time   66.8247
  RMM-DIIS:  cpu time  193.1790: real time  193.1813
    ORTHCH:  cpu time   13.4465: real time   13.4465
       DOS:  cpu time    0.0014: real time    0.0014
    CHARGE:  cpu time   25.7093: real time   25.7095
    MIXING:  cpu time    1.2411: real time    1.2411
    --------------------------------------------
      LOOP:  cpu time  313.5078: real time  313.5120

 eigenvalue-minimisations  :   711
 total energy-change (2. order) : 0.1187231E+00  (-0.1502422E-01)
 number of electron     559.9999926 magnetization 
 augmentation part      241.1828666 magnetization 

 Broyden mixing:
  rms(total) = 0.84777E+00    rms(broyden)= 0.84762E+00
  rms(prec ) = 0.10135E+01
  weight for this iteration     100.00

 eigenvalues of (default mixing * dielectric matrix)
  average eigenvalue GAMMA=   0.3472
  2.0390  1.3697  0.6295  0.3573  0.3573  0.1604  0.1604  0.1418  0.0967  0.0967
  0.1125  0.0842  0.0842  0.0642  0.0587  0.0414  0.0489

 Free energy of the ion-electron system (eV)
  ---------------------------------------------------
  alpha Z        PSCENC =        75.25431677
  Ewald energy   TEWEN  =    137898.14613668
  -Hartree energ DENC   =   -182115.88467942
  -exchange      EXHF   =         0.00000000
  -V(xc)+E(xc)   XCENC  =     -1694.48833712
  PAW double counting   =     46098.03484213   -42569.08891069
  entropy T*S    EENTRO =        -0.05001800
  eigenvalues    EBANDS =     -2952.78986849
  atomic energy  EATOM  =     45086.50549395
  Solvation  Ediel_sol  =         0.00000000
  ---------------------------------------------------
  free energy    TOTEN  =      -174.36102420 eV

  energy without entropy =     -174.31100620  energy(sigma->0) =     -174.34851970


--------------------------------------------------------------------------------------------------------




--------------------------------------- Iteration      1(  23)  ---------------------------------------


    POTLOK:  cpu time   13.0200: real time   13.0205
    SETDIJ:  cpu time    0.1215: real time    0.1215
    EDDIAG:  cpu time   66.7259: real time   66.7269
  RMM-DIIS:  cpu time  192.6535: real time  192.6588
    ORTHCH:  cpu time   13.3408: real time   13.3407
       DOS:  cpu time    0.0015: real time    0.0015
    CHARGE:  cpu time   25.7703: real time   25.7702
    MIXING:  cpu time    1.2178: real time    1.2178
    --------------------------------------------
      LOOP:  cpu time  312.8513: real time  312.8579

 eigenvalue-minimisations  :   706
 total energy-change (2. order) : 0.1608966E+00  (-0.1671384E-01)
 number of electron     559.9999915 magnetization 
 augmentation part      241.1792299 magnetization 

 Broyden mixing:
  rms(total) = 0.62642E+00    rms(broyden)= 0.62621E+00
  rms(prec ) = 0.73998E+00
  weight for this iteration     100.00

 eigenvalues of (default mixing * dielectric matrix)
  average eigenvalue GAMMA=   0.3467
  2.0639  1.4442  0.7193  0.3584  0.3584  0.1728  0.1728  0.1473  0.1473  0.0970
[...]
 -0.006  -0.012   0.004   0.004   0.006  -0.006  -0.011   0.004
 -0.011  -0.020   0.006   0.006   0.009  -0.010  -0.019   0.006
 -0.015  -0.005   0.013   0.000   0.022  -0.014  -0.005   0.012
  0.000  -0.023  -0.006  -0.015  -0.000   0.000  -0.022  -0.006
 -0.022   0.000   0.009  -0.005  -0.016  -0.021   0.000   0.008
 -0.017  -0.006   0.015   0.000   0.027  -0.017  -0.006   0.015
  0.000  -0.027  -0.007  -0.018   0.000   0.000  -0.027  -0.007
 -0.027   0.000   0.010  -0.006  -0.019  -0.026   0.000   0.010
 total augmentation occupancy for first ion, spin component:           1
  1.537  -0.030   0.003   0.019   0.023   0.076  -0.008  -0.001   0.035  -0.010   0.091  -0.031   0.012   0.001   0.002  -0.019
 -0.030   1.402   0.030   0.067   0.003  -0.007   0.071   0.011  -0.013  -0.008   0.215  -0.065   0.019   0.003   0.002  -0.006
  0.003   0.030   1.544   0.003   0.000  -0.001   0.012   0.073  -0.013   0.017  -0.055   0.019  -0.003  -0.007  -0.005   0.016
  0.019   0.067   0.003   1.336   0.045   0.033  -0.012  -0.013   0.091  -0.022  -0.077   0.019  -0.001  -0.007  -0.004   0.001
  0.023   0.003   0.000   0.045   1.441  -0.010  -0.009   0.016  -0.022   0.067  -0.097   0.031  -0.002  -0.010  -0.010   0.026
  0.076  -0.007  -0.001   0.033  -0.010   0.217   0.019  -0.002  -0.045   0.004  -0.048   0.002   0.017  -0.010   0.034  -0.004
 -0.008   0.071   0.012  -0.012  -0.009   0.019   0.262  -0.023  -0.004   0.006  -0.109   0.007  -0.001   0.051  -0.010  -0.000
 -0.001   0.011   0.073  -0.013   0.016  -0.002  -0.023   0.215   0.014  -0.020   0.028  -0.001  -0.012   0.009  -0.018   0.003
  0.035  -0.013  -0.013   0.091  -0.022  -0.045  -0.004   0.014   0.260   0.007   0.043  -0.004  -0.009   0.036   0.004   0.000
 -0.010  -0.008   0.017  -0.022   0.067   0.004   0.006  -0.020   0.007   0.258   0.047  -0.002  -0.038   0.002   0.049   0.007
  0.091   0.215  -0.055  -0.077  -0.097  -0.048  -0.109   0.028   0.043   0.047   0.950  -0.141   0.084   0.014   0.064  -0.013
 -0.031  -0.065   0.019   0.019   0.031   0.002   0.007  -0.001  -0.004  -0.002  -0.141   0.023  -0.014  -0.003  -0.010   0.003
  0.012   0.019  -0.003  -0.001  -0.002   0.017  -0.001  -0.012  -0.009  -0.038   0.084  -0.014   0.029  -0.008  -0.004  -0.003
  0.001   0.003  -0.007  -0.007  -0.010  -0.010   0.051   0.009   0.036   0.002   0.014  -0.003  -0.008   0.036   0.004   0.000
  0.002   0.002  -0.005  -0.004  -0.010   0.034  -0.010  -0.018   0.004   0.049   0.064  -0.010  -0.004   0.004   0.035  -0.000
 -0.019  -0.006   0.016   0.001   0.026  -0.004  -0.000   0.003   0.000   0.007  -0.013   0.003  -0.003   0.000  -0.000   0.001
  0.001  -0.028  -0.007  -0.018   0.001   0.001  -0.008  -0.001  -0.006  -0.000  -0.003   0.001   0.000  -0.003  -0.000   0.000
 -0.028   0.001   0.012  -0.005  -0.020  -0.006   0.001   0.003  -0.001  -0.007  -0.008   0.001  -0.000  -0.000  -0.003   0.000


------------------------ aborting loop because EDIFF is reached ----------------------------------------


    CHARGE:  cpu time   25.2367: real time   25.2368
    FORLOC:  cpu time    6.7308: real time    6.7309
    FORNL :  cpu time   65.7230: real time   65.7339
    STRESS:  cpu time  200.0396: real time  200.0551
    FORCOR:  cpu time   22.0426: real time   22.0427
    FORHAR:  cpu time    9.7725: real time    9.7726
    MIXING:  cpu time    3.8022: real time    3.8022
    OFIELD:  cpu time    0.0000: real time    0.0000

  FORCE on cell =-STRESS in cart. coord.  units (eV):
  Direction    XX          YY          ZZ          XY          YZ          ZX
  --------------------------------------------------------------------------------------
  Alpha Z    75.25432    75.25432    75.25432
  Ewald   43895.47751 43895.43136 50107.13149    -0.02237     7.09664   -12.80958
  Hartree 58819.87854 58819.97084 64634.54840    -0.02323     6.32291   -11.55376
  E(xc)   -2904.99310 -2904.99345 -2902.53171    -0.00009     0.00743    -0.01315
  Local  ************************************     0.04446   -13.32939    24.20639
  n-local  -881.30374  -881.30592  -895.52226     0.00143    -0.03871     0.07019
  augment  4104.39615  4104.39696  4102.55633     0.00051    -0.00660     0.01152
  Kinetic  7811.40215  7811.40466  7787.32114     0.00069    -0.06302     0.11233
  Fock        0.00000     0.00000     0.00000     0.00000     0.00000     0.00000
  -------------------------------------------------------------------------------------
  Total    -113.54867  -113.55526  -113.72914     0.00140    -0.01073     0.02395
  in kB      -6.73797    -6.73836    -6.74868     0.00008    -0.00064     0.00142
  external pressure =       -6.74 kB  Pullay stress =        0.00 kB


 VOLUME and BASIS-vectors are now :
 -----------------------------------------------------------------------------
  energy-cutoff  :      400.00
  volume of cell :    27000.00
      direct lattice vectors                 reciprocal lattice vectors
    30.000000000  0.000000000  0.000000000     0.033333333  0.000000000  0.000000000
     0.000000000 30.000000000  0.000000000     0.000000000  0.033333333  0.000000000
     0.000000000  0.000000000 30.000000000     0.000000000  0.000000000  0.033333333

  length of vectors
    30.000000000 30.000000000 30.000000000     0.033333333  0.033333333  0.033333333


 FORCES acting on ions
    electron-ion (+dipol)            ewald-force                    non-local-force                 convergence-correction
 -----------------------------------------------------------------------------------------------
   0.398E+03 0.984E+03 0.400E+03   -.396E+03 -.981E+03 -.400E+03   -.151E+01 -.183E+01 -.210E+00   -.517E-03 -.305E-02 -.768E-03
   -.984E+03 -.398E+03 0.400E+03   0.981E+03 0.396E+03 -.399E+03   0.183E+01 0.151E+01 -.210E+00   0.135E-02 0.225E-02 0.400E-02
   -.398E+03 0.984E+03 0.400E+03   0.396E+03 -.981E+03 -.399E+03   0.151E+01 -.183E+01 -.210E+00   0.152E-02 -.187E-02 0.101E-02
   0.984E+03 -.398E+03 0.400E+03   -.981E+03 0.396E+03 -.400E+03   -.183E+01 0.151E+01 -.210E+00   -.732E-03 0.522E-02 0.370E-03
   0.313E+00 0.628E+03 0.923E+03   -.313E+00 -.627E+03 -.919E+03   0.159E-03 -.219E+00 -.235E+01   -.684E-04 -.826E-03 -.382E-02
   0.117E-01 0.588E+03 -.967E+03   -.157E-01 -.587E+03 0.963E+03   -.100E-03 -.306E+00 0.235E+01   0.416E-02 0.295E-02 -.181E-03
   0.271E-01 0.114E+04 -.807E+01   -.284E-01 -.113E+04 0.806E+01   0.487E-04 -.311E+01 0.462E-02   0.129E-02 -.105E-02 0.290E-02
   0.114E+04 -.191E-01 -.800E+01   -.113E+04 0.155E-01 0.799E+01   -.311E+01 -.524E-04 0.440E-02   -.302E-02 0.369E-02 0.753E-03
   -.114E+04 -.186E-01 -.809E+01   0.113E+04 0.157E-01 0.808E+01   0.310E+01 -.169E-05 0.472E-02   -.382E-02 0.294E-02 0.384E-02
   0.264E-01 -.114E+04 -.802E+01   -.282E-01 0.113E+04 0.801E+01   0.507E-04 0.311E+01 0.443E-02   0.179E-02 -.101E-02 0.345E-02
   -.601E+03 0.601E+03 0.788E+03   0.598E+03 -.598E+03 -.785E+03   0.155E+01 -.155E+01 -.220E+01   0.224E-02 -.508E-04 -.155E-02
   -.579E+03 0.579E+03 -.814E+03   0.577E+03 -.577E+03 0.811E+03   0.156E+01 -.156E+01 0.220E+01   0.739E-03 0.522E-02 -.313E-02
   0.600E+03 -.600E+03 0.788E+03   -.598E+03 0.598E+03 -.785E+03   -.155E+01 0.155E+01 -.220E+01   0.219E-03 0.214E-02 0.274E-03
   0.579E+03 -.579E+03 -.814E+03   -.577E+03 0.577E+03 0.811E+03   -.156E+01 0.156E+01 0.220E+01   0.330E-02 0.191E-02 0.185E-02
   0.601E+03 0.600E+03 0.788E+03   -.598E+03 -.598E+03 -.785E+03   -.155E+01 -.155E+01 -.220E+01   0.181E-03 -.404E-02 -.402E-02
   0.579E+03 0.579E+03 -.814E+03   -.577E+03 -.577E+03 0.811E+03   -.156E+01 -.156E+01 0.220E+01   0.181E-02 -.857E-03 0.294E-02
   -.600E+03 -.601E+03 0.788E+03   0.598E+03 0.598E+03 -.785E+03   0.155E+01 0.155E+01 -.220E+01   0.253E-02 -.197E-03 0.179E-02
   -.579E+03 -.579E+03 -.814E+03   0.577E+03 0.577E+03 0.811E+03   0.156E+01 0.156E+01 0.220E+01   -.134E-02 -.360E-02 -.350E-02
   0.395E+03 0.974E+03 -.422E+03   -.393E+03 -.971E+03 0.421E+03   -.150E+01 -.182E+01 0.219E+00   0.259E-02 -.149E-02 0.179E-02
   -.974E+03 -.395E+03 -.422E+03   0.971E+03 0.393E+03 0.421E+03   0.182E+01 0.150E+01 0.218E+00   -.333E-02 -.513E-03 0.143E-02
   -.330E+03 0.330E+03 0.420E+03   0.331E+03 -.331E+03 -.420E+03   -.318E+00 0.318E+00 0.523E+00   0.380E-02 0.331E-02 0.218E-02
   0.984E+03 0.398E+03 0.400E+03   -.981E+03 -.396E+03 -.400E+03   -.183E+01 -.151E+01 -.210E+00   -.276E-02 0.108E-02 0.702E-03
   -.398E+03 -.984E+03 0.400E+03   0.396E+03 0.981E+03 -.400E+03   0.151E+01 0.183E+01 -.210E+00   0.288E-02 -.151E-02 0.151E-02
   -.395E+03 0.974E+03 -.422E+03   0.393E+03 -.971E+03 0.421E+03   0.150E+01 -.182E+01 0.218E+00   0.305E-02 0.208E-02 0.154E-02
   0.974E+03 -.395E+03 -.422E+03   -.971E+03 0.393E+03 0.421E+03   -.182E+01 0.150E+01 0.219E+00   0.383E-03 0.473E-02 0.275E-02
   -.984E+03 0.398E+03 0.400E+03   0.981E+03 -.396E+03 -.399E+03   0.183E+01 -.151E+01 -.210E+00   0.336E-02 0.418E-02 0.438E-02
   0.398E+03 -.984E+03 0.400E+03   -.396E+03 0.981E+03 -.400E+03   -.151E+01 0.183E+01 -.210E+00   -.134E-03 -.801E-03 -.493E-03
   0.331E+03 0.330E+03 0.420E+03   -.331E+03 -.331E+03 -.421E+03   0.317E+00 0.316E+00 0.526E+00   0.221E-02 0.154E-02 -.341E-03
   0.452E-01 0.644E+03 -.146E+02   -.494E-01 -.645E+03 0.145E+02   -.132E-04 0.734E+00 0.135E-01   0.415E-02 -.725E-03 0.598E-02
   -.628E+03 -.178E+00 0.923E+03   0.627E+03 0.174E+00 -.919E+03   0.219E+00 -.210E-03 -.235E+01   0.273E-02 0.456E-02 0.114E-02
   -.588E+03 -.127E-01 -.967E+03   0.587E+03 0.850E-02 0.963E+03   0.306E+00 0.536E-04 0.235E+01   -.501E-03 0.415E-02 -.488E-02
   0.628E+03 -.174E+00 0.924E+03   -.627E+03 0.170E+00 -.920E+03   -.222E+00 -.239E-03 -.235E+01   0.116E-02 0.470E-02 -.159E-02
   0.588E+03 -.137E-01 -.967E+03   -.587E+03 0.848E-02 0.963E+03   -.306E+00 -.461E-04 0.235E+01   0.374E-02 0.534E-02 0.313E-02
   0.765E+03 0.765E+03 -.113E+02   -.763E+03 -.763E+03 0.113E+02   -.113E+01 -.113E+01 -.123E-01   0.134E-03 -.332E-02 0.199E-02
   -.765E+03 -.765E+03 -.113E+02   0.763E+03 0.763E+03 0.113E+02   0.113E+01 0.113E+01 -.119E-01   0.299E-02 -.317E-02 0.537E-02
   -.765E+03 0.765E+03 -.114E+02   0.763E+03 -.763E+03 0.114E+02   0.113E+01 -.113E+01 -.117E-01   0.362E-02 0.281E-02 0.684E-02
   0.765E+03 -.765E+03 -.113E+02   -.763E+03 0.763E+03 0.113E+02   -.113E+01 0.113E+01 -.125E-01   0.726E-03 0.843E-03 0.116E-02
   0.122E+01 -.680E+00 0.921E+03   -.122E+01 0.673E+00 -.920E+03   0.163E-02 -.926E-03 -.974E+00   0.189E-02 0.345E-02 -.203E-02
   0.108E-01 -.145E-01 -.107E+04   -.172E-01 0.957E-02 0.107E+04   -.190E-03 0.945E-04 0.162E+01   0.668E-02 0.476E-02 -.369E-03
   0.974E+03 0.395E+03 -.422E+03   -.971E+03 -.393E+03 0.421E+03   -.182E+01 -.150E+01 0.219E+00   -.881E-03 0.148E-02 0.145E-02
   -.395E+03 -.974E+03 -.422E+03   0.393E+03 0.971E+03 0.421E+03   0.150E+01 0.182E+01 0.219E+00   0.245E-02 -.530E-02 0.366E-02
   -.322E+03 0.322E+03 -.461E+03   0.323E+03 -.323E+03 0.462E+03   -.364E+00 0.364E+00 -.521E+00   0.625E-02 0.542E-02 0.390E-02
   0.331E+03 -.331E+03 0.420E+03   -.331E+03 0.331E+03 -.421E+03   0.316E+00 -.316E+00 0.528E+00   0.147E-02 0.424E-02 -.205E-03
   0.322E+03 0.322E+03 -.461E+03   -.323E+03 -.323E+03 0.461E+03   0.364E+00 0.364E+00 -.521E+00   0.641E-02 0.237E-02 0.375E-02
   -.974E+03 0.395E+03 -.422E+03   0.971E+03 -.393E+03 0.421E+03   0.182E+01 -.150E+01 0.218E+00   -.210E-02 0.560E-02 0.962E-03
   0.395E+03 -.974E+03 -.422E+03   -.393E+03 0.971E+03 0.421E+03   -.150E+01 0.182E+01 0.219E+00   0.318E-02 -.185E-02 0.502E-02
   -.330E+03 -.331E+03 0.420E+03   0.331E+03 0.331E+03 -.420E+03   -.317E+00 -.317E+00 0.525E+00   0.399E-02 0.281E-02 0.239E-02
   0.644E+03 -.320E-01 -.145E+02   -.645E+03 0.271E-01 0.145E+02   0.734E+00 0.302E-05 0.128E-01   0.767E-03 0.497E-02 0.152E-02
   -.644E+03 -.317E-01 -.146E+02   0.645E+03 0.273E-01 0.146E+02   -.734E+00 0.503E-04 0.137E-01   0.466E-02 0.437E-02 0.806E-02
   0.308E+00 -.628E+03 0.924E+03   -.309E+00 0.627E+03 -.920E+03   0.199E-03 0.222E+00 -.235E+01   0.381E-03 -.341E-03 -.331E-03
   0.122E-01 -.588E+03 -.967E+03   -.157E-01 0.587E+03 0.963E+03   -.863E-04 0.306E+00 0.235E+01   0.357E-02 -.181E-02 -.380E-03
   0.583E-01 -.405E-01 -.192E+02   -.642E-01 0.356E-01 0.192E+02   0.574E-04 -.662E-04 0.920E-02   0.585E-02 0.499E-02 0.591E-02
   0.322E+03 -.322E+03 -.461E+03   -.323E+03 0.323E+03 0.461E+03   0.365E+00 -.365E+00 -.521E+00   0.581E-02 0.402E-02 0.602E-02
   -.322E+03 -.322E+03 -.461E+03   0.323E+03 0.323E+03 0.461E+03   -.364E+00 -.364E+00 -.521E+00   0.579E-02 0.697E-03 0.533E-02
   0.446E-01 -.644E+03 -.145E+02   -.492E-01 0.645E+03 0.145E+02   -.485E-04 -.734E+00 0.130E-01   0.462E-02 -.546E-03 0.482E-02
   -.507E+00 0.280E+00 0.189E+03   0.415E+00 -.230E+00 -.161E+03   0.735E-01 -.414E-01 -.243E+02   0.418E-03 0.448E-03 0.145E-03
   -.204E+01 0.113E+01 0.692E+03   0.224E+01 -.124E+01 -.756E+03   -.202E+00 0.113E+00 0.610E+02   0.430E-03 0.475E-03 0.436E-03
 -----------------------------------------------------------------------------------------------
   0.184E-01 -.147E+00 -.376E+02   0.608E-12 -.895E-12 -.159E-11   -.134E+00 0.745E-01 0.375E+02   0.104E+00 0.778E-01 0.909E-01
 
 
 POSITION                                       TOTAL-FORCE (eV/Angst)
 -----------------------------------------------------------------------------------
     13.37281      9.84801     12.50759         0.702077      1.107329      0.290598
     20.15199     16.62719     12.50759        -1.107330     -0.702080      0.290685
     16.62719      9.84801     12.50759        -0.701560      1.107141      0.290715
      9.84801     16.62719     12.50759         1.107631     -0.701947      0.290695
     15.00000     11.47521     10.20639         0.000092      0.383813      1.314902
     15.00000     11.47521     19.79360         0.000180      0.408982     -1.281588
     15.00000      8.28283     15.00000         0.000202      1.513857     -0.001421
      8.28283     15.00000     15.00000         1.514364     -0.000067     -0.001392
     21.71717     15.00000     15.00000        -1.513821     -0.000074     -0.001412
     15.00000     21.71717     15.00000         0.000205     -1.514104     -0.001377
     18.35858     11.64142     10.25025        -0.755103      0.755159      1.073079
     18.35858     11.64142     19.74975        -0.754780      0.754923     -1.073391
     11.64142     18.35858     10.25025         0.755681     -0.755619      1.073108
     11.64142     18.35858     19.74975         0.755336     -0.755217     -1.073556
     11.64142     11.64142     10.25025         0.755624      0.755331      1.073072
     11.64142     11.64142     19.74975         0.755250      0.754889     -1.073404
     18.35858     18.35858     10.25025        -0.755205     -0.755463      1.073128
     18.35858     18.35858     19.74975        -0.754845     -0.755250     -1.073509
     13.37281      9.84801     17.49241         0.702308      1.107632     -0.292302
     20.15199     16.62719     17.49241        -1.107718     -0.702356     -0.292279
     16.73751     13.26249     12.54279         0.110804     -0.110823     -0.153556
      9.84801     13.37281     12.50759         1.107339      0.701581      0.290712
     16.62719     20.15199     12.50759        -0.701494     -1.107345      0.290712
     16.62719      9.84801     17.49241        -0.701982      1.107675     -0.292292
      9.84801     16.62719     17.49241         1.107917     -0.702224     -0.292369
     20.15199     13.37281     12.50759        -1.107126      0.701769      0.290717
     13.37281     20.15199     12.50759         0.702003     -1.107471      0.290603
     13.26249     13.26249     12.54279        -0.109539     -0.109373     -0.154369
     15.00000     11.52498     15.00000         0.000163     -0.221064      0.000665
     18.52479     15.00000     10.20639        -0.383444     -0.000029      1.314897
     18.52479     15.00000     19.79360        -0.408878     -0.000055     -1.281748
     11.47521     15.00000     10.20640         0.384935     -0.000023      1.314381
     11.47521     15.00000     19.79360         0.409269     -0.000075     -1.281509
     11.49535     11.49535     15.00000         0.821615      0.821399      0.011011
     18.50465     18.50465     15.00000        -0.821366     -0.821650      0.010957
     18.50465     11.49535     15.00000        -0.821401      0.821489      0.010849
     11.49535     18.50465     15.00000         0.821536     -0.821507      0.011089
     15.00000     15.00000     10.04368         0.008233     -0.004555     -0.090135
     15.00000     15.00000     19.95633         0.000298     -0.000146     -1.183129
      9.84801     13.37281     17.49241         1.107755      0.701932     -0.292344
     16.62719     20.15199     17.49241        -0.701951     -1.107867     -0.292292
     16.73751     13.26249     17.45721         0.113012     -0.112868      0.155752
     13.26249     16.73751     12.54279        -0.108765      0.108734     -0.154874
     13.26249     13.26249     17.45721        -0.112558     -0.112860      0.155739
     20.15199     13.37281     17.49241        -1.107616      0.702161     -0.292265
     13.37281     20.15199     17.49241         0.702306     -1.107825     -0.292297
     16.73751     16.73751     12.54279         0.109996      0.110177     -0.153999
     11.52498     15.00000     15.00000        -0.220845     -0.000052      0.000539
     18.47502     15.00000     15.00000         0.221176     -0.000055      0.000708
     15.00000     18.52480     10.20639         0.000113     -0.384656      1.314670
     15.00000     18.52480     19.79360         0.000191     -0.409202     -1.281740
     15.00000     15.00000     15.00000         0.000212     -0.000060     -0.009104
     13.26249     16.73751     17.45721        -0.112569      0.112691      0.155788
     16.73751     16.73751     17.45721         0.113038      0.112689      0.155789
     15.00000     18.47502     15.00000         0.000166      0.220850      0.000587
     15.02401     14.98670      7.42353        -0.017879      0.009185      3.832320
     15.02758     14.98472      6.29554        -0.003250      0.002574     -2.714812
 -----------------------------------------------------------------------------------
    total drift:                               -0.011149      0.005762      0.010276


--------------------------------------------------------------------------------------------------------



  FREE ENERGIE OF THE ION-ELECTRON SYSTEM (eV)
  ---------------------------------------------------
  free  energy   TOTEN  =      -173.94987678 eV

  energy  without entropy=     -173.86817023  energy(sigma->0) =     -173.92945014
 


--------------------------------------------------------------------------------------------------------


    POTLOK:  cpu time   13.8382: real time   13.8393


--------------------------------------------------------------------------------------------------------


     LOOP+:  cpu time18246.8629: real time18247.3807
    4ORBIT:  cpu time    0.0000: real time    0.0000

 total amount of memory used by VASP MPI-rank0  5486941. kBytes
=======================================================================

   base      :      30000. kBytes
   nonlr-proj:      17126. kBytes
   fftplans  :     924480. kBytes
   grid      :    1872000. kBytes
   one-center:        886. kBytes
   wavefun   :    2642449. kBytes
 
  
  
 General timing and accounting informations for this job:
 ========================================================
  
                  Total CPU time used (sec):    18321.205
                            User time (sec):    17338.107
                          System time (sec):      983.099
                         Elapsed time (sec):    18321.786
  
                   Maximum memory used (kb):     7178976.
                   Average memory used (kb):           0.
  
                          Minor page faults:    813079130
                          Major page faults:            0
                 Voluntary context switches:          305
