<?xml version="1.0" encoding="ISO-8859-1"?>
<modeling>
 <generator>
  <i name="program" type="string">vasp </i>
  <i name="version" type="string">5.4.4.18Apr17-6-g9f103f2a35  </i>
  <i name="subversion" type="string">(build Sep 03 2018 23:53:05) complex            parallel </i>
  <i name="platform" type="string">LinuxIFC </i>
  <i name="date" type="string">2021 11 26 </i>
  <i name="time" type="string">11:15:41 </i>
 </generator>
 <incar>
  <i type="string" name="SYSTEM"> 6_Pd100_top_free_z(O)</i>
  <i type="int" name="ISTART">     0</i>
  <i type="string" name="PREC">normal   			! encut=max(enmax), ngx,y,z</i>
  <i type="string" name="ALGO"> Fast     			! Mix RMM-DIIS and Dav</i>
  <i type="logical" name="ADDGRID"> F  </i>
  <i type="int" name="ISPIN">     1</i>
  <i type="int" name="ICHARG">     2</i>
  <i type="int" name="NELM">   100</i>
  <i type="int" name="NELMIN">     6</i>
  <i type="int" name="IBRION">     2</i>
  <i name="EDIFF">      0.00010000</i>
  <i name="EDIFFG">     -0.05000000</i>
  <i type="int" name="NSW">     0</i>
  <i type="int" name="ISIF">     2</i>
  <i type="int" name="ISYM">     2</i>
  <i name="ENCUT">    400.00000000</i>
  <i type="string" name="LREAL"> Auto     			! Auto or A projection done</i>
  <i type="int" name="ISMEAR">     2</i>
  <i name="SIGMA">      0.20000000</i>
  <i type="logical" name="LWAVE"> F  </i>
  <i type="logical" name="LCHARG"> F  </i>
  <v type="int" name="KPOINT_BSE">    -1     0     0     0</v>
  <i type="int" name="MAXMEM"> 10000</i>
  <i type="int" name="NELM">   100</i>
  <i type="string" name="GGA"> RP         			! Revised PBE</i>
 </incar>
 <structure name="primitive_cell" >
  <crystal>
   <varray name="basis" >
    <v>      30.00000000       0.00000000       0.00000000 </v>
    <v>       0.00000000      30.00000000       0.00000000 </v>
    <v>       0.00000000       0.00000000      30.00000000 </v>
   </varray>
   <i name="volume">  27000.00000000 </i>
   <varray name="rec_basis" >
    <v>       0.03333333       0.00000000       0.00000000 </v>
    <v>       0.00000000       0.03333333       0.00000000 </v>
    <v>       0.00000000       0.00000000       0.03333333 </v>
   </varray>
  </crystal>
  <varray name="positions" >
   <v>       0.44576020       0.32826710       0.41691983 </v>
   <v>      -0.44576020       0.32826710       0.41691983 </v>
   <v>      -0.50000000       0.38250690       0.34021317 </v>
   <v>      -0.50000000       0.27609440      -0.50000000 </v>
   <v>       0.38804720       0.38804720       0.34167483 </v>
   <v>      -0.50000000       0.38416601      -0.50000000 </v>
   <v>       0.44208300       0.44208300       0.41809300 </v>
   <v>       0.38317830       0.38317830      -0.50000000 </v>
   <v>      -0.44208300       0.44208300       0.41809300 </v>
   <v>       0.44576020       0.32826710      -0.41691977 </v>
   <v>       0.32826705       0.44576024       0.41691983 </v>
   <v>      -0.38804720       0.38804720       0.34167483 </v>
   <v>      -0.38317830       0.38317830      -0.50000000 </v>
   <v>      -0.50000000      -0.50000000       0.33478917 </v>
   <v>      -0.50000000      -0.50000000      -0.50000000 </v>
   <v>      -0.44576020       0.32826710      -0.41691977 </v>
   <v>       0.38250685      -0.49999995       0.34021317 </v>
   <v>       0.44208300       0.44208300      -0.41809297 </v>
   <v>       0.38416599      -0.49999998      -0.50000000 </v>
   <v>      -0.44208300       0.44208300      -0.41809297 </v>
   <v>       0.44208298      -0.44208298       0.41809300 </v>
   <v>       0.32826705       0.44576024      -0.41691977 </v>
   <v>      -0.50000000       0.38250690      -0.34021320 </v>
   <v>       0.32826712      -0.44576022       0.41691983 </v>
   <v>      -0.38250685      -0.49999995       0.34021317 </v>
   <v>      -0.32826705       0.44576024       0.41691983 </v>
   <v>       0.27609443       0.49999998      -0.50000000 </v>
   <v>       0.38804720       0.38804720      -0.34167487 </v>
   <v>      -0.38416599      -0.49999998      -0.50000000 </v>
   <v>      -0.44208298      -0.44208298       0.41809300 </v>
   <v>       0.44208298      -0.44208298      -0.41809297 </v>
   <v>      -0.38804720       0.38804720      -0.34167487 </v>
   <v>       0.38804722      -0.38804722       0.34167483 </v>
   <v>       0.38250685      -0.49999995      -0.34021320 </v>
   <v>       0.32826712      -0.44576022      -0.41691977 </v>
   <v>      -0.32826705       0.44576024      -0.41691977 </v>
   <v>       0.50000000      -0.38250681       0.34021317 </v>
   <v>      -0.50000000      -0.38416596      -0.50000000 </v>
   <v>      -0.44208298      -0.44208298      -0.41809297 </v>
   <v>      -0.50000000      -0.50000000      -0.33478913 </v>
   <v>       0.38317828      -0.38317828      -0.50000000 </v>
   <v>      -0.32826712      -0.44576022       0.41691983 </v>
   <v>      -0.27609443       0.49999998      -0.50000000 </v>
   <v>      -0.38804722      -0.38804722       0.34167483 </v>
   <v>      -0.38250685      -0.49999995      -0.34021320 </v>
   <v>       0.44576027      -0.32826707       0.41691983 </v>
   <v>      -0.38317828      -0.38317828      -0.50000000 </v>
   <v>      -0.32826712      -0.44576022      -0.41691977 </v>
   <v>      -0.44576027      -0.32826707       0.41691983 </v>
   <v>       0.38804722      -0.38804722      -0.34167487 </v>
   <v>      -0.24105353       0.40682273      -0.38776803 </v>
   <v>      -0.50000000      -0.38250681      -0.34021320 </v>
   <v>       0.44576027      -0.32826707      -0.41691977 </v>
   <v>      -0.44576027      -0.32826707      -0.41691977 </v>
   <v>      -0.50000000      -0.27609445       0.50000000 </v>
   <v>      -0.38804722      -0.38804722      -0.34167487 </v>
   <v>      -0.20829380       0.39503473      -0.37356937 </v>
  </varray>
 </structure>
 <varray name="primitive_index" >
  <v type="int" >        1 </v>
  <v type="int" >        3 </v>
  <v type="int" >        5 </v>
  <v type="int" >        7 </v>
  <v type="int" >       15 </v>
  <v type="int" >       29 </v>
  <v type="int" >       28 </v>
  <v type="int" >       34 </v>
  <v type="int" >       21 </v>
  <v type="int" >       19 </v>
  <v type="int" >       22 </v>
  <v type="int" >       11 </v>
  <v type="int" >       36 </v>
  <v type="int" >       38 </v>
  <v type="int" >       52 </v>
  <v type="int" >       24 </v>
  <v type="int" >       32 </v>
  <v type="int" >       44 </v>
  <v type="int" >       48 </v>
  <v type="int" >       42 </v>
  <v type="int" >       43 </v>
  <v type="int" >       40 </v>
  <v type="int" >        6 </v>
  <v type="int" >        4 </v>
  <v type="int" >       30 </v>
  <v type="int" >       26 </v>
  <v type="int" >        8 </v>
  <v type="int" >       16 </v>
  <v type="int" >       49 </v>
  <v type="int" >       47 </v>
  <v type="int" >       53 </v>
  <v type="int" >       12 </v>
  <v type="int" >       13 </v>
  <v type="int" >       33 </v>
  <v type="int" >       25 </v>
  <v type="int" >       45 </v>
  <v type="int" >       50 </v>
  <v type="int" >       55 </v>
  <v type="int" >       54 </v>
  <v type="int" >       39 </v>
  <v type="int" >       37 </v>
  <v type="int" >        2 </v>
  <v type="int" >        9 </v>
  <v type="int" >       17 </v>
  <v type="int" >       31 </v>
  <v type="int" >       27 </v>
  <v type="int" >       35 </v>
  <v type="int" >       20 </v>
  <v type="int" >       23 </v>
  <v type="int" >       14 </v>
  <v type="int" >       56 </v>
  <v type="int" >       51 </v>
  <v type="int" >       46 </v>
  <v type="int" >       41 </v>
  <v type="int" >       10 </v>
  <v type="int" >       18 </v>
  <v type="int" >       57 </v>
 </varray>
 <kpoints>
  <generation param="Monkhorst-Pack">
   <v type="int" name="divisions">       1        1        1 </v>
   <v name="usershift">      0.00000000       0.00000000       0.00000000 </v>
   <v name="genvec1">      1.00000000       0.00000000       0.00000000 </v>
   <v name="genvec2">      0.00000000       1.00000000       0.00000000 </v>
   <v name="genvec3">      0.00000000       0.00000000       1.00000000 </v>
   <v name="shift">      0.00000000       0.00000000       0.00000000 </v>
  </generation>
  <varray name="kpointlist" >
   <v>       0.00000000       0.00000000       0.00000000 </v>
  </varray>
  <varray name="weights" >
   <v>       1.00000000 </v>
  </varray>
 </kpoints>
 <parameters>
  <separator name="general" >
   <i type="string" name="SYSTEM">6_Pd100_top_free_z(O)</i>
   <i type="logical" name="LCOMPAT"> F  </i>
  </separator>
  <separator name="electronic" >
   <i type="string" name="PREC">normal</i>
   <i name="ENMAX">    400.00000000</i>
   <i name="ENAUG">    644.87300000</i>
   <i name="EDIFF">      0.00010000</i>
   <i type="int" name="IALGO">    68</i>
   <i type="int" name="IWAVPR">    10</i>
   <i type="int" name="NBANDS">   336</i>
   <i name="NELECT">    560.00000000</i>
   <i type="int" name="TURBO">     0</i>
   <i type="int" name="IRESTART">     0</i>
   <i type="int" name="NREBOOT">     0</i>
   <i type="int" name="NMIN">     0</i>
   <i name="EREF">      0.00000000</i>
   <separator name="electronic smearing" >
    <i type="int" name="ISMEAR">     2</i>
    <i name="SIGMA">      0.20000000</i>
    <i name="KSPACING">      0.50000000</i>
    <i type="logical" name="KGAMMA"> T  </i>
   </separator>
   <separator name="electronic projectors" >
    <i type="logical" name="LREAL"> T  </i>
    <v name="ROPT">     -0.00050000     -0.00050000     -0.00050000</v>
    <i type="int" name="LMAXPAW">  -100</i>
    <i type="int" name="LMAXMIX">     2</i>
    <i type="logical" name="NLSPLINE"> F  </i>
   </separator>
   <separator name="electronic startup" >
    <i type="int" name="ISTART">     0</i>
    <i type="int" name="ICHARG">     2</i>
    <i type="int" name="INIWAV">     1</i>
   </separator>
   <separator name="electronic spin" >
    <i type="int" name="ISPIN">     1</i>
    <i type="logical" name="LNONCOLLINEAR"> F  </i>
    <v name="MAGMOM">      1.00000000      1.00000000      1.00000000      1.00000000      1.00000000      1.00000000      1.00000000      1.00000000      1.00000000      1.00000000      1.00000000      1.00000000      1.00000000      1.00000000      1.00000000      1.00000000      1.00000000      1.00000000      1.00000000      1.00000000
      1.00000000      1.00000000      1.00000000      1.00000000      1.00000000      1.00000000      1.00000000      1.00000000      1.00000000      1.00000000      1.00000000      1.00000000      1.00000000      1.00000000      1.00000000      1.00000000      1.00000000      1.00000000      1.00000000      1.00000000
      1.00000000      1.00000000      1.00000000      1.00000000      1.00000000      1.00000000      1.00000000      1.00000000      1.00000000      1.00000000      1.00000000      1.00000000      1.00000000      1.00000000      1.00000000      1.00000000      1.00000000</v>
    <i name="NUPDOWN">     -1.00000000</i>
    <i type="logical" name="LSORBIT"> F  </i>
    <v name="SAXIS">      0.00000000      0.00000000      1.00000000</v>
    <i type="logical" name="LSPIRAL"> F  </i>
    <v name="QSPIRAL">      0.00000000      0.00000000      0.00000000</v>
    <i type="logical" name="LZEROZ"> F  </i>
   </separator>
   <separator name="electronic exchange-correlation" >
    <i type="logical" name="LASPH"> F  </i>
    <i type="logical" name="LMETAGGA"> F  </i>
   </separator>
   <separator name="electronic convergence" >
    <i type="int" name="NELM">   100</i>
    <i type="int" name="NELMDL">    -5</i>
    <i type="int" name="NELMIN">     6</i>
    <i name="ENINI">    400.00000000</i>
    <separator name="electronic convergence detail" >
     <i type="logical" name="LDIAG"> T  </i>
     <i type="logical" name="LSUBROT"> F  </i>
     <i name="WEIMIN">      0.00000000</i>
     <i name="EBREAK">      0.00000007</i>
     <i name="DEPER">      0.30000000</i>
     <i type="int" name="NRMM">     4</i>
     <i name="TIME">      0.40000000</i>
    </separator>
   </separator>
   <separator name="electronic mixer" >
    <i name="AMIX">      0.40000000</i>
    <i name="BMIX">      1.00000000</i>
    <i name="AMIN">      0.10000000</i>
    <i name="AMIX_MAG">      1.60000000</i>
    <i name="BMIX_MAG">      1.00000000</i>
    <separator name="electronic mixer details" >
     <i type="int" name="IMIX">     4</i>
     <i type="logical" name="MIXFIRST"> F  </i>
     <i type="int" name="MAXMIX">   -45</i>
     <i name="WC">    100.00000000</i>
     <i type="int" name="INIMIX">     1</i>
     <i type="int" name="MIXPRE">     1</i>
     <i type="int" name="MREMOVE">     5</i>
    </separator>
   </separator>
   <separator name="electronic dipolcorrection" >
    <i type="logical" name="LDIPOL"> F  </i>
    <i type="logical" name="LMONO"> F  </i>
    <i type="int" name="IDIPOL">     0</i>
    <i name="EPSILON">      1.00000000</i>
    <v name="DIPOL">   -100.00000000   -100.00000000   -100.00000000</v>
    <i name="EFIELD">      0.00000000</i>
   </separator>
  </separator>
  <separator name="grids" >
   <i type="int" name="NGX">   150</i>
   <i type="int" name="NGY">   150</i>
   <i type="int" name="NGZ">   150</i>
   <i type="int" name="NGXF">   300</i>
   <i type="int" name="NGYF">   300</i>
   <i type="int" name="NGZF">   300</i>
   <i type="logical" name="ADDGRID"> F  </i>
  </separator>
  <separator name="ionic" >
   <i type="int" name="NSW">     0</i>
   <i type="int" name="IBRION">    -1</i>
   <i type="int" name="MDALGO">     0</i>
   <i type="int" name="ISIF">     2</i>
   <i name="PSTRESS">      0.00000000</i>
   <i name="EDIFFG">     -0.05000000</i>
   <i type="int" name="NFREE">     1</i>
   <i name="POTIM">      0.50000000</i>
   <i name="SMASS">     -3.00000000</i>
   <i name="SCALEE">      1.00000000</i>
  </separator>
  <separator name="ionic md" >
   <i name="TEBEG">      0.00010000</i>
   <i name="TEEND">      0.00010000</i>
   <i type="int" name="NBLOCK">     1</i>
   <i type="int" name="KBLOCK">     1</i>
   <i type="int" name="NPACO">   256</i>
   <i name="APACO">     16.00000000</i>
  </separator>
  <separator name="symmetry" >
   <i type="int" name="ISYM">     2</i>
   <i name="SYMPREC">      0.00001000</i>
  </separator>
  <separator name="dos" >
   <i type="int" name="LORBIT">     0</i>
   <v name="RWIGS">     -1.00000000     -1.00000000     -1.00000000</v>
   <i type="int" name="NEDOS">   301</i>
   <i name="EMIN">     10.00000000</i>
   <i name="EMAX">    -10.00000000</i>
   <i name="EFERMI">      0.00000000</i>
  </separator>
  <separator name="writing" >
   <i type="int" name="NWRITE">     2</i>
   <i type="logical" name="LWAVE"> F  </i>
   <i type="logical" name="LDOWNSAMPLE"> F  </i>
   <i type="logical" name="LCHARG"> F  </i>
   <i type="logical" name="LPARD"> F  </i>
   <i type="logical" name="LVTOT"> F  </i>
   <i type="logical" name="LVHAR"> F  </i>
   <i type="logical" name="LELF"> F  </i>
   <i type="logical" name="LOPTICS"> F  </i>
   <v name="STM">      0.00000000      0.00000000      0.00000000      0.00000000      0.00000000      0.00000000      0.00000000</v>
  </separator>
  <separator name="performance" >
   <i type="int" name="NPAR">     1</i>
   <i type="int" name="NSIM">     4</i>
   <i type="int" name="NBLK">    -1</i>
   <i type="logical" name="LPLANE"> T  </i>
   <i type="logical" name="LSCALAPACK"> T  </i>
   <i type="logical" name="LSCAAWARE"> F  </i>
   <i type="logical" name="LSCALU"> F  </i>
   <i type="logical" name="LASYNC"> F  </i>
   <i type="logical" name="LORBITALREAL"> F  </i>
  </separator>
  <separator name="miscellaneous" >
   <i type="int" name="IDIOT">     3</i>
   <i type="int" name="ISPECIAL">     0</i>
   <i type="logical" name="LMUSIC"> F  </i>
   <v name="POMASS">    106.42000000     12.01100000     16.00000000</v>
   <v name="DARWINR">      0.00000000      0.00000000      0.00000000</v>
   <v name="DARWINV">      1.00000000      1.00000000      1.00000000</v>
   <i type="logical" name="LCORR"> T  </i>
  </separator>
  <i type="logical" name="GGA_COMPAT"> T  </i>
  <i type="logical" name="LBERRY"> F  </i>
  <i type="int" name="ICORELEVEL">     0</i>
  <i type="logical" name="LDAU"> F  </i>
  <i type="int" name="I_CONSTRAINED_M">     0</i>
  <separator name="electronic exchange-correlation" >
   <i type="string" name="GGA">RP</i>
   <i type="int" name="VOSKOWN">     0</i>
   <i type="logical" name="LHFCALC"> F  </i>
   <i type="string" name="PRECFOCK"></i>
   <i type="logical" name="LSYMGRAD"> F  </i>
   <i type="logical" name="LHFONE"> F  </i>
   <i type="logical" name="LRHFCALC"> F  </i>
   <i type="logical" name="LTHOMAS"> F  </i>
   <i type="logical" name="LMODELHF"> F  </i>
   <i name="ENCUT4O">     -1.00000000</i>
   <i type="int" name="EXXOEP">     0</i>
   <i type="int" name="FOURORBIT">     0</i>
   <i name="AEXX">      0.00000000</i>
   <i name="HFALPHA">      0.00000000</i>
   <i name="MCALPHA">      0.00000000</i>
   <i name="ALDAX">      1.00000000</i>
   <i name="AGGAX">      1.00000000</i>
   <i name="ALDAC">      1.00000000</i>
   <i name="AGGAC">      1.00000000</i>
   <i type="int" name="NKREDX">     1</i>
   <i type="int" name="NKREDY">     1</i>
   <i type="int" name="NKREDZ">     1</i>
   <i type="logical" name="SHIFTRED"> F  </i>
   <i type="logical" name="ODDONLY"> F  </i>
   <i type="logical" name="EVENONLY"> F  </i>
   <i type="int" name="LMAXFOCK">     0</i>
   <i type="int" name="NMAXFOCKAE">     0</i>
   <i type="logical" name="LFOCKAEDFT"> F  </i>
   <i name="HFSCREEN">      0.00000000</i>
   <i name="HFSCREENC">      0.00000000</i>
   <i type="int" name="NBANDSGWLOW">     0</i>
  </separator>
  <separator name="vdW DFT" >
   <i type="logical" name="LUSE_VDW"> F  </i>
   <i name="Zab_VDW">     -0.84910000</i>
   <i name="PARAM1">      0.12340000</i>
   <i name="PARAM2">      1.00000000</i>
   <i name="PARAM3">      0.00000000</i>
  </separator>
  <separator name="model GW" >
   <i type="int" name="MODEL_GW">     0</i>
   <i name="MODEL_EPS0">    284.21052632</i>
   <i name="MODEL_ALPHA">      1.00000000</i>
  </separator>
  <separator name="linear response parameters" >
   <i type="logical" name="LEPSILON"> F  </i>
   <i type="logical" name="LRPA"> F  </i>
   <i type="logical" name="LNABLA"> F  </i>
   <i type="logical" name="LVEL"> F  </i>
   <i type="int" name="KINTER">     0</i>
   <i name="CSHIFT">      0.10000000</i>
   <i name="OMEGAMAX">     -1.00000000</i>
   <i name="DEG_THRESHOLD">      0.00200000</i>
   <i name="RTIME">     -0.10000000</i>
   <i name="WPLASMAI">      0.00000000</i>
   <v name="DFIELD">      0.00000000      0.00000000      0.00000000</v>
   <v name="WPLASMA">      0.00000000      0.00000000      0.00000000      0.00000000      0.00000000      0.00000000      0.00000000      0.00000000      0.00000000</v>
  </separator>
  <separator name="orbital magnetization" >
   <i type="logical" name="NUCIND"> F  </i>
   <v name="MAGPOS">      0.00000000      0.00000000      0.00000000</v>
   <i type="logical" name="LNICSALL"> T  </i>
   <i type="logical" name="ORBITALMAG"> F  </i>
   <i type="logical" name="LMAGBLOCH"> F  </i>
   <i type="logical" name="LCHIMAG"> F  </i>
   <i type="logical" name="LGAUGE"> T  </i>
   <i type="int" name="MAGATOM">     0</i>
   <v name="MAGDIPOL">      0.00000000      0.00000000      0.00000000</v>
   <v name="AVECCONST">      0.00000000      0.00000000      0.00000000</v>
  </separator>
  <separator name="response functions" >
   <i type="logical" name="LADDER"> F  </i>
   <i type="logical" name="LRPAFORCE"> F  </i>
   <i type="logical" name="LFXC"> F  </i>
   <i type="logical" name="LHARTREE"> T  </i>
   <i type="int" name="IBSE">     0</i>
   <v type="int" name="KPOINT">    -1     0     0     0</v>
   <i type="logical" name="LTCTE"> F  </i>
   <i type="logical" name="LTETE"> F  </i>
   <i type="logical" name="LTRIPLET"> F  </i>
   <i type="logical" name="LFXCEPS"> F  </i>
   <i type="logical" name="LFXHEG"> F  </i>
   <i type="int" name="NATURALO">     2</i>
   <i type="logical" name="L2ORDER"> F  </i>
   <i type="logical" name="LMP2LT"> F  </i>
   <i type="logical" name="LUSEW"> F  </i>
   <i name="ENCUTGW">     -2.00000000</i>
   <i name="ENCUTGWSOFT">     -2.00000000</i>
   <i name="ENCUTLF">     -1.00000000</i>
   <i type="int" name="LMAXMP2">    -1</i>
   <i name="SCISSOR">      0.00000000</i>
   <i type="int" name="NOMEGA">     0</i>
   <i type="int" name="NOMEGAR">     0</i>
   <i type="int" name="NBANDSGW">    -1</i>
   <i type="int" name="NBANDSO">    -1</i>
   <i type="int" name="NBANDSV">    -1</i>
   <i type="int" name="NELM">   100</i>
   <i type="int" name="NELMHF">     1</i>
   <i type="int" name="DIM">     3</i>
   <i type="int" name="ANTIRES">     0</i>
   <i name="OMEGAMAX">    -30.00000000</i>
   <i name="OMEGAMIN">    -30.00000000</i>
   <i name="OMEGATL">   -200.00000000</i>
   <i type="int" name="OMEGAGRID">   140</i>
   <i name="CSHIFT">     -0.10000000</i>
   <i type="logical" name="SELFENERGY"> F  </i>
   <i type="logical" name="LSPECTRAL"> F  </i>
   <i type="logical" name="LSPECTRALGW"> F  </i>
   <i type="logical" name="LSINGLES"> F  </i>
   <i type="logical" name="LFERMIGW"> F  </i>
   <i type="logical" name="ODDONLYGW"> F  </i>
   <i type="logical" name="EVENONLYGW"> F  </i>
   <i type="int" name="NKREDLFX">     1</i>
   <i type="int" name="NKREDLFY">     1</i>
   <i type="int" name="NKREDLFZ">     1</i>
   <i type="int" name="MAXMEM"> 10000</i>
   <i type="int" name="TELESCOPE">     0</i>
   <i type="int" name="TAUPAR">     1</i>
   <i type="int" name="OMEGAPAR">    -1</i>
   <i name="LAMBDA">      1.00000000</i>
  </separator>
  <separator name="External order field" >
   <i name="OFIELD_KAPPA">      0.00000000</i>
   <v name="OFIELD_K">      0.00000000      0.00000000      0.00000000</v>
   <i name="OFIELD_Q6_NEAR">      0.00000000</i>
   <i name="OFIELD_Q6_FAR">      0.00000000</i>
   <i name="OFIELD_A">      0.00000000</i>
  </separator>
 </parameters>
 <atominfo>
  <atoms>      57 </atoms>
  <types>       3 </types>
  <array name="atoms" >
   <dimension dim="1">ion</dimension>
   <field type="string">element</field>
   <field type="int">atomtype</field>
   <set>
    <rc><c>Pd</c><c>   1</c></rc>
    <rc><c>Pd</c><c>   1</c></rc>
    <rc><c>Pd</c><c>   1</c></rc>
    <rc><c>Pd</c><c>   1</c></rc>
    <rc><c>Pd</c><c>   1</c></rc>
    <rc><c>Pd</c><c>   1</c></rc>
    <rc><c>Pd</c><c>   1</c></rc>
    <rc><c>Pd</c><c>   1</c></rc>
    <rc><c>Pd</c><c>   1</c></rc>
    <rc><c>Pd</c><c>   1</c></rc>
    <rc><c>Pd</c><c>   1</c></rc>
    <rc><c>Pd</c><c>   1</c></rc>
    <rc><c>Pd</c><c>   1</c></rc>
    <rc><c>Pd</c><c>   1</c></rc>
    <rc><c>Pd</c><c>   1</c></rc>
    <rc><c>Pd</c><c>   1</c></rc>
    <rc><c>Pd</c><c>   1</c></rc>
    <rc><c>Pd</c><c>   1</c></rc>
    <rc><c>Pd</c><c>   1</c></rc>
    <rc><c>Pd</c><c>   1</c></rc>
    <rc><c>Pd</c><c>   1</c></rc>
    <rc><c>Pd</c><c>   1</c></rc>
    <rc><c>Pd</c><c>   1</c></rc>
    <rc><c>Pd</c><c>   1</c></rc>
    <rc><c>Pd</c><c>   1</c></rc>
    <rc><c>Pd</c><c>   1</c></rc>
    <rc><c>Pd</c><c>   1</c></rc>
    <rc><c>Pd</c><c>   1</c></rc>
    <rc><c>Pd</c><c>   1</c></rc>
    <rc><c>Pd</c><c>   1</c></rc>
    <rc><c>Pd</c><c>   1</c></rc>
    <rc><c>Pd</c><c>   1</c></rc>
    <rc><c>Pd</c><c>   1</c></rc>
    <rc><c>Pd</c><c>   1</c></rc>
    <rc><c>Pd</c><c>   1</c></rc>
    <rc><c>Pd</c><c>   1</c></rc>
    <rc><c>Pd</c><c>   1</c></rc>
    <rc><c>Pd</c><c>   1</c></rc>
    <rc><c>Pd</c><c>   1</c></rc>
    <rc><c>Pd</c><c>   1</c></rc>
    <rc><c>Pd</c><c>   1</c></rc>
    <rc><c>Pd</c><c>   1</c></rc>
    <rc><c>Pd</c><c>   1</c></rc>
    <rc><c>Pd</c><c>   1</c></rc>
    <rc><c>Pd</c><c>   1</c></rc>
    <rc><c>Pd</c><c>   1</c></rc>
    <rc><c>Pd</c><c>   1</c></rc>
    <rc><c>Pd</c><c>   1</c></rc>
    <rc><c>Pd</c><c>   1</c></rc>
    <rc><c>Pd</c><c>   1</c></rc>
    <rc><c>Pd</c><c>   1</c></rc>
    <rc><c>Pd</c><c>   1</c></rc>
    <rc><c>Pd</c><c>   1</c></rc>
    <rc><c>Pd</c><c>   1</c></rc>
    <rc><c>Pd</c><c>   1</c></rc>
    <rc><c>C </c><c>   2</c></rc>
    <rc><c>O </c><c>   3</c></rc>
   </set>
  </array>
  <array name="atomtypes" >
   <dimension dim="1">type</dimension>
   <field type="int">atomspertype</field>
   <field type="string">element</field>
   <field>mass</field>
   <field>valence</field>
   <field type="string">pseudopotential</field>
   <set>
    <rc><c>  55</c><c>Pd</c><c>    106.42000000</c><c>     10.00000000</c><c>  PAW_PBE Pd 04Jan2005                  </c></rc>
    <rc><c>   1</c><c>C </c><c>     12.01100000</c><c>      4.00000000</c><c>  PAW_PBE C 08Apr2002                   </c></rc>
    <rc><c>   1</c><c>O </c><c>     16.00000000</c><c>      6.00000000</c><c>  PAW_PBE O 08Apr2002                   </c></rc>
   </set>
  </array>
 </atominfo>
 <structure name="initialpos" >
  <crystal>
   <varray name="basis" >
    <v>      30.00000000       0.00000000       0.00000000 </v>
    <v>       0.00000000      30.00000000       0.00000000 </v>
    <v>       0.00000000       0.00000000      30.00000000 </v>
   </varray>
   <i name="volume">  27000.00000000 </i>
   <varray name="rec_basis" >
    <v>       0.03333333       0.00000000       0.00000000 </v>
    <v>       0.00000000       0.03333333       0.00000000 </v>
    <v>       0.00000000       0.00000000       0.03333333 </v>
   </varray>
  </crystal>
  <varray name="positions" >
   <v>       0.44576020       0.32826710       0.41691983 </v>
   <v>       0.67173288       0.55423978       0.41691983 </v>
   <v>       0.55423980       0.32826710       0.41691983 </v>
   <v>       0.32826712       0.55423978       0.41691983 </v>
   <v>       0.50000000       0.38250690       0.34021317 </v>
   <v>       0.50000000       0.38250690       0.65978680 </v>
   <v>       0.50000000       0.27609440       0.50000000 </v>
   <v>       0.27609443       0.49999998       0.50000000 </v>
   <v>       0.72390557       0.49999998       0.50000000 </v>
   <v>       0.50000000       0.72390555       0.50000000 </v>
   <v>       0.61195280       0.38804720       0.34167483 </v>
   <v>       0.61195280       0.38804720       0.65832513 </v>
   <v>       0.38804722       0.61195278       0.34167483 </v>
   <v>       0.38804722       0.61195278       0.65832513 </v>
   <v>       0.38804720       0.38804720       0.34167483 </v>
   <v>       0.38804720       0.38804720       0.65832513 </v>
   <v>       0.61195278       0.61195278       0.34167483 </v>
   <v>       0.61195278       0.61195278       0.65832513 </v>
   <v>       0.44576020       0.32826710       0.58308023 </v>
   <v>       0.67173288       0.55423978       0.58308023 </v>
   <v>       0.55791699       0.44208301       0.41809300 </v>
   <v>       0.32826705       0.44576024       0.41691983 </v>
   <v>       0.55423973       0.67173293       0.41691983 </v>
   <v>       0.55423980       0.32826710       0.58308023 </v>
   <v>       0.32826712       0.55423978       0.58308023 </v>
   <v>       0.67173295       0.44576024       0.41691983 </v>
   <v>       0.44576027       0.67173293       0.41691983 </v>
   <v>       0.44208301       0.44208301       0.41809300 </v>
   <v>       0.50000000       0.38416601       0.50000000 </v>
   <v>       0.61749315       0.50000005       0.34021317 </v>
   <v>       0.61749315       0.50000005       0.65978680 </v>
   <v>       0.38250685       0.50000005       0.34021317 </v>
   <v>       0.38250685       0.50000005       0.65978680 </v>
   <v>       0.38317830       0.38317830       0.50000000 </v>
   <v>       0.61682172       0.61682172       0.50000000 </v>
   <v>       0.61682170       0.38317830       0.50000000 </v>
   <v>       0.38317828       0.61682172       0.50000000 </v>
   <v>       0.50000000       0.50000000       0.33478917 </v>
   <v>       0.50000000       0.50000000       0.66521087 </v>
   <v>       0.32826705       0.44576024       0.58308023 </v>
   <v>       0.55423973       0.67173293       0.58308023 </v>
   <v>       0.55791699       0.44208301       0.58190703 </v>
   <v>       0.44208298       0.55791702       0.41809300 </v>
   <v>       0.44208301       0.44208301       0.58190703 </v>
   <v>       0.67173295       0.44576024       0.58308023 </v>
   <v>       0.44576027       0.67173293       0.58308023 </v>
   <v>       0.55791702       0.55791702       0.41809300 </v>
   <v>       0.38416599       0.50000002       0.50000000 </v>
   <v>       0.61583401       0.50000002       0.50000000 </v>
   <v>       0.50000000       0.61749319       0.34021317 </v>
   <v>       0.50000000       0.61749319       0.65978680 </v>
   <v>       0.50000000       0.50000000       0.50000000 </v>
   <v>       0.44208298       0.55791702       0.58190703 </v>
   <v>       0.55791702       0.55791702       0.58190703 </v>
   <v>       0.50000000       0.61583404       0.50000000 </v>
   <v>       0.75894647       0.40682273       0.61223197 </v>
   <v>       0.79170620       0.39503473       0.62643063 </v>
  </varray>
  <varray name="selective"  type="logical" >
   <v type="logical" >  F  F  F </v>
   <v type="logical" >  F  F  F </v>
   <v type="logical" >  F  F  F </v>
   <v type="logical" >  F  F  F </v>
   <v type="logical" >  F  F  F </v>
   <v type="logical" >  F  F  F </v>
   <v type="logical" >  F  F  F </v>
   <v type="logical" >  F  F  F </v>
   <v type="logical" >  F  F  F </v>
   <v type="logical" >  F  F  F </v>
   <v type="logical" >  F  F  F </v>
   <v type="logical" >  F  F  F </v>
   <v type="logical" >  F  F  F </v>
   <v type="logical" >  F  F  F </v>
   <v type="logical" >  F  F  F </v>
   <v type="logical" >  F  F  F </v>
   <v type="logical" >  F  F  F </v>
   <v type="logical" >  F  F  F </v>
   <v type="logical" >  F  F  F </v>
   <v type="logical" >  F  F  F </v>
   <v type="logical" >  F  F  F </v>
   <v type="logical" >  F  F  F </v>
   <v type="logical" >  F  F  F </v>
   <v type="logical" >  F  F  F </v>
   <v type="logical" >  F  F  F </v>
   <v type="logical" >  F  F  F </v>
   <v type="logical" >  F  F  F </v>
   <v type="logical" >  F  F  F </v>
   <v type="logical" >  F  F  F </v>
   <v type="logical" >  F  F  F </v>
   <v type="logical" >  F  F  F </v>
   <v type="logical" >  F  F  F </v>
   <v type="logical" >  F  F  F </v>
   <v type="logical" >  F  F  F </v>
   <v type="logical" >  F  F  F </v>
   <v type="logical" >  F  F  F </v>
   <v type="logical" >  F  F  F </v>
   <v type="logical" >  F  F  F </v>
   <v type="logical" >  F  F  F </v>
   <v type="logical" >  F  F  F </v>
   <v type="logical" >  F  F  F </v>
   <v type="logical" >  F  F  F </v>
   <v type="logical" >  F  F  F </v>
   <v type="logical" >  F  F  F </v>
   <v type="logical" >  F  F  F </v>
   <v type="logical" >  F  F  F </v>
   <v type="logical" >  F  F  F </v>
   <v type="logical" >  F  F  F </v>
   <v type="logical" >  F  F  F </v>
   <v type="logical" >  F  F  F </v>
   <v type="logical" >  F  F  F </v>
   <v type="logical" >  F  F  F </v>
   <v type="logical" >  F  F  F </v>
   <v type="logical" >  F  F  F </v>
   <v type="logical" >  F  F  F </v>
   <v type="logical" >  F  F  F </v>
   <v type="logical" >  F  F  F </v>
  </varray>
  <nose>
   <v>      -3.00000000       0.00000000       0.00010000       0.00010000 </v>
  </nose>
 </structure>
 <calculation>
  <scstep>
   <time name="dav">  308.72  308.75</time>
   <time name="total">  320.40  320.44</time>
   <energy>
    <i name="alphaZ">     75.25431677 </i>
    <i name="ewald"> 136915.62854739 </i>
    <i name="hartreedc">-180284.34279318 </i>
    <i name="XCdc">  -1704.17725934 </i>
    <i name="pawpsdc">  44873.02882129 </i>
    <i name="pawaedc"> -41398.84523641 </i>
    <i name="eentropy">      0.01133157 </i>
    <i name="bandstr">    815.41471999 </i>
    <i name="atom">  45086.50549395 </i>
    <i name="e_fr_energy">   4378.47794204 </i>
    <i name="e_wo_entrp">   4378.46661047 </i>
    <i name="e_0_energy">   4378.47510914 </i>
   </energy>
  </scstep>
  <scstep>
   <time name="dav">  490.49  490.51</time>
   <time name="total">  490.49  490.51</time>
   <energy>
    <i name="e_fr_energy">   2030.37038975 </i>
    <i name="e_wo_entrp">   2030.37961480 </i>
    <i name="e_0_energy">   2030.37269601 </i>
   </energy>
  </scstep>
  <scstep>
   <time name="dav">  426.45  426.48</time>
   <time name="total">  426.45  426.48</time>
   <energy>
    <i name="e_fr_energy">    242.45172624 </i>
    <i name="e_wo_entrp">    242.44851230 </i>
    <i name="e_0_energy">    242.45092276 </i>
   </energy>
  </scstep>
  <scstep>
   <time name="dav">  359.28  359.27</time>
   <time name="total">  359.28  359.27</time>
   <energy>
    <i name="e_fr_energy">   -132.27572817 </i>
    <i name="e_wo_entrp">   -132.26089986 </i>
    <i name="e_0_energy">   -132.27202109 </i>
   </energy>
  </scstep>
  <scstep>
   <time name="dav">  432.50  432.49</time>
   <time name="total">  454.64  454.64</time>
   <energy>
    <i name="e_fr_energy">   -178.24110547 </i>
    <i name="e_wo_entrp">   -178.73771813 </i>
    <i name="e_0_energy">   -178.36525864 </i>
   </energy>
  </scstep>
  <scstep>
   <time name="diag">   56.98   56.98</time>
   <time name="diis">  160.09  160.10</time>
   <time name="orth">   11.19   11.19</time>
   <time name="total">  260.96  260.97</time>
   <energy>
    <i name="e_fr_energy">   -179.31630707 </i>
    <i name="e_wo_entrp">   -179.30261832 </i>
    <i name="e_0_energy">   -179.31288488 </i>
   </energy>
  </scstep>
  <scstep>
   <time name="diag">   57.21   57.21</time>
   <time name="diis">  193.38  193.38</time>
   <time name="orth">   11.10   11.10</time>
   <time name="total">  294.22  294.22</time>
   <energy>
    <i name="e_fr_energy">   -180.96162707 </i>
    <i name="e_wo_entrp">   -181.02460172 </i>
    <i name="e_0_energy">   -180.97737073 </i>
   </energy>
  </scstep>
  <scstep>
   <time name="diag">   57.25   57.25</time>
   <time name="diis">  170.74  170.74</time>
   <time name="orth">   11.39   11.39</time>
   <time name="total">  272.40  272.41</time>
   <energy>
    <i name="e_fr_energy">   -182.08415549 </i>
    <i name="e_wo_entrp">   -181.90587403 </i>
    <i name="e_0_energy">   -182.03958513 </i>
   </energy>
  </scstep>
  <scstep>
   <time name="diag">   58.00   58.00</time>
   <time name="diis">  162.42  162.41</time>
   <time name="orth">   11.45   11.45</time>
   <time name="total">  265.77  265.77</time>
   <energy>
    <i name="e_fr_energy">   -181.36679199 </i>
    <i name="e_wo_entrp">   -181.27866961 </i>
    <i name="e_0_energy">   -181.34476139 </i>
   </energy>
  </scstep>
  <scstep>
   <time name="diag">   58.20   58.20</time>
   <time name="diis">  159.89  159.89</time>
   <time name="orth">   11.12   11.12</time>
   <time name="total">  262.82  262.82</time>
   <energy>
    <i name="e_fr_energy">   -179.16780555 </i>
    <i name="e_wo_entrp">   -179.13096917 </i>
    <i name="e_0_energy">   -179.15859645 </i>
   </energy>
  </scstep>
  <scstep>
   <time name="diag">   57.21   57.20</time>
   <time name="diis">  160.71  160.73</time>
   <time name="orth">   11.07   11.07</time>
   <time name="total">  261.41  261.42</time>
   <energy>
    <i name="e_fr_energy">   -177.54181402 </i>
    <i name="e_wo_entrp">   -177.44504491 </i>
    <i name="e_0_energy">   -177.51762174 </i>
   </energy>
  </scstep>
  <scstep>
   <time name="diag">   57.29   57.30</time>
   <time name="diis">  157.76  157.76</time>
   <time name="orth">   11.15   11.15</time>
   <time name="total">  259.11  259.13</time>
   <energy>
    <i name="e_fr_energy">   -176.29944766 </i>
    <i name="e_wo_entrp">   -176.16604826 </i>
    <i name="e_0_energy">   -176.26609781 </i>
   </energy>
  </scstep>
  <scstep>
   <time name="diag">   57.87   57.87</time>
   <time name="diis">  159.23  159.23</time>
   <time name="orth">   11.26   11.26</time>
   <time name="total">  261.17  261.17</time>
   <energy>
    <i name="e_fr_energy">   -175.64848249 </i>
    <i name="e_wo_entrp">   -175.51617570 </i>
    <i name="e_0_energy">   -175.61540580 </i>
   </energy>
  </scstep>
  <scstep>
   <time name="diag">   57.53   57.53</time>
   <time name="diis">  157.64  157.64</time>
   <time name="orth">   11.12   11.12</time>
   <time name="total">  259.00  259.00</time>
   <energy>
    <i name="e_fr_energy">   -176.88175235 </i>
    <i name="e_wo_entrp">   -176.89872538 </i>
    <i name="e_0_energy">   -176.88599560 </i>
   </energy>
  </scstep>
  <scstep>
   <time name="diag">   57.27   57.27</time>
   <time name="diis">  158.27  158.27</time>
   <time name="orth">   11.15   11.15</time>
   <time name="total">  259.56  259.56</time>
   <energy>
    <i name="e_fr_energy">   -175.87347006 </i>
    <i name="e_wo_entrp">   -175.78025935 </i>
    <i name="e_0_energy">   -175.85016738 </i>
   </energy>
  </scstep>
  <scstep>
   <time name="diag">   57.43   57.43</time>
   <time name="diis">  154.60  154.60</time>
   <time name="orth">   11.27   11.27</time>
   <time name="total">  256.23  256.23</time>
   <energy>
    <i name="e_fr_energy">   -175.36528845 </i>
    <i name="e_wo_entrp">   -175.45034866 </i>
    <i name="e_0_energy">   -175.38655350 </i>
   </energy>
  </scstep>
  <scstep>
   <time name="diag">   57.90   57.90</time>
   <time name="diis">  161.00  161.00</time>
   <time name="orth">   11.37   11.37</time>
   <time name="total">  263.49  263.49</time>
   <energy>
    <i name="e_fr_energy">   -174.98917362 </i>
    <i name="e_wo_entrp">   -175.06314082 </i>
    <i name="e_0_energy">   -175.00766542 </i>
   </energy>
  </scstep>
  <scstep>
   <time name="diag">   58.76   58.76</time>
   <time name="diis">  160.07  160.08</time>
   <time name="orth">   11.63   11.63</time>
   <time name="total">  264.61  264.62</time>
   <energy>
    <i name="e_fr_energy">   -174.54883936 </i>
    <i name="e_wo_entrp">   -174.52813901 </i>
    <i name="e_0_energy">   -174.54366427 </i>
   </energy>
  </scstep>
  <scstep>
   <time name="diag">   57.81   57.81</time>
   <time name="diis">  156.08  156.08</time>
   <time name="orth">   11.02   11.02</time>
   <time name="total">  258.50  258.50</time>
   <energy>
    <i name="e_fr_energy">   -174.34094353 </i>
    <i name="e_wo_entrp">   -174.29024675 </i>
    <i name="e_0_energy">   -174.32826934 </i>
   </energy>
  </scstep>
  <scstep>
   <time name="diag">   56.85   56.85</time>
   <time name="diis">  156.37  156.37</time>
   <time name="orth">   11.09   11.09</time>
   <time name="total">  257.09  257.09</time>
   <energy>
    <i name="e_fr_energy">   -174.61636589 </i>
    <i name="e_wo_entrp">   -174.67296966 </i>
    <i name="e_0_energy">   -174.63051683 </i>
   </energy>
  </scstep>
  <scstep>
   <time name="diag">   56.76   56.76</time>
   <time name="diis">  156.88  156.88</time>
   <time name="orth">   11.02   11.02</time>
   <time name="total">  257.61  257.61</time>
   <energy>
    <i name="e_fr_energy">   -174.40308019 </i>
    <i name="e_wo_entrp">   -174.40723089 </i>
    <i name="e_0_energy">   -174.40411786 </i>
   </energy>
  </scstep>
  <scstep>
   <time name="diag">   56.75   56.75</time>
   <time name="diis">  154.52  154.52</time>
   <time name="orth">   10.85   10.85</time>
   <time name="total">  254.72  254.72</time>
   <energy>
    <i name="e_fr_energy">   -174.04800434 </i>
    <i name="e_wo_entrp">   -173.97259813 </i>
    <i name="e_0_energy">   -174.02915279 </i>
   </energy>
  </scstep>
  <scstep>
   <time name="diag">   56.99   56.99</time>
   <time name="diis">  154.57  154.57</time>
   <time name="orth">   11.09   11.09</time>
   <time name="total">  255.72  255.73</time>
   <energy>
    <i name="e_fr_energy">   -173.94545658 </i>
    <i name="e_wo_entrp">   -173.82107057 </i>
    <i name="e_0_energy">   -173.91436008 </i>
   </energy>
  </scstep>
  <scstep>
   <time name="diag">   57.00   57.00</time>
   <time name="diis">  154.91  154.91</time>
   <time name="orth">   11.05   11.05</time>
   <time name="total">  256.04  256.04</time>
   <energy>
    <i name="e_fr_energy">   -173.96175327 </i>
    <i name="e_wo_entrp">   -173.83795104 </i>
    <i name="e_0_energy">   -173.93080272 </i>
   </energy>
  </scstep>
  <scstep>
   <time name="diag">   57.11   57.11</time>
   <time name="diis">  154.65  154.65</time>
   <time name="orth">   11.08   11.08</time>
   <time name="total">  256.02  256.02</time>
   <energy>
    <i name="e_fr_energy">   -173.82505629 </i>
    <i name="e_wo_entrp">   -173.72166138 </i>
    <i name="e_0_energy">   -173.79920756 </i>
   </energy>
  </scstep>
  <scstep>
   <time name="diag">   57.05   57.05</time>
   <time name="diis">  153.79  153.79</time>
   <time name="orth">   11.07   11.07</time>
   <time name="total">  255.07  255.08</time>
   <energy>
    <i name="e_fr_energy">   -173.78562335 </i>
    <i name="e_wo_entrp">   -173.67291501 </i>
    <i name="e_0_energy">   -173.75744627 </i>
   </energy>
  </scstep>
  <scstep>
   <time name="diag">   57.10   57.10</time>
   <time name="diis">  153.92  153.92</time>
   <time name="orth">   10.99   10.99</time>
   <time name="total">  255.00  255.00</time>
   <energy>
    <i name="e_fr_energy">   -173.76091963 </i>
    <i name="e_wo_entrp">   -173.65773131 </i>
    <i name="e_0_energy">   -173.73512255 </i>
   </energy>
  </scstep>
  <scstep>
   <time name="diag">   57.17   57.17</time>
   <time name="diis">  153.77  153.77</time>
   <time name="orth">   11.06   11.06</time>
   <time name="total">  255.28  255.29</time>
   <energy>
    <i name="e_fr_energy">   -173.73762249 </i>
    <i name="e_wo_entrp">   -173.63672824 </i>
    <i name="e_0_energy">   -173.71239893 </i>
   </energy>
  </scstep>
  <scstep>
   <time name="diag">   56.75   56.75</time>
   <time name="diis">  154.51  154.51</time>
   <time name="orth">   11.04   11.04</time>
   <time name="total">  255.75  255.76</time>
   <energy>
    <i name="e_fr_energy">   -173.70484207 </i>
    <i name="e_wo_entrp">   -173.59265932 </i>
    <i name="e_0_energy">   -173.67679638 </i>
   </energy>
  </scstep>
  <scstep>
   <time name="diag">   56.91   56.91</time>
   <time name="diis">  158.38  158.38</time>
   <time name="orth">   11.67   11.67</time>
   <time name="total">  260.87  260.87</time>
   <energy>
    <i name="e_fr_energy">   -173.68593107 </i>
    <i name="e_wo_entrp">   -173.57488801 </i>
    <i name="e_0_energy">   -173.65817030 </i>
   </energy>
  </scstep>
  <scstep>
   <time name="diag">   57.14   57.14</time>
   <time name="diis">  157.07  157.06</time>
   <time name="orth">   11.27   11.27</time>
   <time name="total">  259.77  259.77</time>
   <energy>
    <i name="e_fr_energy">   -173.67926442 </i>
    <i name="e_wo_entrp">   -173.56657423 </i>
    <i name="e_0_energy">   -173.65109187 </i>
   </energy>
  </scstep>
  <scstep>
   <time name="diag">   57.93   57.93</time>
   <time name="diis">  157.53  157.53</time>
   <time name="orth">   11.50   11.50</time>
   <time name="total">  261.85  261.86</time>
   <energy>
    <i name="e_fr_energy">   -173.66973698 </i>
    <i name="e_wo_entrp">   -173.55897109 </i>
    <i name="e_0_energy">   -173.64204551 </i>
   </energy>
  </scstep>
  <scstep>
   <time name="diag">   57.58   57.58</time>
   <time name="diis">  156.45  156.45</time>
   <time name="orth">   11.45   11.45</time>
   <time name="total">  260.96  260.96</time>
   <energy>
    <i name="e_fr_energy">   -173.66688098 </i>
    <i name="e_wo_entrp">   -173.55418077 </i>
    <i name="e_0_energy">   -173.63870592 </i>
   </energy>
  </scstep>
  <scstep>
   <time name="diag">   58.00   58.00</time>
   <time name="diis">  152.71  152.71</time>
   <time name="orth">   11.26   11.26</time>
   <time name="total">  256.86  256.87</time>
   <energy>
    <i name="e_fr_energy">   -173.66745597 </i>
    <i name="e_wo_entrp">   -173.55565518 </i>
    <i name="e_0_energy">   -173.63950577 </i>
   </energy>
  </scstep>
  <scstep>
   <time name="diag">   58.41   58.41</time>
   <time name="diis">  155.59  155.59</time>
   <time name="orth">   11.24   11.24</time>
   <time name="total">  259.60  259.61</time>
   <energy>
    <i name="e_fr_energy">   -173.66388768 </i>
    <i name="e_wo_entrp">   -173.55164956 </i>
    <i name="e_0_energy">   -173.63582815 </i>
   </energy>
  </scstep>
  <scstep>
   <time name="diag">   57.40   57.40</time>
   <time name="diis">  153.65  153.65</time>
   <time name="orth">   11.28   11.28</time>
   <time name="total">  257.30  257.30</time>
   <energy>
    <i name="e_fr_energy">   -173.66465111 </i>
    <i name="e_wo_entrp">   -173.55149720 </i>
    <i name="e_0_energy">   -173.63636263 </i>
   </energy>
  </scstep>
  <scstep>
   <time name="diag">   58.37   58.37</time>
   <time name="diis">  154.93  154.93</time>
   <time name="orth">   11.16   11.16</time>
   <time name="total">  259.34  259.34</time>
   <energy>
    <i name="e_fr_energy">   -173.66523967 </i>
    <i name="e_wo_entrp">   -173.55181781 </i>
    <i name="e_0_energy">   -173.63688421 </i>
   </energy>
  </scstep>
  <scstep>
   <time name="diag">   57.59   57.59</time>
   <time name="diis">  152.40  152.40</time>
   <time name="orth">   11.21   11.21</time>
   <time name="total">  255.85  255.86</time>
   <energy>
    <i name="e_fr_energy">   -173.66575034 </i>
    <i name="e_wo_entrp">   -173.55473813 </i>
    <i name="e_0_energy">   -173.63799729 </i>
   </energy>
  </scstep>
  <scstep>
   <time name="diag">   57.72   57.72</time>
   <time name="diis">  149.90  149.90</time>
   <time name="orth">   11.41   11.41</time>
   <time name="total">  254.27  254.27</time>
   <energy>
    <i name="e_fr_energy">   -173.66750342 </i>
    <i name="e_wo_entrp">   -173.55766244 </i>
    <i name="e_0_energy">   -173.64004317 </i>
   </energy>
  </scstep>
  <scstep>
   <time name="diag">   58.38   58.38</time>
   <time name="diis">  154.24  154.24</time>
   <time name="orth">   11.15   11.15</time>
   <time name="total">  259.22  259.23</time>
   <energy>
    <i name="e_fr_energy">   -173.67094385 </i>
    <i name="e_wo_entrp">   -173.56230527 </i>
    <i name="e_0_energy">   -173.64378420 </i>
   </energy>
  </scstep>
  <scstep>
   <time name="diag">   57.47   57.47</time>
   <time name="diis">  131.10  131.10</time>
   <time name="orth">   11.19   11.19</time>
   <time name="total">  234.70  234.70</time>
   <energy>
    <i name="e_fr_energy">   -173.67254040 </i>
    <i name="e_wo_entrp">   -173.56464372 </i>
    <i name="e_0_energy">   -173.64556623 </i>
   </energy>
  </scstep>
  <scstep>
   <time name="diag">   57.43   57.43</time>
   <time name="diis">  138.74  138.74</time>
   <time name="orth">   11.20   11.20</time>
   <time name="total">  242.55  242.55</time>
   <energy>
    <i name="e_fr_energy">   -173.67678306 </i>
    <i name="e_wo_entrp">   -173.56927845 </i>
    <i name="e_0_energy">   -173.64990691 </i>
   </energy>
  </scstep>
  <scstep>
   <time name="diag">   57.44   57.44</time>
   <time name="diis">  107.16  107.16</time>
   <time name="orth">   11.15   11.15</time>
   <time name="total">  211.18  211.18</time>
   <energy>
    <i name="e_fr_energy">   -173.67828691 </i>
    <i name="e_wo_entrp">   -173.56870503 </i>
    <i name="e_0_energy">   -173.65089144 </i>
   </energy>
  </scstep>
  <scstep>
   <time name="diag">   58.34   58.34</time>
   <time name="diis">  107.06  107.06</time>
   <time name="orth">   11.37   11.37</time>
   <time name="total">  212.69  212.69</time>
   <energy>
    <i name="e_fr_energy">   -173.68024968 </i>
    <i name="e_wo_entrp">   -173.56996365 </i>
    <i name="e_0_energy">   -173.65267817 </i>
   </energy>
  </scstep>
  <scstep>
   <time name="diag">   58.05   58.05</time>
   <time name="diis">  101.44  101.44</time>
   <time name="orth">   11.14   11.14</time>
   <time name="total">  206.60  206.60</time>
   <energy>
    <i name="e_fr_energy">   -173.68126520 </i>
    <i name="e_wo_entrp">   -173.57209257 </i>
    <i name="e_0_energy">   -173.65397204 </i>
   </energy>
  </scstep>
  <scstep>
   <time name="diag">   57.07   57.07</time>
   <time name="diis">   98.72   98.72</time>
   <time name="orth">   11.26   11.26</time>
   <time name="total">  202.69  202.69</time>
   <energy>
    <i name="e_fr_energy">   -173.68265103 </i>
    <i name="e_wo_entrp">   -173.57459532 </i>
    <i name="e_0_energy">   -173.65563710 </i>
   </energy>
  </scstep>
  <scstep>
   <time name="diag">   57.50   57.50</time>
   <time name="diis">  100.56  100.56</time>
   <time name="orth">   11.26   11.26</time>
   <time name="total">  205.17  205.18</time>
   <energy>
    <i name="e_fr_energy">   -173.68432926 </i>
    <i name="e_wo_entrp">   -173.57573175 </i>
    <i name="e_0_energy">   -173.65717988 </i>
   </energy>
  </scstep>
  <scstep>
   <time name="diag">   58.00   58.00</time>
   <time name="diis">   99.71   99.71</time>
   <time name="orth">   11.11   11.11</time>
   <time name="total">  204.57  204.58</time>
   <energy>
    <i name="e_fr_energy">   -173.68508786 </i>
    <i name="e_wo_entrp">   -173.57619200 </i>
    <i name="e_0_energy">   -173.65786389 </i>
   </energy>
  </scstep>
  <scstep>
   <time name="diag">   57.70   57.70</time>
   <time name="diis">   98.23   98.23</time>
   <time name="orth">   11.10   11.10</time>
   <time name="total">  202.84  202.85</time>
   <energy>
    <i name="e_fr_energy">   -173.68677086 </i>
    <i name="e_wo_entrp">   -173.57808600 </i>
    <i name="e_0_energy">   -173.65959964 </i>
   </energy>
  </scstep>
  <scstep>
   <time name="diag">   57.01   57.01</time>
   <time name="diis">   97.64   97.64</time>
   <time name="orth">   11.24   11.24</time>
   <time name="total">  201.73  201.73</time>
   <energy>
    <i name="e_fr_energy">   -173.68743218 </i>
    <i name="e_wo_entrp">   -173.57851200 </i>
    <i name="e_0_energy">   -173.66020213 </i>
   </energy>
  </scstep>
  <scstep>
   <time name="diag">   57.72   57.72</time>
   <time name="diis">   98.06   98.06</time>
   <time name="orth">   11.46   11.46</time>
   <time name="total">  204.01  204.01</time>
   <energy>
    <i name="e_fr_energy">   -173.68904623 </i>
    <i name="e_wo_entrp">   -173.57977660 </i>
    <i name="e_0_energy">   -173.66172882 </i>
   </energy>
  </scstep>
  <scstep>
   <time name="diag">   58.38   58.38</time>
   <time name="diis">   98.92   98.92</time>
   <time name="orth">   11.59   11.59</time>
   <time name="total">  206.17  206.17</time>
   <energy>
    <i name="e_fr_energy">   -173.68977279 </i>
    <i name="e_wo_entrp">   -173.58078763 </i>
    <i name="e_0_energy">   -173.66252650 </i>
   </energy>
  </scstep>
  <scstep>
   <time name="diag">   57.84   57.84</time>
   <time name="diis">   95.71   95.71</time>
   <time name="orth">   11.02   11.01</time>
   <time name="total">  201.15  201.15</time>
   <energy>
    <i name="e_fr_energy">   -173.69017131 </i>
    <i name="e_wo_entrp">   -173.58134698 </i>
    <i name="e_0_energy">   -173.66296523 </i>
   </energy>
  </scstep>
  <scstep>
   <time name="diag">   57.24   57.24</time>
   <time name="diis">   94.99   94.99</time>
   <time name="orth">   11.42   11.42</time>
   <time name="total">  199.36  199.36</time>
   <energy>
    <i name="e_fr_energy">   -173.69074705 </i>
    <i name="e_wo_entrp">   -173.58177862 </i>
    <i name="e_0_energy">   -173.66350494 </i>
   </energy>
  </scstep>
  <scstep>
   <time name="diag">   56.87   56.87</time>
   <time name="diis">   73.76   73.76</time>
   <time name="orth">   11.24   11.24</time>
   <time name="total">  177.87  177.88</time>
   <energy>
    <i name="e_fr_energy">   -173.69088671 </i>
    <i name="e_wo_entrp">   -173.58186242 </i>
    <i name="e_0_energy">   -173.66363064 </i>
   </energy>
  </scstep>
  <scstep>
   <time name="diag">   57.36   57.36</time>
   <time name="diis">   73.93   73.93</time>
   <time name="orth">   11.14   11.14</time>
   <time name="total">  178.44  178.44</time>
   <energy>
    <i name="e_fr_energy">   -173.69118795 </i>
    <i name="e_wo_entrp">   -173.58224821 </i>
    <i name="e_0_energy">   -173.66395302 </i>
   </energy>
  </scstep>
  <scstep>
   <time name="diag">   57.44   57.44</time>
   <time name="diis">   69.94   69.94</time>
   <time name="orth">   11.10   11.10</time>
   <time name="total">  174.40  174.41</time>
   <energy>
    <i name="e_fr_energy">   -173.69141410 </i>
    <i name="e_wo_entrp">   -173.58238555 </i>
    <i name="e_0_energy">   -173.66415696 </i>
   </energy>
  </scstep>
  <scstep>
   <time name="diag">   56.93   56.93</time>
   <time name="diis">   68.88   68.88</time>
   <time name="orth">   11.24   11.24</time>
   <time name="total">  173.08  173.08</time>
   <energy>
    <i name="e_fr_energy">   -173.69155089 </i>
    <i name="e_wo_entrp">   -173.58250585 </i>
    <i name="e_0_energy">   -173.66428963 </i>
   </energy>
  </scstep>
  <scstep>
   <time name="diag">   58.06   58.07</time>
   <time name="diis">   73.01   73.01</time>
   <time name="orth">   11.24   11.24</time>
   <time name="total">  178.71  178.72</time>
   <energy>
    <i name="e_fr_energy">   -173.69175073 </i>
    <i name="e_wo_entrp">   -173.58275488 </i>
    <i name="e_0_energy">   -173.66450177 </i>
   </energy>
  </scstep>
  <scstep>
   <time name="diag">   58.22   58.22</time>
   <time name="diis">   61.75   61.75</time>
   <time name="orth">   11.12   11.12</time>
   <time name="total">  142.49  142.50</time>
   <energy>
    <i name="alphaZ">     75.25431677 </i>
    <i name="ewald"> 136915.62854739 </i>
    <i name="hartreedc">-181293.91696796 </i>
    <i name="XCdc">  -1693.48844809 </i>
    <i name="pawpsdc">  46031.57578722 </i>
    <i name="pawaedc"> -42501.01317617 </i>
    <i name="eentropy">     -0.10898519 </i>
    <i name="bandstr">  -2794.12838532 </i>
    <i name="atom">  45086.50549395 </i>
    <i name="e_fr_energy">   -173.69181740 </i>
    <i name="e_wo_entrp">   -173.58283220 </i>
    <i name="e_0_energy">   -173.66457110 </i>
   </energy>
  </scstep>
  <structure>
   <crystal>
    <varray name="basis" >
     <v>      30.00000000       0.00000000       0.00000000 </v>
     <v>       0.00000000      30.00000000       0.00000000 </v>
     <v>       0.00000000       0.00000000      30.00000000 </v>
    </varray>
    <i name="volume">  27000.00000000 </i>
    <varray name="rec_basis" >
     <v>       0.03333333       0.00000000       0.00000000 </v>
     <v>       0.00000000       0.03333333       0.00000000 </v>
     <v>       0.00000000       0.00000000       0.03333333 </v>
    </varray>
   </crystal>
   <varray name="positions" >
    <v>       0.44576020       0.32826710       0.41691983 </v>
    <v>       0.67173288       0.55423978       0.41691983 </v>
    <v>       0.55423980       0.32826710       0.41691983 </v>
    <v>       0.32826712       0.55423978       0.41691983 </v>
    <v>       0.50000000       0.38250690       0.34021317 </v>
    <v>       0.50000000       0.38250690       0.65978680 </v>
    <v>       0.50000000       0.27609440       0.50000000 </v>
    <v>       0.27609443       0.49999998       0.50000000 </v>
    <v>       0.72390557       0.49999998       0.50000000 </v>
    <v>       0.50000000       0.72390555       0.50000000 </v>
    <v>       0.61195280       0.38804720       0.34167483 </v>
    <v>       0.61195280       0.38804720       0.65832513 </v>
    <v>       0.38804722       0.61195278       0.34167483 </v>
    <v>       0.38804722       0.61195278       0.65832513 </v>
    <v>       0.38804720       0.38804720       0.34167483 </v>
    <v>       0.38804720       0.38804720       0.65832513 </v>
    <v>       0.61195278       0.61195278       0.34167483 </v>
    <v>       0.61195278       0.61195278       0.65832513 </v>
    <v>       0.44576020       0.32826710       0.58308023 </v>
    <v>       0.67173288       0.55423978       0.58308023 </v>
    <v>       0.55791699       0.44208301       0.41809300 </v>
    <v>       0.32826705       0.44576024       0.41691983 </v>
    <v>       0.55423973       0.67173293       0.41691983 </v>
    <v>       0.55423980       0.32826710       0.58308023 </v>
    <v>       0.32826712       0.55423978       0.58308023 </v>
    <v>       0.67173295       0.44576024       0.41691983 </v>
    <v>       0.44576027       0.67173293       0.41691983 </v>
    <v>       0.44208301       0.44208301       0.41809300 </v>
    <v>       0.50000000       0.38416601       0.50000000 </v>
    <v>       0.61749315       0.50000005       0.34021317 </v>
    <v>       0.61749315       0.50000005       0.65978680 </v>
    <v>       0.38250685       0.50000005       0.34021317 </v>
    <v>       0.38250685       0.50000005       0.65978680 </v>
    <v>       0.38317830       0.38317830       0.50000000 </v>
    <v>       0.61682172       0.61682172       0.50000000 </v>
    <v>       0.61682170       0.38317830       0.50000000 </v>
    <v>       0.38317828       0.61682172       0.50000000 </v>
    <v>       0.50000000       0.50000000       0.33478917 </v>
    <v>       0.50000000       0.50000000       0.66521087 </v>
    <v>       0.32826705       0.44576024       0.58308023 </v>
    <v>       0.55423973       0.67173293       0.58308023 </v>
    <v>       0.55791699       0.44208301       0.58190703 </v>
    <v>       0.44208298       0.55791702       0.41809300 </v>
    <v>       0.44208301       0.44208301       0.58190703 </v>
    <v>       0.67173295       0.44576024       0.58308023 </v>
    <v>       0.44576027       0.67173293       0.58308023 </v>
    <v>       0.55791702       0.55791702       0.41809300 </v>
    <v>       0.38416599       0.50000002       0.50000000 </v>
    <v>       0.61583401       0.50000002       0.50000000 </v>
    <v>       0.50000000       0.61749319       0.34021317 </v>
    <v>       0.50000000       0.61749319       0.65978680 </v>
    <v>       0.50000000       0.50000000       0.50000000 </v>
    <v>       0.44208298       0.55791702       0.58190703 </v>
    <v>       0.55791702       0.55791702       0.58190703 </v>
    <v>       0.50000000       0.61583404       0.50000000 </v>
    <v>       0.75894647       0.40682273       0.61223197 </v>
    <v>       0.79170620       0.39503473       0.62643063 </v>
   </varray>
  </structure>
  <varray name="forces" >
   <v>       0.70341772       1.10870462       0.29032776 </v>
   <v>      -1.10529589      -0.70497722       0.29763582 </v>
   <v>      -0.70659489       1.10969804       0.29062666 </v>
   <v>       1.10856227      -0.70321861       0.29242399 </v>
   <v>      -0.00127429       0.41322208       1.28131784 </v>
   <v>       0.00536949       0.41567511      -1.28026399 </v>
   <v>      -0.00013035       1.51734814      -0.00058291 </v>
   <v>       1.51619289       0.00006837      -0.00125240 </v>
   <v>      -1.51883888       0.01833493      -0.02131493 </v>
   <v>       0.00041238      -1.51719641      -0.00039439 </v>
   <v>      -0.75700488       0.75646648       1.07252853 </v>
   <v>      -0.77829717       0.75314025      -1.06366028 </v>
   <v>       0.75545271      -0.75664098       1.07183903 </v>
   <v>       0.75636462      -0.75669653      -1.07231212 </v>
   <v>       0.75828524       0.75481285       1.07246374 </v>
   <v>       0.75374425       0.75898842      -1.07438335 </v>
   <v>      -0.76014264      -0.75489196       1.07214650 </v>
   <v>      -0.75249068      -0.75945530      -1.07284249 </v>
   <v>       0.70395743       1.10880880      -0.29243259 </v>
   <v>      -1.12023526      -0.68159627      -0.29735054 </v>
   <v>       0.11395187      -0.11236471      -0.15724234 </v>
   <v>       1.10896135       0.70383253       0.29254344 </v>
   <v>      -0.70302549      -1.10786046       0.29072441 </v>
   <v>      -0.70432558       1.10737019      -0.29292521 </v>
   <v>       1.10996296      -0.70217444      -0.29126382 </v>
   <v>      -1.10886776       0.70299704       0.29024396 </v>
   <v>       0.70449160      -1.10769365       0.29384103 </v>
   <v>      -0.11300548      -0.11315121      -0.15882123 </v>
   <v>       0.00135895      -0.23033680       0.00096015 </v>
   <v>      -0.41402298      -0.00011971       1.28166290 </v>
   <v>      -0.43418524       0.01170406      -1.27503448 </v>
   <v>       0.41452489       0.00020727       1.28121178 </v>
   <v>       0.41326674      -0.00081799      -1.28032308 </v>
   <v>       0.82885288       0.82904732      -0.00006503 </v>
   <v>      -0.82785980      -0.83089703       0.00354126 </v>
   <v>      -0.84431069       0.82672913      -0.01277236 </v>
   <v>       0.82983494      -0.82964362      -0.00007074 </v>
   <v>      -0.00009222       0.00029787       1.17786186 </v>
   <v>       0.00440946       0.00090189      -1.17903865 </v>
   <v>       1.11102310       0.70060347      -0.29046230 </v>
   <v>      -0.70483931      -1.10781126      -0.29369211 </v>
   <v>       0.13309746      -0.10092676       0.15126349 </v>
   <v>      -0.11401796       0.11148161      -0.15685288 </v>
   <v>      -0.12206723      -0.11194990       0.15944861 </v>
   <v>      -0.72067996       0.51092399      -0.16597522 </v>
   <v>       0.70323928      -1.10797405      -0.29236431 </v>
   <v>       0.10793929       0.11898113      -0.16452990 </v>
   <v>      -0.22934495       0.00112649      -0.00212542 </v>
   <v>       0.22562804      -0.00615212       0.01666639 </v>
   <v>       0.00448451      -0.41561601       1.28104847 </v>
   <v>      -0.00185268      -0.41399681      -1.28176074 </v>
   <v>       0.00627098      -0.00093869       0.00346598 </v>
   <v>      -0.11294807       0.11201107       0.15762395 </v>
   <v>       0.11258325       0.11002652       0.15584061 </v>
   <v>       0.00013233       0.23030216      -0.00074158 </v>
   <v>      -2.49298174       0.91738384      -1.04931871 </v>
   <v>       2.15295915      -0.77609718       0.94291192 </v>
  </varray>
  <varray name="stress" >
   <v>      -6.68575304      -0.02147341       0.03601619 </v>
   <v>      -0.02147341      -6.74995775      -0.01193714 </v>
   <v>       0.03601620      -0.01193717      -6.74036577 </v>
  </varray>
  <energy>
   <i name="e_fr_energy">   -173.69181740 </i>
   <i name="e_wo_entrp">   -173.66457110 </i>
   <i name="e_0_energy">     -0.10898519 </i>
  </energy>
  <time name="totalsc">15414.5515414.80</time>
  <eigenvalues>
   <array>
    <dimension dim="1">band</dimension>
    <dimension dim="2">kpoint</dimension>
    <dimension dim="3">spin</dimension>
    <field>eigene</field>
    <field>occ</field>
    <set>
     <set comment="spin 1">
      <set comment="kpoint 1">
       <r>  -29.3245    1.0000 </r>
       <r>  -13.8303    1.0000 </r>
       <r>  -11.6216    1.0000 </r>
       <r>  -11.6204    1.0000 </r>
       <r>   -9.1104    1.0000 </r>
       <r>   -6.6168    1.0000 </r>
       <r>   -6.0973    1.0000 </r>
       <r>   -6.0970    1.0000 </r>
       <r>   -6.0924    1.0000 </r>
       <r>   -5.7836    1.0000 </r>
       <r>   -5.7824    1.0000 </r>
       <r>   -5.7801    1.0000 </r>
       <r>   -5.7162    1.0000 </r>
       <r>   -5.6630    1.0000 </r>
       <r>   -5.6553    1.0000 </r>
       <r>   -5.6552    1.0000 </r>
       <r>   -5.6539    1.0000 </r>
       <r>   -5.5929    1.0000 </r>
       <r>   -5.5923    1.0000 </r>
       <r>   -5.5804    1.0000 </r>
       <r>   -5.5684    1.0000 </r>
       <r>   -5.5675    1.0000 </r>
       <r>   -5.5659    1.0000 </r>
       <r>   -5.5229    1.0000 </r>
       <r>   -5.5184    1.0000 </r>
       <r>   -5.5177    1.0000 </r>
       <r>   -5.5173    1.0000 </r>
       <r>   -5.4919    1.0000 </r>
       <r>   -5.4916    1.0000 </r>
       <r>   -5.4903    1.0000 </r>
       <r>   -5.4859    1.0000 </r>
       <r>   -5.4837    1.0000 </r>
       <r>   -5.4831    1.0000 </r>
       <r>   -5.4827    1.0000 </r>
       <r>   -5.4815    1.0000 </r>
       <r>   -5.4501    1.0000 </r>
       <r>   -5.4490    1.0000 </r>
       <r>   -5.4401    1.0000 </r>
       <r>   -5.4394    1.0000 </r>
       <r>   -5.4386    1.0000 </r>
       <r>   -5.4386    1.0000 </r>
       <r>   -5.4374    1.0000 </r>
       <r>   -5.4374    1.0000 </r>
       <r>   -5.4013    1.0000 </r>
       <r>   -5.4004    1.0000 </r>
       <r>   -5.3995    1.0000 </r>
       <r>   -5.3971    1.0000 </r>
       <r>   -5.3967    1.0000 </r>
       <r>   -5.3925    1.0000 </r>
       <r>   -5.3916    1.0000 </r>
       <r>   -5.3914    1.0000 </r>
       <r>   -5.3762    1.0000 </r>
       <r>   -5.3757    1.0000 </r>
       <r>   -5.3749    1.0000 </r>
       <r>   -5.3598    1.0000 </r>
       <r>   -5.2992    1.0000 </r>
       <r>   -5.2977    1.0000 </r>
       <r>   -5.2964    1.0000 </r>
       <r>   -5.2960    1.0000 </r>
       <r>   -5.2876    1.0000 </r>
       <r>   -5.2871    1.0000 </r>
       <r>   -5.2868    1.0000 </r>
       <r>   -5.2719    1.0000 </r>
       <r>   -5.2709    1.0000 </r>
       <r>   -5.2703    1.0000 </r>
       <r>   -5.2576    1.0000 </r>
       <r>   -5.2574    1.0000 </r>
       <r>   -5.1858    1.0000 </r>
       <r>   -5.1762    1.0000 </r>
       <r>   -5.1746    1.0000 </r>
       <r>   -5.1740    1.0000 </r>
       <r>   -5.1550    1.0000 </r>
       <r>   -5.1515    1.0000 </r>
       <r>   -5.1504    1.0000 </r>
       <r>   -5.1493    1.0000 </r>
       <r>   -5.1492    1.0000 </r>
       <r>   -5.1331    1.0000 </r>
       <r>   -5.1325    1.0000 </r>
       <r>   -5.1316    1.0000 </r>
       <r>   -5.1186    1.0000 </r>
       <r>   -5.0956    1.0000 </r>
       <r>   -5.0948    1.0000 </r>
       <r>   -5.0943    1.0000 </r>
       <r>   -5.0840    1.0000 </r>
       <r>   -5.0743    1.0000 </r>
       <r>   -5.0736    1.0000 </r>
       <r>   -5.0728    1.0000 </r>
       <r>   -5.0310    1.0000 </r>
       <r>   -5.0307    1.0000 </r>
       <r>   -5.0252    1.0000 </r>
       <r>   -5.0249    1.0000 </r>
       <r>   -5.0246    1.0000 </r>
       <r>   -5.0204    1.0000 </r>
       <r>   -5.0198    1.0000 </r>
       <r>   -5.0189    1.0000 </r>
       <r>   -5.0004    1.0000 </r>
       <r>   -4.9997    1.0000 </r>
       <r>   -4.9991    1.0000 </r>
       <r>   -4.9909    1.0000 </r>
       <r>   -4.9885    1.0000 </r>
       <r>   -4.9770    1.0000 </r>
       <r>   -4.9757    1.0000 </r>
       <r>   -4.9750    1.0000 </r>
       <r>   -4.9628    1.0000 </r>
       <r>   -4.9620    1.0000 </r>
       <r>   -4.9614    1.0000 </r>
       <r>   -4.9526    1.0000 </r>
       <r>   -4.9509    1.0000 </r>
       <r>   -4.9498    1.0000 </r>
       <r>   -4.9391    1.0000 </r>
       <r>   -4.9388    1.0000 </r>
       <r>   -4.9288    1.0000 </r>
       <r>   -4.9277    1.0000 </r>
       <r>   -4.9247    1.0000 </r>
       <r>   -4.9241    1.0000 </r>
       <r>   -4.9227    1.0000 </r>
       <r>   -4.9073    1.0000 </r>
       <r>   -4.8890    1.0000 </r>
       <r>   -4.8880    1.0000 </r>
       <r>   -4.8878    1.0000 </r>
       <r>   -4.8724    1.0000 </r>
       <r>   -4.8723    1.0000 </r>
       <r>   -4.8717    1.0000 </r>
       <r>   -4.8705    1.0000 </r>
       <r>   -4.8700    1.0000 </r>
       <r>   -4.8699    1.0000 </r>
       <r>   -4.8160    1.0000 </r>
       <r>   -4.8147    1.0000 </r>
       <r>   -4.8142    1.0000 </r>
       <r>   -4.8113    1.0000 </r>
       <r>   -4.8107    1.0000 </r>
       <r>   -4.8105    1.0000 </r>
       <r>   -4.8019    1.0000 </r>
       <r>   -4.8004    1.0000 </r>
       <r>   -4.8002    1.0000 </r>
       <r>   -4.7653    0.9999 </r>
       <r>   -4.7623    0.9999 </r>
       <r>   -4.7620    0.9999 </r>
       <r>   -4.7614    0.9999 </r>
       <r>   -4.7367    0.9998 </r>
       <r>   -4.7358    0.9998 </r>
       <r>   -4.7340    0.9998 </r>
       <r>   -4.7093    0.9996 </r>
       <r>   -4.7070    0.9996 </r>
       <r>   -4.7066    0.9996 </r>
       <r>   -4.6935    0.9995 </r>
       <r>   -4.6931    0.9995 </r>
       <r>   -4.6764    0.9993 </r>
       <r>   -4.6602    0.9990 </r>
       <r>   -4.6578    0.9989 </r>
       <r>   -4.6562    0.9989 </r>
       <r>   -4.6542    0.9989 </r>
       <r>   -4.6439    0.9986 </r>
       <r>   -4.6430    0.9986 </r>
       <r>   -4.6421    0.9986 </r>
       <r>   -4.6418    0.9986 </r>
       <r>   -4.6416    0.9986 </r>
       <r>   -4.6403    0.9985 </r>
       <r>   -4.6215    0.9980 </r>
       <r>   -4.6208    0.9980 </r>
       <r>   -4.6197    0.9980 </r>
       <r>   -4.6162    0.9979 </r>
       <r>   -4.6160    0.9979 </r>
       <r>   -4.6155    0.9978 </r>
       <r>   -4.6151    0.9978 </r>
       <r>   -4.6148    0.9978 </r>
       <r>   -4.6126    0.9977 </r>
       <r>   -4.6114    0.9977 </r>
       <r>   -4.5990    0.9973 </r>
       <r>   -4.5987    0.9973 </r>
       <r>   -4.5681    0.9961 </r>
       <r>   -4.5675    0.9961 </r>
       <r>   -4.5671    0.9961 </r>
       <r>   -4.5645    0.9960 </r>
       <r>   -4.5643    0.9960 </r>
       <r>   -4.5638    0.9960 </r>
       <r>   -4.5618    0.9959 </r>
       <r>   -4.5592    0.9958 </r>
       <r>   -4.5469    0.9954 </r>
       <r>   -4.5442    0.9954 </r>
       <r>   -4.5432    0.9953 </r>
       <r>   -4.5255    0.9951 </r>
       <r>   -4.5243    0.9951 </r>
       <r>   -4.5225    0.9951 </r>
       <r>   -4.5222    0.9951 </r>
       <r>   -4.5216    0.9951 </r>
       <r>   -4.5214    0.9951 </r>
       <r>   -4.5180    0.9951 </r>
       <r>   -4.5171    0.9951 </r>
       <r>   -4.5170    0.9951 </r>
       <r>   -4.4771    0.9973 </r>
       <r>   -4.4753    0.9975 </r>
       <r>   -4.4747    0.9975 </r>
       <r>   -4.4743    0.9976 </r>
       <r>   -4.4738    0.9976 </r>
       <r>   -4.4626    0.9993 </r>
       <r>   -4.4514    1.0014 </r>
       <r>   -4.4510    1.0015 </r>
       <r>   -4.4484    1.0021 </r>
       <r>   -4.4399    1.0041 </r>
       <r>   -4.4396    1.0042 </r>
       <r>   -4.4291    1.0073 </r>
       <r>   -4.4277    1.0077 </r>
       <r>   -4.4270    1.0079 </r>
       <r>   -4.4195    1.0105 </r>
       <r>   -4.4182    1.0110 </r>
       <r>   -4.4168    1.0115 </r>
       <r>   -4.4125    1.0131 </r>
       <r>   -4.4102    1.0140 </r>
       <r>   -4.4100    1.0141 </r>
       <r>   -4.3913    1.0221 </r>
       <r>   -4.3812    1.0268 </r>
       <r>   -4.3791    1.0278 </r>
       <r>   -4.3782    1.0283 </r>
       <r>   -4.3778    1.0285 </r>
       <r>   -4.3773    1.0287 </r>
       <r>   -4.3737    1.0304 </r>
       <r>   -4.3713    1.0316 </r>
       <r>   -4.3706    1.0319 </r>
       <r>   -4.3359    1.0468 </r>
       <r>   -4.3354    1.0470 </r>
       <r>   -4.3349    1.0472 </r>
       <r>   -4.3112    1.0516 </r>
       <r>   -4.3101    1.0516 </r>
       <r>   -4.3073    1.0516 </r>
       <r>   -4.3065    1.0515 </r>
       <r>   -4.3056    1.0515 </r>
       <r>   -4.3051    1.0514 </r>
       <r>   -4.3023    1.0511 </r>
       <r>   -4.3020    1.0511 </r>
       <r>   -4.3014    1.0510 </r>
       <r>   -4.2968    1.0500 </r>
       <r>   -4.2948    1.0495 </r>
       <r>   -4.2942    1.0493 </r>
       <r>   -4.2921    1.0486 </r>
       <r>   -4.2918    1.0485 </r>
       <r>   -4.2906    1.0480 </r>
       <r>   -4.2892    1.0474 </r>
       <r>   -4.2866    1.0463 </r>
       <r>   -4.2862    1.0461 </r>
       <r>   -4.2710    1.0353 </r>
       <r>   -4.2701    1.0345 </r>
       <r>   -4.2547    1.0160 </r>
       <r>   -4.2536    1.0145 </r>
       <r>   -4.2531    1.0137 </r>
       <r>   -4.2524    1.0126 </r>
       <r>   -4.2522    1.0123 </r>
       <r>   -4.2509    1.0103 </r>
       <r>   -4.2478    1.0052 </r>
       <r>   -4.2330    0.9760 </r>
       <r>   -4.2328    0.9755 </r>
       <r>   -4.2242    0.9549 </r>
       <r>   -4.2231    0.9519 </r>
       <r>   -4.2221    0.9494 </r>
       <r>   -4.2174    0.9364 </r>
       <r>   -4.2169    0.9351 </r>
       <r>   -4.2132    0.9241 </r>
       <r>   -4.2130    0.9233 </r>
       <r>   -4.2124    0.9215 </r>
       <r>   -4.2122    0.9211 </r>
       <r>   -4.2087    0.9101 </r>
       <r>   -4.2069    0.9043 </r>
       <r>   -4.2063    0.9024 </r>
       <r>   -4.2059    0.9011 </r>
       <r>   -4.2028    0.8906 </r>
       <r>   -4.1997    0.8800 </r>
       <r>   -4.1911    0.8484 </r>
       <r>   -4.1878    0.8353 </r>
       <r>   -4.1875    0.8343 </r>
       <r>   -4.1866    0.8306 </r>
       <r>   -4.1844    0.8219 </r>
       <r>   -4.1828    0.8154 </r>
       <r>   -4.1610    0.7184 </r>
       <r>   -4.1605    0.7160 </r>
       <r>   -4.1571    0.6996 </r>
       <r>   -4.1465    0.6470 </r>
       <r>   -4.1462    0.6459 </r>
       <r>   -4.1456    0.6428 </r>
       <r>   -4.1402    0.6149 </r>
       <r>   -4.1382    0.6046 </r>
       <r>   -4.1375    0.6012 </r>
       <r>   -4.1253    0.5374 </r>
       <r>   -4.0961    0.3842 </r>
       <r>   -4.0961    0.3838 </r>
       <r>   -4.0958    0.3823 </r>
       <r>   -4.0945    0.3760 </r>
       <r>   -4.0938    0.3722 </r>
       <r>   -4.0798    0.3024 </r>
       <r>   -4.0794    0.3002 </r>
       <r>   -3.9379   -0.0504 </r>
       <r>   -3.8612   -0.0296 </r>
       <r>   -3.7898   -0.0024 </r>
       <r>   -3.7842   -0.0012 </r>
       <r>   -3.7744    0.0006 </r>
       <r>   -3.4595    0.0001 </r>
       <r>   -3.4564    0.0001 </r>
       <r>   -3.4383    0.0000 </r>
       <r>   -3.0256    0.0000 </r>
       <r>   -3.0230    0.0000 </r>
       <r>   -3.0115    0.0000 </r>
       <r>   -2.9883    0.0000 </r>
       <r>   -2.9829    0.0000 </r>
       <r>   -2.9567    0.0000 </r>
       <r>   -2.9043    0.0000 </r>
       <r>   -2.8987    0.0000 </r>
       <r>   -2.4897    0.0000 </r>
       <r>   -2.4886    0.0000 </r>
       <r>   -2.4565    0.0000 </r>
       <r>   -2.3222    0.0000 </r>
       <r>   -2.0945    0.0000 </r>
       <r>   -2.0862    0.0000 </r>
       <r>   -2.0767    0.0000 </r>
       <r>   -1.9837    0.0000 </r>
       <r>   -1.9417    0.0000 </r>
       <r>   -1.9084    0.0000 </r>
       <r>   -1.8410    0.0000 </r>
       <r>   -1.8090    0.0000 </r>
       <r>   -1.7330    0.0000 </r>
       <r>   -1.7211    0.0000 </r>
       <r>   -1.6975    0.0000 </r>
       <r>   -1.6096    0.0000 </r>
       <r>   -1.5986    0.0000 </r>
       <r>   -1.5329    0.0000 </r>
       <r>   -1.5169    0.0000 </r>
       <r>   -1.4892    0.0000 </r>
       <r>   -1.2046    0.0000 </r>
       <r>   -1.1875    0.0000 </r>
       <r>   -1.1803    0.0000 </r>
       <r>   -0.9637    0.0000 </r>
       <r>   -0.9574    0.0000 </r>
       <r>   -0.9380    0.0000 </r>
       <r>   -0.9047    0.0000 </r>
       <r>   -0.8809    0.0000 </r>
       <r>   -0.7748    0.0000 </r>
       <r>   -0.7095    0.0000 </r>
       <r>   -0.6271    0.0000 </r>
      </set>
     </set>
    </set>
   </array>
  </eigenvalues>
  <separator name="orbital magnetization" >
   <v name="MAGDIPOLOUT">      0.00000000      0.00000000      0.00000000</v>
  </separator>
  <dos>
   <i name="efermi">     -4.11824620 </i>
   <total>
    <array>
     <dimension dim="1">gridpoints</dimension>
     <dimension dim="2">spin</dimension>
     <field>energy</field>
     <field>total</field>
     <field>integrated</field>
     <set>
      <set comment="spin 1">
       <r>   -31.3245     0.0000     0.0000 </r>
       <r>   -31.2155     0.0000     0.0000 </r>
       <r>   -31.1065     0.0000     0.0000 </r>
       <r>   -30.9975     0.0000     0.0000 </r>
       <r>   -30.8885     0.0000     0.0000 </r>
       <r>   -30.7795     0.0000     0.0000 </r>
       <r>   -30.6705     0.0000     0.0000 </r>
       <r>   -30.5616     0.0000     0.0000 </r>
       <r>   -30.4526     0.0000     0.0000 </r>
       <r>   -30.3436     0.0000     0.0000 </r>
       <r>   -30.2346     0.0000     0.0000 </r>
       <r>   -30.1256     0.0000     0.0000 </r>
       <r>   -30.0166     0.0005     0.0001 </r>
       <r>   -29.9076     0.0075     0.0009 </r>
       <r>   -29.7986     0.0465     0.0059 </r>
       <r>   -29.6896     0.0075     0.0068 </r>
       <r>   -29.5806    -0.6144    -0.0602 </r>
       <r>   -29.4716     0.0086    -0.0593 </r>
       <r>   -29.3627     6.1183     0.6076 </r>
       <r>   -29.2537     9.8483     1.6810 </r>
       <r>   -29.1447     3.8506     2.1006 </r>
       <r>   -29.0357    -0.6438     2.0305 </r>
       <r>   -28.9267    -0.3696     1.9902 </r>
       <r>   -28.8177     0.0557     1.9963 </r>
       <r>   -28.7087     0.0305     1.9996 </r>
       <r>   -28.5997     0.0036     2.0000 </r>
       <r>   -28.4907     0.0002     2.0000 </r>
       <r>   -28.3817     0.0000     2.0000 </r>
       <r>   -28.2727     0.0000     2.0000 </r>
       <r>   -28.1637     0.0000     2.0000 </r>
       <r>   -28.0548     0.0000     2.0000 </r>
       <r>   -27.9458     0.0000     2.0000 </r>
       <r>   -27.8368     0.0000     2.0000 </r>
       <r>   -27.7278     0.0000     2.0000 </r>
       <r>   -27.6188     0.0000     2.0000 </r>
       <r>   -27.5098     0.0000     2.0000 </r>
       <r>   -27.4008     0.0000     2.0000 </r>
       <r>   -27.2918     0.0000     2.0000 </r>
       <r>   -27.1828     0.0000     2.0000 </r>
       <r>   -27.0738     0.0000     2.0000 </r>
       <r>   -26.9648     0.0000     2.0000 </r>
       <r>   -26.8558     0.0000     2.0000 </r>
       <r>   -26.7469     0.0000     2.0000 </r>
       <r>   -26.6379     0.0000     2.0000 </r>
       <r>   -26.5289     0.0000     2.0000 </r>
       <r>   -26.4199     0.0000     2.0000 </r>
       <r>   -26.3109     0.0000     2.0000 </r>
       <r>   -26.2019     0.0000     2.0000 </r>
       <r>   -26.0929     0.0000     2.0000 </r>
       <r>   -25.9839     0.0000     2.0000 </r>
       <r>   -25.8749     0.0000     2.0000 </r>
       <r>   -25.7659     0.0000     2.0000 </r>
       <r>   -25.6569     0.0000     2.0000 </r>
       <r>   -25.5480     0.0000     2.0000 </r>
       <r>   -25.4390     0.0000     2.0000 </r>
       <r>   -25.3300     0.0000     2.0000 </r>
       <r>   -25.2210     0.0000     2.0000 </r>
       <r>   -25.1120     0.0000     2.0000 </r>
       <r>   -25.0030     0.0000     2.0000 </r>
       <r>   -24.8940     0.0000     2.0000 </r>
       <r>   -24.7850     0.0000     2.0000 </r>
       <r>   -24.6760     0.0000     2.0000 </r>
       <r>   -24.5670     0.0000     2.0000 </r>
       <r>   -24.4580     0.0000     2.0000 </r>
       <r>   -24.3490     0.0000     2.0000 </r>
       <r>   -24.2401     0.0000     2.0000 </r>
       <r>   -24.1311     0.0000     2.0000 </r>
       <r>   -24.0221     0.0000     2.0000 </r>
       <r>   -23.9131     0.0000     2.0000 </r>
       <r>   -23.8041     0.0000     2.0000 </r>
       <r>   -23.6951     0.0000     2.0000 </r>
       <r>   -23.5861     0.0000     2.0000 </r>
       <r>   -23.4771     0.0000     2.0000 </r>
       <r>   -23.3681     0.0000     2.0000 </r>
       <r>   -23.2591     0.0000     2.0000 </r>
       <r>   -23.1501     0.0000     2.0000 </r>
       <r>   -23.0412     0.0000     2.0000 </r>
       <r>   -22.9322     0.0000     2.0000 </r>
       <r>   -22.8232     0.0000     2.0000 </r>
       <r>   -22.7142     0.0000     2.0000 </r>
       <r>   -22.6052     0.0000     2.0000 </r>
       <r>   -22.4962     0.0000     2.0000 </r>
       <r>   -22.3872     0.0000     2.0000 </r>
       <r>   -22.2782     0.0000     2.0000 </r>
       <r>   -22.1692     0.0000     2.0000 </r>
       <r>   -22.0602     0.0000     2.0000 </r>
       <r>   -21.9512     0.0000     2.0000 </r>
       <r>   -21.8422     0.0000     2.0000 </r>
       <r>   -21.7333     0.0000     2.0000 </r>
       <r>   -21.6243     0.0000     2.0000 </r>
       <r>   -21.5153     0.0000     2.0000 </r>
       <r>   -21.4063     0.0000     2.0000 </r>
       <r>   -21.2973     0.0000     2.0000 </r>
       <r>   -21.1883     0.0000     2.0000 </r>
       <r>   -21.0793     0.0000     2.0000 </r>
       <r>   -20.9703     0.0000     2.0000 </r>
       <r>   -20.8613     0.0000     2.0000 </r>
       <r>   -20.7523     0.0000     2.0000 </r>
       <r>   -20.6433     0.0000     2.0000 </r>
       <r>   -20.5343     0.0000     2.0000 </r>
       <r>   -20.4254     0.0000     2.0000 </r>
       <r>   -20.3164     0.0000     2.0000 </r>
       <r>   -20.2074     0.0000     2.0000 </r>
       <r>   -20.0984     0.0000     2.0000 </r>
       <r>   -19.9894     0.0000     2.0000 </r>
       <r>   -19.8804     0.0000     2.0000 </r>
       <r>   -19.7714     0.0000     2.0000 </r>
       <r>   -19.6624     0.0000     2.0000 </r>
       <r>   -19.5534     0.0000     2.0000 </r>
       <r>   -19.4444     0.0000     2.0000 </r>
       <r>   -19.3354     0.0000     2.0000 </r>
       <r>   -19.2265     0.0000     2.0000 </r>
       <r>   -19.1175     0.0000     2.0000 </r>
       <r>   -19.0085     0.0000     2.0000 </r>
       <r>   -18.8995     0.0000     2.0000 </r>
       <r>   -18.7905     0.0000     2.0000 </r>
       <r>   -18.6815     0.0000     2.0000 </r>
       <r>   -18.5725     0.0000     2.0000 </r>
       <r>   -18.4635     0.0000     2.0000 </r>
       <r>   -18.3545     0.0000     2.0000 </r>
       <r>   -18.2455     0.0000     2.0000 </r>
       <r>   -18.1365     0.0000     2.0000 </r>
       <r>   -18.0275     0.0000     2.0000 </r>
       <r>   -17.9186     0.0000     2.0000 </r>
       <r>   -17.8096     0.0000     2.0000 </r>
       <r>   -17.7006     0.0000     2.0000 </r>
       <r>   -17.5916     0.0000     2.0000 </r>
       <r>   -17.4826     0.0000     2.0000 </r>
       <r>   -17.3736     0.0000     2.0000 </r>
       <r>   -17.2646     0.0000     2.0000 </r>
       <r>   -17.1556     0.0000     2.0000 </r>
       <r>   -17.0466     0.0000     2.0000 </r>
       <r>   -16.9376     0.0000     2.0000 </r>
       <r>   -16.8286     0.0000     2.0000 </r>
       <r>   -16.7196     0.0000     2.0000 </r>
       <r>   -16.6107     0.0000     2.0000 </r>
       <r>   -16.5017     0.0000     2.0000 </r>
       <r>   -16.3927     0.0000     2.0000 </r>
       <r>   -16.2837     0.0000     2.0000 </r>
       <r>   -16.1747     0.0000     2.0000 </r>
       <r>   -16.0657     0.0000     2.0000 </r>
       <r>   -15.9567     0.0000     2.0000 </r>
       <r>   -15.8477     0.0000     2.0000 </r>
       <r>   -15.7387     0.0000     2.0000 </r>
       <r>   -15.6297     0.0000     2.0000 </r>
       <r>   -15.5207     0.0000     2.0000 </r>
       <r>   -15.4118     0.0000     2.0000 </r>
       <r>   -15.3028     0.0000     2.0000 </r>
       <r>   -15.1938     0.0000     2.0000 </r>
       <r>   -15.0848     0.0000     2.0000 </r>
       <r>   -14.9758     0.0000     2.0000 </r>
       <r>   -14.8668     0.0000     2.0000 </r>
       <r>   -14.7578     0.0000     2.0000 </r>
       <r>   -14.6488     0.0000     2.0000 </r>
       <r>   -14.5398     0.0003     2.0000 </r>
       <r>   -14.4308     0.0051     2.0006 </r>
       <r>   -14.3218     0.0377     2.0047 </r>
       <r>   -14.2128     0.0398     2.0090 </r>
       <r>   -14.1039    -0.4838     1.9563 </r>
       <r>   -13.9949    -0.4106     1.9116 </r>
       <r>   -13.8859     4.8995     2.4456 </r>
       <r>   -13.7769     9.9908     3.5345 </r>
       <r>   -13.6679     5.0570     4.0856 </r>
       <r>   -13.5589    -0.3660     4.0458 </r>
       <r>   -13.4499    -0.5009     3.9912 </r>
       <r>   -13.3409     0.0366     3.9951 </r>
       <r>   -13.2319     0.0388     3.9994 </r>
       <r>   -13.1229     0.0054     4.0000 </r>
       <r>   -13.0139     0.0003     4.0000 </r>
       <r>   -12.9049     0.0000     4.0000 </r>
       <r>   -12.7960     0.0000     4.0000 </r>
       <r>   -12.6870     0.0000     4.0000 </r>
       <r>   -12.5780     0.0000     4.0000 </r>
       <r>   -12.4690     0.0000     4.0000 </r>
       <r>   -12.3600     0.0002     4.0000 </r>
       <r>   -12.2510     0.0051     4.0006 </r>
       <r>   -12.1420     0.0489     4.0059 </r>
       <r>   -12.0330     0.1252     4.0196 </r>
       <r>   -11.9240    -0.5406     3.9606 </r>
       <r>   -11.8150    -1.5317     3.7937 </r>
       <r>   -11.7060     5.8404     4.4303 </r>
       <r>   -11.5971    18.9939     6.5004 </r>
       <r>   -11.4881    14.1500     8.0426 </r>
       <r>   -11.3791     0.9625     8.1475 </r>
       <r>   -11.2701    -1.4176     7.9930 </r>
       <r>   -11.1611    -0.0647     7.9860 </r>
       <r>   -11.0521     0.1068     7.9976 </r>
       <r>   -10.9431     0.0203     7.9998 </r>
       <r>   -10.8341     0.0014     8.0000 </r>
       <r>   -10.7251     0.0000     8.0000 </r>
       <r>   -10.6161     0.0000     8.0000 </r>
       <r>   -10.5071     0.0000     8.0000 </r>
       <r>   -10.3981     0.0000     8.0000 </r>
       <r>   -10.2892     0.0000     8.0000 </r>
       <r>   -10.1802     0.0000     8.0000 </r>
       <r>   -10.0712     0.0000     8.0000 </r>
       <r>    -9.9622     0.0000     8.0000 </r>
       <r>    -9.8532     0.0001     8.0000 </r>
       <r>    -9.7442     0.0023     8.0003 </r>
       <r>    -9.6352     0.0230     8.0028 </r>
       <r>    -9.5262     0.0634     8.0097 </r>
       <r>    -9.4172    -0.2457     7.9829 </r>
       <r>    -9.3082    -0.7847     7.8974 </r>
       <r>    -9.1992     2.6854     8.1901 </r>
       <r>    -9.0902     9.3706     9.2114 </r>
       <r>    -8.9813     7.3176    10.0089 </r>
       <r>    -8.8723     0.6269    10.0772 </r>
       <r>    -8.7633    -0.7304     9.9976 </r>
       <r>    -8.6543    -0.0452     9.9927 </r>
       <r>    -8.5453     0.0551     9.9987 </r>
       <r>    -8.4363     0.0110     9.9999 </r>
       <r>    -8.3273     0.0008    10.0000 </r>
       <r>    -8.2183     0.0000    10.0000 </r>
       <r>    -8.1093     0.0000    10.0000 </r>
       <r>    -8.0003     0.0000    10.0000 </r>
       <r>    -7.8913     0.0000    10.0000 </r>
       <r>    -7.7824     0.0000    10.0000 </r>
       <r>    -7.6734     0.0000    10.0000 </r>
       <r>    -7.5644     0.0000    10.0000 </r>
       <r>    -7.4554     0.0000    10.0000 </r>
       <r>    -7.3464     0.0002    10.0000 </r>
       <r>    -7.2374     0.0032    10.0004 </r>
       <r>    -7.1284     0.0284    10.0035 </r>
       <r>    -7.0194     0.0588    10.0099 </r>
       <r>    -6.9104    -0.3350     9.9734 </r>
       <r>    -6.8014    -0.6937     9.8978 </r>
       <r>    -6.6924     3.5460    10.2842 </r>
       <r>    -6.5834     9.8713    11.3601 </r>
       <r>    -6.4745     6.5516    12.0742 </r>
       <r>    -6.3655    -1.3557    11.9264 </r>
       <r>    -6.2565    -1.4691    11.7663 </r>
       <r>    -6.1475    15.7952    13.4878 </r>
       <r>    -6.0385    28.7602    16.6225 </r>
       <r>    -5.9295    12.6985    18.0065 </r>
       <r>    -5.8205    12.3867    19.3565 </r>
       <r>    -5.7115    45.3767    24.3022 </r>
       <r>    -5.6025   110.3972    36.3345 </r>
       <r>    -5.4935   232.3804    61.6620 </r>
       <r>    -5.3845   309.3130    95.3745 </r>
       <r>    -5.2756   252.0416   122.8448 </r>
       <r>    -5.1666   204.1868   145.0994 </r>
       <r>    -5.0576   273.4200   174.8999 </r>
       <r>    -4.9486   362.3430   214.3922 </r>
       <r>    -4.8396   339.6917   251.4156 </r>
       <r>    -4.7306   290.1569   283.0402 </r>
       <r>    -4.6216   362.3457   322.5328 </r>
       <r>    -4.5126   431.7744   369.5925 </r>
       <r>    -4.4036   424.1461   415.8208 </r>
       <r>    -4.2946   497.6586   470.0613 </r>
       <r>    -4.1856   561.3286   531.2413 </r>
       <r>    -4.0766   366.8804   571.2281 </r>
       <r>    -3.9677    91.2436   581.1729 </r>
       <r>    -3.8587     9.3640   582.1935 </r>
       <r>    -3.7497    31.8362   585.6634 </r>
       <r>    -3.6407    19.8019   587.8216 </r>
       <r>    -3.5317    10.2889   588.9430 </r>
       <r>    -3.4227    27.3277   591.9215 </r>
       <r>    -3.3137    19.1690   594.0107 </r>
       <r>    -3.2047    -3.7059   593.6068 </r>
       <r>    -3.0957    10.3233   594.7320 </r>
       <r>    -2.9867    58.5722   601.1159 </r>
       <r>    -2.8777    65.3952   608.2434 </r>
       <r>    -2.7687    20.1970   610.4447 </r>
       <r>    -2.6598    -5.1873   609.8793 </r>
       <r>    -2.5508     8.6948   610.8269 </r>
       <r>    -2.4418    30.4551   614.1463 </r>
       <r>    -2.3328    24.8260   616.8521 </r>
       <r>    -2.2238     9.2185   617.8568 </r>
       <r>    -2.1148    19.1498   619.9440 </r>
       <r>    -2.0058    39.6270   624.2630 </r>
       <r>    -1.8968    43.4042   628.9937 </r>
       <r>    -1.7878    42.5233   633.6284 </r>
       <r>    -1.6788    46.9432   638.7448 </r>
       <r>    -1.5698    51.1776   644.3227 </r>
       <r>    -1.4609    39.8474   648.6657 </r>
       <r>    -1.3519    13.3501   650.1208 </r>
       <r>    -1.2429    12.4271   651.4752 </r>
       <r>    -1.1339    25.2158   654.2235 </r>
       <r>    -1.0249    26.3560   657.0961 </r>
       <r>    -0.9159    41.4358   661.6122 </r>
       <r>    -0.8069    43.9864   666.4064 </r>
       <r>    -0.6979    28.7399   669.5388 </r>
       <r>    -0.5889    17.9125   671.4911 </r>
       <r>    -0.4799     5.8838   672.1324 </r>
       <r>    -0.3709    -0.8265   672.0423 </r>
       <r>    -0.2619    -0.5606   671.9812 </r>
       <r>    -0.1530     0.1007   671.9921 </r>
       <r>    -0.0440     0.0628   671.9990 </r>
       <r>     0.0650     0.0087   671.9999 </r>
       <r>     0.1740     0.0005   672.0000 </r>
       <r>     0.2830     0.0000   672.0000 </r>
       <r>     0.3920     0.0000   672.0000 </r>
       <r>     0.5010     0.0000   672.0000 </r>
       <r>     0.6100     0.0000   672.0000 </r>
       <r>     0.7190     0.0000   672.0000 </r>
       <r>     0.8280     0.0000   672.0000 </r>
       <r>     0.9370     0.0000   672.0000 </r>
       <r>     1.0460     0.0000   672.0000 </r>
       <r>     1.1549     0.0000   672.0000 </r>
       <r>     1.2639     0.0000   672.0000 </r>
       <r>     1.3729     0.0000   672.0000 </r>
      </set>
     </set>
    </array>
   </total>
  </dos>
 </calculation>
 <structure name="finalpos" >
  <crystal>
   <varray name="basis" >
    <v>      30.00000000       0.00000000       0.00000000 </v>
    <v>       0.00000000      30.00000000       0.00000000 </v>
    <v>       0.00000000       0.00000000      30.00000000 </v>
   </varray>
   <i name="volume">  27000.00000000 </i>
   <varray name="rec_basis" >
    <v>       0.03333333       0.00000000       0.00000000 </v>
    <v>       0.00000000       0.03333333       0.00000000 </v>
    <v>       0.00000000       0.00000000       0.03333333 </v>
   </varray>
  </crystal>
  <varray name="positions" >
   <v>       0.44576020       0.32826710       0.41691983 </v>
   <v>       0.67173288       0.55423978       0.41691983 </v>
   <v>       0.55423980       0.32826710       0.41691983 </v>
   <v>       0.32826712       0.55423978       0.41691983 </v>
   <v>       0.50000000       0.38250690       0.34021317 </v>
   <v>       0.50000000       0.38250690       0.65978680 </v>
   <v>       0.50000000       0.27609440       0.50000000 </v>
   <v>       0.27609443       0.49999998       0.50000000 </v>
   <v>       0.72390557       0.49999998       0.50000000 </v>
   <v>       0.50000000       0.72390555       0.50000000 </v>
   <v>       0.61195280       0.38804720       0.34167483 </v>
   <v>       0.61195280       0.38804720       0.65832513 </v>
   <v>       0.38804722       0.61195278       0.34167483 </v>
   <v>       0.38804722       0.61195278       0.65832513 </v>
   <v>       0.38804720       0.38804720       0.34167483 </v>
   <v>       0.38804720       0.38804720       0.65832513 </v>
   <v>       0.61195278       0.61195278       0.34167483 </v>
   <v>       0.61195278       0.61195278       0.65832513 </v>
   <v>       0.44576020       0.32826710       0.58308023 </v>
   <v>       0.67173288       0.55423978       0.58308023 </v>
   <v>       0.55791699       0.44208301       0.41809300 </v>
   <v>       0.32826705       0.44576024       0.41691983 </v>
   <v>       0.55423973       0.67173293       0.41691983 </v>
   <v>       0.55423980       0.32826710       0.58308023 </v>
   <v>       0.32826712       0.55423978       0.58308023 </v>
   <v>       0.67173295       0.44576024       0.41691983 </v>
   <v>       0.44576027       0.67173293       0.41691983 </v>
   <v>       0.44208301       0.44208301       0.41809300 </v>
   <v>       0.50000000       0.38416601       0.50000000 </v>
   <v>       0.61749315       0.50000005       0.34021317 </v>
   <v>       0.61749315       0.50000005       0.65978680 </v>
   <v>       0.38250685       0.50000005       0.34021317 </v>
   <v>       0.38250685       0.50000005       0.65978680 </v>
   <v>       0.38317830       0.38317830       0.50000000 </v>
   <v>       0.61682172       0.61682172       0.50000000 </v>
   <v>       0.61682170       0.38317830       0.50000000 </v>
   <v>       0.38317828       0.61682172       0.50000000 </v>
   <v>       0.50000000       0.50000000       0.33478917 </v>
   <v>       0.50000000       0.50000000       0.66521087 </v>
   <v>       0.32826705       0.44576024       0.58308023 </v>
   <v>       0.55423973       0.67173293       0.58308023 </v>
   <v>       0.55791699       0.44208301       0.58190703 </v>
   <v>       0.44208298       0.55791702       0.41809300 </v>
   <v>       0.44208301       0.44208301       0.58190703 </v>
   <v>       0.67173295       0.44576024       0.58308023 </v>
   <v>       0.44576027       0.67173293       0.58308023 </v>
   <v>       0.55791702       0.55791702       0.41809300 </v>
   <v>       0.38416599       0.50000002       0.50000000 </v>
   <v>       0.61583401       0.50000002       0.50000000 </v>
   <v>       0.50000000       0.61749319       0.34021317 </v>
   <v>       0.50000000       0.61749319       0.65978680 </v>
   <v>       0.50000000       0.50000000       0.50000000 </v>
   <v>       0.44208298       0.55791702       0.58190703 </v>
   <v>       0.55791702       0.55791702       0.58190703 </v>
   <v>       0.50000000       0.61583404       0.50000000 </v>
   <v>       0.75894647       0.40682273       0.61223197 </v>
   <v>       0.79170620       0.39503473       0.62643063 </v>
  </varray>
  <varray name="selective"  type="logical" >
   <v type="logical" >  F  F  F </v>
   <v type="logical" >  F  F  F </v>
   <v type="logical" >  F  F  F </v>
   <v type="logical" >  F  F  F </v>
   <v type="logical" >  F  F  F </v>
   <v type="logical" >  F  F  F </v>
   <v type="logical" >  F  F  F </v>
   <v type="logical" >  F  F  F </v>
   <v type="logical" >  F  F  F </v>
   <v type="logical" >  F  F  F </v>
   <v type="logical" >  F  F  F </v>
   <v type="logical" >  F  F  F </v>
   <v type="logical" >  F  F  F </v>
   <v type="logical" >  F  F  F </v>
   <v type="logical" >  F  F  F </v>
   <v type="logical" >  F  F  F </v>
   <v type="logical" >  F  F  F </v>
   <v type="logical" >  F  F  F </v>
   <v type="logical" >  F  F  F </v>
   <v type="logical" >  F  F  F </v>
   <v type="logical" >  F  F  F </v>
   <v type="logical" >  F  F  F </v>
   <v type="logical" >  F  F  F </v>
   <v type="logical" >  F  F  F </v>
   <v type="logical" >  F  F  F </v>
   <v type="logical" >  F  F  F </v>
   <v type="logical" >  F  F  F </v>
   <v type="logical" >  F  F  F </v>
   <v type="logical" >  F  F  F </v>
   <v type="logical" >  F  F  F </v>
   <v type="logical" >  F  F  F </v>
   <v type="logical" >  F  F  F </v>
   <v type="logical" >  F  F  F </v>
   <v type="logical" >  F  F  F </v>
   <v type="logical" >  F  F  F </v>
   <v type="logical" >  F  F  F </v>
   <v type="logical" >  F  F  F </v>
   <v type="logical" >  F  F  F </v>
   <v type="logical" >  F  F  F </v>
   <v type="logical" >  F  F  F </v>
   <v type="logical" >  F  F  F </v>
   <v type="logical" >  F  F  F </v>
   <v type="logical" >  F  F  F </v>
   <v type="logical" >  F  F  F </v>
   <v type="logical" >  F  F  F </v>
   <v type="logical" >  F  F  F </v>
   <v type="logical" >  F  F  F </v>
   <v type="logical" >  F  F  F </v>
   <v type="logical" >  F  F  F </v>
   <v type="logical" >  F  F  F </v>
   <v type="logical" >  F  F  F </v>
   <v type="logical" >  F  F  F </v>
   <v type="logical" >  F  F  F </v>
   <v type="logical" >  F  F  F </v>
   <v type="logical" >  F  F  F </v>
   <v type="logical" >  F  F  F </v>
   <v type="logical" >  F  F  F </v>
  </varray>
  <nose>
   <v>      -3.00000000       0.00000000       0.00010000       0.00010000 </v>
  </nose>
 </structure>
</modeling>
