  57  57   0   0
  0.4736842E+03  0.3000000E-08  0.3000000E-08  0.3000000E-08  0.5000000E-15
  1.000000000000000E-004
  CAR 
 6_Pd100_top_free_z(O)                   
      1.23683014    -30.49150529  301     -4.13844775      1.00000000
    -30.492  0.0000E+00  0.0000E+00
    -30.386  0.0000E+00  0.0000E+00
    -30.280  0.0000E+00  0.0000E+00
    -30.174  0.2729E-27  0.2886E-28
    -30.068  0.1234E-23  0.1305E-24
    -29.963  0.3140E-20  0.3322E-21
    -29.857  0.4488E-17  0.4750E-18
    -29.751  0.3589E-14  0.3800E-15
    -29.645  0.1601E-11  0.1697E-12
    -29.540  0.3949E-09  0.4193E-10
    -29.434  0.5341E-07  0.5690E-08
    -29.328  0.3905E-05  0.4187E-06
    -29.222  0.1506E-03  0.1635E-04
    -29.117  0.2928E-02  0.3260E-03
    -29.011  0.2568E-01  0.3041E-02
    -28.905  0.6336E-01  0.9742E-02
    -28.799 -0.2477E+00 -0.1645E-01
    -28.694 -0.8046E+00 -0.1015E+00
    -28.588  0.2320E+01  0.1439E+00
    -28.482  0.9040E+01  0.1100E+01
    -28.376  0.8078E+01  0.1954E+01
    -28.271  0.1297E+01  0.2091E+01
    -28.165 -0.8105E+00  0.2006E+01
    -28.059 -0.1380E+00  0.1991E+01
    -27.953  0.6369E-01  0.1998E+01
    -27.847  0.1865E-01  0.2000E+01
    -27.742  0.1817E-02  0.2000E+01
    -27.636  0.8226E-04  0.2000E+01
    -27.530  0.1897E-05  0.2000E+01
    -27.424  0.2321E-07  0.2000E+01
    -27.319  0.1540E-09  0.2000E+01
    -27.213  0.5585E-12  0.2000E+01
    -27.107  0.2099E-14  0.2000E+01
    -27.001  0.0000E+00  0.2000E+01
    -26.896  0.0000E+00  0.2000E+01
    -26.790  0.0000E+00  0.2000E+01
    -26.684  0.0000E+00  0.2000E+01
    -26.578  0.0000E+00  0.2000E+01
    -26.473  0.0000E+00  0.2000E+01
    -26.367  0.0000E+00  0.2000E+01
    -26.261  0.0000E+00  0.2000E+01
    -26.155  0.0000E+00  0.2000E+01
    -26.050  0.0000E+00  0.2000E+01
    -25.944  0.0000E+00  0.2000E+01
    -25.838  0.0000E+00  0.2000E+01
    -25.732  0.0000E+00  0.2000E+01
    -25.626  0.0000E+00  0.2000E+01
    -25.521  0.0000E+00  0.2000E+01
    -25.415  0.0000E+00  0.2000E+01
    -25.309  0.0000E+00  0.2000E+01
    -25.203  0.0000E+00  0.2000E+01
    -25.098  0.0000E+00  0.2000E+01
    -24.992  0.0000E+00  0.2000E+01
    -24.886  0.0000E+00  0.2000E+01
    -24.780  0.0000E+00  0.2000E+01
    -24.675  0.0000E+00  0.2000E+01
    -24.569  0.0000E+00  0.2000E+01
    -24.463  0.0000E+00  0.2000E+01
    -24.357  0.0000E+00  0.2000E+01
    -24.252  0.0000E+00  0.2000E+01
    -24.146  0.0000E+00  0.2000E+01
    -24.040  0.0000E+00  0.2000E+01
    -23.934  0.0000E+00  0.2000E+01
    -23.829  0.0000E+00  0.2000E+01
    -23.723  0.0000E+00  0.2000E+01
    -23.617  0.0000E+00  0.2000E+01
    -23.511  0.0000E+00  0.2000E+01
    -23.406  0.0000E+00  0.2000E+01
    -23.300  0.0000E+00  0.2000E+01
    -23.194  0.0000E+00  0.2000E+01
    -23.088  0.0000E+00  0.2000E+01
    -22.982  0.0000E+00  0.2000E+01
    -22.877  0.0000E+00  0.2000E+01
    -22.771  0.0000E+00  0.2000E+01
    -22.665  0.0000E+00  0.2000E+01
    -22.559  0.0000E+00  0.2000E+01
    -22.454  0.0000E+00  0.2000E+01
    -22.348  0.0000E+00  0.2000E+01
    -22.242  0.0000E+00  0.2000E+01
    -22.136  0.0000E+00  0.2000E+01
    -22.031  0.0000E+00  0.2000E+01
    -21.925  0.0000E+00  0.2000E+01
    -21.819  0.0000E+00  0.2000E+01
    -21.713  0.0000E+00  0.2000E+01
    -21.608  0.0000E+00  0.2000E+01
    -21.502  0.0000E+00  0.2000E+01
    -21.396  0.0000E+00  0.2000E+01
    -21.290  0.0000E+00  0.2000E+01
    -21.185  0.0000E+00  0.2000E+01
    -21.079  0.0000E+00  0.2000E+01
    -20.973  0.0000E+00  0.2000E+01
    -20.867  0.0000E+00  0.2000E+01
    -20.761  0.0000E+00  0.2000E+01
    -20.656  0.0000E+00  0.2000E+01
    -20.550  0.0000E+00  0.2000E+01
    -20.444  0.0000E+00  0.2000E+01
    -20.338  0.0000E+00  0.2000E+01
    -20.233  0.0000E+00  0.2000E+01
    -20.127  0.0000E+00  0.2000E+01
    -20.021  0.0000E+00  0.2000E+01
    -19.915  0.0000E+00  0.2000E+01
    -19.810  0.0000E+00  0.2000E+01
    -19.704  0.0000E+00  0.2000E+01
    -19.598  0.0000E+00  0.2000E+01
    -19.492  0.0000E+00  0.2000E+01
    -19.387  0.0000E+00  0.2000E+01
    -19.281  0.0000E+00  0.2000E+01
    -19.175  0.0000E+00  0.2000E+01
    -19.069  0.0000E+00  0.2000E+01
    -18.964  0.0000E+00  0.2000E+01
    -18.858  0.0000E+00  0.2000E+01
    -18.752  0.0000E+00  0.2000E+01
    -18.646  0.0000E+00  0.2000E+01
    -18.540  0.0000E+00  0.2000E+01
    -18.435  0.0000E+00  0.2000E+01
    -18.329  0.0000E+00  0.2000E+01
    -18.223  0.0000E+00  0.2000E+01
    -18.117  0.0000E+00  0.2000E+01
    -18.012  0.0000E+00  0.2000E+01
    -17.906  0.0000E+00  0.2000E+01
    -17.800  0.0000E+00  0.2000E+01
    -17.694  0.0000E+00  0.2000E+01
    -17.589  0.0000E+00  0.2000E+01
    -17.483  0.0000E+00  0.2000E+01
    -17.377  0.0000E+00  0.2000E+01
    -17.271  0.0000E+00  0.2000E+01
    -17.166  0.0000E+00  0.2000E+01
    -17.060  0.0000E+00  0.2000E+01
    -16.954  0.0000E+00  0.2000E+01
    -16.848  0.0000E+00  0.2000E+01
    -16.743  0.0000E+00  0.2000E+01
    -16.637  0.0000E+00  0.2000E+01
    -16.531  0.0000E+00  0.2000E+01
    -16.425  0.0000E+00  0.2000E+01
    -16.320  0.0000E+00  0.2000E+01
    -16.214  0.0000E+00  0.2000E+01
    -16.108  0.0000E+00  0.2000E+01
    -16.002  0.0000E+00  0.2000E+01
    -15.896  0.0000E+00  0.2000E+01
    -15.791  0.0000E+00  0.2000E+01
    -15.685  0.0000E+00  0.2000E+01
    -15.579  0.0000E+00  0.2000E+01
    -15.473  0.0000E+00  0.2000E+01
    -15.368  0.0000E+00  0.2000E+01
    -15.262  0.0000E+00  0.2000E+01
    -15.156  0.0000E+00  0.2000E+01
    -15.050  0.0000E+00  0.2000E+01
    -14.945  0.1000E-24  0.2000E+01
    -14.839  0.3034E-21  0.2000E+01
    -14.733  0.5175E-18  0.2000E+01
    -14.627  0.4945E-15  0.2000E+01
    -14.522  0.2635E-12  0.2000E+01
    -14.416  0.7808E-10  0.2000E+01
    -14.310  0.1270E-07  0.2000E+01
    -14.204  0.1123E-05  0.2000E+01
    -14.099  0.5287E-04  0.2000E+01
    -13.993  0.1277E-02  0.2000E+01
    -13.887  0.1457E-01  0.2002E+01
    -13.781  0.6005E-01  0.2008E+01
    -13.675 -0.7584E-01  0.2000E+01
    -13.570 -0.7620E+00  0.1919E+01
    -13.464  0.6934E+00  0.1993E+01
    -13.358  0.7258E+01  0.2760E+01
    -13.252  0.9544E+01  0.3770E+01
    -13.147  0.3151E+01  0.4103E+01
    -13.041 -0.7285E+00  0.4026E+01
    -12.935 -0.3393E+00  0.3990E+01
    -12.829  0.5729E-01  0.3996E+01
    -12.724  0.3153E-01  0.4000E+01
    -12.618  0.4046E-02  0.4000E+01
    -12.512  0.2284E-03  0.4000E+01
    -12.406  0.1097E-04  0.4000E+01
    -12.301  0.1708E-03  0.4000E+01
    -12.195  0.3228E-02  0.4000E+01
    -12.089  0.2735E-01  0.4003E+01
    -11.983  0.6216E-01  0.4010E+01
    -11.878 -0.2737E+00  0.3981E+01
    -11.772 -0.7857E+00  0.3898E+01
    -11.666  0.2587E+01  0.4171E+01
    -11.560  0.9268E+01  0.5152E+01
    -11.455  0.7561E+01  0.5951E+01
    -11.349  0.3241E+00  0.5986E+01
    -11.243  0.1844E+01  0.6181E+01
    -11.137  0.9143E+01  0.7148E+01
    -11.031  0.7824E+01  0.7975E+01
    -10.926  0.1060E+01  0.8087E+01
    -10.820 -0.7937E+00  0.8003E+01
    -10.714 -0.1114E+00  0.7991E+01
    -10.608  0.6255E-01  0.7998E+01
    -10.503  0.1760E-01  0.8000E+01
    -10.397  0.1082E-01  0.8001E+01
    -10.291  0.5003E-01  0.8006E+01
    -10.185  0.2819E-03  0.8006E+01
    -10.080 -0.6189E+00  0.7941E+01
     -9.974 -0.8682E-01  0.7932E+01
     -9.868  0.5704E+01  0.8535E+01
     -9.762  0.9997E+01  0.9592E+01
     -9.657  0.4703E+01  0.1009E+02
     -9.551 -0.4174E+00  0.1005E+02
     -9.445 -0.5118E+00  0.9991E+01
     -9.339  0.3054E-01  0.9995E+01
     -9.234  0.4276E-01  0.9999E+01
     -9.128  0.6814E-02  0.1000E+02
     -9.022  0.4522E-03  0.1000E+02
     -8.916  0.1473E-04  0.1000E+02
     -8.810  0.2500E-06  0.1000E+02
     -8.705  0.2279E-08  0.1000E+02
     -8.599  0.1134E-10  0.1000E+02
     -8.493  0.3149E-13  0.1000E+02
     -8.387  0.0000E+00  0.1000E+02
     -8.282  0.1002E-25  0.1000E+02
     -8.176  0.3558E-22  0.1000E+02
     -8.070  0.7111E-19  0.1000E+02
     -7.964  0.7968E-16  0.1000E+02
     -7.859  0.4987E-13  0.1000E+02
     -7.753  0.1738E-10  0.1000E+02
     -7.647  0.3335E-08  0.1000E+02
     -7.541  0.3492E-06  0.1000E+02
     -7.436  0.1959E-04  0.1000E+02
     -7.330  0.5713E-03  0.1000E+02
     -7.224  0.8117E-02  0.1000E+02
     -7.118  0.4688E-01  0.1001E+02
     -7.013  0.1484E-01  0.1001E+02
     -6.907 -0.5723E+00  0.9947E+01
     -6.801 -0.2290E+00  0.9923E+01
     -6.695  0.5350E+01  0.1049E+02
     -6.589  0.1008E+02  0.1156E+02
     -6.484  0.4464E+01  0.1203E+02
     -6.378 -0.9828E+00  0.1192E+02
     -6.272  0.5731E+01  0.1253E+02
     -6.166  0.2060E+02  0.1471E+02
     -6.061  0.2905E+02  0.1778E+02
     -5.955  0.2517E+02  0.2044E+02
     -5.849  0.2619E+02  0.2321E+02
     -5.743  0.5218E+02  0.2873E+02
     -5.638  0.1108E+03  0.4045E+02
     -5.532  0.2122E+03  0.6289E+02
     -5.426  0.2944E+03  0.9402E+02
     -5.320  0.2654E+03  0.1221E+03
     -5.215  0.2114E+03  0.1444E+03
     -5.109  0.2491E+03  0.1708E+03
     -5.003  0.3376E+03  0.2065E+03
     -4.897  0.3596E+03  0.2445E+03
     -4.792  0.3097E+03  0.2773E+03
     -4.686  0.3217E+03  0.3113E+03
     -4.580  0.3945E+03  0.3530E+03
     -4.474  0.4136E+03  0.3968E+03
     -4.369  0.4458E+03  0.4439E+03
     -4.263  0.5463E+03  0.5017E+03
     -4.157  0.4907E+03  0.5536E+03
     -4.051  0.2247E+03  0.5774E+03
     -3.945  0.3579E+02  0.5812E+03
     -3.840  0.1516E+02  0.5828E+03
     -3.734  0.2693E+02  0.5856E+03
     -3.628  0.1806E+02  0.5875E+03
     -3.522  0.1698E+02  0.5893E+03
     -3.417  0.2397E+02  0.5918E+03
     -3.311  0.1514E+02  0.5934E+03
     -3.205  0.1891E+01  0.5936E+03
     -3.099  0.2210E+02  0.5960E+03
     -2.994  0.5887E+02  0.6022E+03
     -2.888  0.4991E+02  0.6075E+03
     -2.782  0.1650E+02  0.6092E+03
     -2.676  0.6662E+01  0.6099E+03
     -2.571  0.1413E+02  0.6114E+03
     -2.465  0.1958E+02  0.6135E+03
     -2.359  0.1721E+02  0.6153E+03
     -2.253  0.1595E+02  0.6170E+03
     -2.148  0.2480E+02  0.6196E+03
     -2.042  0.3949E+02  0.6238E+03
     -1.936  0.4344E+02  0.6284E+03
     -1.830  0.3884E+02  0.6325E+03
     -1.724  0.3378E+02  0.6361E+03
     -1.619  0.3606E+02  0.6399E+03
     -1.513  0.3268E+02  0.6434E+03
     -1.407  0.2147E+02  0.6456E+03
     -1.301  0.1966E+02  0.6477E+03
     -1.196  0.1938E+02  0.6498E+03
     -1.090  0.2581E+02  0.6525E+03
     -0.984  0.5218E+02  0.6580E+03
     -0.878  0.6840E+02  0.6652E+03
     -0.773  0.4902E+02  0.6704E+03
     -0.667  0.1682E+02  0.6722E+03
     -0.561 -0.4026E+00  0.6722E+03
     -0.455 -0.1726E+01  0.6720E+03
     -0.350 -0.6044E-02  0.6720E+03
     -0.244  0.1917E+00  0.6720E+03
     -0.138  0.4470E-01  0.6720E+03
     -0.032  0.4217E-02  0.6720E+03
      0.073  0.1950E-03  0.6720E+03
      0.179  0.4718E-05  0.6720E+03
      0.285  0.6150E-07  0.6720E+03
      0.391  0.4392E-09  0.6720E+03
      0.497  0.1736E-11  0.6720E+03
      0.602  0.4199E-14  0.6720E+03
      0.708  0.0000E+00  0.6720E+03
      0.814  0.0000E+00  0.6720E+03
      0.920  0.0000E+00  0.6720E+03
      1.025  0.0000E+00  0.6720E+03
      1.131  0.0000E+00  0.6720E+03
      1.237  0.0000E+00  0.6720E+03
