  57  57   0   0
  0.4736842E+03  0.3000000E-08  0.3000000E-08  0.3000000E-08  0.5000000E-15
  1.000000000000000E-004
  CAR 
 6_Pd100_top_free_z(O)                   
      1.33163008    -30.84630681  301     -4.14162048      1.00000000
    -30.846  0.0000E+00  0.0000E+00
    -30.739  0.0000E+00  0.0000E+00
    -30.632  0.0000E+00  0.0000E+00
    -30.525  0.3893E-27  0.4176E-28
    -30.417  0.1927E-23  0.2067E-24
    -30.310  0.5281E-20  0.5666E-21
    -30.203  0.7991E-17  0.8577E-18
    -30.095  0.6652E-14  0.7144E-15
    -29.988  0.3038E-11  0.3265E-12
    -29.881  0.7532E-09  0.8112E-10
    -29.774  0.1005E-06  0.1086E-07
    -29.666  0.7108E-05  0.7733E-06
    -29.559  0.2591E-03  0.2856E-04
    -29.452  0.4610E-02  0.5230E-03
    -29.345  0.3479E-01  0.4255E-02
    -29.237  0.4972E-01  0.9587E-02
    -29.130 -0.4122E+00 -0.3463E-01
    -29.023 -0.5996E+00 -0.9895E-01
    -28.916  0.4008E+01  0.3309E+00
    -28.808  0.9877E+01  0.1390E+01
    -28.701  0.6196E+01  0.2055E+01
    -28.594  0.8283E-01  0.2064E+01
    -28.487 -0.6473E+00  0.1994E+01
    -28.379 -0.7423E-02  0.1994E+01
    -28.272  0.5048E-01  0.1999E+01
    -28.165  0.9202E-02  0.2000E+01
    -28.058  0.6503E-03  0.2000E+01
    -27.950  0.2184E-04  0.2000E+01
    -27.843  0.3737E-06  0.2000E+01
    -27.736  0.3365E-08  0.2000E+01
    -27.629  0.1625E-10  0.2000E+01
    -27.521  0.4347E-13  0.2000E+01
    -27.414  0.0000E+00  0.2000E+01
    -27.307  0.0000E+00  0.2000E+01
    -27.199  0.0000E+00  0.2000E+01
    -27.092  0.0000E+00  0.2000E+01
    -26.985  0.0000E+00  0.2000E+01
    -26.878  0.0000E+00  0.2000E+01
    -26.770  0.0000E+00  0.2000E+01
    -26.663  0.0000E+00  0.2000E+01
    -26.556  0.0000E+00  0.2000E+01
    -26.449  0.0000E+00  0.2000E+01
    -26.341  0.0000E+00  0.2000E+01
    -26.234  0.0000E+00  0.2000E+01
    -26.127  0.0000E+00  0.2000E+01
    -26.020  0.0000E+00  0.2000E+01
    -25.912  0.0000E+00  0.2000E+01
    -25.805  0.0000E+00  0.2000E+01
    -25.698  0.0000E+00  0.2000E+01
    -25.591  0.0000E+00  0.2000E+01
    -25.483  0.0000E+00  0.2000E+01
    -25.376  0.0000E+00  0.2000E+01
    -25.269  0.0000E+00  0.2000E+01
    -25.162  0.0000E+00  0.2000E+01
    -25.054  0.0000E+00  0.2000E+01
    -24.947  0.0000E+00  0.2000E+01
    -24.840  0.0000E+00  0.2000E+01
    -24.732  0.0000E+00  0.2000E+01
    -24.625  0.0000E+00  0.2000E+01
    -24.518  0.0000E+00  0.2000E+01
    -24.411  0.0000E+00  0.2000E+01
    -24.303  0.0000E+00  0.2000E+01
    -24.196  0.0000E+00  0.2000E+01
    -24.089  0.0000E+00  0.2000E+01
    -23.982  0.0000E+00  0.2000E+01
    -23.874  0.0000E+00  0.2000E+01
    -23.767  0.0000E+00  0.2000E+01
    -23.660  0.0000E+00  0.2000E+01
    -23.553  0.0000E+00  0.2000E+01
    -23.445  0.0000E+00  0.2000E+01
    -23.338  0.0000E+00  0.2000E+01
    -23.231  0.0000E+00  0.2000E+01
    -23.124  0.0000E+00  0.2000E+01
    -23.016  0.0000E+00  0.2000E+01
    -22.909  0.0000E+00  0.2000E+01
    -22.802  0.0000E+00  0.2000E+01
    -22.695  0.0000E+00  0.2000E+01
    -22.587  0.0000E+00  0.2000E+01
    -22.480  0.0000E+00  0.2000E+01
    -22.373  0.0000E+00  0.2000E+01
    -22.266  0.0000E+00  0.2000E+01
    -22.158  0.0000E+00  0.2000E+01
    -22.051  0.0000E+00  0.2000E+01
    -21.944  0.0000E+00  0.2000E+01
    -21.836  0.0000E+00  0.2000E+01
    -21.729  0.0000E+00  0.2000E+01
    -21.622  0.0000E+00  0.2000E+01
    -21.515  0.0000E+00  0.2000E+01
    -21.407  0.0000E+00  0.2000E+01
    -21.300  0.0000E+00  0.2000E+01
    -21.193  0.0000E+00  0.2000E+01
    -21.086  0.0000E+00  0.2000E+01
    -20.978  0.0000E+00  0.2000E+01
    -20.871  0.0000E+00  0.2000E+01
    -20.764  0.0000E+00  0.2000E+01
    -20.657  0.0000E+00  0.2000E+01
    -20.549  0.0000E+00  0.2000E+01
    -20.442  0.0000E+00  0.2000E+01
    -20.335  0.0000E+00  0.2000E+01
    -20.228  0.0000E+00  0.2000E+01
    -20.120  0.0000E+00  0.2000E+01
    -20.013  0.0000E+00  0.2000E+01
    -19.906  0.0000E+00  0.2000E+01
    -19.799  0.0000E+00  0.2000E+01
    -19.691  0.0000E+00  0.2000E+01
    -19.584  0.0000E+00  0.2000E+01
    -19.477  0.0000E+00  0.2000E+01
    -19.370  0.0000E+00  0.2000E+01
    -19.262  0.0000E+00  0.2000E+01
    -19.155  0.0000E+00  0.2000E+01
    -19.048  0.0000E+00  0.2000E+01
    -18.940  0.0000E+00  0.2000E+01
    -18.833  0.0000E+00  0.2000E+01
    -18.726  0.0000E+00  0.2000E+01
    -18.619  0.0000E+00  0.2000E+01
    -18.511  0.0000E+00  0.2000E+01
    -18.404  0.0000E+00  0.2000E+01
    -18.297  0.0000E+00  0.2000E+01
    -18.190  0.0000E+00  0.2000E+01
    -18.082  0.0000E+00  0.2000E+01
    -17.975  0.0000E+00  0.2000E+01
    -17.868  0.0000E+00  0.2000E+01
    -17.761  0.0000E+00  0.2000E+01
    -17.653  0.0000E+00  0.2000E+01
    -17.546  0.0000E+00  0.2000E+01
    -17.439  0.0000E+00  0.2000E+01
    -17.332  0.0000E+00  0.2000E+01
    -17.224  0.0000E+00  0.2000E+01
    -17.117  0.0000E+00  0.2000E+01
    -17.010  0.0000E+00  0.2000E+01
    -16.903  0.0000E+00  0.2000E+01
    -16.795  0.0000E+00  0.2000E+01
    -16.688  0.0000E+00  0.2000E+01
    -16.581  0.0000E+00  0.2000E+01
    -16.473  0.0000E+00  0.2000E+01
    -16.366  0.0000E+00  0.2000E+01
    -16.259  0.0000E+00  0.2000E+01
    -16.152  0.0000E+00  0.2000E+01
    -16.044  0.0000E+00  0.2000E+01
    -15.937  0.0000E+00  0.2000E+01
    -15.830  0.0000E+00  0.2000E+01
    -15.723  0.0000E+00  0.2000E+01
    -15.615  0.0000E+00  0.2000E+01
    -15.508  0.0000E+00  0.2000E+01
    -15.401  0.0000E+00  0.2000E+01
    -15.294  0.0000E+00  0.2000E+01
    -15.186  0.0000E+00  0.2000E+01
    -15.079  0.5662E-25  0.2000E+01
    -14.972  0.1993E-21  0.2000E+01
    -14.865  0.3879E-18  0.2000E+01
    -14.757  0.4160E-15  0.2000E+01
    -14.650  0.2448E-12  0.2000E+01
    -14.543  0.7877E-10  0.2000E+01
    -14.436  0.1368E-07  0.2000E+01
    -14.328  0.1269E-05  0.2000E+01
    -14.221  0.6150E-04  0.2000E+01
    -14.114  0.1497E-02  0.2000E+01
    -14.007  0.1672E-01  0.2002E+01
    -13.899  0.6252E-01  0.2009E+01
    -13.792 -0.1228E+00  0.1995E+01
    -13.685 -0.8035E+00  0.1909E+01
    -13.577  0.1294E+01  0.2048E+01
    -13.470  0.8141E+01  0.2921E+01
    -13.363  0.8905E+01  0.3876E+01
    -13.256  0.2081E+01  0.4100E+01
    -13.148 -0.8135E+00  0.4012E+01
    -13.041 -0.2037E+00  0.3991E+01
    -12.934  0.6422E-01  0.3997E+01
    -12.827  0.2174E-01  0.4000E+01
    -12.719  0.2199E-02  0.4000E+01
    -12.612  0.9996E-04  0.4000E+01
    -12.505  0.2263E-05  0.4000E+01
    -12.398  0.2666E-07  0.4000E+01
    -12.290  0.6125E-09  0.4000E+01
    -12.183  0.6554E-07  0.4000E+01
    -12.076  0.5166E-05  0.4000E+01
    -11.969  0.2133E-03  0.4000E+01
    -11.861  0.4419E-02  0.4000E+01
    -11.754  0.4148E-01  0.4005E+01
    -11.647  0.1166E+00  0.4017E+01
    -11.540 -0.3769E+00  0.3977E+01
    -11.432 -0.1472E+01  0.3819E+01
    -11.325  0.3784E+01  0.4225E+01
    -11.218  0.1678E+02  0.6025E+01
    -11.111  0.1655E+02  0.7800E+01
    -11.003  0.3532E+01  0.8179E+01
    -10.896 -0.1477E+01  0.8020E+01
    -10.789 -0.3509E+00  0.7983E+01
    -10.681  0.1168E+00  0.7995E+01
    -10.574  0.3987E-01  0.8000E+01
    -10.467  0.5223E-02  0.8000E+01
    -10.360  0.1335E-01  0.8002E+01
    -10.252  0.5844E-01  0.8008E+01
    -10.145 -0.6663E-01  0.8001E+01
    -10.038 -0.7550E+00  0.7920E+01
     -9.931  0.7211E+00  0.7997E+01
     -9.823  0.7378E+01  0.8788E+01
     -9.716  0.9417E+01  0.9798E+01
     -9.609  0.2841E+01  0.1010E+02
     -9.502 -0.7686E+00  0.1002E+02
     -9.394 -0.2846E+00  0.9990E+01
     -9.287  0.6177E-01  0.9997E+01
     -9.180  0.2676E-01  0.1000E+02
     -9.073  0.3018E-02  0.1000E+02
     -8.965  0.1497E-03  0.1000E+02
     -8.858  0.3671E-05  0.1000E+02
     -8.751  0.4666E-07  0.1000E+02
     -8.644  0.3152E-09  0.1000E+02
     -8.536  0.1149E-11  0.1000E+02
     -8.429  0.2070E-14  0.1000E+02
     -8.322  0.2818E-27  0.1000E+02
     -8.214  0.1425E-23  0.1000E+02
     -8.107  0.3991E-20  0.1000E+02
     -8.000  0.6173E-17  0.1000E+02
     -7.893  0.5253E-14  0.1000E+02
     -7.785  0.2453E-11  0.1000E+02
     -7.678  0.6220E-09  0.1000E+02
     -7.571  0.8495E-07  0.1000E+02
     -7.464  0.6150E-05  0.1000E+02
     -7.356  0.2298E-03  0.1000E+02
     -7.249  0.4205E-02  0.1000E+02
     -7.142  0.3292E-01  0.1000E+02
     -7.035  0.5342E-01  0.1001E+02
     -6.927 -0.3829E+00  0.9969E+01
     -6.820 -0.6479E+00  0.9899E+01
     -6.713  0.3760E+01  0.1030E+02
     -6.606  0.9925E+01  0.1137E+02
     -6.498  0.6566E+01  0.1207E+02
     -6.391 -0.1287E+01  0.1193E+02
     -6.284 -0.1635E+01  0.1176E+02
     -6.177  0.1497E+02  0.1336E+02
     -6.069  0.2878E+02  0.1645E+02
     -5.962  0.1387E+02  0.1794E+02
     -5.855  0.1225E+02  0.1925E+02
     -5.748  0.4767E+02  0.2437E+02
     -5.640  0.1113E+03  0.3630E+02
     -5.533  0.2195E+03  0.5985E+02
     -5.426  0.3015E+03  0.9219E+02
     -5.318  0.2624E+03  0.1203E+03
     -5.211  0.2061E+03  0.1424E+03
     -5.104  0.2555E+03  0.1698E+03
     -4.997  0.3486E+03  0.2072E+03
     -4.889  0.3507E+03  0.2448E+03
     -4.782  0.2928E+03  0.2762E+03
     -4.675  0.3348E+03  0.3122E+03
     -4.568  0.4203E+03  0.3572E+03
     -4.460  0.4232E+03  0.4026E+03
     -4.353  0.4630E+03  0.4523E+03
     -4.246  0.5581E+03  0.5122E+03
     -4.139  0.4550E+03  0.5610E+03
     -4.031  0.1739E+03  0.5796E+03
     -3.924  0.1784E+02  0.5815E+03
     -3.817  0.2211E+02  0.5839E+03
     -3.710  0.2933E+02  0.5871E+03
     -3.602  0.1110E+02  0.5882E+03
     -3.495  0.1805E+02  0.5902E+03
     -3.388  0.2703E+02  0.5931E+03
     -3.281  0.7691E+01  0.5939E+03
     -3.173 -0.1992E+01  0.5937E+03
     -3.066  0.3259E+02  0.5972E+03
     -2.959  0.6894E+02  0.6046E+03
     -2.852  0.4730E+02  0.6097E+03
     -2.744  0.5844E+01  0.6103E+03
     -2.637 -0.2925E+01  0.6100E+03
     -2.530  0.1528E+02  0.6116E+03
     -2.422  0.2977E+02  0.6148E+03
     -2.315  0.2183E+02  0.6171E+03
     -2.208  0.1390E+02  0.6186E+03
     -2.101  0.2765E+02  0.6216E+03
     -1.993  0.4117E+02  0.6260E+03
     -1.886  0.4083E+02  0.6304E+03
     -1.779  0.3399E+02  0.6340E+03
     -1.672  0.3583E+02  0.6379E+03
     -1.564  0.4313E+02  0.6425E+03
     -1.457  0.3458E+02  0.6462E+03
     -1.350  0.2040E+02  0.6484E+03
     -1.243  0.1928E+02  0.6505E+03
     -1.135  0.2610E+02  0.6533E+03
     -1.028  0.3809E+02  0.6574E+03
     -0.921  0.5616E+02  0.6634E+03
     -0.814  0.4738E+02  0.6685E+03
     -0.706  0.2154E+02  0.6708E+03
     -0.599  0.9462E+01  0.6718E+03
     -0.492  0.2744E+01  0.6721E+03
     -0.385 -0.6236E+00  0.6720E+03
     -0.277 -0.2648E+00  0.6720E+03
     -0.170  0.8880E-01  0.6720E+03
     -0.063  0.3887E-01  0.6720E+03
      0.045  0.4812E-02  0.6720E+03
      0.152  0.2642E-03  0.6720E+03
      0.259  0.7176E-05  0.6720E+03
      0.366  0.1010E-06  0.6720E+03
      0.474  0.7550E-09  0.6720E+03
      0.581  0.3043E-11  0.6720E+03
      0.688  0.6210E-14  0.6720E+03
      0.795  0.0000E+00  0.6720E+03
      0.903  0.0000E+00  0.6720E+03
      1.010  0.0000E+00  0.6720E+03
      1.117  0.0000E+00  0.6720E+03
      1.224  0.0000E+00  0.6720E+03
      1.332  0.0000E+00  0.6720E+03
