   57   57    1    1
  0.4736842E+03  0.3000000E-08  0.3000000E-08  0.3000000E-08  0.5000000E-15
  1.000000000000000E-004
  CAR 
 6_Pd100_top_free_z(O)                   
    560      1    336
 
  0.0000000E+00  0.0000000E+00  0.0000000E+00  0.1000000E+01
    1      -28.029718   1.000000
    2      -13.683145   1.000000
    3      -11.364063   1.000000
    4      -10.963060   1.000000
    5      -10.713146   1.000000
    6       -6.960040   1.000000
    7       -6.829894   1.000000
    8       -6.672975   1.000000
    9       -6.259569   1.000000
   10       -6.143656   1.000000
   11       -6.142547   1.000000
   12       -6.029949   1.000000
   13       -5.991718   1.000000
   14       -5.920942   1.000000
   15       -5.824800   1.000000
   16       -5.817913   1.000000
   17       -5.782896   1.000000
   18       -5.736850   1.000000
   19       -5.704707   1.000000
   20       -5.696099   1.000000
   21       -5.692174   1.000000
   22       -5.677675   1.000000
   23       -5.636108   1.000000
   24       -5.624267   1.000000
   25       -5.610804   1.000000
   26       -5.607081   1.000000
   27       -5.597913   1.000000
   28       -5.591103   1.000000
   29       -5.561074   1.000000
   30       -5.559677   1.000000
   31       -5.553284   1.000000
   32       -5.539528   1.000000
   33       -5.532282   1.000000
   34       -5.530929   1.000000
   35       -5.528391   1.000000
   36       -5.524160   1.000000
   37       -5.522520   1.000000
   38       -5.519310   1.000000
   39       -5.512267   1.000000
   40       -5.500216   1.000000
   41       -5.486279   1.000000
   42       -5.483893   1.000000
   43       -5.480640   1.000000
   44       -5.478629   1.000000
   45       -5.476586   1.000000
   46       -5.468240   1.000000
   47       -5.458493   1.000000
   48       -5.446584   1.000000
   49       -5.441606   1.000000
   50       -5.437779   1.000000
   51       -5.436248   1.000000
   52       -5.432474   1.000000
   53       -5.419773   1.000000
   54       -5.417190   1.000000
   55       -5.413560   1.000000
   56       -5.411973   1.000000
   57       -5.397270   1.000000
   58       -5.390658   1.000000
   59       -5.382374   1.000000
   60       -5.346495   1.000000
   61       -5.339001   1.000000
   62       -5.334053   1.000000
   63       -5.329026   1.000000
   64       -5.328081   1.000000
   65       -5.319582   1.000000
   66       -5.312675   1.000000
   67       -5.310974   1.000000
   68       -5.306105   1.000000
   69       -5.289673   1.000000
   70       -5.272360   1.000000
   71       -5.259010   1.000000
   72       -5.224467   1.000000
   73       -5.220476   1.000000
   74       -5.211690   1.000000
   75       -5.208172   1.000000
   76       -5.195038   1.000000
   77       -5.194512   1.000000
   78       -5.187653   1.000000
   79       -5.183603   1.000000
   80       -5.180084   1.000000
   81       -5.177333   1.000000
   82       -5.164931   1.000000
   83       -5.155150   1.000000
   84       -5.148912   1.000000
   85       -5.144405   1.000000
   86       -5.128757   1.000000
   87       -5.121418   1.000000
   88       -5.120263   1.000000
   89       -5.112188   1.000000
   90       -5.096202   1.000000
   91       -5.086558   1.000000
   92       -5.075907   1.000000
   93       -5.072776   1.000000
   94       -5.066604   1.000000
   95       -5.063600   1.000000
   96       -5.060075   1.000000
   97       -5.059349   1.000000
   98       -5.057752   1.000000
   99       -5.050708   1.000000
  100       -5.041036   1.000000
  101       -5.037420   1.000000
  102       -5.034263   1.000000
  103       -5.027522   1.000000
  104       -5.022783   1.000000
  105       -5.016844   1.000000
  106       -5.014060   1.000000
  107       -5.010862   1.000000
  108       -5.006341   1.000000
  109       -4.999063   1.000000
  110       -4.992932   1.000000
  111       -4.989423   1.000000
  112       -4.987419   1.000000
  113       -4.980062   1.000000
  114       -4.974344   1.000000
  115       -4.970628   0.999999
  116       -4.967737   0.999999
  117       -4.961573   0.999999
  118       -4.954479   0.999999
  119       -4.946480   0.999999
  120       -4.943364   0.999999
  121       -4.929370   0.999998
  122       -4.922784   0.999997
  123       -4.918375   0.999997
  124       -4.915313   0.999996
  125       -4.914618   0.999996
  126       -4.909609   0.999996
  127       -4.896768   0.999993
  128       -4.887136   0.999991
  129       -4.878285   0.999988
  130       -4.863709   0.999981
  131       -4.859550   0.999979
  132       -4.851429   0.999973
  133       -4.850117   0.999972
  134       -4.847251   0.999970
  135       -4.841321   0.999964
  136       -4.835099   0.999957
  137       -4.827167   0.999947
  138       -4.820602   0.999936
  139       -4.807177   0.999909
  140       -4.805059   0.999904
  141       -4.792994   0.999868
  142       -4.789614   0.999857
  143       -4.783989   0.999835
  144       -4.778638   0.999811
  145       -4.770063   0.999768
  146       -4.755698   0.999675
  147       -4.752595   0.999651
  148       -4.751057   0.999639
  149       -4.740069   0.999539
  150       -4.736031   0.999497
  151       -4.725665   0.999373
  152       -4.720526   0.999304
  153       -4.702936   0.999015
  154       -4.700725   0.998973
  155       -4.695717   0.998873
  156       -4.692598   0.998807
  157       -4.690062   0.998751
  158       -4.687948   0.998703
  159       -4.683230   0.998591
  160       -4.678615   0.998475
  161       -4.675966   0.998406
  162       -4.669229   0.998220
  163       -4.665649   0.998115
  164       -4.661159   0.997979
  165       -4.657693   0.997870
  166       -4.656214   0.997822
  167       -4.655660   0.997804
  168       -4.653077   0.997719
  169       -4.650787   0.997643
  170       -4.643099   0.997377
  171       -4.638115   0.997198
  172       -4.634873   0.997079
  173       -4.626358   0.996762
  174       -4.618053   0.996449
  175       -4.614015   0.996299
  176       -4.608216   0.996086
  177       -4.606733   0.996033
  178       -4.603224   0.995910
  179       -4.602531   0.995886
  180       -4.594216   0.995614
  181       -4.589239   0.995469
  182       -4.582717   0.995304
  183       -4.580979   0.995266
  184       -4.575606   0.995166
  185       -4.573459   0.995135
  186       -4.572495   0.995123
  187       -4.566252   0.995071
  188       -4.559743   0.995076
  189       -4.558907   0.995081
  190       -4.554490   0.995131
  191       -4.551053   0.995194
  192       -4.544474   0.995385
  193       -4.528841   0.996260
  194       -4.524731   0.996605
  195       -4.518493   0.997232
  196       -4.514271   0.997732
  197       -4.510844   0.998185
  198       -4.508046   0.998588
  199       -4.502818   0.999422
  200       -4.498056   1.000279
  201       -4.486796   1.002689
  202       -4.477830   1.005011
  203       -4.476381   1.005421
  204       -4.475057   1.005804
  205       -4.471669   1.006820
  206       -4.463632   1.009439
  207       -4.460865   1.010407
  208       -4.457460   1.011645
  209       -4.453646   1.013089
  210       -4.451927   1.013760
  211       -4.445178   1.016505
  212       -4.436744   1.020162
  213       -4.436214   1.020399
  214       -4.431895   1.022360
  215       -4.422881   1.026587
  216       -4.419009   1.028440
  217       -4.417490   1.029170
  218       -4.414863   1.030435
  219       -4.412417   1.031613
  220       -4.408462   1.033511
  221       -4.400393   1.037317
  222       -4.380981   1.045493
  223       -4.378050   1.046525
  224       -4.375313   1.047424
  225       -4.367062   1.049687
  226       -4.359751   1.051028
  227       -4.349526   1.051603
  228       -4.348602   1.051569
  229       -4.346116   1.051403
  230       -4.344794   1.051268
  231       -4.343660   1.051125
  232       -4.342477   1.050949
  233       -4.338384   1.050120
  234       -4.336297   1.049561
  235       -4.335268   1.049249
  236       -4.331919   1.048069
  237       -4.331645   1.047961
  238       -4.328454   1.046568
  239       -4.326785   1.045740
  240       -4.322188   1.043087
  241       -4.319291   1.041125
  242       -4.310012   1.033228
  243       -4.305491   1.028435
  244       -4.301018   1.023051
  245       -4.300068   1.021823
  246       -4.296989   1.017633
  247       -4.294700   1.014308
  248       -4.291518   1.009381
  249       -4.289402   1.005908
  250       -4.282660   0.993761
  251       -4.277499   0.983327
  252       -4.274061   0.975818
  253       -4.271280   0.969415
  254       -4.270441   0.967424
  255       -4.264642   0.952928
  256       -4.263431   0.949736
  257       -4.261309   0.944005
  258       -4.257427   0.933070
  259       -4.256149   0.929344
  260       -4.254708   0.925063
  261       -4.251555   0.915422
  262       -4.250815   0.913103
  263       -4.249005   0.907343
  264       -4.247183   0.901422
  265       -4.245518   0.895896
  266       -4.239491   0.875033
  267       -4.235068   0.858871
  268       -4.232780   0.850229
  269       -4.230795   0.842587
  270       -4.228075   0.831887
  271       -4.226527   0.825687
  272       -4.220171   0.799385
  273       -4.214720   0.775811
  274       -4.207449   0.742997
  275       -4.196030   0.688691
  276       -4.192244   0.670040
  277       -4.186226   0.639830
  278       -4.183990   0.628452
  279       -4.182963   0.623199
  280       -4.180557   0.610843
  281       -4.168494   0.547928
  282       -4.164683   0.527831
  283       -4.149403   0.447131
  284       -4.141272   0.404629
  285       -4.137811   0.386746
  286       -4.137012   0.382633
  287       -4.127024   0.332102
  288       -4.121335   0.304137
  289       -4.063307   0.072487
  290       -3.972550  -0.051418
  291       -3.904208  -0.030548
  292       -3.839859  -0.004694
  293       -3.824096  -0.000931
  294       -3.682219   0.002857
  295       -3.515361   0.000100
  296       -3.501048   0.000069
  297       -3.374300   0.000001
  298       -3.083627   0.000000
  299       -3.075693   0.000000
  300       -3.056203   0.000000
  301       -3.052263   0.000000
  302       -3.030779   0.000000
  303       -2.966161   0.000000
  304       -2.956950   0.000000
  305       -2.798345   0.000000
  306       -2.541008   0.000000
  307       -2.537979   0.000000
  308       -2.375641   0.000000
  309       -2.314320   0.000000
  310       -2.141842   0.000000
  311       -2.127890   0.000000
  312       -2.118655   0.000000
  313       -2.034999   0.000000
  314       -1.973635   0.000000
  315       -1.941546   0.000000
  316       -1.878582   0.000000
  317       -1.805704   0.000000
  318       -1.743339   0.000000
  319       -1.717601   0.000000
  320       -1.653077   0.000000
  321       -1.607618   0.000000
  322       -1.567920   0.000000
  323       -1.411795   0.000000
  324       -1.316351   0.000000
  325       -1.263744   0.000000
  326       -1.157051   0.000000
  327       -1.103703   0.000000
  328       -0.999797   0.000000
  329       -0.998159   0.000000
  330       -0.994749   0.000000
  331       -0.958698   0.000000
  332       -0.950025   0.000000
  333       -0.914698   0.000000
  334       -0.889292   0.000000
  335       -0.793635   0.000000
  336       -0.594525   0.000000
