   57   57    1    1
  0.4736842E+03  0.3000000E-08  0.3000000E-08  0.3000000E-08  0.5000000E-15
  1.000000000000000E-004
  CAR 
 6_Pd100_top_free_z(O)                   
    560      1    336
 
  0.0000000E+00  0.0000000E+00  0.0000000E+00  0.1000000E+01
    1      -28.201939   1.000000
    2      -13.383700   1.000000
    3      -11.493613   1.000000
    4      -10.903358   1.000000
    5      -10.467347   1.000000
    6       -6.656223   1.000000
    7       -6.453792   1.000000
    8       -6.276709   1.000000
    9       -6.139554   1.000000
   10       -6.129910   1.000000
   11       -6.111751   1.000000
   12       -5.904506   1.000000
   13       -5.831616   1.000000
   14       -5.817575   1.000000
   15       -5.805152   1.000000
   16       -5.748090   1.000000
   17       -5.709116   1.000000
   18       -5.692460   1.000000
   19       -5.685780   1.000000
   20       -5.681889   1.000000
   21       -5.675180   1.000000
   22       -5.662889   1.000000
   23       -5.628898   1.000000
   24       -5.613957   1.000000
   25       -5.600944   1.000000
   26       -5.598737   1.000000
   27       -5.592779   1.000000
   28       -5.588301   1.000000
   29       -5.563819   1.000000
   30       -5.544864   1.000000
   31       -5.540399   1.000000
   32       -5.527381   1.000000
   33       -5.525034   1.000000
   34       -5.521513   1.000000
   35       -5.520114   1.000000
   36       -5.510751   1.000000
   37       -5.507592   1.000000
   38       -5.502760   1.000000
   39       -5.496464   1.000000
   40       -5.486786   1.000000
   41       -5.478231   1.000000
   42       -5.475359   1.000000
   43       -5.471415   1.000000
   44       -5.468104   1.000000
   45       -5.465013   1.000000
   46       -5.460812   1.000000
   47       -5.454331   1.000000
   48       -5.449529   1.000000
   49       -5.441707   1.000000
   50       -5.425407   1.000000
   51       -5.420320   1.000000
   52       -5.412157   1.000000
   53       -5.405927   1.000000
   54       -5.398408   1.000000
   55       -5.391831   1.000000
   56       -5.388322   1.000000
   57       -5.384772   1.000000
   58       -5.369188   1.000000
   59       -5.356461   1.000000
   60       -5.350324   1.000000
   61       -5.335913   1.000000
   62       -5.319534   1.000000
   63       -5.311462   1.000000
   64       -5.309399   1.000000
   65       -5.308152   1.000000
   66       -5.305170   1.000000
   67       -5.298292   1.000000
   68       -5.293625   1.000000
   69       -5.279582   1.000000
   70       -5.271243   1.000000
   71       -5.251148   1.000000
   72       -5.229569   1.000000
   73       -5.214734   1.000000
   74       -5.197189   1.000000
   75       -5.179304   1.000000
   76       -5.176454   1.000000
   77       -5.175502   1.000000
   78       -5.174877   1.000000
   79       -5.171078   1.000000
   80       -5.166292   1.000000
   81       -5.160658   1.000000
   82       -5.148654   1.000000
   83       -5.142090   1.000000
   84       -5.137163   1.000000
   85       -5.127141   1.000000
   86       -5.121756   1.000000
   87       -5.112980   1.000000
   88       -5.104734   1.000000
   89       -5.097754   1.000000
   90       -5.096387   1.000000
   91       -5.082565   1.000000
   92       -5.073378   1.000000
   93       -5.063979   1.000000
   94       -5.056240   1.000000
   95       -5.047748   1.000000
   96       -5.046239   1.000000
   97       -5.043946   1.000000
   98       -5.042130   1.000000
   99       -5.037767   1.000000
  100       -5.026393   1.000000
  101       -5.023465   1.000000
  102       -5.021872   1.000000
  103       -5.016156   1.000000
  104       -5.012689   1.000000
  105       -5.007170   1.000000
  106       -5.000435   1.000000
  107       -4.997911   1.000000
  108       -4.997334   1.000000
  109       -4.992634   1.000000
  110       -4.990788   1.000000
  111       -4.980444   1.000000
  112       -4.975893   1.000000
  113       -4.969080   1.000000
  114       -4.965009   1.000000
  115       -4.957486   1.000000
  116       -4.952704   0.999999
  117       -4.949671   0.999999
  118       -4.945602   0.999999
  119       -4.938467   0.999999
  120       -4.923332   0.999999
  121       -4.919581   0.999998
  122       -4.916717   0.999998
  123       -4.907512   0.999997
  124       -4.905994   0.999997
  125       -4.901709   0.999997
  126       -4.898114   0.999997
  127       -4.897044   0.999996
  128       -4.882744   0.999994
  129       -4.868673   0.999991
  130       -4.862180   0.999989
  131       -4.849430   0.999984
  132       -4.842035   0.999980
  133       -4.839722   0.999978
  134       -4.830192   0.999971
  135       -4.828787   0.999970
  136       -4.824552   0.999966
  137       -4.817044   0.999958
  138       -4.811506   0.999951
  139       -4.808232   0.999946
  140       -4.789520   0.999911
  141       -4.785526   0.999901
  142       -4.767632   0.999843
  143       -4.765353   0.999834
  144       -4.751814   0.999769
  145       -4.743014   0.999715
  146       -4.738631   0.999685
  147       -4.732728   0.999640
  148       -4.730048   0.999617
  149       -4.727475   0.999594
  150       -4.706666   0.999366
  151       -4.701266   0.999292
  152       -4.700102   0.999275
  153       -4.692205   0.999151
  154       -4.687249   0.999066
  155       -4.676076   0.998848
  156       -4.673053   0.998783
  157       -4.669912   0.998712
  158       -4.667018   0.998645
  159       -4.666567   0.998634
  160       -4.662252   0.998528
  161       -4.656061   0.998366
  162       -4.651219   0.998232
  163       -4.650525   0.998212
  164       -4.644802   0.998042
  165       -4.644069   0.998020
  166       -4.639857   0.997889
  167       -4.636402   0.997777
  168       -4.633268   0.997673
  169       -4.631131   0.997601
  170       -4.628376   0.997506
  171       -4.621465   0.997262
  172       -4.617295   0.997110
  173       -4.611092   0.996880
  174       -4.596730   0.996341
  175       -4.591059   0.996132
  176       -4.590340   0.996106
  177       -4.587692   0.996011
  178       -4.583255   0.995857
  179       -4.580430   0.995762
  180       -4.575132   0.995594
  181       -4.570412   0.995458
  182       -4.562112   0.995257
  183       -4.556076   0.995149
  184       -4.552065   0.995100
  185       -4.549560   0.995080
  186       -4.547923   0.995071
  187       -4.544589   0.995065
  188       -4.542075   0.995072
  189       -4.539966   0.995085
  190       -4.535897   0.995133
  191       -4.519432   0.995676
  192       -4.514544   0.995964
  193       -4.509440   0.996337
  194       -4.506198   0.996614
  195       -4.499541   0.997291
  196       -4.496506   0.997650
  197       -4.486845   0.999018
  198       -4.482143   0.999816
  199       -4.480498   1.000116
  200       -4.474432   1.001323
  201       -4.471128   1.002048
  202       -4.460521   1.004703
  203       -4.459715   1.004925
  204       -4.459073   1.005105
  205       -4.454996   1.006289
  206       -4.450494   1.007684
  207       -4.447551   1.008646
  208       -4.442364   1.010435
  209       -4.439129   1.011611
  210       -4.432745   1.014060
  211       -4.428182   1.015910
  212       -4.414125   1.022061
  213       -4.410794   1.023599
  214       -4.408502   1.024672
  215       -4.406761   1.025493
  216       -4.402813   1.027372
  217       -4.397666   1.029844
  218       -4.394691   1.031277
  219       -4.393904   1.031656
  220       -4.391806   1.032664
  221       -4.386255   1.035311
  222       -4.378545   1.038884
  223       -4.356860   1.047433
  224       -4.349767   1.049421
  225       -4.347384   1.049966
  226       -4.342301   1.050890
  227       -4.337395   1.051443
  228       -4.330975   1.051599
  229       -4.328587   1.051476
  230       -4.327280   1.051364
  231       -4.325916   1.051213
  232       -4.323720   1.050894
  233       -4.322048   1.050586
  234       -4.318867   1.049838
  235       -4.317383   1.049415
  236       -4.313988   1.048259
  237       -4.313513   1.048076
  238       -4.309590   1.046356
  239       -4.308725   1.045926
  240       -4.305278   1.044022
  241       -4.295972   1.037273
  242       -4.294468   1.035950
  243       -4.292922   1.034520
  244       -4.291135   1.032775
  245       -4.286666   1.027978
  246       -4.285653   1.026804
  247       -4.278029   1.016868
  248       -4.276608   1.014799
  249       -4.275003   1.012379
  250       -4.272648   1.008663
  251       -4.262225   0.989812
  252       -4.258892   0.982937
  253       -4.257829   0.980656
  254       -4.248356   0.958422
  255       -4.247967   0.957435
  256       -4.244819   0.949232
  257       -4.242896   0.944035
  258       -4.241276   0.939541
  259       -4.237342   0.928210
  260       -4.236055   0.924375
  261       -4.234945   0.921014
  262       -4.230487   0.907038
  263       -4.227807   0.898273
  264       -4.226894   0.895224
  265       -4.225808   0.891558
  266       -4.215112   0.853103
  267       -4.213778   0.848014
  268       -4.212123   0.841617
  269       -4.210640   0.835803
  270       -4.208733   0.828217
  271       -4.206475   0.819071
  272       -4.196271   0.775694
  273       -4.189838   0.746738
  274       -4.186251   0.730096
  275       -4.180823   0.704299
  276       -4.177556   0.688443
  277       -4.171966   0.660795
  278       -4.164003   0.620450
  279       -4.163277   0.616725
  280       -4.160003   0.599836
  281       -4.157505   0.586866
  282       -4.148029   0.537169
  283       -4.145410   0.523343
  284       -4.124277   0.412050
  285       -4.122155   0.401033
  286       -4.118949   0.384486
  287       -4.111969   0.348961
  288       -4.100647   0.293198
  289       -3.982715  -0.039948
  290       -3.942409  -0.051240
  291       -3.905330  -0.039729
  292       -3.822471  -0.004980
  293       -3.812583  -0.002444
  294       -3.746504   0.004860
  295       -3.494514   0.000094
  296       -3.484607   0.000072
  297       -3.262286   0.000000
  298       -3.061814   0.000000
  299       -3.053684   0.000000
  300       -3.033805   0.000000
  301       -3.028447   0.000000
  302       -3.010919   0.000000
  303       -3.004570   0.000000
  304       -2.930477   0.000000
  305       -2.806993   0.000000
  306       -2.544075   0.000000
  307       -2.513148   0.000000
  308       -2.454811   0.000000
  309       -2.195502   0.000000
  310       -2.135774   0.000000
  311       -2.114090   0.000000
  312       -2.073371   0.000000
  313       -1.983381   0.000000
  314       -1.946907   0.000000
  315       -1.929988   0.000000
  316       -1.848161   0.000000
  317       -1.822830   0.000000
  318       -1.758431   0.000000
  319       -1.685551   0.000000
  320       -1.633052   0.000000
  321       -1.573475   0.000000
  322       -1.551214   0.000000
  323       -1.484214   0.000000
  324       -1.398115   0.000000
  325       -1.282346   0.000000
  326       -1.098063   0.000000
  327       -1.037012   0.000000
  328       -0.999434   0.000000
  329       -0.967904   0.000000
  330       -0.947576   0.000000
  331       -0.927456   0.000000
  332       -0.915783   0.000000
  333       -0.894751   0.000000
  334       -0.857704   0.000000
  335       -0.807663   0.000000
  336       -0.676656   0.000000
