 vasp.5.4.4.18Apr17-6-g9f103f2a35 (build Sep 03 2018 23:53:05) complex          
  
 executed on             LinuxIFC date 2021.12.01  00:12:25
 running on    1 total cores
 distrk:  each k-point on    1 cores,    1 groups
 distr:  one band on NCORES_PER_BAND=   1 cores,    1 groups


--------------------------------------------------------------------------------------------------------


 INCAR:
 POTCAR:    PAW_PBE Pd 04Jan2005                  
 POTCAR:    PAW_PBE C 08Apr2002                   
 POTCAR:    PAW_PBE O 08Apr2002                   
 POTCAR:    PAW_PBE Pd 04Jan2005                  
   VRHFIN =Pd : s1 d9                                                           
   LEXCH  = PE                                                                  
   EATOM  =   809.7530 eV,   59.5152 Ry                                         
                                                                                
   TITEL  = PAW_PBE Pd 04Jan2005                                                
   LULTRA =        F    use ultrasoft PP ?                                      
   IUNSCR =        1    unscreen: 0-lin 1-nonlin 2-no                           
   RPACOR =    2.000    partial core radius                                     
   POMASS =  106.420; ZVAL   =   10.000    mass and valenz                      
   RCORE  =    2.600    outmost cutoff radius                                   
   RWIGS  =    2.710; RWIGS  =    1.434    wigner-seitz radius (au A)           
   ENMAX  =  250.925; ENMIN  =  188.194 eV                                      
   ICORE  =        3    local potential                                         
   LCOR   =        T    correct aug charges                                     
   LPAW   =        T    paw PP                                                  
   EAUG   =  416.230                                                            
   DEXC   =    0.000                                                            
   RMAX   =    2.653    core radius for proj-oper                               
   RAUG   =    1.300    factor for augmentation sphere                          
   RDEP   =    2.734    radius for radial grids                                 
   RDEPT  =    2.103    core radius for aug-charge                              
                                                                                
   Atomic configuration                                                         
   12 entries                                                                   
     n  l   j            E        occ.                                          
     1  0  0.50    -24164.6631   2.0000                                         
     2  0  0.50     -3530.9218   2.0000                                         
     2  1  1.50     -3165.6822   6.0000                                         
     3  0  0.50      -639.4577   2.0000                                         
     3  1  1.50      -519.4532   6.0000                                         
     3  2  2.50      -328.9757  10.0000                                         
     4  0  0.50       -88.7014   2.0000                                         
     4  1  1.50       -54.4540   6.0000                                         
     4  2  2.50        -6.6878   9.0000                                         
     5  0  0.50        -4.3543   1.0000                                         
     5  1  0.50        -1.3606   0.0000                                         
     4  3  2.50        -1.3606   0.0000                                         
   Description                                                                  
     l       E           TYP  RCUT    TYP  RCUT                                 
     2     -6.6878251     23  2.400                                             
     2     -8.0484077     23  2.400                                             
     0     -4.3542939     23  2.400                                             
     0      4.3406793     23  2.400                                             
     1     -4.0817478     23  2.600                                             
     1     15.8380318     23  2.600                                             
     3     -4.0817478     23  2.400                                             
  local pseudopotential read in
  partial core-charges read in
  partial kinetic energy density read in
  atomic valenz-charges read in
  non local Contribution for L=           2  read in
    real space projection operators read in
  non local Contribution for L=           2  read in
    real space projection operators read in
  non local Contribution for L=           0  read in
    real space projection operators read in
  non local Contribution for L=           0  read in
    real space projection operators read in
  non local Contribution for L=           1  read in
    real space projection operators read in
  non local Contribution for L=           1  read in
    real space projection operators read in
    PAW grid and wavefunctions read in
 
   number of l-projection  operators is LMAX  =           6
   number of lm-projection operators is LMMAX =          18
 
 POTCAR:    PAW_PBE C 08Apr2002                   
   VRHFIN =C: s2p2                                                              
   LEXCH  = PE                                                                  
   EATOM  =   147.1560 eV,   10.8157 Ry                                         
                                                                                
   TITEL  = PAW_PBE C 08Apr2002                                                 
   LULTRA =        F    use ultrasoft PP ?                                      
   IUNSCR =        1    unscreen: 0-lin 1-nonlin 2-no                           
   RPACOR =    1.200    partial core radius                                     
   POMASS =   12.011; ZVAL   =    4.000    mass and valenz                      
   RCORE  =    1.500    outmost cutoff radius                                   
   RWIGS  =    1.630; RWIGS  =    0.863    wigner-seitz radius (au A)           
   ENMAX  =  400.000; ENMIN  =  300.000 eV                                      
   ICORE  =        2    local potential                                         
   LCOR   =        T    correct aug charges                                     
   LPAW   =        T    paw PP                                                  
   EAUG   =  644.873                                                            
   DEXC   =    0.000                                                            
   RMAX   =    1.529    core radius for proj-oper                               
   RAUG   =    1.300    factor for augmentation sphere                          
   RDEP   =    1.501    radius for radial grids                                 
   RDEPT  =    1.300    core radius for aug-charge                              
                                                                                
   Atomic configuration                                                         
    4 entries                                                                   
     n  l   j            E        occ.                                          
     1  0  0.50      -273.3789   2.0000                                         
     2  0  0.50       -13.7508   2.0000                                         
     2  1  0.50        -5.2854   2.0000                                         
     3  2  1.50        -5.4423   0.0000                                         
   Description                                                                  
     l       E           TYP  RCUT    TYP  RCUT                                 
     0    -13.7508458     23  1.200                                             
     0     -8.2022199     23  1.200                                             
     1     -5.2854383     23  1.500                                             
     1     34.0145650     23  1.500                                             
     2     -5.4423304      7  1.500                                             
  local pseudopotential read in
  partial core-charges read in
  partial kinetic energy density read in
  atomic valenz-charges read in
  non local Contribution for L=           0  read in
    real space projection operators read in
  non local Contribution for L=           0  read in
    real space projection operators read in
  non local Contribution for L=           1  read in
    real space projection operators read in
  non local Contribution for L=           1  read in
    real space projection operators read in
    PAW grid and wavefunctions read in
 
   number of l-projection  operators is LMAX  =           4
   number of lm-projection operators is LMMAX =           8
 
 POTCAR:    PAW_PBE O 08Apr2002                   
   VRHFIN =O: s2p4                                                              
   LEXCH  = PE                                                                  
   EATOM  =   432.3788 eV,   31.7789 Ry                                         
                                                                                
   TITEL  = PAW_PBE O 08Apr2002                                                 
   LULTRA =        F    use ultrasoft PP ?                                      
   IUNSCR =        1    unscreen: 0-lin 1-nonlin 2-no                           
   RPACOR =    1.200    partial core radius                                     
   POMASS =   16.000; ZVAL   =    6.000    mass and valenz                      
   RCORE  =    1.520    outmost cutoff radius                                   
   RWIGS  =    1.550; RWIGS  =    0.820    wigner-seitz radius (au A)           
   ENMAX  =  400.000; ENMIN  =  300.000 eV                                      
   ICORE  =        2    local potential                                         
   LCOR   =        T    correct aug charges                                     
   LPAW   =        T    paw PP                                                  
   EAUG   =  605.392                                                            
   DEXC   =    0.000                                                            
   RMAX   =    1.553    core radius for proj-oper                               
   RAUG   =    1.300    factor for augmentation sphere                          
   RDEP   =    1.550    radius for radial grids                                 
   RDEPT  =    1.329    core radius for aug-charge                              
                                                                                
   Atomic configuration                                                         
    4 entries                                                                   
     n  l   j            E        occ.                                          
     1  0  0.50      -514.6923   2.0000                                         
     2  0  0.50       -23.9615   2.0000                                         
     2  1  0.50        -9.0305   4.0000                                         
     3  2  1.50        -9.5241   0.0000                                         
   Description                                                                  
     l       E           TYP  RCUT    TYP  RCUT                                 
     0    -23.9615318     23  1.200                                             
     0     -9.5240782     23  1.200                                             
     1     -9.0304911     23  1.520                                             
     1      8.1634956     23  1.520                                             
     2     -9.5240782      7  1.500                                             
  local pseudopotential read in
  partial core-charges read in
  partial kinetic energy density read in
  kinetic energy density of atom read in
  atomic valenz-charges read in
  non local Contribution for L=           0  read in
    real space projection operators read in
  non local Contribution for L=           0  read in
    real space projection operators read in
  non local Contribution for L=           1  read in
    real space projection operators read in
  non local Contribution for L=           1  read in
    real space projection operators read in
    PAW grid and wavefunctions read in
 
   number of l-projection  operators is LMAX  =           4
   number of lm-projection operators is LMMAX =           8
 
 Optimization of the real space projectors (new method)

 maximal supplied QI-value         = 14.36
 optimisation between [QCUT,QGAM] = [ 10.20, 20.39] = [ 29.12,116.47] Ry 
 Optimized for a Real-space Cutoff    1.51 Angstroem

   l    n(q)    QCUT    max X(q) W(low)/X(q) W(high)/X(q)  e(spline) 
   2      8    10.197    59.108    0.26E-03    0.14E-03    0.96E-07
   2      8    10.197    58.101    0.27E-03    0.14E-03    0.98E-07
   0      9    10.197   102.235    0.54E-04    0.60E-05    0.72E-07
   0      9    10.197    58.388    0.52E-04    0.60E-05    0.68E-07
   1      9    10.197    22.191    0.18E-03    0.25E-03    0.79E-07
   1      9    10.197    15.590    0.15E-03    0.21E-03    0.69E-07
 Optimization of the real space projectors (new method)

 maximal supplied QI-value         = 25.13
 optimisation between [QCUT,QGAM] = [ 10.05, 20.36] = [ 28.30,116.06] Ry 
 Optimized for a Real-space Cutoff    1.30 Angstroem

   l    n(q)    QCUT    max X(q) W(low)/X(q) W(high)/X(q)  e(spline) 
   0      8    10.053   115.676    0.49E-03    0.72E-03    0.18E-06
   0      8    10.053    87.132    0.49E-03    0.71E-03    0.18E-06
   1      7    10.053     4.429    0.32E-03    0.31E-03    0.18E-06
   1      7    10.053     2.733    0.23E-03    0.19E-03    0.20E-06
 Optimization of the real space projectors (new method)

 maximal supplied QI-value         = 24.76
 optimisation between [QCUT,QGAM] = [ 10.15, 20.30] = [ 28.85,115.39] Ry 
 Optimized for a Real-space Cutoff    1.38 Angstroem

   l    n(q)    QCUT    max X(q) W(low)/X(q) W(high)/X(q)  e(spline) 
   0      8    10.150    20.381    0.22E-03    0.32E-03    0.29E-06
   0      8    10.150    15.268    0.23E-03    0.35E-03    0.30E-06
   1      8    10.150     5.964    0.46E-03    0.53E-03    0.21E-06
   1      8    10.150     5.382    0.38E-03    0.45E-03    0.19E-06

 ----------------------------------------------------------------------------- 
|                                                                             |
|  ADVICE TO THIS USER RUNNING 'VASP/VAMP'   (HEAR YOUR MASTER'S VOICE ...):  |
|                                                                             |
|      You enforced a specific xc-type in the INCAR file,                     |
|      a different type was found on the POTCAR file                          |
|          I HOPE YOU KNOW, WHAT YOU ARE  DOING                               |
|                                                                             |
 ----------------------------------------------------------------------------- 

  PAW_PBE Pd 04Jan2005                  :
 energy of atom  1       EATOM= -809.7530
 kinetic energy error for atom=    0.0091 (will be added to EATOM!!)
  PAW_PBE C 08Apr2002                   :
 energy of atom  2       EATOM= -147.1560
 kinetic energy error for atom=    0.0288 (will be added to EATOM!!)
  PAW_PBE O 08Apr2002                   :
 energy of atom  3       EATOM= -432.3788
 kinetic energy error for atom=    0.1156 (will be added to EATOM!!)
 
 
 POSCAR: Pd55PES                                 
  positions in cartesian coordinates
  No initial velocities read in
 exchange correlation table for  LEXCH =        9
   RHO(1)=    0.500       N(1)  =     2000
   RHO(2)=  100.500       N(2)  =     4000
 


--------------------------------------------------------------------------------------------------------


 ion  position               nearest neighbor table
   1  0.446  0.328  0.417-   3 3.25   5 3.25   7 3.36  15 3.36  29 3.42  28 3.42
   2  0.672  0.554  0.417-  26 3.25  30 3.25  17 3.36   9 3.36  47 3.42  49 3.42
   3  0.554  0.328  0.417-   1 3.25   5 3.25   7 3.36  11 3.36  29 3.42  21 3.42
   4  0.328  0.554  0.417-  32 3.25  22 3.25  13 3.36   8 3.36  43 3.42  48 3.42
   5  0.500  0.383  0.340-   1 3.25   3 3.25  11 3.36  15 3.36  21 3.42  28 3.42
   6  0.500  0.383  0.660-  56 2.35  24 3.25  19 3.25  16 3.36  12 3.36  44 3.42  42 3.42
   7  0.500  0.276  0.500-  29 3.24   3 3.36   1 3.36  19 3.36  24 3.36
   8  0.276  0.500  0.500-  48 3.24  22 3.36  40 3.36   4 3.36  25 3.36
   9  0.724  0.500  0.500-  49 3.24  26 3.36  45 3.36   2 3.36  20 3.36
  10  0.500  0.724  0.500-  55 3.24  27 3.36  23 3.36  46 3.36  41 3.36
  11  0.612  0.388  0.342-  21 3.24   5 3.36   3 3.36  30 3.36  26 3.36
  12  0.612  0.388  0.658-  42 3.24  24 3.36  45 3.36   6 3.36  31 3.36
  13  0.388  0.612  0.342-  43 3.24  32 3.36  50 3.36   4 3.36  27 3.36
  14  0.388  0.612  0.658-  53 3.24  25 3.36  33 3.36  51 3.36  46 3.36
  15  0.388  0.388  0.342-  28 3.24   5 3.36   1 3.36  32 3.36  22 3.36
  16  0.388  0.388  0.658-  44 3.24  19 3.36  40 3.36   6 3.36  33 3.36
  17  0.612  0.612  0.342-  47 3.24  30 3.36  50 3.36   2 3.36  23 3.36
  18  0.612  0.612  0.658-  54 3.24  31 3.36  20 3.36  51 3.36  41 3.36
  19  0.446  0.328  0.583-   6 3.25  24 3.25  16 3.36   7 3.36  44 3.42  29 3.42
  20  0.672  0.554  0.583-  31 3.25  45 3.25  18 3.36   9 3.36  54 3.42  49 3.42
  21  0.558  0.442  0.418-  11 3.24   5 3.42   3 3.42  30 3.42  26 3.42
  22  0.328  0.446  0.417-   4 3.25  32 3.25   8 3.36  15 3.36  48 3.42  28 3.42
  23  0.554  0.672  0.417-  27 3.25  50 3.25  10 3.36  17 3.36  55 3.42  47 3.42
  24  0.554  0.328  0.583-   6 3.25  19 3.25  12 3.36   7 3.36  42 3.42  29 3.42
  25  0.328  0.554  0.583-  33 3.25  40 3.25  14 3.36   8 3.36  53 3.42  48 3.42
  26  0.672  0.446  0.417-   2 3.25  30 3.25   9 3.36  11 3.36  49 3.42  21 3.42
  27  0.446  0.672  0.417-  23 3.25  50 3.25  10 3.36  13 3.36  55 3.42  43 3.42
  28  0.442  0.442  0.418-  15 3.24   5 3.42   1 3.42  32 3.42  22 3.42
  29  0.500  0.384  0.500-   7 3.24   3 3.42   1 3.42  24 3.42  19 3.42
  30  0.617  0.500  0.340-   2 3.25  26 3.25  17 3.36  11 3.36  47 3.42  21 3.42
  31  0.617  0.500  0.660-  20 3.25  45 3.25  18 3.36  12 3.36  54 3.42  42 3.42
  32  0.383  0.500  0.340-   4 3.25  22 3.25  13 3.36  15 3.36  43 3.42  28 3.42
  33  0.383  0.500  0.660-  25 3.25  40 3.25  14 3.36  16 3.36  53 3.42  44 3.42
  34  0.383  0.383  0.500-
  35  0.617  0.617  0.500-
  36  0.617  0.383  0.500-
  37  0.383  0.617  0.500-
  38  0.500  0.500  0.335-
  39  0.500  0.500  0.665-
  40  0.328  0.446  0.583-  33 3.25  25 3.25  16 3.36   8 3.36  44 3.42  48 3.42
  41  0.554  0.672  0.583-  46 3.25  51 3.25  10 3.36  18 3.36  54 3.42  55 3.42
  42  0.558  0.442  0.582-  12 3.24   6 3.42  24 3.42  31 3.42  45 3.42
  43  0.442  0.558  0.418-  13 3.24   4 3.42  32 3.42  27 3.42  50 3.42
  44  0.442  0.442  0.582-  16 3.24   6 3.42  19 3.42  33 3.42  40 3.42
  45  0.672  0.446  0.583-  20 3.25  31 3.25   9 3.36  12 3.36  49 3.42  42 3.42
  46  0.446  0.672  0.583-  41 3.25  51 3.25  10 3.36  14 3.36  53 3.42  55 3.42
  47  0.558  0.558  0.418-  17 3.24   2 3.42  30 3.42  23 3.42  50 3.42
  48  0.384  0.500  0.500-   8 3.24   4 3.42  22 3.42  25 3.42  40 3.42
  49  0.616  0.500  0.500-   9 3.24   2 3.42  26 3.42  20 3.42  45 3.42
  50  0.500  0.617  0.340-  27 3.25  23 3.25  13 3.36  17 3.36  43 3.42  47 3.42
  51  0.500  0.617  0.660-  41 3.25  46 3.25  14 3.36  18 3.36  53 3.42  54 3.42
  52  0.500  0.500  0.500-
  53  0.442  0.558  0.582-  14 3.24  25 3.42  33 3.42  51 3.42  46 3.42
  54  0.558  0.558  0.582-  18 3.24  31 3.42  20 3.42  51 3.42  41 3.42
  55  0.500  0.616  0.500-  10 3.24  23 3.42  27 3.42  41 3.42  46 3.42
  56  0.487  0.366  0.735-  57 1.13   6 2.35
  57  0.486  0.348  0.768-  56 1.13
 
  LATTYP: Found a simple cubic cell.
 ALAT       =    30.0000000000
  
  Lattice vectors:
  
 A1 = (  30.0000000000,   0.0000000000,   0.0000000000)
 A2 = (   0.0000000000,  30.0000000000,   0.0000000000)
 A3 = (   0.0000000000,   0.0000000000,  30.0000000000)


Analysis of symmetry for initial positions (statically):
=====================================================================
 Subroutine PRICEL returns:
 Original cell was already a primitive cell.
 

 Routine SETGRP: Setting up the symmetry group for a 
 simple cubic supercell.


 Subroutine GETGRP returns: Found  1 space group operations
 (whereof  1 operations were pure point group operations)
 out of a pool of 48 trial point group operations.


The static configuration has the point symmetry C_1 .


Analysis of symmetry for dynamics (positions and initial velocities):
=====================================================================
 Subroutine PRICEL returns:
 Original cell was already a primitive cell.
 

 Routine SETGRP: Setting up the symmetry group for a 
 simple cubic supercell.


 Subroutine GETGRP returns: Found  1 space group operations
 (whereof  1 operations were pure point group operations)
 out of a pool of 48 trial point group operations.


The dynamic configuration has the point symmetry C_1 .


Analysis of constrained symmetry for selective dynamics:
=====================================================================
 Subroutine PRICEL returns:
 Original cell was already a primitive cell.
 

 Routine SETGRP: Setting up the symmetry group for a 
 simple cubic supercell.


 Subroutine GETGRP returns: Found  1 space group operations
 (whereof  1 operations were pure point group operations)
 out of a pool of 48 trial point group operations.


The constrained configuration has the point symmetry C_1 .


 Subroutine INISYM returns: Found  1 space group operations
 (whereof  1 operations are pure point group operations),
 and found     1 'primitive' translations

 
 
 KPOINTS: K-points                                

Automatic generation of k-mesh.
Space group operators:
 irot       det(A)        alpha          n_x          n_y          n_z        tau_x        tau_y        tau_z
    1     1.000000     0.000000     1.000000     0.000000     0.000000     0.000000     0.000000     0.000000
 
 Subroutine IBZKPT returns following result:
 ===========================================
 
 Found      1 irreducible k-points:
 
 Following reciprocal coordinates:
            Coordinates               Weight
  0.000000  0.000000  0.000000      1.000000
 
 Following cartesian coordinates:
            Coordinates               Weight
  0.000000  0.000000  0.000000      1.000000
 


--------------------------------------------------------------------------------------------------------




 Dimension of arrays:
   k-points           NKPTS =      1   k-points in BZ     NKDIM =      1   number of bands    NBANDS=    336
   number of dos      NEDOS =    301   number of ions     NIONS =     57
   non local maximal  LDIM  =      6   non local SUM 2l+1 LMDIM =     18
   total plane-waves  NPLWV = ******
   max r-space proj   IRMAX =   1847   max aug-charges    IRDMAX=   6262
   dimension x,y,z NGX =   150 NGY =  150 NGZ =  150
   dimension x,y,z NGXF=   300 NGYF=  300 NGZF=  300
   support grid    NGXF=   300 NGYF=  300 NGZF=  300
   ions per type =              55   1   1
   NGX,Y,Z   is equivalent  to a cutoff of   8.31,  8.31,  8.31 a.u.
   NGXF,Y,Z  is equivalent  to a cutoff of  16.62, 16.62, 16.62 a.u.

 SYSTEM =  6_Pd100_top_free_z(O)                   
 POSCAR =  Pd55PES                                 

 Startparameter for this run:
   NWRITE =      2    write-flag & timer
   PREC   = normal    normal or accurate (medium, high low for compatibility)
   ISTART =      0    job   : 0-new  1-cont  2-samecut
   ICHARG =      2    charge: 1-file 2-atom 10-const
   ISPIN  =      1    spin polarized calculation?
   LNONCOLLINEAR =      F non collinear calculations
   LSORBIT =      F    spin-orbit coupling
   INIWAV =      1    electr: 0-lowe 1-rand  2-diag
   LASPH  =      F    aspherical Exc in radial PAW
   METAGGA=      F    non-selfconsistent MetaGGA calc.

 Electronic Relaxation 1
   ENCUT  =  400.0 eV  29.40 Ry    5.42 a.u.  48.92 48.92 48.92*2*pi/ulx,y,z
   ENINI  =  400.0     initial cutoff
   ENAUG  =  644.9 eV  augmentation charge cutoff
   NELM   =    100;   NELMIN=  6; NELMDL= -5     # of ELM steps 
   EDIFF  = 0.1E-03   stopping-criterion for ELM
   LREAL  =      T    real-space projection
   NLSPLINE    = F    spline interpolate recip. space projectors
   LCOMPAT=      F    compatible to vasp.4.4
   GGA_COMPAT  = T    GGA compatible to vasp.4.4-vasp.4.6
   LMAXPAW     = -100 max onsite density
   LMAXMIX     =    2 max onsite mixed and CHGCAR
   VOSKOWN=      0    Vosko Wilk Nusair interpolation
   ROPT   =   -0.00050  -0.00050  -0.00050
 Ionic relaxation
   EDIFFG = -.5E-01   stopping-criterion for IOM
   NSW    =      0    number of steps for IOM
   NBLOCK =      1;   KBLOCK =      1    inner block; outer block 
   IBRION =     -1    ionic relax: 0-MD 1-quasi-New 2-CG
   NFREE  =      1    steps in history (QN), initial steepest desc. (CG)
   ISIF   =      2    stress and relaxation
   IWAVPR =     10    prediction:  0-non 1-charg 2-wave 3-comb
   ISYM   =      2    0-nonsym 1-usesym 2-fastsym
   LCORR  =      T    Harris-Foulkes like correction to forces

   POTIM  = 0.5000    time-step for ionic-motion
   TEIN   =    0.0    initial temperature
   TEBEG  =    0.0;   TEEND  =   0.0 temperature during run
   SMASS  =  -3.00    Nose mass-parameter (am)
   estimated Nose-frequenzy (Omega)   =  0.10E-29 period in steps =****** mass=  -0.206E-25a.u.
   SCALEE = 1.0000    scale energy and forces
   NPACO  =    256;   APACO  = 16.0  distance and # of slots for P.C.
   PSTRESS=    0.0 pullay stress

  Mass of Ions in am
   POMASS = 106.42 12.01 16.00
  Ionic Valenz
   ZVAL   =  10.00  4.00  6.00
  Atomic Wigner-Seitz radii
   RWIGS  =  -1.00 -1.00 -1.00
  virtual crystal weights 
   VCA    =   1.00  1.00  1.00
   NELECT =     560.0000    total number of electrons
   NUPDOWN=      -1.0000    fix difference up-down

 DOS related values:
   EMIN   =  10.00;   EMAX   =-10.00  energy-range for DOS
   EFERMI =   0.00
   ISMEAR =     2;   SIGMA  =   0.20  broadening in eV -4-tet -1-fermi 0-gaus

 Electronic relaxation 2 (details)
   IALGO  =     68    algorithm
   LDIAG  =      T    sub-space diagonalisation (order eigenvalues)
   LSUBROT=      F    optimize rotation matrix (better conditioning)
   TURBO    =      0    0=normal 1=particle mesh
   IRESTART =      0    0=no restart 2=restart with 2 vectors
   NREBOOT  =      0    no. of reboots
   NMIN     =      0    reboot dimension
   EREF     =   0.00    reference energy to select bands
   IMIX   =      4    mixing-type and parameters
     AMIX     =   0.40;   BMIX     =  1.00
     AMIX_MAG =   1.60;   BMIX_MAG =  1.00
     AMIN     =   0.10
     WC   =   100.;   INIMIX=   1;  MIXPRE=   1;  MAXMIX= -45

 Intra band minimization:
   WEIMIN = 0.0000     energy-eigenvalue tresh-hold
   EBREAK =  0.74E-07  absolut break condition
   DEPER  =   0.30     relativ break condition  

   TIME   =   0.40     timestep for ELM

  volume/ion in A,a.u.               =     473.68      3196.58
  Fermi-wavevector in a.u.,A,eV,Ry     =   0.449797  0.849992  2.752691  0.202317
  Thomas-Fermi vector in A             =   1.430086
 
 Write flags
   LWAVE        =      F    write WAVECAR
   LDOWNSAMPLE  =      F    k-point downsampling of WAVECAR
   LCHARG       =      F    write CHGCAR
   LVTOT        =      F    write LOCPOT, total local potential
   LVHAR        =      F    write LOCPOT, Hartree potential only
   LELF         =      F    write electronic localiz. function (ELF)
   LORBIT       =      0    0 simple, 1 ext, 2 COOP (PROOUT), +10 PAW based schemes


 Dipole corrections
   LMONO  =      F    monopole corrections only (constant potential shift)
   LDIPOL =      F    correct potential (dipole corrections)
   IDIPOL =      0    1-x, 2-y, 3-z, 4-all directions 
   EPSILON=  1.0000000 bulk dielectric constant

 Exchange correlation treatment:
   GGA     =    RP    GGA type
   LEXCH   =     9    internal setting for exchange type
   VOSKOWN=      0    Vosko Wilk Nusair interpolation
   LHFCALC =     F    Hartree Fock is set to
   LHFONE  =     F    Hartree Fock one center treatment
   AEXX    =    0.0000 exact exchange contribution

 Linear response parameters
   LEPSILON=     F    determine dielectric tensor
   LRPA    =     F    only Hartree local field effects (RPA)
   LNABLA  =     F    use nabla operator in PAW spheres
   LVEL    =     F    velocity operator in full k-point grid
   LINTERFAST=   F  fast interpolation
   KINTER  =     0    interpolate to denser k-point grid
   CSHIFT  =0.1000    complex shift for real part using Kramers Kronig
   OMEGAMAX=  -1.0    maximum frequency
   DEG_THRESHOLD= 0.2000000E-02 threshold for treating states as degnerate
   RTIME   =   -0.100 relaxation time in fs
  (WPLASMAI=    0.000 imaginary part of plasma frequency in eV, 0.658/RTIME)
   DFIELD  = 0.0000000 0.0000000 0.0000000 field for delta impulse in time
 
 Orbital magnetization related:
   ORBITALMAG=     F  switch on orbital magnetization
   LCHIMAG   =     F  perturbation theory with respect to B field
   DQ        =  0.001000  dq finite difference perturbation B field
   LLRAUG    =     F  two centre corrections for induced B field



--------------------------------------------------------------------------------------------------------


 Static calculation
 charge density and potential will be updated during run
 non-spin polarized calculation
 RMM-DIIS sequential band-by-band and
  variant of blocked Davidson during initial phase
 perform sub-space diagonalisation
    before iterative eigenvector-optimisation
 modified Broyden-mixing scheme, WC =      100.0
 initial mixing is a Kerker type mixing with AMIX =  0.4000 and BMIX =      1.0000
 Hartree-type preconditioning will be used
 using additional bands           56
 real space projection scheme for non local part
 use partial core corrections
 calculate Harris-corrections to forces 
   (improved forces if not selfconsistent)
 use gradient corrections 
 use of overlap-Matrix (Vanderbilt PP)
 Methfessel and Paxton  Order N= 2 SIGMA  =   0.20


--------------------------------------------------------------------------------------------------------


  energy-cutoff  :      400.00
  volume of cell :    27000.00
      direct lattice vectors                 reciprocal lattice vectors
    30.000000000  0.000000000  0.000000000     0.033333333  0.000000000  0.000000000
     0.000000000 30.000000000  0.000000000     0.000000000  0.033333333  0.000000000
     0.000000000  0.000000000 30.000000000     0.000000000  0.000000000  0.033333333

  length of vectors
    30.000000000 30.000000000 30.000000000     0.033333333  0.033333333  0.033333333


 
 k-points in units of 2pi/SCALE and weight: K-points                                
   0.00000000  0.00000000  0.00000000       1.000
 
 k-points in reciprocal lattice and weights: K-points                                
   0.00000000  0.00000000  0.00000000       1.000
 
 position of ions in fractional coordinates (direct lattice) 
   0.44576020  0.32826710  0.41691983
   0.67173288  0.55423978  0.41691983
   0.55423980  0.32826710  0.41691983
   0.32826712  0.55423978  0.41691983
   0.50000000  0.38250690  0.34021317
   0.50000000  0.38250690  0.65978680
   0.50000000  0.27609440  0.50000000
   0.27609443  0.49999998  0.50000000
   0.72390557  0.49999998  0.50000000
   0.50000000  0.72390555  0.50000000
   0.61195280  0.38804720  0.34167483
   0.61195280  0.38804720  0.65832513
   0.38804722  0.61195278  0.34167483
   0.38804722  0.61195278  0.65832513
   0.38804720  0.38804720  0.34167483
   0.38804720  0.38804720  0.65832513
   0.61195278  0.61195278  0.34167483
   0.61195278  0.61195278  0.65832513
   0.44576020  0.32826710  0.58308023
   0.67173288  0.55423978  0.58308023
   0.55791699  0.44208301  0.41809300
   0.32826705  0.44576024  0.41691983
   0.55423973  0.67173293  0.41691983
   0.55423980  0.32826710  0.58308023
   0.32826712  0.55423978  0.58308023
   0.67173295  0.44576024  0.41691983
   0.44576027  0.67173293  0.41691983
   0.44208301  0.44208301  0.41809300
   0.50000000  0.38416601  0.50000000
   0.61749315  0.50000005  0.34021317
   0.61749315  0.50000005  0.65978680
   0.38250685  0.50000005  0.34021317
   0.38250685  0.50000005  0.65978680
   0.38317830  0.38317830  0.50000000
   0.61682172  0.61682172  0.50000000
   0.61682170  0.38317830  0.50000000
   0.38317828  0.61682172  0.50000000
   0.50000000  0.50000000  0.33478917
   0.50000000  0.50000000  0.66521087
   0.32826705  0.44576024  0.58308023
   0.55423973  0.67173293  0.58308023
   0.55791699  0.44208301  0.58190703
   0.44208298  0.55791702  0.41809300
   0.44208301  0.44208301  0.58190703
   0.67173295  0.44576024  0.58308023
   0.44576027  0.67173293  0.58308023
   0.55791702  0.55791702  0.41809300
   0.38416599  0.50000002  0.50000000
   0.61583401  0.50000002  0.50000000
   0.50000000  0.61749319  0.34021317
   0.50000000  0.61749319  0.65978680
   0.50000000  0.50000000  0.50000000
   0.44208298  0.55791702  0.58190703
   0.55791702  0.55791702  0.58190703
   0.50000000  0.61583404  0.50000000
   0.48737293  0.36641953  0.73523547
   0.48561977  0.34787297  0.76789600
 
 position of ions in cartesian coordinates  (Angst):
  13.37280588  9.84801292 12.50759500
  20.15198637 16.62719342 12.50759500
  16.62719412  9.84801292 12.50759500
   9.84801363 16.62719342 12.50759500
  15.00000000 11.47520705 10.20639500
  15.00000000 11.47520705 19.79360400
  15.00000000  8.28283206 15.00000000
   8.28283277 14.99999929 15.00000000
  21.71716723 14.99999929 15.00000000
  15.00000000 21.71716652 14.99999999
  18.35858397 11.64141603 10.25024500
  18.35858397 11.64141603 19.74975399
  11.64141674 18.35858326 10.25024500
  11.64141674 18.35858326 19.74975400
  11.64141603 11.64141603 10.25024500
  11.64141603 11.64141603 19.74975400
  18.35858326 18.35858326 10.25024500
  18.35858326 18.35858326 19.74975400
  13.37280588  9.84801291 17.49240700
  20.15198638 16.62719341 17.49240700
  16.73750985 13.26249015 12.54279000
   9.84801151 13.37280729 12.50759500
  16.62719200 20.15198779 12.50759500
  16.62719412  9.84801292 17.49240700
   9.84801363 16.62719342 17.49240700
  20.15198849 13.37280729 12.50759500
  13.37280800 20.15198779 12.50759500
  13.26249015 13.26249015 12.54279000
  15.00000000 11.52498029 15.00000000
  18.52479437 15.00000140 10.20639500
  18.52479437 15.00000141 19.79360400
  11.47520562 15.00000141 10.20639501
  11.47520563 15.00000141 19.79360400
  11.49534898 11.49534898 15.00000000
  18.50465172 18.50465172 15.00000000
  18.50465102 11.49534898 15.00000000
  11.49534828 18.50465172 15.00000000
  15.00000000 15.00000000 10.04367500
  15.00000000 15.00000000 19.95632599
   9.84801151 13.37280729 17.49240700
  16.62719200 20.15198779 17.49240700
  16.73750985 13.26249015 17.45721100
  13.26248944 16.73751056 12.54279001
  13.26249015 13.26249015 17.45721100
  20.15198849 13.37280729 17.49240699
  13.37280800 20.15198779 17.49240700
  16.73751056 16.73751056 12.54279000
  11.52497959 15.00000071 15.00000000
  18.47502041 15.00000071 15.00000000
  14.99999999 18.52479579 10.20639500
  15.00000000 18.52479578 19.79360400
  15.00000000 15.00000000 15.00000000
  13.26248944 16.73751057 17.45721101
  16.73751056 16.73751057 17.45721100
  15.00000000 18.47502112 15.00000000
  14.62118800 10.99258600 22.05706400
  14.56859300 10.43618900 23.03688000
 


--------------------------------------------------------------------------------------------------------


 k-point  1 :   0.0000 0.0000 0.0000  plane waves:  490521

 maximum and minimum number of plane-waves per node :    490521   490521

 maximum number of plane-waves:    490521
 maximum index in each direction: 
   IXMAX=   48   IYMAX=   48   IZMAX=   48
   IXMIN=  -48   IYMIN=  -48   IZMIN=  -48


 serial   3D FFT for wavefunctions
 parallel 3D FFT for charge:
    minimum data exchange during FFTs selected (reduces bandwidth)


 total amount of memory used by VASP MPI-rank0  5486941. kBytes
=======================================================================

   base      :      30000. kBytes
   nonlr-proj:      17126. kBytes
   fftplans  :     924480. kBytes
   grid      :    1872000. kBytes
   one-center:        886. kBytes
   wavefun   :    2642449. kBytes
 
     INWAV:  cpu time    0.0001: real time    0.0006
 Broyden mixing: mesh for mixing (old mesh)
   NGX = 97   NGY = 97   NGZ = 97
  (NGX  =300   NGY  =300   NGZ  =300)
  gives a total of 912673 points

 initial charge density was supplied:
 charge density of overlapping atoms calculated
 number of electron     560.0000000 magnetization 
 keeping initial charge density in first step


--------------------------------------------------------------------------------------------------------


 Maximum index for non-local projection operator         1763
 Maximum index for augmentation-charges         5898 (set IRDMAX)


--------------------------------------------------------------------------------------------------------


 First call to EWALD:  gamma=   0.059
 Maximum number of real-space cells 3x 3x 3
 Maximum number of reciprocal cells 3x 3x 3

    FEWALD:  cpu time    0.0144: real time    0.0144


--------------------------------------- Iteration      1(   1)  ---------------------------------------


    POTLOK:  cpu time   12.2603: real time   12.2646
    SETDIJ:  cpu time    0.1111: real time    0.1111
     EDDAV:  cpu time  322.8311: real time  322.8587
       DOS:  cpu time    0.0012: real time    0.0012
    --------------------------------------------
      LOOP:  cpu time  335.2037: real time  335.2357

 eigenvalue-minimisations  :   688
 total energy-change (2. order) : 0.4384373E+04  (-0.1004831E+05)
 number of electron     560.0000000 magnetization 
 augmentation part      560.0000000 magnetization 

 Free energy of the ion-electron system (eV)
  ---------------------------------------------------
  alpha Z        PSCENC =        75.25431677
  Ewald energy   TEWEN  =    137558.77962564
  -Hartree energ DENC   =   -180925.17730568
  -exchange      EXHF   =         0.00000000
  -V(xc)+E(xc)   XCENC  =     -1703.74656977
  PAW double counting   =     44873.02882129   -41398.84523641
  entropy T*S    EENTRO =         0.00524988
  eigenvalues    EBANDS =       818.56821506
  atomic energy  EATOM  =     45086.50549395
  Solvation  Ediel_sol  =         0.00000000
  ---------------------------------------------------
  free energy    TOTEN  =      4384.37261074 eV

  energy without entropy =     4384.36736086  energy(sigma->0) =     4384.37129827


--------------------------------------------------------------------------------------------------------




--------------------------------------- Iteration      1(   2)  ---------------------------------------


     EDDAV:  cpu time  517.4745: real time  517.4772
       DOS:  cpu time    0.0012: real time    0.0012
    --------------------------------------------
      LOOP:  cpu time  517.4758: real time  517.4785

 eigenvalue-minimisations  :  1224
 total energy-change (2. order) :-0.2372852E+04  (-0.2134059E+04)
 number of electron     560.0000000 magnetization 
 augmentation part      560.0000000 magnetization 

 Free energy of the ion-electron system (eV)
  ---------------------------------------------------
  alpha Z        PSCENC =        75.25431677
  Ewald energy   TEWEN  =    137558.77962564
  -Hartree energ DENC   =   -180925.17730568
  -exchange      EXHF   =         0.00000000
  -V(xc)+E(xc)   XCENC  =     -1703.74656977
  PAW double counting   =     44873.02882129   -41398.84523641
  entropy T*S    EENTRO =        -0.00462979
  eigenvalues    EBANDS =     -1554.27354226
  atomic energy  EATOM  =     45086.50549395
  Solvation  Ediel_sol  =         0.00000000
  ---------------------------------------------------
  free energy    TOTEN  =      2011.52097374 eV

  energy without entropy =     2011.52560353  energy(sigma->0) =     2011.52213119


--------------------------------------------------------------------------------------------------------




--------------------------------------- Iteration      1(   3)  ---------------------------------------


     EDDAV:  cpu time  442.4524: real time  442.4539
       DOS:  cpu time    0.0011: real time    0.0011
    --------------------------------------------
      LOOP:  cpu time  442.4534: real time  442.4549

 eigenvalue-minimisations  :  1008
 total energy-change (2. order) :-0.1781129E+04  (-0.1677578E+04)
 number of electron     560.0000000 magnetization 
 augmentation part      560.0000000 magnetization 

 Free energy of the ion-electron system (eV)
  ---------------------------------------------------
  alpha Z        PSCENC =        75.25431677
  Ewald energy   TEWEN  =    137558.77962564
  -Hartree energ DENC   =   -180925.17730568
  -exchange      EXHF   =         0.00000000
  -V(xc)+E(xc)   XCENC  =     -1703.74656977
  PAW double counting   =     44873.02882129   -41398.84523641
  entropy T*S    EENTRO =         0.01474184
  eigenvalues    EBANDS =     -3335.42165737
  atomic energy  EATOM  =     45086.50549395
  Solvation  Ediel_sol  =         0.00000000
  ---------------------------------------------------
  free energy    TOTEN  =       230.39223026 eV

  energy without entropy =      230.37748842  energy(sigma->0) =      230.38854480


--------------------------------------------------------------------------------------------------------




--------------------------------------- Iteration      1(   4)  ---------------------------------------


     EDDAV:  cpu time  378.7520: real time  378.7553
       DOS:  cpu time    0.0011: real time    0.0011
    --------------------------------------------
      LOOP:  cpu time  378.7531: real time  378.7564

 eigenvalue-minimisations  :   832
 total energy-change (2. order) :-0.3656612E+03  (-0.3113094E+03)
 number of electron     560.0000000 magnetization 
 augmentation part      560.0000000 magnetization 

 Free energy of the ion-electron system (eV)
  ---------------------------------------------------
  alpha Z        PSCENC =        75.25431677
  Ewald energy   TEWEN  =    137558.77962564
  -Hartree energ DENC   =   -180925.17730568
  -exchange      EXHF   =         0.00000000
  -V(xc)+E(xc)   XCENC  =     -1703.74656977
  PAW double counting   =     44873.02882129   -41398.84523641
  entropy T*S    EENTRO =         0.00739640
  eigenvalues    EBANDS =     -3701.07553280
  atomic energy  EATOM  =     45086.50549395
  Solvation  Ediel_sol  =         0.00000000
  ---------------------------------------------------
  free energy    TOTEN  =      -135.26899061 eV

  energy without entropy =     -135.27638700  energy(sigma->0) =     -135.27083971


--------------------------------------------------------------------------------------------------------




--------------------------------------- Iteration      1(   5)  ---------------------------------------


     EDDAV:  cpu time  434.1049: real time  434.1226
       DOS:  cpu time    0.0013: real time    0.0013
    CHARGE:  cpu time   22.0917: real time   22.0921
    MIXING:  cpu time    0.3910: real time    0.3910
    --------------------------------------------
      LOOP:  cpu time  456.5888: real time  456.6070

 eigenvalue-minimisations  :  1024
 total energy-change (2. order) :-0.4396640E+02  (-0.3679935E+02)
 number of electron     559.9999820 magnetization 
 augmentation part      245.2072285 magnetization 

 Broyden mixing:
  rms(total) = 0.14022E+01    rms(broyden)= 0.14012E+01
  rms(prec ) = 0.15061E+01
  weight for this iteration     100.00

 Free energy of the ion-electron system (eV)
  ---------------------------------------------------
  alpha Z        PSCENC =        75.25431677
  Ewald energy   TEWEN  =    137558.77962564
  -Hartree energ DENC   =   -180925.17730568
  -exchange      EXHF   =         0.00000000
  -V(xc)+E(xc)   XCENC  =     -1703.74656977
  PAW double counting   =     44873.02882129   -41398.84523641
  entropy T*S    EENTRO =         0.50591289
  eigenvalues    EBANDS =     -3745.54044445
  atomic energy  EATOM  =     45086.50549395
  Solvation  Ediel_sol  =         0.00000000
  ---------------------------------------------------
  free energy    TOTEN  =      -179.23538576 eV

  energy without entropy =     -179.74129865  energy(sigma->0) =     -179.36186398


--------------------------------------------------------------------------------------------------------




--------------------------------------- Iteration      1(   6)  ---------------------------------------


    POTLOK:  cpu time   10.5892: real time   10.5929
    SETDIJ:  cpu time    0.1083: real time    0.1083
    EDDIAG:  cpu time   59.1241: real time   59.1272
  RMM-DIIS:  cpu time  160.6713: real time  160.6778
    ORTHCH:  cpu time   11.8586: real time   11.8588
       DOS:  cpu time    0.0013: real time    0.0013
    CHARGE:  cpu time   22.4911: real time   22.4917
    MIXING:  cpu time    0.4163: real time    0.4163
    --------------------------------------------
      LOOP:  cpu time  265.2603: real time  265.2743

 eigenvalue-minimisations  :   726
 total energy-change (2. order) : 0.4564356E+00  (-0.5086828E+01)
 number of electron     559.9999860 magnetization 
 augmentation part      240.7197245 magnetization 

 Broyden mixing:
  rms(total) = 0.21036E+01    rms(broyden)= 0.21034E+01
  rms(prec ) = 0.24404E+01
  weight for this iteration     100.00

 eigenvalues of (default mixing * dielectric matrix)
  average eigenvalue GAMMA=   0.3451
  0.3451

 Free energy of the ion-electron system (eV)
  ---------------------------------------------------
  alpha Z        PSCENC =        75.25431677
  Ewald energy   TEWEN  =    137558.77962564
  -Hartree energ DENC   =   -181334.86352332
  -exchange      EXHF   =         0.00000000
  -V(xc)+E(xc)   XCENC  =     -1697.47888325
  PAW double counting   =     45628.07571273   -42126.78881606
  entropy T*S    EENTRO =        -0.15384626
  eigenvalues    EBANDS =     -3368.10903035
  atomic energy  EATOM  =     45086.50549395
  Solvation  Ediel_sol  =         0.00000000
  ---------------------------------------------------
  free energy    TOTEN  =      -178.77895015 eV

  energy without entropy =     -178.62510389  energy(sigma->0) =     -178.74048859


--------------------------------------------------------------------------------------------------------




--------------------------------------- Iteration      1(   7)  ---------------------------------------


    POTLOK:  cpu time   10.9244: real time   10.9284
    SETDIJ:  cpu time    0.1106: real time    0.1105
    EDDIAG:  cpu time   60.0592: real time   60.0613
  RMM-DIIS:  cpu time  189.6082: real time  189.6153
    ORTHCH:  cpu time   11.7909: real time   11.7912
       DOS:  cpu time    0.0013: real time    0.0013
    CHARGE:  cpu time   22.0018: real time   22.0023
    MIXING:  cpu time    0.4262: real time    0.4262
    --------------------------------------------
      LOOP:  cpu time  294.9226: real time  294.9367

 eigenvalue-minimisations  :   850
 total energy-change (2. order) :-0.2103905E+01  (-0.1762070E+01)
 number of electron     559.9999807 magnetization 
 augmentation part      240.4514635 magnetization 

 Broyden mixing:
  rms(total) = 0.20409E+01    rms(broyden)= 0.20406E+01
  rms(prec ) = 0.24834E+01
  weight for this iteration     100.00

 eigenvalues of (default mixing * dielectric matrix)
  average eigenvalue GAMMA=   0.3457
  0.5372  0.1542

 Free energy of the ion-electron system (eV)
  ---------------------------------------------------
  alpha Z        PSCENC =        75.25431677
  Ewald energy   TEWEN  =    137558.77962564
  -Hartree energ DENC   =   -181422.60755753
  -exchange      EXHF   =         0.00000000
  -V(xc)+E(xc)   XCENC  =     -1697.62106943
  PAW double counting   =     45691.79487684   -42187.70642912
  entropy T*S    EENTRO =        -0.09459422
  eigenvalues    EBANDS =     -3285.18751818
  atomic energy  EATOM  =     45086.50549395
  Solvation  Ediel_sol  =         0.00000000
  ---------------------------------------------------
  free energy    TOTEN  =      -180.88285528 eV

  energy without entropy =     -180.78826106  energy(sigma->0) =     -180.85920673


--------------------------------------------------------------------------------------------------------




--------------------------------------- Iteration      1(   8)  ---------------------------------------


    POTLOK:  cpu time   10.5867: real time   10.5893
    SETDIJ:  cpu time    0.1083: real time    0.1083
    EDDIAG:  cpu time   59.2093: real time   59.2121
  RMM-DIIS:  cpu time  170.7769: real time  170.7844
    ORTHCH:  cpu time   11.8162: real time   11.8165
       DOS:  cpu time    0.0013: real time    0.0013
    CHARGE:  cpu time   22.0457: real time   22.0463
    MIXING:  cpu time    0.4460: real time    0.4460
    --------------------------------------------
      LOOP:  cpu time  274.9904: real time  275.0042

 eigenvalue-minimisations  :   774
 total energy-change (2. order) :-0.3418586E+01  (-0.6179206E+00)
 number of electron     559.9999819 magnetization 
 augmentation part      239.9323254 magnetization 

 Broyden mixing:
  rms(total) = 0.29314E+01    rms(broyden)= 0.29311E+01
  rms(prec ) = 0.35104E+01
  weight for this iteration     100.00

 eigenvalues of (default mixing * dielectric matrix)
  average eigenvalue GAMMA=   0.3087
  0.6686  0.1479  0.1098

 Free energy of the ion-electron system (eV)
  ---------------------------------------------------
  alpha Z        PSCENC =        75.25431677
  Ewald energy   TEWEN  =    137558.77962564
  -Hartree energ DENC   =   -181470.35698540
  -exchange      EXHF   =         0.00000000
  -V(xc)+E(xc)   XCENC  =     -1697.60743110
  PAW double counting   =     45754.63533951   -42247.63489755
  entropy T*S    EENTRO =         0.01932908
  eigenvalues    EBANDS =     -3243.89623198
  atomic energy  EATOM  =     45086.50549395
  Solvation  Ediel_sol  =         0.00000000
  ---------------------------------------------------
  free energy    TOTEN  =      -184.30144109 eV

  energy without entropy =     -184.32077017  energy(sigma->0) =     -184.30627336


--------------------------------------------------------------------------------------------------------




--------------------------------------- Iteration      1(   9)  ---------------------------------------


    POTLOK:  cpu time   10.5682: real time   10.5706
    SETDIJ:  cpu time    0.1082: real time    0.1082
    EDDIAG:  cpu time   59.1237: real time   59.1268
  RMM-DIIS:  cpu time  166.6866: real time  166.6911
    ORTHCH:  cpu time   12.0602: real time   12.0602
       DOS:  cpu time    0.0013: real time    0.0013
    CHARGE:  cpu time   22.4352: real time   22.4354
    MIXING:  cpu time    0.4861: real time    0.4861
    --------------------------------------------
      LOOP:  cpu time  271.4696: real time  271.4796

 eigenvalue-minimisations  :   742
 total energy-change (2. order) : 0.2167601E+01  (-0.4404411E+00)
 number of electron     559.9999801 magnetization 
 augmentation part      240.7940568 magnetization 

 Broyden mixing:
  rms(total) = 0.25585E+01    rms(broyden)= 0.25581E+01
  rms(prec ) = 0.29391E+01
  weight for this iteration     100.00

 eigenvalues of (default mixing * dielectric matrix)
  average eigenvalue GAMMA=   0.2894
  0.7735  0.1416  0.1416  0.1009

 Free energy of the ion-electron system (eV)
  ---------------------------------------------------
  alpha Z        PSCENC =        75.25431677
  Ewald energy   TEWEN  =    137558.77962564
  -Hartree energ DENC   =   -181483.34904307
  -exchange      EXHF   =         0.00000000
  -V(xc)+E(xc)   XCENC  =     -1697.59894629
  PAW double counting   =     45799.54242891   -42290.51851767
  entropy T*S    EENTRO =        -0.17459197
  eigenvalues    EBANDS =     -3230.57460684
  atomic energy  EATOM  =     45086.50549395
  Solvation  Ediel_sol  =         0.00000000
  ---------------------------------------------------
  free energy    TOTEN  =      -182.13384057 eV

  energy without entropy =     -181.95924860  energy(sigma->0) =     -182.09019257


--------------------------------------------------------------------------------------------------------




--------------------------------------- Iteration      1(  10)  ---------------------------------------


    POTLOK:  cpu time   11.0281: real time   11.0309
    SETDIJ:  cpu time    0.1119: real time    0.1119
    EDDIAG:  cpu time   60.3815: real time   60.3824
  RMM-DIIS:  cpu time  163.2783: real time  163.2830
    ORTHCH:  cpu time   11.8508: real time   11.8507
       DOS:  cpu time    0.0014: real time    0.0014
    CHARGE:  cpu time   22.0700: real time   22.0699
    MIXING:  cpu time    0.4963: real time    0.4963
    --------------------------------------------
      LOOP:  cpu time  269.2182: real time  269.2265

 eigenvalue-minimisations  :   732
 total energy-change (2. order) : 0.2283794E+01  (-0.2962763E+00)
 number of electron     559.9999816 magnetization 
 augmentation part      241.2396595 magnetization 

 Broyden mixing:
  rms(total) = 0.25570E+01    rms(broyden)= 0.25566E+01
  rms(prec ) = 0.29885E+01
  weight for this iteration     100.00

 eigenvalues of (default mixing * dielectric matrix)
  average eigenvalue GAMMA=   0.2638
  0.8356  0.1527  0.1527  0.0997  0.0781

 Free energy of the ion-electron system (eV)
  ---------------------------------------------------
  alpha Z        PSCENC =        75.25431677
  Ewald energy   TEWEN  =    137558.77962564
  -Hartree energ DENC   =   -181510.95518022
  -exchange      EXHF   =         0.00000000
  -V(xc)+E(xc)   XCENC  =     -1697.49175187
  PAW double counting   =     45840.82243480   -42330.02837312
  entropy T*S    EENTRO =        -0.07330937
  eigenvalues    EBANDS =     -3202.66330354
  atomic energy  EATOM  =     45086.50549395
  Solvation  Ediel_sol  =         0.00000000
  ---------------------------------------------------
  free energy    TOTEN  =      -179.85004698 eV

  energy without entropy =     -179.77673760  energy(sigma->0) =     -179.83171963


--------------------------------------------------------------------------------------------------------




--------------------------------------- Iteration      1(  11)  ---------------------------------------


    POTLOK:  cpu time   10.5683: real time   10.5705
    SETDIJ:  cpu time    0.1083: real time    0.1083
    EDDIAG:  cpu time   59.1126: real time   59.1131
  RMM-DIIS:  cpu time  161.6647: real time  161.6682
    ORTHCH:  cpu time   11.8631: real time   11.8631
       DOS:  cpu time    0.0014: real time    0.0014
    CHARGE:  cpu time   22.0727: real time   22.0729
    MIXING:  cpu time    0.5201: real time    0.5201
    --------------------------------------------
      LOOP:  cpu time  265.9111: real time  265.9175

 eigenvalue-minimisations  :   731
 total energy-change (2. order) : 0.2311380E+01  (-0.1605261E+00)
 number of electron     559.9999845 magnetization 
 augmentation part      241.4148501 magnetization 

 Broyden mixing:
  rms(total) = 0.16736E+01    rms(broyden)= 0.16733E+01
  rms(prec ) = 0.19346E+01
  weight for this iteration     100.00

 eigenvalues of (default mixing * dielectric matrix)
  average eigenvalue GAMMA=   0.2579
  0.9050  0.1913  0.1913  0.0978  0.0978  0.0642

 Free energy of the ion-electron system (eV)
  ---------------------------------------------------
  alpha Z        PSCENC =        75.25431677
  Ewald energy   TEWEN  =    137558.77962564
  -Hartree energ DENC   =   -181526.30811102
  -exchange      EXHF   =         0.00000000
  -V(xc)+E(xc)   XCENC  =     -1697.37240970
  PAW double counting   =     45866.72239338   -42354.73411231
  entropy T*S    EENTRO =        -0.06499362
  eigenvalues    EBANDS =     -3186.32087038
  atomic energy  EATOM  =     45086.50549395
  Solvation  Ediel_sol  =         0.00000000
  ---------------------------------------------------
  free energy    TOTEN  =      -177.53866731 eV

  energy without entropy =     -177.47367368  energy(sigma->0) =     -177.52241890


--------------------------------------------------------------------------------------------------------




--------------------------------------- Iteration      1(  12)  ---------------------------------------


    POTLOK:  cpu time   10.5500: real time   10.5524
    SETDIJ:  cpu time    0.1083: real time    0.1083
    EDDIAG:  cpu time   59.2132: real time   59.2149
  RMM-DIIS:  cpu time  161.5905: real time  161.5949
    ORTHCH:  cpu time   11.9199: real time   11.9199
       DOS:  cpu time    0.0014: real time    0.0014
    CHARGE:  cpu time   22.5233: real time   22.5234
    MIXING:  cpu time    0.5640: real time    0.5640
    --------------------------------------------
      LOOP:  cpu time  266.4706: real time  266.4792

 eigenvalue-minimisations  :   729
 total energy-change (2. order) : 0.1090910E+01  (-0.1335182E+00)
 number of electron     559.9999824 magnetization 
 augmentation part      241.7532407 magnetization 

 Broyden mixing:
  rms(total) = 0.15064E+01    rms(broyden)= 0.15062E+01
  rms(prec ) = 0.17771E+01
  weight for this iteration     100.00

 eigenvalues of (default mixing * dielectric matrix)
  average eigenvalue GAMMA=   0.2553
  0.9609  0.2341  0.2341  0.1082  0.1082  0.0728  0.0689

 Free energy of the ion-electron system (eV)
  ---------------------------------------------------
  alpha Z        PSCENC =        75.25431677
  Ewald energy   TEWEN  =    137558.77962564
  -Hartree energ DENC   =   -181539.44820701
  -exchange      EXHF   =         0.00000000
  -V(xc)+E(xc)   XCENC  =     -1697.15952148
  PAW double counting   =     45897.24625901   -42383.72633584
  entropy T*S    EENTRO =        -0.08951629
  eigenvalues    EBANDS =     -3173.80987178
  atomic energy  EATOM  =     45086.50549395
  Solvation  Ediel_sol  =         0.00000000
  ---------------------------------------------------
  free energy    TOTEN  =      -176.44775703 eV

  energy without entropy =     -176.35824074  energy(sigma->0) =     -176.42537795


--------------------------------------------------------------------------------------------------------




--------------------------------------- Iteration      1(  13)  ---------------------------------------


    POTLOK:  cpu time   10.9673: real time   10.9701
    SETDIJ:  cpu time    0.1113: real time    0.1113
    EDDIAG:  cpu time   59.9825: real time   59.9832
  RMM-DIIS:  cpu time  162.0369: real time  162.0395
    ORTHCH:  cpu time   12.0918: real time   12.0919
       DOS:  cpu time    0.0014: real time    0.0014
    CHARGE:  cpu time   22.4744: real time   22.4744
    MIXING:  cpu time    0.5839: real time    0.5839
    --------------------------------------------
      LOOP:  cpu time  268.2495: real time  268.2558

 eigenvalue-minimisations  :   718
 total energy-change (2. order) : 0.1754464E+00  (-0.9696229E-01)
 number of electron     559.9999818 magnetization 
 augmentation part      241.6804752 magnetization 

 Broyden mixing:
  rms(total) = 0.16823E+01    rms(broyden)= 0.16820E+01
  rms(prec ) = 0.20248E+01
  weight for this iteration     100.00

 eigenvalues of (default mixing * dielectric matrix)
  average eigenvalue GAMMA=   0.2566
  1.0164  0.2924  0.2924  0.1128  0.1128  0.0874  0.0874  0.0511

 Free energy of the ion-electron system (eV)
  ---------------------------------------------------
  alpha Z        PSCENC =        75.25431677
  Ewald energy   TEWEN  =    137558.77962564
  -Hartree energ DENC   =   -181560.92334852
  -exchange      EXHF   =         0.00000000
  -V(xc)+E(xc)   XCENC  =     -1696.89642999
  PAW double counting   =     45928.26364980   -42413.14330721
  entropy T*S    EENTRO =        -0.02929853
  eigenvalues    EBANDS =     -3154.08301256
  atomic energy  EATOM  =     45086.50549395
  Solvation  Ediel_sol  =         0.00000000
  ---------------------------------------------------
  free energy    TOTEN  =      -176.27231064 eV

  energy without entropy =     -176.24301212  energy(sigma->0) =     -176.26498601


--------------------------------------------------------------------------------------------------------




--------------------------------------- Iteration      1(  14)  ---------------------------------------


    POTLOK:  cpu time   11.1160: real time   11.1187
    SETDIJ:  cpu time    0.1091: real time    0.1092
    EDDIAG:  cpu time   60.2064: real time   60.2079
  RMM-DIIS:  cpu time  160.9349: real time  160.9382
    ORTHCH:  cpu time   11.8369: real time   11.8368
       DOS:  cpu time    0.0014: real time    0.0014
    CHARGE:  cpu time   22.0392: real time   22.0391
    MIXING:  cpu time    0.6119: real time    0.6119
    --------------------------------------------
      LOOP:  cpu time  266.8558: real time  266.8632

 eigenvalue-minimisations  :   725
 total energy-change (2. order) : 0.1308178E+00  (-0.9420467E-01)
 number of electron     559.9999831 magnetization 
 augmentation part      241.4590527 magnetization 

 Broyden mixing:
  rms(total) = 0.14139E+01    rms(broyden)= 0.14137E+01
  rms(prec ) = 0.16294E+01
  weight for this iteration     100.00

 eigenvalues of (default mixing * dielectric matrix)
  average eigenvalue GAMMA=   0.2917
  1.2178  0.5963  0.2136  0.1632  0.1042  0.1042  0.1088  0.0684  0.0487

 Free energy of the ion-electron system (eV)
  ---------------------------------------------------
  alpha Z        PSCENC =        75.25431677
  Ewald energy   TEWEN  =    137558.77962564
  -Hartree energ DENC   =   -181589.48977919
  -exchange      EXHF   =         0.00000000
  -V(xc)+E(xc)   XCENC  =     -1696.53506337
  PAW double counting   =     45965.11376335   -42448.05108737
  entropy T*S    EENTRO =        -0.12535318
  eigenvalues    EBANDS =     -3127.59340947
  atomic energy  EATOM  =     45086.50549395
  Solvation  Ediel_sol  =         0.00000000
  ---------------------------------------------------
  free energy    TOTEN  =      -176.14149287 eV

  energy without entropy =     -176.01613969  energy(sigma->0) =     -176.11015458


--------------------------------------------------------------------------------------------------------




--------------------------------------- Iteration      1(  15)  ---------------------------------------


    POTLOK:  cpu time   10.5529: real time   10.5551
    SETDIJ:  cpu time    0.1082: real time    0.1082
    EDDIAG:  cpu time   59.2259: real time   59.2266
  RMM-DIIS:  cpu time  156.4353: real time  156.4388
    ORTHCH:  cpu time   11.8375: real time   11.8375
       DOS:  cpu time    0.0014: real time    0.0014
    CHARGE:  cpu time   22.1145: real time   22.1146
    MIXING:  cpu time    0.6510: real time    0.6510
    --------------------------------------------
      LOOP:  cpu time  260.9267: real time  260.9333

 eigenvalue-minimisations  :   707
 total energy-change (2. order) : 0.5646692E+00  (-0.1154969E+00)
 number of electron     559.9999813 magnetization 
 augmentation part      241.2053883 magnetization 

 Broyden mixing:
  rms(total) = 0.11159E+01    rms(broyden)= 0.11155E+01
  rms(prec ) = 0.12781E+01
  weight for this iteration     100.00

 eigenvalues of (default mixing * dielectric matrix)
  average eigenvalue GAMMA=   0.3112
  1.4334  0.7379  0.1878  0.1878  0.1045  0.1045  0.1198  0.1198  0.0682  0.0485

 Free energy of the ion-electron system (eV)
  ---------------------------------------------------
  alpha Z        PSCENC =        75.25431677
  Ewald energy   TEWEN  =    137558.77962564
  -Hartree energ DENC   =   -181644.30921082
  -exchange      EXHF   =         0.00000000
  -V(xc)+E(xc)   XCENC  =     -1695.72610735
  PAW double counting   =     46038.92264823   -42517.81346318
  entropy T*S    EENTRO =        -0.09148320
  eigenvalues    EBANDS =     -3077.09864373
  atomic energy  EATOM  =     45086.50549395
  Solvation  Ediel_sol  =         0.00000000
  ---------------------------------------------------
  free energy    TOTEN  =      -175.57682368 eV

  energy without entropy =     -175.48534049  energy(sigma->0) =     -175.55395289


--------------------------------------------------------------------------------------------------------




--------------------------------------- Iteration      1(  16)  ---------------------------------------


    POTLOK:  cpu time   10.5753: real time   10.5780
    SETDIJ:  cpu time    0.1083: real time    0.1083
    EDDIAG:  cpu time   59.6203: real time   59.6218
  RMM-DIIS:  cpu time  158.7467: real time  158.7503
    ORTHCH:  cpu time   11.8619: real time   11.8619
       DOS:  cpu time    0.0014: real time    0.0014
    CHARGE:  cpu time   22.0963: real time   22.0965
    MIXING:  cpu time    0.6857: real time    0.6858
    --------------------------------------------
      LOOP:  cpu time  263.6961: real time  263.7040

 eigenvalue-minimisations  :   717
 total energy-change (2. order) : 0.1741100E+00  (-0.7543719E-01)
 number of electron     559.9999827 magnetization 
 augmentation part      241.0832618 magnetization 

 Broyden mixing:
  rms(total) = 0.13807E+01    rms(broyden)= 0.13805E+01
  rms(prec ) = 0.16619E+01
  weight for this iteration     100.00

 eigenvalues of (default mixing * dielectric matrix)
  average eigenvalue GAMMA=   0.3112
  1.5435  0.7879  0.2322  0.2322  0.1071  0.1071  0.1125  0.1125  0.0700  0.0700
  0.0484

 Free energy of the ion-electron system (eV)
  ---------------------------------------------------
  alpha Z        PSCENC =        75.25431677
  Ewald energy   TEWEN  =    137558.77962564
  -Hartree energ DENC   =   -181678.94205378
  -exchange      EXHF   =         0.00000000
  -V(xc)+E(xc)   XCENC  =     -1695.19298507
  PAW double counting   =     46084.06773891   -42560.32037237
  entropy T*S    EENTRO =         0.04014396
  eigenvalues    EBANDS =     -3045.59462172
  atomic energy  EATOM  =     45086.50549395
  Solvation  Ediel_sol  =         0.00000000
  ---------------------------------------------------
  free energy    TOTEN  =      -175.40271371 eV

  energy without entropy =     -175.44285767  energy(sigma->0) =     -175.41274970


--------------------------------------------------------------------------------------------------------




--------------------------------------- Iteration      1(  17)  ---------------------------------------


    POTLOK:  cpu time   10.5366: real time   10.5394
    SETDIJ:  cpu time    0.1084: real time    0.1084
    EDDIAG:  cpu time   59.5821: real time   59.5838
  RMM-DIIS:  cpu time  158.8168: real time  158.8201
    ORTHCH:  cpu time   11.8615: real time   11.8616
       DOS:  cpu time    0.0014: real time    0.0014
    CHARGE:  cpu time   22.0655: real time   22.0657
    MIXING:  cpu time    0.7230: real time    0.7230
    --------------------------------------------
      LOOP:  cpu time  263.6953: real time  263.7034

 eigenvalue-minimisations  :   718
 total energy-change (2. order) : 0.8380016E-01  (-0.4015235E-01)
 number of electron     559.9999852 magnetization 
 augmentation part      241.0587177 magnetization 

 Broyden mixing:
  rms(total) = 0.14457E+01    rms(broyden)= 0.14455E+01
  rms(prec ) = 0.17280E+01
  weight for this iteration     100.00

 eigenvalues of (default mixing * dielectric matrix)
  average eigenvalue GAMMA=   0.3196
  1.6595  0.8664  0.2958  0.2958  0.1328  0.1328  0.1017  0.1017  0.0848  0.0699
  0.0481  0.0461

 Free energy of the ion-electron system (eV)
  ---------------------------------------------------
  alpha Z        PSCENC =        75.25431677
  Ewald energy   TEWEN  =    137558.77962564
  -Hartree energ DENC   =   -181693.97379314
  -exchange      EXHF   =         0.00000000
  -V(xc)+E(xc)   XCENC  =     -1695.00894116
  PAW double counting   =     46099.44035166   -42574.68346025
  entropy T*S    EENTRO =         0.05230532
  eigenvalues    EBANDS =     -3031.68481233
  atomic energy  EATOM  =     45086.50549395
  Solvation  Ediel_sol  =         0.00000000
  ---------------------------------------------------
  free energy    TOTEN  =      -175.31891355 eV

  energy without entropy =     -175.37121887  energy(sigma->0) =     -175.33198988


--------------------------------------------------------------------------------------------------------




--------------------------------------- Iteration      1(  18)  ---------------------------------------


    POTLOK:  cpu time   10.5139: real time   10.5166
    SETDIJ:  cpu time    0.1083: real time    0.1083
    EDDIAG:  cpu time   59.4049: real time   59.4070
  RMM-DIIS:  cpu time  160.9080: real time  160.9121
    ORTHCH:  cpu time   12.0425: real time   12.0426
       DOS:  cpu time    0.0014: real time    0.0014
    CHARGE:  cpu time   22.5254: real time   22.5255
    MIXING:  cpu time    0.7972: real time    0.7972
    --------------------------------------------
      LOOP:  cpu time  266.3017: real time  266.3107

 eigenvalue-minimisations  :   713
 total energy-change (2. order) : 0.2992270E+00  (-0.4320367E-01)
 number of electron     559.9999843 magnetization 
 augmentation part      240.9870843 magnetization 

 Broyden mixing:
  rms(total) = 0.89768E+00    rms(broyden)= 0.89741E+00
  rms(prec ) = 0.10113E+01
  weight for this iteration     100.00

 eigenvalues of (default mixing * dielectric matrix)
  average eigenvalue GAMMA=   0.3414
  1.8588  1.0361  0.3517  0.3517  0.1329  0.1329  0.1263  0.1016  0.1016  0.0814
  0.0700  0.0486  0.0441

 Free energy of the ion-electron system (eV)
  ---------------------------------------------------
  alpha Z        PSCENC =        75.25431677
  Ewald energy   TEWEN  =    137558.77962564
  -Hartree energ DENC   =   -181712.62533301
  -exchange      EXHF   =         0.00000000
  -V(xc)+E(xc)   XCENC  =     -1694.84330586
  PAW double counting   =     46112.31056359   -42586.50870304
  entropy T*S    EENTRO =        -0.02539109
  eigenvalues    EBANDS =     -3013.86695348
  atomic energy  EATOM  =     45086.50549395
  Solvation  Ediel_sol  =         0.00000000
  ---------------------------------------------------
  free energy    TOTEN  =      -175.01968655 eV

  energy without entropy =     -174.99429546  energy(sigma->0) =     -175.01333877


--------------------------------------------------------------------------------------------------------




--------------------------------------- Iteration      1(  19)  ---------------------------------------


    POTLOK:  cpu time   10.9605: real time   10.9629
    SETDIJ:  cpu time    0.1118: real time    0.1118
    EDDIAG:  cpu time   60.2341: real time   60.2354
  RMM-DIIS:  cpu time  159.2710: real time  159.2759
    ORTHCH:  cpu time   12.1663: real time   12.1664
       DOS:  cpu time    0.0014: real time    0.0014
    CHARGE:  cpu time   22.2385: real time   22.2387
    MIXING:  cpu time    0.8038: real time    0.8038
    --------------------------------------------
      LOOP:  cpu time  265.7875: real time  265.7963

 eigenvalue-minimisations  :   702
 total energy-change (2. order) : 0.1931930E+00  (-0.4066186E-01)
 number of electron     559.9999842 magnetization 
 augmentation part      241.0083266 magnetization 

 Broyden mixing:
  rms(total) = 0.77536E+00    rms(broyden)= 0.77512E+00
  rms(prec ) = 0.88540E+00
  weight for this iteration     100.00

 eigenvalues of (default mixing * dielectric matrix)
  average eigenvalue GAMMA=   0.3434
  1.9504  1.1289  0.3752  0.3752  0.1353  0.1353  0.1011  0.1011  0.1334  0.1288
  0.0800  0.0709  0.0486  0.0439

 Free energy of the ion-electron system (eV)
  ---------------------------------------------------
  alpha Z        PSCENC =        75.25431677
  Ewald energy   TEWEN  =    137558.77962564
  -Hartree energ DENC   =   -181741.95940315
  -exchange      EXHF   =         0.00000000
  -V(xc)+E(xc)   XCENC  =     -1694.56095387
  PAW double counting   =     46127.39598929   -42599.95084542
  entropy T*S    EENTRO =        -0.07291548
  eigenvalues    EBANDS =     -2986.21780128
  atomic energy  EATOM  =     45086.50549395
  Solvation  Ediel_sol  =         0.00000000
  ---------------------------------------------------
  free energy    TOTEN  =      -174.82649356 eV

  energy without entropy =     -174.75357808  energy(sigma->0) =     -174.80826469


--------------------------------------------------------------------------------------------------------




--------------------------------------- Iteration      1(  20)  ---------------------------------------


    POTLOK:  cpu time   10.5256: real time   10.5292
    SETDIJ:  cpu time    0.1082: real time    0.1082
    EDDIAG:  cpu time   60.4909: real time   60.4915
  RMM-DIIS:  cpu time  159.4561: real time  159.4577
    ORTHCH:  cpu time   12.0583: real time   12.0581
       DOS:  cpu time    0.0014: real time    0.0014
    CHARGE:  cpu time   22.3588: real time   22.3584
    MIXING:  cpu time    0.8646: real time    0.8645
    --------------------------------------------
      LOOP:  cpu time  265.8638: real time  265.8690

 eigenvalue-minimisations  :   707
 total energy-change (2. order) : 0.1812410E+00  (-0.2796405E-01)
 number of electron     559.9999842 magnetization 
 augmentation part      241.1268486 magnetization 

 Broyden mixing:
  rms(total) = 0.63478E+00    rms(broyden)= 0.63455E+00
  rms(prec ) = 0.76290E+00
  weight for this iteration     100.00

 eigenvalues of (default mixing * dielectric matrix)
  average eigenvalue GAMMA=   0.3447
  2.0081  1.1854  0.4019  0.3189  0.3189  0.1421  0.1421  0.1035  0.1035  0.1046
  0.1046  0.0725  0.0725  0.0486  0.0436

 Free energy of the ion-electron system (eV)
  ---------------------------------------------------
  alpha Z        PSCENC =        75.25431677
  Ewald energy   TEWEN  =    137558.77962564
  -Hartree energ DENC   =   -181754.75471105
  -exchange      EXHF   =         0.00000000
  -V(xc)+E(xc)   XCENC  =     -1694.45629730
  PAW double counting   =     46126.69117007   -42598.62385913
  entropy T*S    EENTRO =        -0.08438022
  eigenvalues    EBANDS =     -2973.95661124
  atomic energy  EATOM  =     45086.50549395
  Solvation  Ediel_sol  =         0.00000000
  ---------------------------------------------------
  free energy    TOTEN  =      -174.64525252 eV

  energy without entropy =     -174.56087230  energy(sigma->0) =     -174.62415746


--------------------------------------------------------------------------------------------------------




--------------------------------------- Iteration      1(  21)  ---------------------------------------


    POTLOK:  cpu time   10.7162: real time   10.7191
    SETDIJ:  cpu time    0.1103: real time    0.1103
    EDDIAG:  cpu time   60.1814: real time   60.1809
  RMM-DIIS:  cpu time  157.9382: real time  157.9368
    ORTHCH:  cpu time   12.0939: real time   12.0937
       DOS:  cpu time    0.0014: real time    0.0014
    CHARGE:  cpu time   22.4248: real time   22.4244
    MIXING:  cpu time    0.9120: real time    0.9120
    --------------------------------------------
      LOOP:  cpu time  264.3784: real time  264.3787

 eigenvalue-minimisations  :   703
 total energy-change (2. order) : 0.5563786E-01  (-0.2037491E-01)
 number of electron     559.9999829 magnetization 
 augmentation part      241.1910301 magnetization 

 Broyden mixing:
  rms(total) = 0.59746E+00    rms(broyden)= 0.59730E+00
  rms(prec ) = 0.68128E+00
  weight for this iteration     100.00

 eigenvalues of (default mixing * dielectric matrix)
  average eigenvalue GAMMA=   0.3648
  2.0729  1.3817  0.6681  0.3304  0.3304  0.1566  0.1324  0.1324  0.1027  0.1027
  0.0953  0.0953  0.0723  0.0723  0.0486  0.0436

 Free energy of the ion-electron system (eV)
  ---------------------------------------------------
  alpha Z        PSCENC =        75.25431677
  Ewald energy   TEWEN  =    137558.77962564
  -Hartree energ DENC   =   -181765.22534698
  -exchange      EXHF   =         0.00000000
  -V(xc)+E(xc)   XCENC  =     -1694.34752850
  PAW double counting   =     46125.28739351   -42596.76890028
  entropy T*S    EENTRO =        -0.10036916
  eigenvalues    EBANDS =     -2963.97429962
  atomic energy  EATOM  =     45086.50549395
  Solvation  Ediel_sol  =         0.00000000
  ---------------------------------------------------
  free energy    TOTEN  =      -174.58961466 eV

  energy without entropy =     -174.48924550  energy(sigma->0) =     -174.56452237


--------------------------------------------------------------------------------------------------------




--------------------------------------- Iteration      1(  22)  ---------------------------------------


    POTLOK:  cpu time   10.6862: real time   10.6886
    SETDIJ:  cpu time    0.1105: real time    0.1104
    EDDIAG:  cpu time   60.7686: real time   60.7680
  RMM-DIIS:  cpu time  158.1554: real time  158.1543
    ORTHCH:  cpu time   12.0530: real time   12.0528
       DOS:  cpu time    0.0014: real time    0.0014
    CHARGE:  cpu time   22.4190: real time   22.4186
    MIXING:  cpu time    0.9645: real time    0.9645
    --------------------------------------------
      LOOP:  cpu time  265.1586: real time  265.1587

 eigenvalue-minimisations  :   704
 total energy-change (2. order) :-0.9200068E-01  (-0.1874994E-01)
 number of electron     559.9999832 magnetization 
 augmentation part      241.1567892 magnetization 

 Broyden mixing:
  rms(total) = 0.74586E+00    rms(broyden)= 0.74574E+00
  rms(prec ) = 0.87694E+00
  weight for this iteration     100.00

 eigenvalues of (default mixing * dielectric matrix)
  average eigenvalue GAMMA=   0.3669
  2.1689  1.4552  0.7415  0.3490  0.3490  0.1784  0.1363  0.1363  0.1022  0.1022
  0.1049  0.1049  0.0803  0.0702  0.0656  0.0486  0.0436

 Free energy of the ion-electron system (eV)
  ---------------------------------------------------
  alpha Z        PSCENC =        75.25431677
  Ewald energy   TEWEN  =    137558.77962564
  -Hartree energ DENC   =   -181783.59446904
  -exchange      EXHF   =         0.00000000
  -V(xc)+E(xc)   XCENC  =     -1694.14023602
  PAW double counting   =     46121.62667901   -42592.44074152
  entropy T*S    EENTRO =        -0.08081927
  eigenvalues    EBANDS =     -2946.59146486
  atomic energy  EATOM  =     45086.50549395
  Solvation  Ediel_sol  =         0.00000000
  ---------------------------------------------------
  free energy    TOTEN  =      -174.68161534 eV

  energy without entropy =     -174.60079606  energy(sigma->0) =     -174.66141052


--------------------------------------------------------------------------------------------------------




--------------------------------------- Iteration      1(  23)  ---------------------------------------


    POTLOK:  cpu time   10.7031: real time   10.7070
    SETDIJ:  cpu time    0.1104: real time    0.1104
    EDDIAG:  cpu time   60.6387: real time   60.6380
  RMM-DIIS:  cpu time  158.1501: real time  158.1489
    ORTHCH:  cpu time   12.0382: real time   12.0381
       DOS:  cpu time    0.0014: real time    0.0014
    CHARGE:  cpu time   22.4661: real time   22.4658
    MIXING:  cpu time    1.0584: real time    1.0584
    --------------------------------------------
      LOOP:  cpu time  265.1664: real time  265.1679

 eigenvalue-minimisations  :   705
 total energy-change (2. order) : 0.2252662E+00  (-0.9662073E-02)
 number of electron     559.9999836 magnetization 
 augmentation part      241.1477416 magnetization 

 Broyden mixing:
  rms(total) = 0.40538E+00    rms(broyden)= 0.40520E+00
  rms(prec ) = 0.46744E+00
  weight for this iteration     100.00

 eigenvalues of (default mixing * dielectric matrix)
  average eigenvalue GAMMA=   0.3665
  2.2419  1.5147  0.7983  0.3514  0.3514  0.2139  0.1420  0.1420  0.1027  0.1027
[...]
 -0.007  -0.012   0.004   0.004   0.006  -0.006  -0.011   0.004
 -0.011  -0.020   0.006   0.007   0.010  -0.011  -0.019   0.006
 -0.015  -0.005   0.013   0.000   0.022  -0.014  -0.005   0.012
  0.000  -0.023  -0.006  -0.015  -0.000   0.000  -0.022  -0.006
 -0.022   0.000   0.009  -0.005  -0.016  -0.022   0.000   0.008
 -0.017  -0.006   0.015   0.000   0.027  -0.017  -0.006   0.015
  0.000  -0.027  -0.007  -0.018   0.000   0.000  -0.027  -0.007
 -0.027   0.000   0.010  -0.006  -0.019  -0.026   0.000   0.010
 total augmentation occupancy for first ion, spin component:           1
  1.537  -0.030   0.005   0.017   0.024   0.076  -0.008  -0.002   0.036  -0.010   0.092  -0.031   0.012   0.002   0.002  -0.019
 -0.030   1.401   0.030   0.071   0.000  -0.007   0.072   0.011  -0.015  -0.008   0.219  -0.065   0.019   0.001   0.002  -0.006
  0.005   0.030   1.542   0.001   0.002  -0.002   0.012   0.074  -0.012   0.017  -0.055   0.018  -0.003  -0.007  -0.005   0.016
  0.017   0.071   0.001   1.338   0.044   0.033  -0.014  -0.012   0.091  -0.023  -0.082   0.021  -0.001  -0.009  -0.004   0.001
  0.024   0.000   0.002   0.044   1.439  -0.010  -0.008   0.016  -0.022   0.067  -0.095   0.032  -0.003  -0.010  -0.010   0.026
  0.076  -0.007  -0.002   0.033  -0.010   0.217   0.019  -0.002  -0.045   0.004  -0.048   0.002   0.017  -0.010   0.035  -0.004
 -0.008   0.072   0.012  -0.014  -0.008   0.019   0.263  -0.023  -0.003   0.006  -0.110   0.007  -0.001   0.051  -0.010  -0.000
 -0.002   0.011   0.074  -0.012   0.016  -0.002  -0.023   0.215   0.014  -0.020   0.028  -0.001  -0.012   0.009  -0.018   0.003
  0.036  -0.015  -0.012   0.091  -0.022  -0.045  -0.003   0.014   0.260   0.007   0.043  -0.004  -0.009   0.036   0.004   0.000
 -0.010  -0.008   0.017  -0.023   0.067   0.004   0.006  -0.020   0.007   0.258   0.046  -0.002  -0.038   0.002   0.049   0.007
  0.092   0.219  -0.055  -0.082  -0.095  -0.048  -0.110   0.028   0.043   0.046   0.948  -0.141   0.084   0.014   0.064  -0.013
 -0.031  -0.065   0.018   0.021   0.032   0.002   0.007  -0.001  -0.004  -0.002  -0.141   0.023  -0.014  -0.003  -0.010   0.003
  0.012   0.019  -0.003  -0.001  -0.003   0.017  -0.001  -0.012  -0.009  -0.038   0.084  -0.014   0.029  -0.008  -0.004  -0.003
  0.002   0.001  -0.007  -0.009  -0.010  -0.010   0.051   0.009   0.036   0.002   0.014  -0.003  -0.008   0.036   0.004   0.000
  0.002   0.002  -0.005  -0.004  -0.010   0.035  -0.010  -0.018   0.004   0.049   0.064  -0.010  -0.004   0.004   0.035  -0.000
 -0.019  -0.006   0.016   0.001   0.026  -0.004  -0.000   0.003   0.000   0.007  -0.013   0.003  -0.003   0.000  -0.000   0.001
  0.001  -0.028  -0.007  -0.018   0.001   0.001  -0.008  -0.001  -0.006  -0.000  -0.003   0.001   0.000  -0.003  -0.000   0.000
 -0.028   0.001   0.012  -0.005  -0.019  -0.006   0.001   0.003  -0.001  -0.007  -0.008   0.001  -0.000  -0.000  -0.003   0.000


------------------------ aborting loop because EDIFF is reached ----------------------------------------


    CHARGE:  cpu time   22.6973: real time   22.6970
    FORLOC:  cpu time    6.4750: real time    6.4750
    FORNL :  cpu time   59.6140: real time   59.6132
    STRESS:  cpu time  181.3728: real time  181.3710
    FORCOR:  cpu time   19.5741: real time   19.5741
    FORHAR:  cpu time    8.8915: real time    8.8916
    MIXING:  cpu time    3.0044: real time    3.0044
    OFIELD:  cpu time    0.0000: real time    0.0000

  FORCE on cell =-STRESS in cart. coord.  units (eV):
  Direction    XX          YY          ZZ          XY          YZ          ZX
  --------------------------------------------------------------------------------------
  Alpha Z    75.25432    75.25432    75.25432
  Ewald   43735.67970 45073.89768 48749.09667    88.96627 -1863.68051  -190.66299
  Hartree 58651.98584 59934.03246 63340.28376    80.79362 -1706.67502  -168.53138
  E(xc)   -2905.05622 -2904.73118 -2902.67066     0.06668    -0.94063    -0.24657
  Local  ************************************  -168.80617  3554.24793   356.45664
  n-local  -881.56509  -882.76923  -890.33819    -0.23145     4.42727     0.95002
  augment  4105.04133  4104.67069  4101.67127    -0.07966     1.19421     0.35928
  Kinetic  7812.35015  7807.66728  7788.46380    -0.74035    10.61312     2.27365
  Fock        0.00000     0.00000     0.00000     0.00000     0.00000     0.00000
  -------------------------------------------------------------------------------------
  Total    -113.73837  -112.96308  -114.96105    -0.03106    -0.81362     0.59863
  in kB      -6.74922    -6.70322    -6.82178    -0.00184    -0.04828     0.03552
  external pressure =       -6.76 kB  Pullay stress =        0.00 kB


 VOLUME and BASIS-vectors are now :
 -----------------------------------------------------------------------------
  energy-cutoff  :      400.00
  volume of cell :    27000.00
      direct lattice vectors                 reciprocal lattice vectors
    30.000000000  0.000000000  0.000000000     0.033333333  0.000000000  0.000000000
     0.000000000 30.000000000  0.000000000     0.000000000  0.033333333  0.000000000
     0.000000000  0.000000000 30.000000000     0.000000000  0.000000000  0.033333333

  length of vectors
    30.000000000 30.000000000 30.000000000     0.033333333  0.033333333  0.033333333


 FORCES acting on ions
    electron-ion (+dipol)            ewald-force                    non-local-force                 convergence-correction
 -----------------------------------------------------------------------------------------------
   0.395E+03 0.971E+03 0.426E+03   -.393E+03 -.968E+03 -.426E+03   -.149E+01 -.182E+01 -.208E+00   0.109E-02 -.707E-02 0.812E-02
   -.973E+03 -.397E+03 0.420E+03   0.970E+03 0.395E+03 -.419E+03   0.182E+01 0.150E+01 -.244E+00   -.420E-03 0.561E-02 0.916E-02
   -.396E+03 0.971E+03 0.426E+03   0.394E+03 -.968E+03 -.425E+03   0.149E+01 -.182E+01 -.204E+00   0.471E-02 -.508E-02 0.657E-02
   0.973E+03 -.397E+03 0.420E+03   -.970E+03 0.395E+03 -.420E+03   -.182E+01 0.150E+01 -.239E+00   -.909E-03 0.575E-02 0.425E-02
   -.306E+00 0.585E+03 0.968E+03   0.302E+00 -.584E+03 -.965E+03   -.122E-03 -.316E+00 -.234E+01   0.476E-02 -.281E-02 -.187E-02
   -.265E+02 0.541E+03 -.789E+03   0.260E+02 -.541E+03 0.790E+03   0.174E+00 0.371E+00 0.299E-01   -.240E-02 0.785E-02 0.129E-03
   -.110E+01 0.114E+04 0.194E+02   0.109E+01 -.113E+04 -.194E+02   0.940E-02 -.312E+01 -.315E-01   0.492E-03 -.219E-02 0.747E-02
   0.114E+04 -.432E+01 0.711E+01   -.113E+04 0.433E+01 -.715E+01   -.310E+01 -.837E-02 0.117E-01   -.162E-02 0.112E-03 0.110E-01
   -.114E+04 -.374E+01 0.610E+01   0.113E+04 0.375E+01 -.614E+01   0.311E+01 -.872E-02 0.136E-01   -.433E-02 0.499E-02 0.109E-01
   -.224E+00 -.114E+04 0.357E+01   0.222E+00 0.113E+04 -.358E+01   -.200E-03 0.311E+01 -.671E-02   0.205E-02 -.629E-02 0.114E-01
   -.580E+03 0.577E+03 0.816E+03   0.577E+03 -.574E+03 -.812E+03   0.156E+01 -.156E+01 -.220E+01   0.544E-02 -.172E-02 -.812E-03
   -.625E+03 0.566E+03 -.776E+03   0.623E+03 -.563E+03 0.773E+03   0.146E+01 -.155E+01 0.222E+01   -.157E-02 0.705E-02 -.566E-05
   0.579E+03 -.580E+03 0.814E+03   -.576E+03 0.578E+03 -.811E+03   -.156E+01 0.155E+01 -.220E+01   0.964E-03 0.852E-02 -.277E-02
   0.583E+03 -.592E+03 -.806E+03   -.581E+03 0.590E+03 0.803E+03   -.156E+01 0.156E+01 0.220E+01   0.140E-01 0.301E-03 -.216E-02
   0.579E+03 0.577E+03 0.816E+03   -.577E+03 -.574E+03 -.813E+03   -.156E+01 -.156E+01 -.220E+01   -.407E-02 -.397E-02 -.404E-02
   0.634E+03 0.560E+03 -.758E+03   -.632E+03 -.558E+03 0.755E+03   -.138E+01 -.150E+01 0.216E+01   0.498E-02 0.381E-02 0.774E-03
   -.579E+03 -.580E+03 0.814E+03   0.577E+03 0.578E+03 -.810E+03   0.156E+01 0.155E+01 -.220E+01   0.339E-02 0.421E-02 0.319E-02
   -.584E+03 -.591E+03 -.806E+03   0.582E+03 0.588E+03 0.803E+03   0.156E+01 0.156E+01 0.220E+01   -.943E-02 -.249E-02 -.763E-02
   0.405E+03 0.978E+03 -.368E+03   -.403E+03 -.975E+03 0.368E+03   -.151E+01 -.184E+01 0.384E+00   0.306E-03 0.417E-02 0.689E-02
   -.978E+03 -.402E+03 -.408E+03   0.975E+03 0.400E+03 0.408E+03   0.183E+01 0.150E+01 0.215E+00   -.968E-02 0.333E-02 0.373E-02
   -.323E+03 0.318E+03 0.462E+03   0.323E+03 -.318E+03 -.462E+03   -.369E+00 0.357E+00 0.539E+00   0.512E-02 0.484E-02 0.107E-01
   0.974E+03 0.391E+03 0.423E+03   -.971E+03 -.389E+03 -.422E+03   -.182E+01 -.150E+01 -.211E+00   -.340E-02 -.393E-02 0.489E-02
   -.394E+03 -.973E+03 0.419E+03   0.392E+03 0.971E+03 -.418E+03   0.149E+01 0.182E+01 -.226E+00   0.304E-02 0.159E-02 0.104E-01
   -.410E+03 0.977E+03 -.375E+03   0.408E+03 -.974E+03 0.374E+03   0.155E+01 -.191E+01 0.312E+00   -.212E-02 0.393E-02 0.509E-02
   0.978E+03 -.403E+03 -.407E+03   -.975E+03 0.401E+03 0.407E+03   -.183E+01 0.150E+01 0.208E+00   0.110E-01 0.377E-02 0.109E-01
   -.974E+03 0.391E+03 0.422E+03   0.971E+03 -.389E+03 -.421E+03   0.182E+01 -.150E+01 -.215E+00   0.301E-02 0.335E-02 0.720E-02
   0.394E+03 -.974E+03 0.419E+03   -.392E+03 0.971E+03 -.419E+03   -.149E+01 0.182E+01 -.226E+00   0.419E-02 0.667E-02 0.936E-02
   0.322E+03 0.317E+03 0.462E+03   -.322E+03 -.318E+03 -.463E+03   0.365E+00 0.362E+00 0.536E+00   0.378E-02 0.224E-02 0.110E-01
   -.125E+01 0.635E+03 0.224E+02   0.125E+01 -.636E+03 -.223E+02   0.496E-02 0.740E+00 -.604E-01   0.160E-02 0.210E-02 0.145E-01
   -.588E+03 -.226E+01 0.967E+03   0.587E+03 0.224E+01 -.963E+03   0.307E+00 0.989E-02 -.235E+01   0.392E-02 0.523E-02 0.147E-03
   -.606E+03 -.218E+02 -.949E+03   0.605E+03 0.218E+02 0.946E+03   0.312E+00 -.636E-02 0.236E+01   -.512E-02 0.985E-02 -.655E-02
   0.587E+03 -.237E+01 0.967E+03   -.587E+03 0.236E+01 -.963E+03   -.304E+00 0.738E-02 -.235E+01   -.362E-03 0.252E-02 -.671E-02
   0.606E+03 -.274E+02 -.946E+03   -.605E+03 0.274E+02 0.942E+03   -.303E+00 -.229E-01 0.237E+01   0.105E-01 0.479E-02 -.364E-03
   0.767E+03 0.757E+03 0.175E+02   -.765E+03 -.756E+03 -.175E+02   -.115E+01 -.115E+01 -.363E-01   0.210E-02 -.137E-02 0.144E-01
   -.763E+03 -.765E+03 0.559E+01   0.761E+03 0.763E+03 -.561E+01   0.114E+01 0.114E+01 0.557E-02   -.307E-02 -.614E-03 0.152E-01
   -.768E+03 0.758E+03 0.154E+02   0.766E+03 -.756E+03 -.153E+02   0.114E+01 -.114E+01 -.340E-01   0.198E-02 0.397E-02 0.963E-02
   0.762E+03 -.766E+03 0.602E+01   -.760E+03 0.764E+03 -.605E+01   -.114E+01 0.114E+01 0.937E-02   0.994E-02 0.685E-02 0.169E-01
   -.252E+00 -.253E+01 0.107E+04   0.247E+00 0.252E+01 -.107E+04   0.140E-03 0.696E-02 -.162E+01   0.509E-02 0.469E-02 -.146E-02
   -.445E+01 -.468E+02 -.104E+04   0.446E+01 0.471E+02 0.104E+04   -.112E-01 -.183E+00 0.167E+01   0.118E-02 0.103E-01 -.469E-02
   0.985E+03 0.385E+03 -.399E+03   -.983E+03 -.383E+03 0.399E+03   -.184E+01 -.148E+01 0.211E+00   0.768E-02 0.593E-03 0.980E-02
   -.396E+03 -.978E+03 -.411E+03   0.393E+03 0.975E+03 0.410E+03   0.150E+01 0.181E+01 0.221E+00   -.407E-02 -.110E-01 0.726E-02
   -.334E+03 0.305E+03 -.421E+03   0.334E+03 -.305E+03 0.422E+03   -.291E+00 0.472E+00 -.568E+00   -.739E-03 0.122E-01 0.840E-02
   0.321E+03 -.325E+03 0.459E+03   -.322E+03 0.325E+03 -.459E+03   0.361E+00 -.374E+00 0.519E+00   0.805E-02 0.709E-02 0.113E-01
   0.330E+03 0.303E+03 -.417E+03   -.330E+03 -.303E+03 0.418E+03   0.322E+00 0.398E+00 -.470E+00   0.469E-02 0.671E-02 0.117E-01
   -.984E+03 0.387E+03 -.402E+03   0.981E+03 -.384E+03 0.402E+03   0.185E+01 -.148E+01 0.211E+00   -.316E-02 0.956E-02 0.396E-02
   0.395E+03 -.978E+03 -.411E+03   -.393E+03 0.975E+03 0.410E+03   -.150E+01 0.181E+01 0.220E+00   0.953E-02 -.742E-02 0.944E-02
   -.322E+03 -.325E+03 0.458E+03   0.322E+03 0.325E+03 -.459E+03   -.361E+00 -.370E+00 0.513E+00   0.617E-02 0.661E-02 0.133E-01
   0.643E+03 -.707E+01 0.119E+02   -.644E+03 0.710E+01 -.119E+02   0.746E+00 -.154E-01 0.983E-02   0.913E-02 0.256E-02 0.197E-01
   -.643E+03 -.637E+01 0.107E+02   0.644E+03 0.640E+01 -.107E+02   -.747E+00 -.248E-01 0.225E-01   0.117E-03 0.101E-01 0.169E-01
   -.184E+00 -.588E+03 0.966E+03   0.179E+00 0.588E+03 -.962E+03   -.570E-03 0.309E+00 -.236E+01   0.498E-02 0.652E-02 0.252E-02
   -.953E+00 -.603E+03 -.957E+03   0.948E+00 0.602E+03 0.953E+03   0.151E-02 0.326E+00 0.234E+01   0.241E-02 -.247E-02 -.782E-02
   -.827E+00 -.857E+01 0.145E+02   0.819E+00 0.855E+01 -.145E+02   0.728E-03 0.419E-02 -.555E-02   0.632E-02 0.867E-02 0.203E-01
   0.324E+03 -.336E+03 -.439E+03   -.324E+03 0.336E+03 0.440E+03   0.356E+00 -.341E+00 -.544E+00   0.119E-01 0.717E-02 0.140E-01
   -.326E+03 -.335E+03 -.440E+03   0.326E+03 0.335E+03 0.441E+03   -.355E+00 -.347E+00 -.538E+00   -.682E-03 0.841E-02 0.101E-01
   -.412E+00 -.645E+03 0.693E+01   0.409E+00 0.646E+03 -.695E+01   -.203E-02 -.735E+00 0.108E-02   0.680E-02 0.361E-02 0.207E-01
   0.111E+02 0.655E+02 -.190E+03   -.973E+01 -.524E+02 0.167E+03   -.917E+00 -.113E+02 0.187E+02   -.135E-03 0.198E-02 -.159E-02
   0.311E+02 0.328E+03 -.607E+03   -.340E+02 -.360E+03 0.662E+03   0.278E+01 0.303E+02 -.530E+02   -.595E-04 0.236E-02 -.236E-02
 -----------------------------------------------------------------------------------------------
   -.232E+01 -.198E+02 0.361E+02   0.256E-12 0.227E-12 0.000E+00   0.220E+01 0.196E+02 -.364E+02   0.129E+00 0.168E+00 0.352E+00
 
 
 POSITION                                       TOTAL-FORCE (eV/Angst)
 -----------------------------------------------------------------------------------
     13.37281      9.84801     12.50759         0.702348      1.112394      0.289107
     20.15199     16.62719     12.50759        -1.105205     -0.705948      0.301997
     16.62719      9.84801     12.50759        -0.703385      1.113609      0.287733
      9.84801     16.62719     12.50759         1.105577     -0.707453      0.300768
     15.00000     11.47521     10.20639         0.000304      0.413575      1.280135
     15.00000     11.47521     19.79360        -0.245891     -0.012072      0.693189
     15.00000      8.28283     15.00000        -0.008853      1.518496      0.017971
      8.28283     15.00000     15.00000         1.514618      0.002055     -0.011088
     21.71717     15.00000     15.00000        -1.517911      0.002986     -0.010291
     15.00000     21.71717     15.00000        -0.000266     -1.516283      0.004192
     18.35858     11.64142     10.25025        -0.755563      0.756070      1.073397
     18.35858     11.64142     19.74975        -0.736804      0.762301     -1.090550
     11.64142     18.35858     10.25025         0.754701     -0.754698      1.072870
     11.64142     18.35858     19.74975         0.757067     -0.757160     -1.073653
     11.64142     11.64142     10.25025         0.755430      0.756322      1.073391
     11.64142     11.64142     19.74975         0.719761      0.754017     -1.074833
     18.35858     18.35858     10.25025        -0.754731     -0.753413      1.071994
     18.35858     18.35858     19.74975        -0.757389     -0.756738     -1.073802
     13.37281      9.84801     17.49241         0.687677      1.091700     -0.361189
     20.15199     16.62719     17.49241        -1.110882     -0.706216     -0.289094
     16.73751     13.26249     12.54279         0.114423     -0.110181     -0.160046
      9.84801     13.37281     12.50759         1.106142      0.706199      0.291432
     16.62719     20.15199     12.50759        -0.704289     -1.108402      0.293447
     16.62719      9.84801     17.49241        -0.694941      1.128681     -0.331666
      9.84801     16.62719     17.49241         1.110720     -0.707625     -0.285855
     20.15199     13.37281     12.50759        -1.104249      0.705008      0.290372
     13.37281     20.15199     12.50759         0.703715     -1.107186      0.291911
     13.26249     13.26249     12.54279        -0.114363     -0.111674     -0.157474
     15.00000     11.52498     15.00000         0.000106     -0.222226      0.007719
     18.52479     15.00000     10.20639        -0.413798     -0.005680      1.282129
     18.52479     15.00000     19.79360        -0.407299      0.007343     -1.286619
     11.47521     15.00000     10.20640         0.411927     -0.003884      1.281668
     11.47521     15.00000     19.79360         0.403281      0.016200     -1.289436
     11.49535     11.49535     15.00000         0.836096      0.823729      0.005481
     18.50465     18.50465     15.00000        -0.828170     -0.826397     -0.000978
     18.50465     11.49535     15.00000        -0.837336      0.825612      0.010975
     11.49535     18.50465     15.00000         0.828061     -0.825840     -0.002440
     15.00000     15.00000     10.04368        -0.000108     -0.003266      1.180599
     15.00000     15.00000     19.95633         0.001695      0.061893     -1.190688
      9.84801     13.37281     17.49241         1.109134      0.695905     -0.285701
     16.62719     20.15199     17.49241        -0.706078     -1.106776     -0.292343
     16.73751     13.26249     17.45721         0.085094     -0.131858      0.146024
     13.26249     16.73751     12.54279        -0.109876      0.113097     -0.156957
     13.26249     13.26249     17.45721        -0.108995     -0.093371      0.110780
     20.15199     13.37281     17.49241        -1.110913      0.696257     -0.285576
     13.37281     20.15199     17.49241         0.707301     -1.106441     -0.291966
     16.73751     16.73751     12.54279         0.108281      0.112598     -0.155605
     11.52498     15.00000     15.00000        -0.239217      0.009174     -0.020744
     18.47502     15.00000     15.00000         0.246092      0.010545     -0.021256
     15.00000     18.52480     10.20639        -0.000672     -0.411182      1.280836
     15.00000     18.52480     19.79360        -0.000273     -0.415828     -1.284207
     15.00000     15.00000     15.00000        -0.000933     -0.013688      0.011570
     13.26249     16.73751     17.45721        -0.114155      0.111946      0.156990
     16.73751     16.73751     17.45721         0.113762      0.110865      0.157493
     15.00000     18.47502     15.00000         0.001587      0.229757      0.000643
     14.62119     10.99259     22.05706         0.482570      1.857512     -4.622172
     14.56859     10.43619     23.03688        -0.174925     -1.524359      2.839418
 -----------------------------------------------------------------------------------
    total drift:                                0.006986     -0.001853      0.000293


--------------------------------------------------------------------------------------------------------



  FREE ENERGIE OF THE ION-ELECTRON SYSTEM (eV)
  ---------------------------------------------------
  free  energy   TOTEN  =      -174.34971863 eV

  energy  without entropy=     -174.24630613  energy(sigma->0) =     -174.32386550
 


--------------------------------------------------------------------------------------------------------


    POTLOK:  cpu time   11.7495: real time   11.7503


--------------------------------------------------------------------------------------------------------


     LOOP+:  cpu time15257.3315: real time15257.6800
    4ORBIT:  cpu time    0.0000: real time    0.0000

 total amount of memory used by VASP MPI-rank0  5486941. kBytes
=======================================================================

   base      :      30000. kBytes
   nonlr-proj:      17126. kBytes
   fftplans  :     924480. kBytes
   grid      :    1872000. kBytes
   one-center:        886. kBytes
   wavefun   :    2642449. kBytes
 
  
  
 General timing and accounting informations for this job:
 ========================================================
  
                  Total CPU time used (sec):    15326.055
                            User time (sec):    14485.850
                          System time (sec):      840.205
                         Elapsed time (sec):    15326.455
  
                   Maximum memory used (kb):     7179204.
                   Average memory used (kb):           0.
  
                          Minor page faults:    780210636
                          Major page faults:            0
                 Voluntary context switches:          691
