 vasp.5.4.4.18Apr17-6-g9f103f2a35 (build Sep 03 2018 23:53:05) complex          
  
 executed on             LinuxIFC date 2021.12.02  06:07:08
 running on    1 total cores
 distrk:  each k-point on    1 cores,    1 groups
 distr:  one band on NCORES_PER_BAND=   1 cores,    1 groups


--------------------------------------------------------------------------------------------------------


 INCAR:
 POTCAR:    PAW_PBE Pd 04Jan2005                  
 POTCAR:    PAW_PBE C 08Apr2002                   
 POTCAR:    PAW_PBE O 08Apr2002                   
 POTCAR:    PAW_PBE Pd 04Jan2005                  
   VRHFIN =Pd : s1 d9                                                           
   LEXCH  = PE                                                                  
   EATOM  =   809.7530 eV,   59.5152 Ry                                         
                                                                                
   TITEL  = PAW_PBE Pd 04Jan2005                                                
   LULTRA =        F    use ultrasoft PP ?                                      
   IUNSCR =        1    unscreen: 0-lin 1-nonlin 2-no                           
   RPACOR =    2.000    partial core radius                                     
   POMASS =  106.420; ZVAL   =   10.000    mass and valenz                      
   RCORE  =    2.600    outmost cutoff radius                                   
   RWIGS  =    2.710; RWIGS  =    1.434    wigner-seitz radius (au A)           
   ENMAX  =  250.925; ENMIN  =  188.194 eV                                      
   ICORE  =        3    local potential                                         
   LCOR   =        T    correct aug charges                                     
   LPAW   =        T    paw PP                                                  
   EAUG   =  416.230                                                            
   DEXC   =    0.000                                                            
   RMAX   =    2.653    core radius for proj-oper                               
   RAUG   =    1.300    factor for augmentation sphere                          
   RDEP   =    2.734    radius for radial grids                                 
   RDEPT  =    2.103    core radius for aug-charge                              
                                                                                
   Atomic configuration                                                         
   12 entries                                                                   
     n  l   j            E        occ.                                          
     1  0  0.50    -24164.6631   2.0000                                         
     2  0  0.50     -3530.9218   2.0000                                         
     2  1  1.50     -3165.6822   6.0000                                         
     3  0  0.50      -639.4577   2.0000                                         
     3  1  1.50      -519.4532   6.0000                                         
     3  2  2.50      -328.9757  10.0000                                         
     4  0  0.50       -88.7014   2.0000                                         
     4  1  1.50       -54.4540   6.0000                                         
     4  2  2.50        -6.6878   9.0000                                         
     5  0  0.50        -4.3543   1.0000                                         
     5  1  0.50        -1.3606   0.0000                                         
     4  3  2.50        -1.3606   0.0000                                         
   Description                                                                  
     l       E           TYP  RCUT    TYP  RCUT                                 
     2     -6.6878251     23  2.400                                             
     2     -8.0484077     23  2.400                                             
     0     -4.3542939     23  2.400                                             
     0      4.3406793     23  2.400                                             
     1     -4.0817478     23  2.600                                             
     1     15.8380318     23  2.600                                             
     3     -4.0817478     23  2.400                                             
  local pseudopotential read in
  partial core-charges read in
  partial kinetic energy density read in
  atomic valenz-charges read in
  non local Contribution for L=           2  read in
    real space projection operators read in
  non local Contribution for L=           2  read in
    real space projection operators read in
  non local Contribution for L=           0  read in
    real space projection operators read in
  non local Contribution for L=           0  read in
    real space projection operators read in
  non local Contribution for L=           1  read in
    real space projection operators read in
  non local Contribution for L=           1  read in
    real space projection operators read in
    PAW grid and wavefunctions read in
 
   number of l-projection  operators is LMAX  =           6
   number of lm-projection operators is LMMAX =          18
 
 POTCAR:    PAW_PBE C 08Apr2002                   
   VRHFIN =C: s2p2                                                              
   LEXCH  = PE                                                                  
   EATOM  =   147.1560 eV,   10.8157 Ry                                         
                                                                                
   TITEL  = PAW_PBE C 08Apr2002                                                 
   LULTRA =        F    use ultrasoft PP ?                                      
   IUNSCR =        1    unscreen: 0-lin 1-nonlin 2-no                           
   RPACOR =    1.200    partial core radius                                     
   POMASS =   12.011; ZVAL   =    4.000    mass and valenz                      
   RCORE  =    1.500    outmost cutoff radius                                   
   RWIGS  =    1.630; RWIGS  =    0.863    wigner-seitz radius (au A)           
   ENMAX  =  400.000; ENMIN  =  300.000 eV                                      
   ICORE  =        2    local potential                                         
   LCOR   =        T    correct aug charges                                     
   LPAW   =        T    paw PP                                                  
   EAUG   =  644.873                                                            
   DEXC   =    0.000                                                            
   RMAX   =    1.529    core radius for proj-oper                               
   RAUG   =    1.300    factor for augmentation sphere                          
   RDEP   =    1.501    radius for radial grids                                 
   RDEPT  =    1.300    core radius for aug-charge                              
                                                                                
   Atomic configuration                                                         
    4 entries                                                                   
     n  l   j            E        occ.                                          
     1  0  0.50      -273.3789   2.0000                                         
     2  0  0.50       -13.7508   2.0000                                         
     2  1  0.50        -5.2854   2.0000                                         
     3  2  1.50        -5.4423   0.0000                                         
   Description                                                                  
     l       E           TYP  RCUT    TYP  RCUT                                 
     0    -13.7508458     23  1.200                                             
     0     -8.2022199     23  1.200                                             
     1     -5.2854383     23  1.500                                             
     1     34.0145650     23  1.500                                             
     2     -5.4423304      7  1.500                                             
  local pseudopotential read in
  partial core-charges read in
  partial kinetic energy density read in
  atomic valenz-charges read in
  non local Contribution for L=           0  read in
    real space projection operators read in
  non local Contribution for L=           0  read in
    real space projection operators read in
  non local Contribution for L=           1  read in
    real space projection operators read in
  non local Contribution for L=           1  read in
    real space projection operators read in
    PAW grid and wavefunctions read in
 
   number of l-projection  operators is LMAX  =           4
   number of lm-projection operators is LMMAX =           8
 
 POTCAR:    PAW_PBE O 08Apr2002                   
   VRHFIN =O: s2p4                                                              
   LEXCH  = PE                                                                  
   EATOM  =   432.3788 eV,   31.7789 Ry                                         
                                                                                
   TITEL  = PAW_PBE O 08Apr2002                                                 
   LULTRA =        F    use ultrasoft PP ?                                      
   IUNSCR =        1    unscreen: 0-lin 1-nonlin 2-no                           
   RPACOR =    1.200    partial core radius                                     
   POMASS =   16.000; ZVAL   =    6.000    mass and valenz                      
   RCORE  =    1.520    outmost cutoff radius                                   
   RWIGS  =    1.550; RWIGS  =    0.820    wigner-seitz radius (au A)           
   ENMAX  =  400.000; ENMIN  =  300.000 eV                                      
   ICORE  =        2    local potential                                         
   LCOR   =        T    correct aug charges                                     
   LPAW   =        T    paw PP                                                  
   EAUG   =  605.392                                                            
   DEXC   =    0.000                                                            
   RMAX   =    1.553    core radius for proj-oper                               
   RAUG   =    1.300    factor for augmentation sphere                          
   RDEP   =    1.550    radius for radial grids                                 
   RDEPT  =    1.329    core radius for aug-charge                              
                                                                                
   Atomic configuration                                                         
    4 entries                                                                   
     n  l   j            E        occ.                                          
     1  0  0.50      -514.6923   2.0000                                         
     2  0  0.50       -23.9615   2.0000                                         
     2  1  0.50        -9.0305   4.0000                                         
     3  2  1.50        -9.5241   0.0000                                         
   Description                                                                  
     l       E           TYP  RCUT    TYP  RCUT                                 
     0    -23.9615318     23  1.200                                             
     0     -9.5240782     23  1.200                                             
     1     -9.0304911     23  1.520                                             
     1      8.1634956     23  1.520                                             
     2     -9.5240782      7  1.500                                             
  local pseudopotential read in
  partial core-charges read in
  partial kinetic energy density read in
  kinetic energy density of atom read in
  atomic valenz-charges read in
  non local Contribution for L=           0  read in
    real space projection operators read in
  non local Contribution for L=           0  read in
    real space projection operators read in
  non local Contribution for L=           1  read in
    real space projection operators read in
  non local Contribution for L=           1  read in
    real space projection operators read in
    PAW grid and wavefunctions read in
 
   number of l-projection  operators is LMAX  =           4
   number of lm-projection operators is LMMAX =           8
 
 Optimization of the real space projectors (new method)

 maximal supplied QI-value         = 14.36
 optimisation between [QCUT,QGAM] = [ 10.20, 20.39] = [ 29.12,116.47] Ry 
 Optimized for a Real-space Cutoff    1.51 Angstroem

   l    n(q)    QCUT    max X(q) W(low)/X(q) W(high)/X(q)  e(spline) 
   2      8    10.197    59.108    0.26E-03    0.14E-03    0.96E-07
   2      8    10.197    58.101    0.27E-03    0.14E-03    0.98E-07
   0      9    10.197   102.235    0.54E-04    0.60E-05    0.72E-07
   0      9    10.197    58.388    0.52E-04    0.60E-05    0.68E-07
   1      9    10.197    22.191    0.18E-03    0.25E-03    0.79E-07
   1      9    10.197    15.590    0.15E-03    0.21E-03    0.69E-07
 Optimization of the real space projectors (new method)

 maximal supplied QI-value         = 25.13
 optimisation between [QCUT,QGAM] = [ 10.05, 20.36] = [ 28.30,116.06] Ry 
 Optimized for a Real-space Cutoff    1.30 Angstroem

   l    n(q)    QCUT    max X(q) W(low)/X(q) W(high)/X(q)  e(spline) 
   0      8    10.053   115.676    0.49E-03    0.72E-03    0.18E-06
   0      8    10.053    87.132    0.49E-03    0.71E-03    0.18E-06
   1      7    10.053     4.429    0.32E-03    0.31E-03    0.18E-06
   1      7    10.053     2.733    0.23E-03    0.19E-03    0.20E-06
 Optimization of the real space projectors (new method)

 maximal supplied QI-value         = 24.76
 optimisation between [QCUT,QGAM] = [ 10.15, 20.30] = [ 28.85,115.39] Ry 
 Optimized for a Real-space Cutoff    1.38 Angstroem

   l    n(q)    QCUT    max X(q) W(low)/X(q) W(high)/X(q)  e(spline) 
   0      8    10.150    20.381    0.22E-03    0.32E-03    0.29E-06
   0      8    10.150    15.268    0.23E-03    0.35E-03    0.30E-06
   1      8    10.150     5.964    0.46E-03    0.53E-03    0.21E-06
   1      8    10.150     5.382    0.38E-03    0.45E-03    0.19E-06

 ----------------------------------------------------------------------------- 
|                                                                             |
|  ADVICE TO THIS USER RUNNING 'VASP/VAMP'   (HEAR YOUR MASTER'S VOICE ...):  |
|                                                                             |
|      You enforced a specific xc-type in the INCAR file,                     |
|      a different type was found on the POTCAR file                          |
|          I HOPE YOU KNOW, WHAT YOU ARE  DOING                               |
|                                                                             |
 ----------------------------------------------------------------------------- 

  PAW_PBE Pd 04Jan2005                  :
 energy of atom  1       EATOM= -809.7530
 kinetic energy error for atom=    0.0091 (will be added to EATOM!!)
  PAW_PBE C 08Apr2002                   :
 energy of atom  2       EATOM= -147.1560
 kinetic energy error for atom=    0.0288 (will be added to EATOM!!)
  PAW_PBE O 08Apr2002                   :
 energy of atom  3       EATOM= -432.3788
 kinetic energy error for atom=    0.1156 (will be added to EATOM!!)
 
 
 POSCAR: Pd55PES                                 
  positions in cartesian coordinates
  No initial velocities read in
 exchange correlation table for  LEXCH =        9
   RHO(1)=    0.500       N(1)  =     2000
   RHO(2)=  100.500       N(2)  =     4000
 


--------------------------------------------------------------------------------------------------------


 ion  position               nearest neighbor table
   1  0.446  0.328  0.417-   3 3.25   5 3.25   7 3.36  15 3.36  29 3.42  28 3.42
   2  0.672  0.554  0.417-  26 3.25  30 3.25  17 3.36   9 3.36  47 3.42  49 3.42
   3  0.554  0.328  0.417-   1 3.25   5 3.25   7 3.36  11 3.36  29 3.42  21 3.42
   4  0.328  0.554  0.417-  32 3.25  22 3.25  13 3.36   8 3.36  43 3.42  48 3.42
   5  0.500  0.383  0.340-   1 3.25   3 3.25  11 3.36  15 3.36  21 3.42  28 3.42
   6  0.500  0.383  0.660-  24 3.25  19 3.25  16 3.36  12 3.36  42 3.42  44 3.42
   7  0.500  0.276  0.500-  29 3.24   3 3.36   1 3.36  19 3.36  24 3.36
   8  0.276  0.500  0.500-  48 3.24  22 3.36  40 3.36   4 3.36  25 3.36
   9  0.724  0.500  0.500-  56 1.93  57 2.36  49 3.24  26 3.36  45 3.36   2 3.36  20 3.36
  10  0.500  0.724  0.500-  55 3.24  27 3.36  23 3.36  46 3.36  41 3.36
  11  0.612  0.388  0.342-  21 3.24   5 3.36   3 3.36  30 3.36  26 3.36
  12  0.612  0.388  0.658-  42 3.24  24 3.36  45 3.36   6 3.36  31 3.36
  13  0.388  0.612  0.342-  43 3.24  32 3.36  50 3.36   4 3.36  27 3.36
  14  0.388  0.612  0.658-  53 3.24  25 3.36  33 3.36  51 3.36  46 3.36
  15  0.388  0.388  0.342-  28 3.24   5 3.36   1 3.36  32 3.36  22 3.36
  16  0.388  0.388  0.658-  44 3.24  19 3.36  40 3.36   6 3.36  33 3.36
  17  0.612  0.612  0.342-  47 3.24  30 3.36  50 3.36   2 3.36  23 3.36
  18  0.612  0.612  0.658-  54 3.24  31 3.36  20 3.36  51 3.36  41 3.36
  19  0.446  0.328  0.583-   6 3.25  24 3.25  16 3.36   7 3.36  44 3.42  29 3.42
  20  0.672  0.554  0.583-  56 2.67  31 3.25  45 3.25  18 3.36   9 3.36  54 3.42  49 3.42
  21  0.558  0.442  0.418-  11 3.24   5 3.42   3 3.42  30 3.42  26 3.42
  22  0.328  0.446  0.417-   4 3.25  32 3.25   8 3.36  15 3.36  48 3.42  28 3.42
  23  0.554  0.672  0.417-  27 3.25  50 3.25  10 3.36  17 3.36  55 3.42  47 3.42
  24  0.554  0.328  0.583-   6 3.25  19 3.25  12 3.36   7 3.36  42 3.42  29 3.42
  25  0.328  0.554  0.583-  33 3.25  40 3.25  14 3.36   8 3.36  53 3.42  48 3.42
  26  0.672  0.446  0.417-   2 3.25  30 3.25   9 3.36  11 3.36  49 3.42  21 3.42
  27  0.446  0.672  0.417-  23 3.25  50 3.25  10 3.36  13 3.36  55 3.42  43 3.42
  28  0.442  0.442  0.418-  15 3.24   5 3.42   1 3.42  32 3.42  22 3.42
  29  0.500  0.384  0.500-   7 3.24   3 3.42   1 3.42  24 3.42  19 3.42
  30  0.617  0.500  0.340-   2 3.25  26 3.25  17 3.36  11 3.36  47 3.42  21 3.42
  31  0.617  0.500  0.660-  20 3.25  45 3.25  18 3.36  12 3.36  54 3.42  42 3.42
  32  0.383  0.500  0.340-   4 3.25  22 3.25  13 3.36  15 3.36  43 3.42  28 3.42
  33  0.383  0.500  0.660-  25 3.25  40 3.25  14 3.36  16 3.36  53 3.42  44 3.42
  34  0.383  0.383  0.500-
  35  0.617  0.617  0.500-
  36  0.617  0.383  0.500-
  37  0.383  0.617  0.500-
  38  0.500  0.500  0.335-
  39  0.500  0.500  0.665-
  40  0.328  0.446  0.583-  33 3.25  25 3.25  16 3.36   8 3.36  44 3.42  48 3.42
  41  0.554  0.672  0.583-  46 3.25  51 3.25  10 3.36  18 3.36  54 3.42  55 3.42
  42  0.558  0.442  0.582-  12 3.24   6 3.42  24 3.42  31 3.42  45 3.42
  43  0.442  0.558  0.418-  13 3.24   4 3.42  32 3.42  27 3.42  50 3.42
  44  0.442  0.442  0.582-  16 3.24   6 3.42  19 3.42  33 3.42  40 3.42
  45  0.672  0.446  0.583-  56 1.74  57 2.52  20 3.25  31 3.25   9 3.36  12 3.36  49 3.42  42 3.42

  46  0.446  0.672  0.583-  41 3.25  51 3.25  10 3.36  14 3.36  53 3.42  55 3.42
  47  0.558  0.558  0.418-  17 3.24   2 3.42  30 3.42  23 3.42  50 3.42
  48  0.384  0.500  0.500-   8 3.24   4 3.42  22 3.42  25 3.42  40 3.42
  49  0.616  0.500  0.500-   9 3.24   2 3.42  26 3.42  20 3.42  45 3.42
  50  0.500  0.617  0.340-  27 3.25  23 3.25  13 3.36  17 3.36  43 3.42  47 3.42
  51  0.500  0.617  0.660-  41 3.25  46 3.25  14 3.36  18 3.36  53 3.42  54 3.42
  52  0.500  0.500  0.500-
  53  0.442  0.558  0.582-  14 3.24  25 3.42  33 3.42  51 3.42  46 3.42
  54  0.558  0.558  0.582-  18 3.24  31 3.42  20 3.42  51 3.42  41 3.42
  55  0.500  0.616  0.500-  10 3.24  23 3.42  27 3.42  41 3.42  46 3.42
  56  0.713  0.479  0.560-  57 1.13  45 1.74   9 1.93  20 2.67
  57  0.749  0.475  0.570-  56 1.13   9 2.36  45 2.52
 
  LATTYP: Found a simple cubic cell.
 ALAT       =    30.0000000000
  
  Lattice vectors:
  
 A1 = (  30.0000000000,   0.0000000000,   0.0000000000)
 A2 = (   0.0000000000,  30.0000000000,   0.0000000000)
 A3 = (   0.0000000000,   0.0000000000,  30.0000000000)


Analysis of symmetry for initial positions (statically):
=====================================================================
 Subroutine PRICEL returns:
 Original cell was already a primitive cell.
 

 Routine SETGRP: Setting up the symmetry group for a 
 simple cubic supercell.


 Subroutine GETGRP returns: Found  1 space group operations
 (whereof  1 operations were pure point group operations)
 out of a pool of 48 trial point group operations.


The static configuration has the point symmetry C_1 .


Analysis of symmetry for dynamics (positions and initial velocities):
=====================================================================
 Subroutine PRICEL returns:
 Original cell was already a primitive cell.
 

 Routine SETGRP: Setting up the symmetry group for a 
 simple cubic supercell.


 Subroutine GETGRP returns: Found  1 space group operations
 (whereof  1 operations were pure point group operations)
 out of a pool of 48 trial point group operations.


The dynamic configuration has the point symmetry C_1 .


Analysis of constrained symmetry for selective dynamics:
=====================================================================
 Subroutine PRICEL returns:
 Original cell was already a primitive cell.
 

 Routine SETGRP: Setting up the symmetry group for a 
 simple cubic supercell.


 Subroutine GETGRP returns: Found  1 space group operations
 (whereof  1 operations were pure point group operations)
 out of a pool of 48 trial point group operations.


The constrained configuration has the point symmetry C_1 .


 Subroutine INISYM returns: Found  1 space group operations
 (whereof  1 operations are pure point group operations),
 and found     1 'primitive' translations

 
 
 KPOINTS: K-points                                

Automatic generation of k-mesh.
Space group operators:
 irot       det(A)        alpha          n_x          n_y          n_z        tau_x        tau_y        tau_z
    1     1.000000     0.000000     1.000000     0.000000     0.000000     0.000000     0.000000     0.000000
 
 Subroutine IBZKPT returns following result:
 ===========================================
 
 Found      1 irreducible k-points:
 
 Following reciprocal coordinates:
            Coordinates               Weight
  0.000000  0.000000  0.000000      1.000000
 
 Following cartesian coordinates:
            Coordinates               Weight
  0.000000  0.000000  0.000000      1.000000
 


--------------------------------------------------------------------------------------------------------




 Dimension of arrays:
   k-points           NKPTS =      1   k-points in BZ     NKDIM =      1   number of bands    NBANDS=    336
   number of dos      NEDOS =    301   number of ions     NIONS =     57
   non local maximal  LDIM  =      6   non local SUM 2l+1 LMDIM =     18
   total plane-waves  NPLWV = ******
   max r-space proj   IRMAX =   1847   max aug-charges    IRDMAX=   6262
   dimension x,y,z NGX =   150 NGY =  150 NGZ =  150
   dimension x,y,z NGXF=   300 NGYF=  300 NGZF=  300
   support grid    NGXF=   300 NGYF=  300 NGZF=  300
   ions per type =              55   1   1
   NGX,Y,Z   is equivalent  to a cutoff of   8.31,  8.31,  8.31 a.u.
   NGXF,Y,Z  is equivalent  to a cutoff of  16.62, 16.62, 16.62 a.u.

 SYSTEM =  6_Pd100_top_free_z(O)                   
 POSCAR =  Pd55PES                                 

 Startparameter for this run:
   NWRITE =      2    write-flag & timer
   PREC   = normal    normal or accurate (medium, high low for compatibility)
   ISTART =      0    job   : 0-new  1-cont  2-samecut
   ICHARG =      2    charge: 1-file 2-atom 10-const
   ISPIN  =      1    spin polarized calculation?
   LNONCOLLINEAR =      F non collinear calculations
   LSORBIT =      F    spin-orbit coupling
   INIWAV =      1    electr: 0-lowe 1-rand  2-diag
   LASPH  =      F    aspherical Exc in radial PAW
   METAGGA=      F    non-selfconsistent MetaGGA calc.

 Electronic Relaxation 1
   ENCUT  =  400.0 eV  29.40 Ry    5.42 a.u.  48.92 48.92 48.92*2*pi/ulx,y,z
   ENINI  =  400.0     initial cutoff
   ENAUG  =  644.9 eV  augmentation charge cutoff
   NELM   =    100;   NELMIN=  6; NELMDL= -5     # of ELM steps 
   EDIFF  = 0.1E-03   stopping-criterion for ELM
   LREAL  =      T    real-space projection
   NLSPLINE    = F    spline interpolate recip. space projectors
   LCOMPAT=      F    compatible to vasp.4.4
   GGA_COMPAT  = T    GGA compatible to vasp.4.4-vasp.4.6
   LMAXPAW     = -100 max onsite density
   LMAXMIX     =    2 max onsite mixed and CHGCAR
   VOSKOWN=      0    Vosko Wilk Nusair interpolation
   ROPT   =   -0.00050  -0.00050  -0.00050
 Ionic relaxation
   EDIFFG = -.5E-01   stopping-criterion for IOM
   NSW    =      0    number of steps for IOM
   NBLOCK =      1;   KBLOCK =      1    inner block; outer block 
   IBRION =     -1    ionic relax: 0-MD 1-quasi-New 2-CG
   NFREE  =      1    steps in history (QN), initial steepest desc. (CG)
   ISIF   =      2    stress and relaxation
   IWAVPR =     10    prediction:  0-non 1-charg 2-wave 3-comb
   ISYM   =      2    0-nonsym 1-usesym 2-fastsym
   LCORR  =      T    Harris-Foulkes like correction to forces

   POTIM  = 0.5000    time-step for ionic-motion
   TEIN   =    0.0    initial temperature
   TEBEG  =    0.0;   TEEND  =   0.0 temperature during run
   SMASS  =  -3.00    Nose mass-parameter (am)
   estimated Nose-frequenzy (Omega)   =  0.10E-29 period in steps =****** mass=  -0.206E-25a.u.
   SCALEE = 1.0000    scale energy and forces
   NPACO  =    256;   APACO  = 16.0  distance and # of slots for P.C.
   PSTRESS=    0.0 pullay stress

  Mass of Ions in am
   POMASS = 106.42 12.01 16.00
  Ionic Valenz
   ZVAL   =  10.00  4.00  6.00
  Atomic Wigner-Seitz radii
   RWIGS  =  -1.00 -1.00 -1.00
  virtual crystal weights 
   VCA    =   1.00  1.00  1.00
   NELECT =     560.0000    total number of electrons
   NUPDOWN=      -1.0000    fix difference up-down

 DOS related values:
   EMIN   =  10.00;   EMAX   =-10.00  energy-range for DOS
   EFERMI =   0.00
   ISMEAR =     2;   SIGMA  =   0.20  broadening in eV -4-tet -1-fermi 0-gaus

 Electronic relaxation 2 (details)
   IALGO  =     68    algorithm
   LDIAG  =      T    sub-space diagonalisation (order eigenvalues)
   LSUBROT=      F    optimize rotation matrix (better conditioning)
   TURBO    =      0    0=normal 1=particle mesh
   IRESTART =      0    0=no restart 2=restart with 2 vectors
   NREBOOT  =      0    no. of reboots
   NMIN     =      0    reboot dimension
   EREF     =   0.00    reference energy to select bands
   IMIX   =      4    mixing-type and parameters
     AMIX     =   0.40;   BMIX     =  1.00
     AMIX_MAG =   1.60;   BMIX_MAG =  1.00
     AMIN     =   0.10
     WC   =   100.;   INIMIX=   1;  MIXPRE=   1;  MAXMIX= -45

 Intra band minimization:
   WEIMIN = 0.0000     energy-eigenvalue tresh-hold
   EBREAK =  0.74E-07  absolut break condition
   DEPER  =   0.30     relativ break condition  

   TIME   =   0.40     timestep for ELM

  volume/ion in A,a.u.               =     473.68      3196.58
  Fermi-wavevector in a.u.,A,eV,Ry     =   0.449797  0.849992  2.752691  0.202317
  Thomas-Fermi vector in A             =   1.430086
 
 Write flags
   LWAVE        =      F    write WAVECAR
   LDOWNSAMPLE  =      F    k-point downsampling of WAVECAR
   LCHARG       =      F    write CHGCAR
   LVTOT        =      F    write LOCPOT, total local potential
   LVHAR        =      F    write LOCPOT, Hartree potential only
   LELF         =      F    write electronic localiz. function (ELF)
   LORBIT       =      0    0 simple, 1 ext, 2 COOP (PROOUT), +10 PAW based schemes


 Dipole corrections
   LMONO  =      F    monopole corrections only (constant potential shift)
   LDIPOL =      F    correct potential (dipole corrections)
   IDIPOL =      0    1-x, 2-y, 3-z, 4-all directions 
   EPSILON=  1.0000000 bulk dielectric constant

 Exchange correlation treatment:
   GGA     =    RP    GGA type
   LEXCH   =     9    internal setting for exchange type
   VOSKOWN=      0    Vosko Wilk Nusair interpolation
   LHFCALC =     F    Hartree Fock is set to
   LHFONE  =     F    Hartree Fock one center treatment
   AEXX    =    0.0000 exact exchange contribution

 Linear response parameters
   LEPSILON=     F    determine dielectric tensor
   LRPA    =     F    only Hartree local field effects (RPA)
   LNABLA  =     F    use nabla operator in PAW spheres
   LVEL    =     F    velocity operator in full k-point grid
   LINTERFAST=   F  fast interpolation
   KINTER  =     0    interpolate to denser k-point grid
   CSHIFT  =0.1000    complex shift for real part using Kramers Kronig
   OMEGAMAX=  -1.0    maximum frequency
   DEG_THRESHOLD= 0.2000000E-02 threshold for treating states as degnerate
   RTIME   =   -0.100 relaxation time in fs
  (WPLASMAI=    0.000 imaginary part of plasma frequency in eV, 0.658/RTIME)
   DFIELD  = 0.0000000 0.0000000 0.0000000 field for delta impulse in time
 
 Orbital magnetization related:
   ORBITALMAG=     F  switch on orbital magnetization
   LCHIMAG   =     F  perturbation theory with respect to B field
   DQ        =  0.001000  dq finite difference perturbation B field
   LLRAUG    =     F  two centre corrections for induced B field



--------------------------------------------------------------------------------------------------------


 Static calculation
 charge density and potential will be updated during run
 non-spin polarized calculation
 RMM-DIIS sequential band-by-band and
  variant of blocked Davidson during initial phase
 perform sub-space diagonalisation
    before iterative eigenvector-optimisation
 modified Broyden-mixing scheme, WC =      100.0
 initial mixing is a Kerker type mixing with AMIX =  0.4000 and BMIX =      1.0000
 Hartree-type preconditioning will be used
 using additional bands           56
 real space projection scheme for non local part
 use partial core corrections
 calculate Harris-corrections to forces 
   (improved forces if not selfconsistent)
 use gradient corrections 
 use of overlap-Matrix (Vanderbilt PP)
 Methfessel and Paxton  Order N= 2 SIGMA  =   0.20


--------------------------------------------------------------------------------------------------------


  energy-cutoff  :      400.00
  volume of cell :    27000.00
      direct lattice vectors                 reciprocal lattice vectors
    30.000000000  0.000000000  0.000000000     0.033333333  0.000000000  0.000000000
     0.000000000 30.000000000  0.000000000     0.000000000  0.033333333  0.000000000
     0.000000000  0.000000000 30.000000000     0.000000000  0.000000000  0.033333333

  length of vectors
    30.000000000 30.000000000 30.000000000     0.033333333  0.033333333  0.033333333


 
 k-points in units of 2pi/SCALE and weight: K-points                                
   0.00000000  0.00000000  0.00000000       1.000
 
 k-points in reciprocal lattice and weights: K-points                                
   0.00000000  0.00000000  0.00000000       1.000
 
 position of ions in fractional coordinates (direct lattice) 
   0.44576020  0.32826710  0.41691983
   0.67173288  0.55423978  0.41691983
   0.55423980  0.32826710  0.41691983
   0.32826712  0.55423978  0.41691983
   0.50000000  0.38250690  0.34021317
   0.50000000  0.38250690  0.65978680
   0.50000000  0.27609440  0.50000000
   0.27609443  0.49999998  0.50000000
   0.72390557  0.49999998  0.50000000
   0.50000000  0.72390555  0.50000000
   0.61195280  0.38804720  0.34167483
   0.61195280  0.38804720  0.65832513
   0.38804722  0.61195278  0.34167483
   0.38804722  0.61195278  0.65832513
   0.38804720  0.38804720  0.34167483
   0.38804720  0.38804720  0.65832513
   0.61195278  0.61195278  0.34167483
   0.61195278  0.61195278  0.65832513
   0.44576020  0.32826710  0.58308023
   0.67173288  0.55423978  0.58308023
   0.55791699  0.44208301  0.41809300
   0.32826705  0.44576024  0.41691983
   0.55423973  0.67173293  0.41691983
   0.55423980  0.32826710  0.58308023
   0.32826712  0.55423978  0.58308023
   0.67173295  0.44576024  0.41691983
   0.44576027  0.67173293  0.41691983
   0.44208301  0.44208301  0.41809300
   0.50000000  0.38416601  0.50000000
   0.61749315  0.50000005  0.34021317
   0.61749315  0.50000005  0.65978680
   0.38250685  0.50000005  0.34021317
   0.38250685  0.50000005  0.65978680
   0.38317830  0.38317830  0.50000000
   0.61682172  0.61682172  0.50000000
   0.61682170  0.38317830  0.50000000
   0.38317828  0.61682172  0.50000000
   0.50000000  0.50000000  0.33478917
   0.50000000  0.50000000  0.66521087
   0.32826705  0.44576024  0.58308023
   0.55423973  0.67173293  0.58308023
   0.55791699  0.44208301  0.58190703
   0.44208298  0.55791702  0.41809300
   0.44208301  0.44208301  0.58190703
   0.67173295  0.44576024  0.58308023
   0.44576027  0.67173293  0.58308023
   0.55791702  0.55791702  0.41809300
   0.38416599  0.50000002  0.50000000
   0.61583401  0.50000002  0.50000000
   0.50000000  0.61749319  0.34021317
   0.50000000  0.61749319  0.65978680
   0.50000000  0.50000000  0.50000000
   0.44208298  0.55791702  0.58190703
   0.55791702  0.55791702  0.58190703
   0.50000000  0.61583404  0.50000000
   0.71339430  0.47894493  0.56003620
   0.74942697  0.47538970  0.57017360
 
 position of ions in cartesian coordinates  (Angst):
  13.37280588  9.84801292 12.50759500
  20.15198637 16.62719342 12.50759500
  16.62719412  9.84801292 12.50759500
   9.84801363 16.62719342 12.50759500
  15.00000000 11.47520705 10.20639500
  15.00000000 11.47520705 19.79360400
  15.00000000  8.28283206 15.00000000
   8.28283277 14.99999929 15.00000000
  21.71716723 14.99999929 15.00000000
  15.00000000 21.71716652 14.99999999
  18.35858397 11.64141603 10.25024500
  18.35858397 11.64141603 19.74975399
  11.64141674 18.35858326 10.25024500
  11.64141674 18.35858326 19.74975400
  11.64141603 11.64141603 10.25024500
  11.64141603 11.64141603 19.74975400
  18.35858326 18.35858326 10.25024500
  18.35858326 18.35858326 19.74975400
  13.37280588  9.84801291 17.49240700
  20.15198638 16.62719341 17.49240700
  16.73750985 13.26249015 12.54279000
   9.84801151 13.37280729 12.50759500
  16.62719200 20.15198779 12.50759500
  16.62719412  9.84801292 17.49240700
   9.84801363 16.62719342 17.49240700
  20.15198849 13.37280729 12.50759500
  13.37280800 20.15198779 12.50759500
  13.26249015 13.26249015 12.54279000
  15.00000000 11.52498029 15.00000000
  18.52479437 15.00000140 10.20639500
  18.52479437 15.00000141 19.79360400
  11.47520562 15.00000141 10.20639501
  11.47520563 15.00000141 19.79360400
  11.49534898 11.49534898 15.00000000
  18.50465172 18.50465172 15.00000000
  18.50465102 11.49534898 15.00000000
  11.49534828 18.50465172 15.00000000
  15.00000000 15.00000000 10.04367500
  15.00000000 15.00000000 19.95632599
   9.84801151 13.37280729 17.49240700
  16.62719200 20.15198779 17.49240700
  16.73750985 13.26249015 17.45721100
  13.26248944 16.73751056 12.54279001
  13.26249015 13.26249015 17.45721100
  20.15198849 13.37280729 17.49240699
  13.37280800 20.15198779 17.49240700
  16.73751056 16.73751056 12.54279000
  11.52497959 15.00000071 15.00000000
  18.47502041 15.00000071 15.00000000
  14.99999999 18.52479579 10.20639500
  15.00000000 18.52479578 19.79360400
  15.00000000 15.00000000 15.00000000
  13.26248944 16.73751057 17.45721101
  16.73751056 16.73751057 17.45721100
  15.00000000 18.47502112 15.00000000
  21.40182900 14.36834800 16.80108600
  22.48280900 14.26169100 17.10520800
 


--------------------------------------------------------------------------------------------------------


 k-point  1 :   0.0000 0.0000 0.0000  plane waves:  490521

 maximum and minimum number of plane-waves per node :    490521   490521

 maximum number of plane-waves:    490521
 maximum index in each direction: 
   IXMAX=   48   IYMAX=   48   IZMAX=   48
   IXMIN=  -48   IYMIN=  -48   IZMIN=  -48


 serial   3D FFT for wavefunctions
 parallel 3D FFT for charge:
    minimum data exchange during FFTs selected (reduces bandwidth)


 total amount of memory used by VASP MPI-rank0  5486942. kBytes
=======================================================================

   base      :      30000. kBytes
   nonlr-proj:      17127. kBytes
   fftplans  :     924480. kBytes
   grid      :    1872000. kBytes
   one-center:        886. kBytes
   wavefun   :    2642449. kBytes
 
     INWAV:  cpu time    0.0001: real time    0.0004
 Broyden mixing: mesh for mixing (old mesh)
   NGX = 97   NGY = 97   NGZ = 97
  (NGX  =300   NGY  =300   NGZ  =300)
  gives a total of 912673 points

 initial charge density was supplied:
 charge density of overlapping atoms calculated
 number of electron     560.0000000 magnetization 
 keeping initial charge density in first step


--------------------------------------------------------------------------------------------------------


 Maximum index for non-local projection operator         1763
 Maximum index for augmentation-charges         5898 (set IRDMAX)


--------------------------------------------------------------------------------------------------------


 First call to EWALD:  gamma=   0.059
 Maximum number of real-space cells 3x 3x 3
 Maximum number of reciprocal cells 3x 3x 3

    FEWALD:  cpu time    0.0145: real time    0.0145


--------------------------------------- Iteration      1(   1)  ---------------------------------------


    POTLOK:  cpu time   12.9776: real time   12.9803
    SETDIJ:  cpu time    0.1133: real time    0.1133
     EDDAV:  cpu time  333.1696: real time  333.2117
       DOS:  cpu time    0.0013: real time    0.0013
    --------------------------------------------
      LOOP:  cpu time  346.2618: real time  346.3064

 eigenvalue-minimisations  :   688
 total energy-change (2. order) : 0.4402389E+04  (-0.1005936E+05)
 number of electron     560.0000000 magnetization 
 augmentation part      560.0000000 magnetization 

 Free energy of the ion-electron system (eV)
  ---------------------------------------------------
  alpha Z        PSCENC =        75.25431677
  Ewald energy   TEWEN  =    139280.05264454
  -Hartree energ DENC   =   -182622.75319099
  -exchange      EXHF   =         0.00000000
  -V(xc)+E(xc)   XCENC  =     -1701.14997665
  PAW double counting   =     44873.02882129   -41398.84523641
  entropy T*S    EENTRO =         0.00512936
  eigenvalues    EBANDS =       810.29125029
  atomic energy  EATOM  =     45086.50549395
  Solvation  Ediel_sol  =         0.00000000
  ---------------------------------------------------
  free energy    TOTEN  =      4402.38925216 eV

  energy without entropy =     4402.38412279  energy(sigma->0) =     4402.38796982


--------------------------------------------------------------------------------------------------------




--------------------------------------- Iteration      1(   2)  ---------------------------------------


     EDDAV:  cpu time  533.1899: real time  533.1972
       DOS:  cpu time    0.0012: real time    0.0012
    --------------------------------------------
      LOOP:  cpu time  533.1911: real time  533.1983

 eigenvalue-minimisations  :  1224
 total energy-change (2. order) :-0.2389090E+04  (-0.2147396E+04)
 number of electron     560.0000000 magnetization 
 augmentation part      560.0000000 magnetization 

 Free energy of the ion-electron system (eV)
  ---------------------------------------------------
  alpha Z        PSCENC =        75.25431677
  Ewald energy   TEWEN  =    139280.05264454
  -Hartree energ DENC   =   -182622.75319099
  -exchange      EXHF   =         0.00000000
  -V(xc)+E(xc)   XCENC  =     -1701.14997665
  PAW double counting   =     44873.02882129   -41398.84523641
  entropy T*S    EENTRO =        -0.02683208
  eigenvalues    EBANDS =     -1578.76629453
  atomic energy  EATOM  =     45086.50549395
  Solvation  Ediel_sol  =         0.00000000
  ---------------------------------------------------
  free energy    TOTEN  =      2013.29974589 eV

  energy without entropy =     2013.32657797  energy(sigma->0) =     2013.30645391


--------------------------------------------------------------------------------------------------------




--------------------------------------- Iteration      1(   3)  ---------------------------------------


     EDDAV:  cpu time  452.8188: real time  452.8292
       DOS:  cpu time    0.0010: real time    0.0010
    --------------------------------------------
      LOOP:  cpu time  452.8199: real time  452.8303

 eigenvalue-minimisations  :  1008
 total energy-change (2. order) :-0.1782652E+04  (-0.1675744E+04)
 number of electron     560.0000000 magnetization 
 augmentation part      560.0000000 magnetization 

 Free energy of the ion-electron system (eV)
  ---------------------------------------------------
  alpha Z        PSCENC =        75.25431677
  Ewald energy   TEWEN  =    139280.05264454
  -Hartree energ DENC   =   -182622.75319099
  -exchange      EXHF   =         0.00000000
  -V(xc)+E(xc)   XCENC  =     -1701.14997665
  PAW double counting   =     44873.02882129   -41398.84523641
  entropy T*S    EENTRO =         0.03733522
  eigenvalues    EBANDS =     -3361.48245797
  atomic energy  EATOM  =     45086.50549395
  Solvation  Ediel_sol  =         0.00000000
  ---------------------------------------------------
  free energy    TOTEN  =       230.64774975 eV

  energy without entropy =      230.61041453  energy(sigma->0) =      230.63841594


--------------------------------------------------------------------------------------------------------




--------------------------------------- Iteration      1(   4)  ---------------------------------------


     EDDAV:  cpu time  390.5244: real time  390.5258
       DOS:  cpu time    0.0012: real time    0.0012
    --------------------------------------------
      LOOP:  cpu time  390.5256: real time  390.5269

 eigenvalue-minimisations  :   840
 total energy-change (2. order) :-0.3668300E+03  (-0.3130046E+03)
 number of electron     560.0000000 magnetization 
 augmentation part      560.0000000 magnetization 

 Free energy of the ion-electron system (eV)
  ---------------------------------------------------
  alpha Z        PSCENC =        75.25431677
  Ewald energy   TEWEN  =    139280.05264454
  -Hartree energ DENC   =   -182622.75319099
  -exchange      EXHF   =         0.00000000
  -V(xc)+E(xc)   XCENC  =     -1701.14997665
  PAW double counting   =     44873.02882129   -41398.84523641
  entropy T*S    EENTRO =        -0.03205377
  eigenvalues    EBANDS =     -3728.24311659
  atomic energy  EATOM  =     45086.50549395
  Solvation  Ediel_sol  =         0.00000000
  ---------------------------------------------------
  free energy    TOTEN  =      -136.18229785 eV

  energy without entropy =     -136.15024408  energy(sigma->0) =     -136.17428441


--------------------------------------------------------------------------------------------------------




--------------------------------------- Iteration      1(   5)  ---------------------------------------


     EDDAV:  cpu time  474.4598: real time  474.4628
       DOS:  cpu time    0.0014: real time    0.0014
    CHARGE:  cpu time   23.6542: real time   23.6540
    MIXING:  cpu time    0.4209: real time    0.4209
    --------------------------------------------
      LOOP:  cpu time  498.5362: real time  498.5390

 eigenvalue-minimisations  :  1056
 total energy-change (2. order) :-0.4491638E+02  (-0.3729236E+02)
 number of electron     559.9999867 magnetization 
 augmentation part      244.9917525 magnetization 

 Broyden mixing:
  rms(total) = 0.19215E+01    rms(broyden)= 0.19208E+01
  rms(prec ) = 0.20175E+01
  weight for this iteration     100.00

 Free energy of the ion-electron system (eV)
  ---------------------------------------------------
  alpha Z        PSCENC =        75.25431677
  Ewald energy   TEWEN  =    139280.05264454
  -Hartree energ DENC   =   -182622.75319099
  -exchange      EXHF   =         0.00000000
  -V(xc)+E(xc)   XCENC  =     -1701.14997665
  PAW double counting   =     44873.02882129   -41398.84523641
  entropy T*S    EENTRO =         0.49986323
  eigenvalues    EBANDS =     -3773.69140895
  atomic energy  EATOM  =     45086.50549395
  Solvation  Ediel_sol  =         0.00000000
  ---------------------------------------------------
  free energy    TOTEN  =      -181.09867321 eV

  energy without entropy =     -181.59853645  energy(sigma->0) =     -181.22363902


--------------------------------------------------------------------------------------------------------




--------------------------------------- Iteration      1(   6)  ---------------------------------------


    POTLOK:  cpu time   12.0082: real time   12.0112
    SETDIJ:  cpu time    0.1166: real time    0.1166
    EDDIAG:  cpu time   63.5611: real time   63.5610
  RMM-DIIS:  cpu time  172.2472: real time  172.2476
    ORTHCH:  cpu time   12.5935: real time   12.5935
       DOS:  cpu time    0.0014: real time    0.0014
    CHARGE:  cpu time   23.4878: real time   23.4876
    MIXING:  cpu time    0.4380: real time    0.4380
    --------------------------------------------
      LOOP:  cpu time  284.4537: real time  284.4569

 eigenvalue-minimisations  :   729
 total energy-change (2. order) : 0.4218284E+00  (-0.7059606E+01)
 number of electron     559.9999914 magnetization 
 augmentation part      240.5377131 magnetization 

 Broyden mixing:
  rms(total) = 0.29197E+01    rms(broyden)= 0.29194E+01
  rms(prec ) = 0.33744E+01
  weight for this iteration     100.00

 eigenvalues of (default mixing * dielectric matrix)
  average eigenvalue GAMMA=   0.3210
  0.3210

 Free energy of the ion-electron system (eV)
  ---------------------------------------------------
  alpha Z        PSCENC =        75.25431677
  Ewald energy   TEWEN  =    139280.05264454
  -Hartree energ DENC   =   -183032.40374790
  -exchange      EXHF   =         0.00000000
  -V(xc)+E(xc)   XCENC  =     -1694.54602265
  PAW double counting   =     45734.11992145   -42234.20069834
  entropy T*S    EENTRO =        -0.04071737
  eigenvalues    EBANDS =     -3395.41803528
  atomic energy  EATOM  =     45086.50549395
  Solvation  Ediel_sol  =         0.00000000
  ---------------------------------------------------
  free energy    TOTEN  =      -180.67684484 eV

  energy without entropy =     -180.63612747  energy(sigma->0) =     -180.66666549


--------------------------------------------------------------------------------------------------------




--------------------------------------- Iteration      1(   7)  ---------------------------------------


    POTLOK:  cpu time   12.0902: real time   12.0934
    SETDIJ:  cpu time    0.1158: real time    0.1158
    EDDIAG:  cpu time   63.5141: real time   63.5151
  RMM-DIIS:  cpu time  203.1756: real time  203.1766
    ORTHCH:  cpu time   12.7264: real time   12.7281
       DOS:  cpu time    0.0014: real time    0.0014
    CHARGE:  cpu time   23.5506: real time   23.5504
    MIXING:  cpu time    0.4581: real time    0.4581
    --------------------------------------------
      LOOP:  cpu time  315.6322: real time  315.6389

 eigenvalue-minimisations  :   864
 total energy-change (2. order) :-0.3403532E+01  (-0.2470865E+01)
 number of electron     559.9999854 magnetization 
 augmentation part      240.2489552 magnetization 

 Broyden mixing:
  rms(total) = 0.25546E+01    rms(broyden)= 0.25543E+01
  rms(prec ) = 0.30939E+01
  weight for this iteration     100.00

 eigenvalues of (default mixing * dielectric matrix)
  average eigenvalue GAMMA=   0.3443
  0.5286  0.1601

 Free energy of the ion-electron system (eV)
  ---------------------------------------------------
  alpha Z        PSCENC =        75.25431677
  Ewald energy   TEWEN  =    139280.05264454
  -Hartree energ DENC   =   -183112.43090545
  -exchange      EXHF   =         0.00000000
  -V(xc)+E(xc)   XCENC  =     -1694.78737115
  PAW double counting   =     45818.40705296   -42316.31072188
  entropy T*S    EENTRO =        -0.05809989
  eigenvalues    EBANDS =     -3320.71278715
  atomic energy  EATOM  =     45086.50549395
  Solvation  Ediel_sol  =         0.00000000
  ---------------------------------------------------
  free energy    TOTEN  =      -184.08037730 eV

  energy without entropy =     -184.02227741  energy(sigma->0) =     -184.06585232


--------------------------------------------------------------------------------------------------------




--------------------------------------- Iteration      1(   8)  ---------------------------------------


    POTLOK:  cpu time   11.9382: real time   11.9388
    SETDIJ:  cpu time    0.1151: real time    0.1151
    EDDIAG:  cpu time   63.6523: real time   63.6520
  RMM-DIIS:  cpu time  182.2016: real time  182.2019
    ORTHCH:  cpu time   12.7175: real time   12.7174
       DOS:  cpu time    0.0014: real time    0.0014
    CHARGE:  cpu time   23.4759: real time   23.4756
    MIXING:  cpu time    0.4882: real time    0.4882
    --------------------------------------------
      LOOP:  cpu time  294.5901: real time  294.5904

 eigenvalue-minimisations  :   765
 total energy-change (2. order) :-0.4228083E+01  (-0.1126006E+01)
 number of electron     559.9999847 magnetization 
 augmentation part      239.4052982 magnetization 

 Broyden mixing:
  rms(total) = 0.29027E+01    rms(broyden)= 0.29024E+01
  rms(prec ) = 0.34162E+01
  weight for this iteration     100.00

 eigenvalues of (default mixing * dielectric matrix)
  average eigenvalue GAMMA=   0.3421
  0.7202  0.1531  0.1531

 Free energy of the ion-electron system (eV)
  ---------------------------------------------------
  alpha Z        PSCENC =        75.25431677
  Ewald energy   TEWEN  =    139280.05264454
  -Hartree energ DENC   =   -183169.77381617
  -exchange      EXHF   =         0.00000000
  -V(xc)+E(xc)   XCENC  =     -1694.97267275
  PAW double counting   =     45912.76668109   -42408.20540448
  entropy T*S    EENTRO =        -0.17585182
  eigenvalues    EBANDS =     -3269.75985174
  atomic energy  EATOM  =     45086.50549395
  Solvation  Ediel_sol  =         0.00000000
  ---------------------------------------------------
  free energy    TOTEN  =      -188.30846062 eV

  energy without entropy =     -188.13260880  energy(sigma->0) =     -188.26449766


--------------------------------------------------------------------------------------------------------




--------------------------------------- Iteration      1(   9)  ---------------------------------------


    POTLOK:  cpu time   11.8984: real time   11.8990
    SETDIJ:  cpu time    0.1152: real time    0.1152
    EDDIAG:  cpu time   63.7618: real time   63.7620
  RMM-DIIS:  cpu time  177.0999: real time  177.0996
    ORTHCH:  cpu time   12.8885: real time   12.8884
       DOS:  cpu time    0.0013: real time    0.0013
    CHARGE:  cpu time   24.0674: real time   24.0672
    MIXING:  cpu time    0.5464: real time    0.5464
    --------------------------------------------
      LOOP:  cpu time  290.3790: real time  290.3792

 eigenvalue-minimisations  :   729
 total energy-change (2. order) : 0.1916337E+01  (-0.9089044E+00)
 number of electron     559.9999858 magnetization 
 augmentation part      240.5200031 magnetization 

 Broyden mixing:
  rms(total) = 0.29556E+01    rms(broyden)= 0.29553E+01
  rms(prec ) = 0.34187E+01
  weight for this iteration     100.00

 eigenvalues of (default mixing * dielectric matrix)
  average eigenvalue GAMMA=   0.3236
  0.8350  0.1692  0.1692  0.1209

 Free energy of the ion-electron system (eV)
  ---------------------------------------------------
  alpha Z        PSCENC =        75.25431677
  Ewald energy   TEWEN  =    139280.05264454
  -Hartree energ DENC   =   -183171.05535199
  -exchange      EXHF   =         0.00000000
  -V(xc)+E(xc)   XCENC  =     -1695.12983262
  PAW double counting   =     45997.44879062   -42490.98438782
  entropy T*S    EENTRO =        -0.15325571
  eigenvalues    EBANDS =     -3268.33054159
  atomic energy  EATOM  =     45086.50549395
  Solvation  Ediel_sol  =         0.00000000
  ---------------------------------------------------
  free energy    TOTEN  =      -186.39212386 eV

  energy without entropy =     -186.23886815  energy(sigma->0) =     -186.35380993


--------------------------------------------------------------------------------------------------------




--------------------------------------- Iteration      1(  10)  ---------------------------------------


    POTLOK:  cpu time   12.6147: real time   12.6178
    SETDIJ:  cpu time    0.1189: real time    0.1189
    EDDIAG:  cpu time   63.6390: real time   63.6393
  RMM-DIIS:  cpu time  176.0208: real time  176.0226
    ORTHCH:  cpu time   13.1127: real time   13.1126
       DOS:  cpu time    0.0014: real time    0.0014
    CHARGE:  cpu time   24.0259: real time   24.0258
    MIXING:  cpu time    0.5679: real time    0.5679
    --------------------------------------------
      LOOP:  cpu time  290.1013: real time  290.1062

 eigenvalue-minimisations  :   729
 total energy-change (2. order) : 0.3355044E+01  (-0.5382078E+00)
 number of electron     559.9999858 magnetization 
 augmentation part      241.2008103 magnetization 

 Broyden mixing:
  rms(total) = 0.24908E+01    rms(broyden)= 0.24905E+01
  rms(prec ) = 0.28934E+01
  weight for this iteration     100.00

 eigenvalues of (default mixing * dielectric matrix)
  average eigenvalue GAMMA=   0.3080
  0.9277  0.1908  0.1908  0.1154  0.1154

 Free energy of the ion-electron system (eV)
  ---------------------------------------------------
  alpha Z        PSCENC =        75.25431677
  Ewald energy   TEWEN  =    139280.05264454
  -Hartree energ DENC   =   -183196.44331448
  -exchange      EXHF   =         0.00000000
  -V(xc)+E(xc)   XCENC  =     -1695.09050127
  PAW double counting   =     46058.33432236   -42550.45381842
  entropy T*S    EENTRO =        -0.08361104
  eigenvalues    EBANDS =     -3241.11261275
  atomic energy  EATOM  =     45086.50549395
  Solvation  Ediel_sol  =         0.00000000
  ---------------------------------------------------
  free energy    TOTEN  =      -183.03708034 eV

  energy without entropy =     -182.95346930  energy(sigma->0) =     -183.01617758


--------------------------------------------------------------------------------------------------------




--------------------------------------- Iteration      1(  11)  ---------------------------------------


    POTLOK:  cpu time   12.5581: real time   12.5624
    SETDIJ:  cpu time    0.1172: real time    0.1172
    EDDIAG:  cpu time   64.9547: real time   64.9576
  RMM-DIIS:  cpu time  178.0418: real time  178.0422
    ORTHCH:  cpu time   12.9657: real time   12.9656
       DOS:  cpu time    0.0015: real time    0.0015
    CHARGE:  cpu time   24.0429: real time   24.0427
    MIXING:  cpu time    0.5738: real time    0.5738
    --------------------------------------------
      LOOP:  cpu time  293.2557: real time  293.2629

 eigenvalue-minimisations  :   728
 total energy-change (2. order) : 0.2424827E+01  (-0.3628661E+00)
 number of electron     559.9999866 magnetization 
 augmentation part      241.5278391 magnetization 

 Broyden mixing:
  rms(total) = 0.20653E+01    rms(broyden)= 0.20649E+01
  rms(prec ) = 0.24589E+01
  weight for this iteration     100.00

 eigenvalues of (default mixing * dielectric matrix)
  average eigenvalue GAMMA=   0.3056
  1.0344  0.2287  0.2287  0.1277  0.1277  0.0866

 Free energy of the ion-electron system (eV)
  ---------------------------------------------------
  alpha Z        PSCENC =        75.25431677
  Ewald energy   TEWEN  =    139280.05264454
  -Hartree energ DENC   =   -183220.25667146
  -exchange      EXHF   =         0.00000000
  -V(xc)+E(xc)   XCENC  =     -1694.95987706
  PAW double counting   =     46109.18285397   -42599.83710500
  entropy T*S    EENTRO =        -0.00941851
  eigenvalues    EBANDS =     -3216.54449024
  atomic energy  EATOM  =     45086.50549395
  Solvation  Ediel_sol  =         0.00000000
  ---------------------------------------------------
  free energy    TOTEN  =      -180.61225303 eV

  energy without entropy =     -180.60283452  energy(sigma->0) =     -180.60989840


--------------------------------------------------------------------------------------------------------




--------------------------------------- Iteration      1(  12)  ---------------------------------------


    POTLOK:  cpu time   12.5131: real time   12.5138
    SETDIJ:  cpu time    0.1165: real time    0.1165
    EDDIAG:  cpu time   64.4887: real time   64.4899
  RMM-DIIS:  cpu time  176.3985: real time  176.4161
    ORTHCH:  cpu time   13.0982: real time   13.0993
       DOS:  cpu time    0.0015: real time    0.0015
    CHARGE:  cpu time   24.0835: real time   24.0867
    MIXING:  cpu time    0.6173: real time    0.6173
    --------------------------------------------
      LOOP:  cpu time  291.3174: real time  291.3413

 eigenvalue-minimisations  :   722
 total energy-change (2. order) : 0.8786158E+00  (-0.2755434E+00)
 number of electron     559.9999877 magnetization 
 augmentation part      241.6514963 magnetization 

 Broyden mixing:
  rms(total) = 0.21336E+01    rms(broyden)= 0.21333E+01
  rms(prec ) = 0.25103E+01
  weight for this iteration     100.00

 eigenvalues of (default mixing * dielectric matrix)
  average eigenvalue GAMMA=   0.3007
  1.1286  0.2637  0.2637  0.1363  0.1363  0.0941  0.0823

 Free energy of the ion-electron system (eV)
  ---------------------------------------------------
  alpha Z        PSCENC =        75.25431677
  Ewald energy   TEWEN  =    139280.05264454
  -Hartree energ DENC   =   -183236.73165606
  -exchange      EXHF   =         0.00000000
  -V(xc)+E(xc)   XCENC  =     -1694.68308645
  PAW double counting   =     46161.19598257   -42650.20682526
  entropy T*S    EENTRO =        -0.04324306
  eigenvalues    EBANDS =     -3201.07726420
  atomic energy  EATOM  =     45086.50549395
  Solvation  Ediel_sol  =         0.00000000
  ---------------------------------------------------
  free energy    TOTEN  =      -179.73363721 eV

  energy without entropy =     -179.69039415  energy(sigma->0) =     -179.72282644


--------------------------------------------------------------------------------------------------------




--------------------------------------- Iteration      1(  13)  ---------------------------------------


    POTLOK:  cpu time   12.5615: real time   12.5649
    SETDIJ:  cpu time    0.1212: real time    0.1212
    EDDIAG:  cpu time   64.7605: real time   64.7628
  RMM-DIIS:  cpu time  172.9137: real time  172.9175
    ORTHCH:  cpu time   13.0954: real time   13.0953
       DOS:  cpu time    0.0014: real time    0.0014
    CHARGE:  cpu time   24.2815: real time   24.2812
    MIXING:  cpu time    0.6434: real time    0.6434
    --------------------------------------------
      LOOP:  cpu time  288.3788: real time  288.3878

 eigenvalue-minimisations  :   708
 total energy-change (2. order) : 0.1610322E+01  (-0.2379048E+00)
 number of electron     559.9999882 magnetization 
 augmentation part      241.7577962 magnetization 

 Broyden mixing:
  rms(total) = 0.17345E+01    rms(broyden)= 0.17341E+01
  rms(prec ) = 0.19741E+01
  weight for this iteration     100.00

 eigenvalues of (default mixing * dielectric matrix)
  average eigenvalue GAMMA=   0.2995
  1.2312  0.2943  0.2943  0.1400  0.1400  0.1238  0.1009  0.0719

 Free energy of the ion-electron system (eV)
  ---------------------------------------------------
  alpha Z        PSCENC =        75.25431677
  Ewald energy   TEWEN  =    139280.05264454
  -Hartree energ DENC   =   -183265.82847470
  -exchange      EXHF   =         0.00000000
  -V(xc)+E(xc)   XCENC  =     -1694.37650525
  PAW double counting   =     46214.38754301   -42701.69845922
  entropy T*S    EENTRO =        -0.07109915
  eigenvalues    EBANDS =     -3172.34877467
  atomic energy  EATOM  =     45086.50549395
  Solvation  Ediel_sol  =         0.00000000
  ---------------------------------------------------
  free energy    TOTEN  =      -178.12331473 eV

  energy without entropy =     -178.05221558  energy(sigma->0) =     -178.10553994


--------------------------------------------------------------------------------------------------------




--------------------------------------- Iteration      1(  14)  ---------------------------------------


    POTLOK:  cpu time   12.4506: real time   12.4512
    SETDIJ:  cpu time    0.1165: real time    0.1165
    EDDIAG:  cpu time   64.5710: real time   64.5711
  RMM-DIIS:  cpu time  171.6211: real time  171.6203
    ORTHCH:  cpu time   13.0687: real time   13.0685
       DOS:  cpu time    0.0016: real time    0.0016
    CHARGE:  cpu time   24.2927: real time   24.2923
    MIXING:  cpu time    0.6821: real time    0.6821
    --------------------------------------------
      LOOP:  cpu time  286.8043: real time  286.8036

 eigenvalue-minimisations  :   703
 total energy-change (2. order) : 0.8812013E+00  (-0.2032356E+00)
 number of electron     559.9999863 magnetization 
 augmentation part      241.6395536 magnetization 

 Broyden mixing:
  rms(total) = 0.12611E+01    rms(broyden)= 0.12607E+01
  rms(prec ) = 0.14362E+01
  weight for this iteration     100.00

 eigenvalues of (default mixing * dielectric matrix)
  average eigenvalue GAMMA=   0.3253
  1.4302  0.3895  0.3895  0.1443  0.1443  0.1258  0.1258  0.1103  0.0680

 Free energy of the ion-electron system (eV)
  ---------------------------------------------------
  alpha Z        PSCENC =        75.25431677
  Ewald energy   TEWEN  =    139280.05264454
  -Hartree energ DENC   =   -183294.72006432
  -exchange      EXHF   =         0.00000000
  -V(xc)+E(xc)   XCENC  =     -1694.00881062
  PAW double counting   =     46267.17839687   -42752.59547766
  entropy T*S    EENTRO =        -0.03817500
  eigenvalues    EBANDS =     -3144.87043793
  atomic energy  EATOM  =     45086.50549395
  Solvation  Ediel_sol  =         0.00000000
  ---------------------------------------------------
  free energy    TOTEN  =      -177.24211341 eV

  energy without entropy =     -177.20393840  energy(sigma->0) =     -177.23256966


--------------------------------------------------------------------------------------------------------




--------------------------------------- Iteration      1(  15)  ---------------------------------------


    POTLOK:  cpu time   12.4585: real time   12.4606
    SETDIJ:  cpu time    0.1195: real time    0.1195
    EDDIAG:  cpu time   65.0133: real time   65.0127
  RMM-DIIS:  cpu time  176.3358: real time  176.3346
    ORTHCH:  cpu time   13.3663: real time   13.3661
       DOS:  cpu time    0.0015: real time    0.0015
    CHARGE:  cpu time   24.8665: real time   24.8661
    MIXING:  cpu time    0.7354: real time    0.7354
    --------------------------------------------
      LOOP:  cpu time  292.8969: real time  292.8965

 eigenvalue-minimisations  :   702
 total energy-change (2. order) :-0.3319414E+00  (-0.1689771E+00)
 number of electron     559.9999837 magnetization 
 augmentation part      241.1989855 magnetization 

 Broyden mixing:
  rms(total) = 0.18854E+01    rms(broyden)= 0.18852E+01
  rms(prec ) = 0.21700E+01
  weight for this iteration     100.00

 eigenvalues of (default mixing * dielectric matrix)
  average eigenvalue GAMMA=   0.3191
  1.5431  0.4365  0.3600  0.1561  0.1561  0.1358  0.1358  0.1142  0.0860  0.0676

 Free energy of the ion-electron system (eV)
  ---------------------------------------------------
  alpha Z        PSCENC =        75.25431677
  Ewald energy   TEWEN  =    139280.05264454
  -Hartree energ DENC   =   -183345.97141236
  -exchange      EXHF   =         0.00000000
  -V(xc)+E(xc)   XCENC  =     -1693.26062341
  PAW double counting   =     46355.40920011   -42837.36768632
  entropy T*S    EENTRO =        -0.12361562
  eigenvalues    EBANDS =     -3098.07237252
  atomic energy  EATOM  =     45086.50549395
  Solvation  Ediel_sol  =         0.00000000
  ---------------------------------------------------
  free energy    TOTEN  =      -177.57405485 eV

  energy without entropy =     -177.45043923  energy(sigma->0) =     -177.54315095


--------------------------------------------------------------------------------------------------------




--------------------------------------- Iteration      1(  16)  ---------------------------------------


    POTLOK:  cpu time   12.5222: real time   12.5251
    SETDIJ:  cpu time    0.1180: real time    0.1180
    EDDIAG:  cpu time   64.5892: real time   64.5886
  RMM-DIIS:  cpu time  172.2371: real time  172.2403
    ORTHCH:  cpu time   12.9565: real time   12.9577
       DOS:  cpu time    0.0015: real time    0.0015
    CHARGE:  cpu time   24.2112: real time   24.2145
    MIXING:  cpu time    0.7849: real time    0.7849
    --------------------------------------------
      LOOP:  cpu time  287.4205: real time  287.4306

 eigenvalue-minimisations  :   708
 total energy-change (2. order) : 0.1438517E+01  (-0.1135971E+00)
 number of electron     559.9999863 magnetization 
 augmentation part      241.1419983 magnetization 

 Broyden mixing:
  rms(total) = 0.10695E+01    rms(broyden)= 0.10692E+01
  rms(prec ) = 0.12263E+01
  weight for this iteration     100.00

 eigenvalues of (default mixing * dielectric matrix)
  average eigenvalue GAMMA=   0.3179
  1.6277  0.4319  0.4319  0.1701  0.1701  0.1462  0.1462  0.1134  0.1134  0.0792
  0.0663

 Free energy of the ion-electron system (eV)
  ---------------------------------------------------
  alpha Z        PSCENC =        75.25431677
  Ewald energy   TEWEN  =    139280.05264454
  -Hartree energ DENC   =   -183372.95324633
  -exchange      EXHF   =         0.00000000
  -V(xc)+E(xc)   XCENC  =     -1692.87260452
  PAW double counting   =     46400.57449766   -42880.77481508
  entropy T*S    EENTRO =        -0.08103471
  eigenvalues    EBANDS =     -3071.84078993
  atomic energy  EATOM  =     45086.50549395
  Solvation  Ediel_sol  =         0.00000000
  ---------------------------------------------------
  free energy    TOTEN  =      -176.13553766 eV

  energy without entropy =     -176.05450295  energy(sigma->0) =     -176.11527899


--------------------------------------------------------------------------------------------------------




--------------------------------------- Iteration      1(  17)  ---------------------------------------


    POTLOK:  cpu time   12.5156: real time   12.5193
    SETDIJ:  cpu time    0.1160: real time    0.1161
    EDDIAG:  cpu time   64.4022: real time   64.4097
  RMM-DIIS:  cpu time  172.1243: real time  172.1390
    ORTHCH:  cpu time   13.0194: real time   13.0199
       DOS:  cpu time    0.0015: real time    0.0015
    CHARGE:  cpu time   24.2833: real time   24.2865
    MIXING:  cpu time    0.8267: real time    0.8267
    --------------------------------------------
      LOOP:  cpu time  287.2890: real time  287.3187

 eigenvalue-minimisations  :   705
 total energy-change (2. order) : 0.2433216E+00  (-0.6753552E-01)
 number of electron     559.9999879 magnetization 
 augmentation part      241.2339280 magnetization 

 Broyden mixing:
  rms(total) = 0.13318E+01    rms(broyden)= 0.13315E+01
  rms(prec ) = 0.16250E+01
  weight for this iteration     100.00

 eigenvalues of (default mixing * dielectric matrix)
  average eigenvalue GAMMA=   0.3023
  1.6379  0.4433  0.4433  0.1872  0.1872  0.1473  0.1473  0.1154  0.1154  0.0746
  0.0646  0.0646

 Free energy of the ion-electron system (eV)
  ---------------------------------------------------
  alpha Z        PSCENC =        75.25431677
  Ewald energy   TEWEN  =    139280.05264454
  -Hartree energ DENC   =   -183388.12333394
  -exchange      EXHF   =         0.00000000
  -V(xc)+E(xc)   XCENC  =     -1692.58421942
  PAW double counting   =     46429.57748048   -42908.45068510
  entropy T*S    EENTRO =         0.02520188
  eigenvalues    EBANDS =     -3058.14911527
  atomic energy  EATOM  =     45086.50549395
  Solvation  Ediel_sol  =         0.00000000
  ---------------------------------------------------
  free energy    TOTEN  =      -175.89221611 eV

  energy without entropy =     -175.91741799  energy(sigma->0) =     -175.89851658


--------------------------------------------------------------------------------------------------------




--------------------------------------- Iteration      1(  18)  ---------------------------------------


    POTLOK:  cpu time   12.5854: real time   12.5886
    SETDIJ:  cpu time    0.1168: real time    0.1168
    EDDIAG:  cpu time   64.5619: real time   64.5668
  RMM-DIIS:  cpu time  175.4275: real time  175.4260
    ORTHCH:  cpu time   13.1907: real time   13.1905
       DOS:  cpu time    0.0014: real time    0.0014
    CHARGE:  cpu time   24.5062: real time   24.5058
    MIXING:  cpu time    0.8856: real time    0.8856
    --------------------------------------------
      LOOP:  cpu time  291.2755: real time  291.2816

 eigenvalue-minimisations  :   719
 total energy-change (2. order) : 0.3610338E+00  (-0.2123045E-01)
 number of electron     559.9999873 magnetization 
 augmentation part      241.2410319 magnetization 

 Broyden mixing:
  rms(total) = 0.85521E+00    rms(broyden)= 0.85500E+00
  rms(prec ) = 0.99912E+00
  weight for this iteration     100.00

 eigenvalues of (default mixing * dielectric matrix)
  average eigenvalue GAMMA=   0.3052
  1.6538  0.5084  0.5084  0.2814  0.1504  0.1504  0.1757  0.1229  0.1229  0.0919
  0.0919  0.0672  0.0418

 Free energy of the ion-electron system (eV)
  ---------------------------------------------------
  alpha Z        PSCENC =        75.25431677
  Ewald energy   TEWEN  =    139280.05264454
  -Hartree energ DENC   =   -183392.98900415
  -exchange      EXHF   =         0.00000000
  -V(xc)+E(xc)   XCENC  =     -1692.48816798
  PAW double counting   =     46435.41067056   -42913.89858862
  entropy T*S    EENTRO =        -0.02591649
  eigenvalues    EBANDS =     -3053.35263087
  atomic energy  EATOM  =     45086.50549395
  Solvation  Ediel_sol  =         0.00000000
  ---------------------------------------------------
  free energy    TOTEN  =      -175.53118230 eV

  energy without entropy =     -175.50526580  energy(sigma->0) =     -175.52470317


--------------------------------------------------------------------------------------------------------




--------------------------------------- Iteration      1(  19)  ---------------------------------------


    POTLOK:  cpu time   12.6213: real time   12.6241
    SETDIJ:  cpu time    0.1178: real time    0.1178
    EDDIAG:  cpu time   65.1096: real time   65.1092
  RMM-DIIS:  cpu time  170.9475: real time  170.9464
    ORTHCH:  cpu time   13.1081: real time   13.1079
       DOS:  cpu time    0.0014: real time    0.0014
    CHARGE:  cpu time   24.5323: real time   24.5321
    MIXING:  cpu time    0.9338: real time    0.9337
    --------------------------------------------
      LOOP:  cpu time  287.3718: real time  287.3727

 eigenvalue-minimisations  :   698
 total energy-change (2. order) : 0.1333244E+00  (-0.3366626E-01)
 number of electron     559.9999877 magnetization 
 augmentation part      241.1697792 magnetization 

 Broyden mixing:
  rms(total) = 0.86226E+00    rms(broyden)= 0.86207E+00
  rms(prec ) = 0.10261E+01
  weight for this iteration     100.00

 eigenvalues of (default mixing * dielectric matrix)
  average eigenvalue GAMMA=   0.3138
  1.6629  0.6382  0.6382  0.3094  0.1892  0.1576  0.1576  0.1276  0.1276  0.0936
  0.0936  0.0906  0.0666  0.0408

 Free energy of the ion-electron system (eV)
  ---------------------------------------------------
  alpha Z        PSCENC =        75.25431677
  Ewald energy   TEWEN  =    139280.05264454
  -Hartree energ DENC   =   -183411.81694687
  -exchange      EXHF   =         0.00000000
  -V(xc)+E(xc)   XCENC  =     -1692.24804148
  PAW double counting   =     46450.41352643   -42927.77236066
  entropy T*S    EENTRO =         0.00002306
  eigenvalues    EBANDS =     -3035.78651361
  atomic energy  EATOM  =     45086.50549395
  Solvation  Ediel_sol  =         0.00000000
  ---------------------------------------------------
  free energy    TOTEN  =      -175.39785787 eV

  energy without entropy =     -175.39788092  energy(sigma->0) =     -175.39786363


--------------------------------------------------------------------------------------------------------




--------------------------------------- Iteration      1(  20)  ---------------------------------------


    POTLOK:  cpu time   12.6868: real time   12.6892
    SETDIJ:  cpu time    0.1171: real time    0.1171
    EDDIAG:  cpu time   64.9852: real time   64.9848
  RMM-DIIS:  cpu time  171.2536: real time  171.2567
    ORTHCH:  cpu time   12.9912: real time   12.9910
       DOS:  cpu time    0.0015: real time    0.0015
    CHARGE:  cpu time   24.0097: real time   24.0095
    MIXING:  cpu time    0.9758: real time    0.9758
    --------------------------------------------
      LOOP:  cpu time  287.0210: real time  287.0257

 eigenvalue-minimisations  :   696
 total energy-change (2. order) : 0.9812314E-01  (-0.2776411E-01)
 number of electron     559.9999873 magnetization 
 augmentation part      241.2136063 magnetization 

 Broyden mixing:
  rms(total) = 0.79252E+00    rms(broyden)= 0.79232E+00
  rms(prec ) = 0.91798E+00
  weight for this iteration     100.00

 eigenvalues of (default mixing * dielectric matrix)
  average eigenvalue GAMMA=   0.3180
  1.6672  0.7242  0.7242  0.3888  0.1614  0.1614  0.1475  0.1475  0.1469  0.1143
  0.1143  0.0826  0.0826  0.0661  0.0401

 Free energy of the ion-electron system (eV)
  ---------------------------------------------------
  alpha Z        PSCENC =        75.25431677
  Ewald energy   TEWEN  =    139280.05264454
  -Hartree energ DENC   =   -183424.60803417
  -exchange      EXHF   =         0.00000000
  -V(xc)+E(xc)   XCENC  =     -1692.04926156
  PAW double counting   =     46458.14802890   -42934.58591039
  entropy T*S    EENTRO =        -0.04022298
  eigenvalues    EBANDS =     -3023.97678979
  atomic energy  EATOM  =     45086.50549395
  Solvation  Ediel_sol  =         0.00000000
  ---------------------------------------------------
  free energy    TOTEN  =      -175.29973473 eV

  energy without entropy =     -175.25951175  energy(sigma->0) =     -175.28967898


--------------------------------------------------------------------------------------------------------




--------------------------------------- Iteration      1(  21)  ---------------------------------------


    POTLOK:  cpu time   12.6739: real time   12.6774
    SETDIJ:  cpu time    0.1215: real time    0.1215
    EDDIAG:  cpu time   64.9417: real time   64.9417
  RMM-DIIS:  cpu time  171.5477: real time  171.5500
    ORTHCH:  cpu time   13.0136: real time   13.0138
       DOS:  cpu time    0.0015: real time    0.0015
    CHARGE:  cpu time   24.1187: real time   24.1185
    MIXING:  cpu time    1.0254: real time    1.0254
    --------------------------------------------
      LOOP:  cpu time  287.4441: real time  287.4497

 eigenvalue-minimisations  :   699
 total energy-change (2. order) : 0.1036586E+00  (-0.2630955E-01)
 number of electron     559.9999879 magnetization 
 augmentation part      241.2207050 magnetization 

 Broyden mixing:
  rms(total) = 0.65403E+00    rms(broyden)= 0.65384E+00
  rms(prec ) = 0.74180E+00
  weight for this iteration     100.00

 eigenvalues of (default mixing * dielectric matrix)
  average eigenvalue GAMMA=   0.3272
  1.6427  0.8085  0.8085  0.5385  0.2082  0.2082  0.1528  0.1528  0.1268  0.1268
  0.0921  0.0921  0.0919  0.0790  0.0662  0.0402

 Free energy of the ion-electron system (eV)
  ---------------------------------------------------
  alpha Z        PSCENC =        75.25431677
  Ewald energy   TEWEN  =    139280.05264454
  -Hartree energ DENC   =   -183435.70435443
  -exchange      EXHF   =         0.00000000
  -V(xc)+E(xc)   XCENC  =     -1691.89881863
  PAW double counting   =     46462.36701673   -42938.09553585
  entropy T*S    EENTRO =         0.00703921
  eigenvalues    EBANDS =     -3013.68387840
  atomic energy  EATOM  =     45086.50549395
  Solvation  Ediel_sol  =         0.00000000
  ---------------------------------------------------
  free energy    TOTEN  =      -175.19607610 eV

  energy without entropy =     -175.20311531  energy(sigma->0) =     -175.19783591


--------------------------------------------------------------------------------------------------------




--------------------------------------- Iteration      1(  22)  ---------------------------------------


    POTLOK:  cpu time   12.5347: real time   12.5373
    SETDIJ:  cpu time    0.1173: real time    0.1173
    EDDIAG:  cpu time   64.7132: real time   64.7127
  RMM-DIIS:  cpu time  173.4044: real time  173.4047
    ORTHCH:  cpu time   13.2649: real time   13.2648
       DOS:  cpu time    0.0015: real time    0.0015
    CHARGE:  cpu time   24.8027: real time   24.8025
    MIXING:  cpu time    1.1332: real time    1.1332
    --------------------------------------------
      LOOP:  cpu time  289.9719: real time  289.9741

 eigenvalue-minimisations  :   699
 total energy-change (2. order) :-0.6246709E-01  (-0.2085879E-01)
 number of electron     559.9999871 magnetization 
 augmentation part      241.1785418 magnetization 

 Broyden mixing:
  rms(total) = 0.81987E+00    rms(broyden)= 0.81970E+00
  rms(prec ) = 0.97896E+00
  weight for this iteration     100.00

 eigenvalues of (default mixing * dielectric matrix)
  average eigenvalue GAMMA=   0.3400
  1.6514  0.9782  0.9782  0.5756  0.2381  0.2381  0.1551  0.1551  0.1292  0.1292
  0.0986  0.0986  0.0897  0.0897  0.0694  0.0651  0.0402

 Free energy of the ion-electron system (eV)
  ---------------------------------------------------
  alpha Z        PSCENC =        75.25431677
  Ewald energy   TEWEN  =    139280.05264454
  -Hartree energ DENC   =   -183452.54066878
  -exchange      EXHF   =         0.00000000
  -V(xc)+E(xc)   XCENC  =     -1691.73590436
  PAW double counting   =     46465.84568262   -42940.85412707
  entropy T*S    EENTRO =         0.00849213
  eigenvalues    EBANDS =     -2997.79447299
  atomic energy  EATOM  =     45086.50549395
  Solvation  Ediel_sol  =         0.00000000
  ---------------------------------------------------
  free energy    TOTEN  =      -175.25854320 eV

  energy without entropy =     -175.26703533  energy(sigma->0) =     -175.26066623


--------------------------------------------------------------------------------------------------------




--------------------------------------- Iteration      1(  23)  ---------------------------------------


    POTLOK:  cpu time   12.9777: real time   12.9785
    SETDIJ:  cpu time    0.1180: real time    0.1180
    EDDIAG:  cpu time   65.9591: real time   65.9601
  RMM-DIIS:  cpu time  174.4062: real time  174.4106
    ORTHCH:  cpu time   12.9938: real time   12.9937
       DOS:  cpu time    0.0015: real time    0.0015
    CHARGE:  cpu time   24.0708: real time   24.0707
    MIXING:  cpu time    1.1585: real time    1.1585
    --------------------------------------------
      LOOP:  cpu time  291.6857: real time  291.6916

 eigenvalue-minimisations  :   701
 total energy-change (2. order) :-0.5014405E-01  (-0.2046907E-01)
 number of electron     559.9999873 magnetization 
 augmentation part      241.2040208 magnetization 

 Broyden mixing:
  rms(total) = 0.82030E+00    rms(broyden)= 0.82011E+00
  rms(prec ) = 0.96518E+00
  weight for this iteration     100.00

 eigenvalues of (default mixing * dielectric matrix)
  average eigenvalue GAMMA=   0.3430
[...]
 -0.006  -0.012   0.004   0.004   0.005  -0.006  -0.012   0.004
 -0.011  -0.021   0.006   0.007   0.009  -0.010  -0.020   0.006
 -0.015  -0.005   0.012   0.000   0.022  -0.014  -0.005   0.012
  0.000  -0.023  -0.006  -0.015  -0.000   0.000  -0.022  -0.006
 -0.022   0.000   0.009  -0.005  -0.016  -0.021   0.000   0.008
 -0.018  -0.006   0.015   0.000   0.027  -0.017  -0.006   0.015
  0.000  -0.027  -0.007  -0.018   0.000   0.000  -0.026  -0.007
 -0.027   0.000   0.010  -0.006  -0.019  -0.026   0.000   0.010
 total augmentation occupancy for first ion, spin component:           1
  1.540  -0.030   0.005   0.017   0.024   0.075  -0.008  -0.002   0.035  -0.010   0.095  -0.031   0.012   0.002   0.003  -0.019
 -0.030   1.404   0.031   0.070  -0.001  -0.007   0.070   0.011  -0.014  -0.007   0.220  -0.067   0.019   0.001   0.003  -0.006
  0.005   0.031   1.544   0.003   0.003  -0.001   0.012   0.073  -0.013   0.017  -0.051   0.017  -0.003  -0.007  -0.005   0.016
  0.017   0.070   0.003   1.342   0.044   0.033  -0.013  -0.013   0.090  -0.023  -0.085   0.021  -0.001  -0.009  -0.004   0.001
  0.024  -0.001   0.003   0.044   1.440  -0.010  -0.008   0.016  -0.022   0.067  -0.093   0.031  -0.003  -0.010  -0.009   0.026
  0.075  -0.007  -0.001   0.033  -0.010   0.216   0.019  -0.002  -0.045   0.004  -0.049   0.002   0.017  -0.010   0.034  -0.004
 -0.008   0.070   0.012  -0.013  -0.008   0.019   0.262  -0.023  -0.003   0.005  -0.109   0.007  -0.001   0.051  -0.010  -0.000
 -0.002   0.011   0.073  -0.013   0.016  -0.002  -0.023   0.214   0.014  -0.019   0.028  -0.001  -0.012   0.009  -0.018   0.003
  0.035  -0.014  -0.013   0.090  -0.022  -0.045  -0.003   0.014   0.260   0.007   0.044  -0.004  -0.009   0.036   0.004   0.000
 -0.010  -0.007   0.017  -0.023   0.067   0.004   0.005  -0.019   0.007   0.257   0.046  -0.003  -0.038   0.002   0.049   0.007
  0.095   0.220  -0.051  -0.085  -0.093  -0.049  -0.109   0.028   0.044   0.046   0.952  -0.141   0.083   0.014   0.064  -0.013
 -0.031  -0.067   0.017   0.021   0.031   0.002   0.007  -0.001  -0.004  -0.003  -0.141   0.023  -0.014  -0.003  -0.010   0.003
  0.012   0.019  -0.003  -0.001  -0.003   0.017  -0.001  -0.012  -0.009  -0.038   0.083  -0.014   0.029  -0.008  -0.004  -0.003
  0.002   0.001  -0.007  -0.009  -0.010  -0.010   0.051   0.009   0.036   0.002   0.014  -0.003  -0.008   0.036   0.004   0.000
  0.003   0.003  -0.005  -0.004  -0.009   0.034  -0.010  -0.018   0.004   0.049   0.064  -0.010  -0.004   0.004   0.034  -0.000
 -0.019  -0.006   0.016   0.001   0.026  -0.004  -0.000   0.003   0.000   0.007  -0.013   0.003  -0.003   0.000  -0.000   0.001
  0.001  -0.028  -0.007  -0.018   0.001   0.001  -0.008  -0.001  -0.006  -0.000  -0.003   0.001   0.000  -0.003  -0.000   0.000
 -0.028   0.001   0.012  -0.005  -0.020  -0.006   0.001   0.003  -0.001  -0.007  -0.008   0.001  -0.000  -0.000  -0.003   0.000


------------------------ aborting loop because EDIFF is reached ----------------------------------------


    CHARGE:  cpu time   25.6143: real time   25.6142
    FORLOC:  cpu time    6.7673: real time    6.7673
    FORNL :  cpu time   66.5914: real time   66.5912
    STRESS:  cpu time  200.8747: real time  200.8756
    FORCOR:  cpu time   21.8715: real time   21.8761
    FORHAR:  cpu time    9.7856: real time    9.7857
    MIXING:  cpu time    3.5170: real time    3.5170
    OFIELD:  cpu time    0.0000: real time    0.0000

  FORCE on cell =-STRESS in cart. coord.  units (eV):
  Direction    XX          YY          ZZ          XY          YZ          ZX
  --------------------------------------------------------------------------------------
  Alpha Z    75.25432    75.25432    75.25432
  Ewald   49665.78693 44420.08982 45194.07008  -285.02302  -319.79723   840.40716
  Hartree 64263.79098 59353.28884 60008.31361  -315.80975  -219.10624   828.07298
  E(xc)   -2906.26361 -2907.27218 -2906.95825     0.14300    -0.59747    -0.00975
  Local  ************************************   607.02458   527.21718 -1667.71045
  n-local  -881.43130  -876.99563  -877.07826     5.76382    -3.18367    -7.51576
  augment  4103.21161  4102.84745  4103.09480    -3.85431     3.77916     4.07851
  Kinetic  7804.00494  7818.35108  7816.07402    -5.48959     8.57940     3.86944
  Fock        0.00000     0.00000     0.00000     0.00000     0.00000     0.00000
  -------------------------------------------------------------------------------------
  Total     -97.01123  -110.91633  -107.66609     2.75474    -3.10886     1.19213
  in kB      -5.75664    -6.58176    -6.38890     0.16347    -0.18448     0.07074
  external pressure =       -6.24 kB  Pullay stress =        0.00 kB


 VOLUME and BASIS-vectors are now :
 -----------------------------------------------------------------------------
  energy-cutoff  :      400.00
  volume of cell :    27000.00
      direct lattice vectors                 reciprocal lattice vectors
    30.000000000  0.000000000  0.000000000     0.033333333  0.000000000  0.000000000
     0.000000000 30.000000000  0.000000000     0.000000000  0.033333333  0.000000000
     0.000000000  0.000000000 30.000000000     0.000000000  0.000000000  0.033333333

  length of vectors
    30.000000000 30.000000000 30.000000000     0.033333333  0.033333333  0.033333333


 FORCES acting on ions
    electron-ion (+dipol)            ewald-force                    non-local-force                 convergence-correction
 -----------------------------------------------------------------------------------------------
   0.402E+03 0.975E+03 0.420E+03   -.399E+03 -.972E+03 -.420E+03   -.150E+01 -.182E+01 -.217E+00   0.139E-01 0.362E-02 0.906E-04
   -.954E+03 -.415E+03 0.456E+03   0.951E+03 0.412E+03 -.456E+03   0.179E+01 0.161E+01 -.285E+00   -.306E-03 -.819E-02 0.256E-03
   -.381E+03 0.980E+03 0.426E+03   0.379E+03 -.978E+03 -.426E+03   0.149E+01 -.184E+01 -.240E+00   -.452E-02 0.105E-01 -.906E-03
   0.974E+03 -.395E+03 0.418E+03   -.971E+03 0.393E+03 -.418E+03   -.183E+01 0.150E+01 -.209E+00   -.715E-03 -.224E-03 0.179E-02
   0.819E+01 0.589E+03 0.971E+03   -.821E+01 -.588E+03 -.968E+03   0.943E-02 -.292E+00 -.234E+01   0.813E-02 0.271E-02 0.766E-02
   0.174E+02 0.593E+03 -.971E+03   -.174E+02 -.592E+03 0.967E+03   0.589E-02 -.323E+00 0.236E+01   -.171E-02 -.123E-02 -.638E-02
   0.104E+02 0.114E+04 0.305E+01   -.104E+02 -.114E+04 -.307E+01   0.111E-01 -.311E+01 0.100E-01   0.678E-03 0.621E-02 -.140E-02
   0.113E+04 -.420E+00 0.119E+01   -.113E+04 0.413E+00 -.117E+01   -.312E+01 0.389E-02 -.163E-01   -.985E-03 0.711E-03 0.341E-02
   -.111E+04 -.996E+02 0.284E+03   0.110E+04 0.987E+02 -.281E+03   0.344E+01 0.145E+01 -.426E+01   -.468E-02 -.186E-02 -.771E-02
   0.759E+01 -.114E+04 0.226E+01   -.760E+01 0.114E+04 -.228E+01   0.996E-02 0.310E+01 0.128E-01   -.165E-02 0.314E-02 0.137E-02
   -.568E+03 0.584E+03 0.828E+03   0.566E+03 -.582E+03 -.825E+03   0.154E+01 -.157E+01 -.218E+01   -.814E-02 0.245E-02 0.722E-02
   -.544E+03 0.602E+03 -.838E+03   0.541E+03 -.600E+03 0.834E+03   0.160E+01 -.168E+01 0.241E+01   -.371E-03 -.190E-02 -.299E-02
   0.582E+03 -.580E+03 0.815E+03   -.579E+03 0.577E+03 -.812E+03   -.156E+01 0.156E+01 -.220E+01   -.224E-03 -.186E-03 -.404E-02
   0.584E+03 -.581E+03 -.814E+03   -.582E+03 0.579E+03 0.811E+03   -.155E+01 0.156E+01 0.221E+01   -.341E-02 -.310E-02 0.684E-04
   0.582E+03 0.579E+03 0.815E+03   -.580E+03 -.577E+03 -.812E+03   -.156E+01 -.156E+01 -.220E+01   0.132E-01 -.276E-02 0.156E-02
   0.585E+03 0.580E+03 -.814E+03   -.583E+03 -.578E+03 0.811E+03   -.156E+01 -.156E+01 0.221E+01   0.321E-02 -.143E-02 -.209E-02
   -.570E+03 -.586E+03 0.825E+03   0.568E+03 0.583E+03 -.822E+03   0.154E+01 0.155E+01 -.217E+01   0.500E-02 -.859E-02 0.169E-02
   -.556E+03 -.602E+03 -.828E+03   0.553E+03 0.599E+03 0.825E+03   0.156E+01 0.157E+01 0.225E+01   0.150E-02 -.391E-02 -.521E-03
   0.405E+03 0.976E+03 -.416E+03   -.403E+03 -.973E+03 0.416E+03   -.150E+01 -.182E+01 0.227E+00   0.546E-02 -.218E-02 -.505E-02
   -.879E+03 -.516E+03 -.445E+03   0.876E+03 0.514E+03 0.445E+03   0.169E+01 0.129E+01 0.988E-01   -.109E-02 -.503E-02 -.592E-02
   -.299E+03 0.325E+03 0.471E+03   0.300E+03 -.325E+03 -.471E+03   -.382E+00 0.340E+00 0.477E+00   -.318E-02 -.487E-02 -.583E-03
   0.974E+03 0.394E+03 0.418E+03   -.971E+03 -.392E+03 -.418E+03   -.184E+01 -.149E+01 -.215E+00   0.418E-02 -.304E-02 -.777E-03
   -.384E+03 -.980E+03 0.423E+03   0.382E+03 0.977E+03 -.423E+03   0.150E+01 0.182E+01 -.228E+00   0.431E-02 -.378E-02 -.892E-03
   -.372E+03 0.988E+03 -.418E+03   0.370E+03 -.985E+03 0.417E+03   0.145E+01 -.186E+01 0.226E+00   -.563E-02 0.101E-03 -.851E-02
   0.975E+03 -.395E+03 -.416E+03   -.972E+03 0.393E+03 0.415E+03   -.184E+01 0.150E+01 0.218E+00   0.407E-02 0.183E-02 0.489E-02
   -.949E+03 0.405E+03 0.468E+03   0.946E+03 -.402E+03 -.468E+03   0.185E+01 -.157E+01 -.164E+00   -.819E-02 0.143E-02 -.589E-03
   0.400E+03 -.975E+03 0.419E+03   -.398E+03 0.972E+03 -.419E+03   -.150E+01 0.182E+01 -.220E+00   -.150E-02 0.108E-02 0.127E-02
   0.331E+03 0.322E+03 0.458E+03   -.332E+03 -.322E+03 -.459E+03   0.380E+00 0.368E+00 0.528E+00   0.208E-01 -.631E-02 0.310E-03
   0.196E+02 0.646E+03 0.567E+01   -.196E+02 -.647E+03 -.567E+01   -.156E-01 0.718E+00 0.107E-01   0.552E-02 0.110E-02 -.747E-02
   -.575E+03 -.212E+01 0.984E+03   0.574E+03 0.211E+01 -.980E+03   0.279E+00 0.144E-01 -.238E+01   -.228E-02 -.811E-02 0.976E-02
   -.534E+03 -.104E+02 -.101E+04   0.533E+03 0.104E+02 0.100E+04   0.379E+00 0.594E-02 0.230E+01   -.278E-02 -.301E-02 -.384E-02
   0.591E+03 -.452E+00 0.967E+03   -.590E+03 0.457E+00 -.964E+03   -.316E+00 0.896E-03 -.236E+01   0.783E-02 -.599E-02 -.168E-02
   0.594E+03 -.706E+00 -.966E+03   -.593E+03 0.705E+00 0.963E+03   -.282E+00 -.168E-02 0.236E+01   0.246E-02 0.255E-02 -.726E-03
   0.767E+03 0.762E+03 0.193E+01   -.765E+03 -.760E+03 -.193E+01   -.114E+01 -.115E+01 -.751E-03   0.133E-01 -.300E-02 0.162E-03
   -.735E+03 -.789E+03 0.140E+02   0.733E+03 0.787E+03 -.140E+02   0.118E+01 0.114E+01 0.899E-02   0.317E-02 -.112E-01 -.390E-02
   -.718E+03 0.794E+03 0.236E+02   0.716E+03 -.792E+03 -.236E+02   0.123E+01 -.111E+01 0.128E-02   -.753E-02 0.364E-02 -.881E-02
   0.766E+03 -.763E+03 0.171E+01   -.764E+03 0.761E+03 -.171E+01   -.114E+01 0.114E+01 -.778E-02   -.279E-03 -.208E-02 0.666E-02
   0.895E+01 -.927E+00 0.108E+04   -.899E+01 0.941E+00 -.107E+04   0.244E-01 -.137E-02 -.162E+01   0.797E-02 -.140E-01 0.583E-02
   0.208E+02 -.210E+01 -.108E+04   -.207E+02 0.211E+01 0.107E+04   -.520E-01 0.661E-02 0.163E+01   -.237E-02 -.219E-02 -.493E-02
   0.975E+03 0.394E+03 -.416E+03   -.973E+03 -.392E+03 0.416E+03   -.184E+01 -.150E+01 0.221E+00   0.333E-02 0.123E-02 0.436E-02
   -.379E+03 -.985E+03 -.417E+03   0.377E+03 0.983E+03 0.417E+03   0.146E+01 0.184E+01 0.226E+00   0.147E-03 -.295E-02 -.159E-02
   -.273E+03 0.330E+03 -.457E+03   0.274E+03 -.331E+03 0.458E+03   -.451E+00 0.439E+00 -.612E+00   -.428E-02 0.622E-03 -.105E-01
   0.330E+03 -.323E+03 0.458E+03   -.331E+03 0.324E+03 -.459E+03   0.374E+00 -.371E+00 0.532E+00   0.927E-02 -.122E-01 0.368E-02
   0.336E+03 0.322E+03 -.453E+03   -.337E+03 -.323E+03 0.454E+03   0.383E+00 0.371E+00 -.522E+00   0.795E-02 -.442E-03 -.367E-02
   -.706E+03 0.552E+03 -.513E+03   0.706E+03 -.548E+03 0.511E+03   -.498E+01 -.634E+01 0.362E+01   -.154E-02 -.165E-02 -.638E-02
   0.402E+03 -.977E+03 -.416E+03   -.400E+03 0.974E+03 0.416E+03   -.149E+01 0.182E+01 0.230E+00   -.635E-02 -.335E-02 0.149E-02
   -.302E+03 -.329E+03 0.468E+03   0.303E+03 0.329E+03 -.469E+03   -.404E+00 -.325E+00 0.464E+00   0.566E-02 -.182E-01 0.207E-02
   0.647E+03 -.760E+00 0.215E+01   -.648E+03 0.757E+00 -.215E+01   0.709E+00 0.353E-02 -.621E-02   0.109E-01 -.142E-02 0.375E-02
   -.564E+03 -.149E+02 0.424E+02   0.564E+03 0.150E+02 -.427E+02   -.310E+00 -.104E+00 0.298E+00   -.506E-02 -.593E-02 -.971E-02
   0.703E+01 -.590E+03 0.970E+03   -.705E+01 0.589E+03 -.967E+03   0.118E-01 0.294E+00 -.235E+01   0.459E-02 -.722E-02 -.385E-02
   0.139E+02 -.594E+03 -.969E+03   -.139E+02 0.593E+03 0.966E+03   -.121E-01 0.322E+00 0.235E+01   -.559E-02 -.665E-02 -.105E-02
   0.242E+02 -.244E+01 0.698E+01   -.241E+02 0.245E+01 -.697E+01   -.206E-01 0.448E-02 -.287E-02   0.721E-02 -.104E-01 -.325E-02
   0.335E+03 -.325E+03 -.453E+03   -.335E+03 0.325E+03 0.454E+03   0.384E+00 -.372E+00 -.523E+00   0.118E-02 -.640E-02 -.359E-04
   -.283E+03 -.338E+03 -.456E+03   0.284E+03 0.338E+03 0.457E+03   -.381E+00 -.382E+00 -.534E+00   -.351E-02 -.113E-01 -.705E-02
   0.154E+02 -.647E+03 0.449E+01   -.154E+02 0.648E+03 -.450E+01   -.161E-02 -.732E+00 0.648E-02   0.124E-02 -.125E-01 0.354E-02
   -.276E+03 0.139E+02 -.858E+02   0.258E+03 -.107E+02 0.797E+02   0.122E+02 -.436E+00 0.268E+01   -.454E-03 -.968E-03 -.288E-02
   -.870E+03 0.109E+03 -.288E+03   0.934E+03 -.116E+03 0.309E+03   -.547E+02 0.623E+01 -.174E+02   -.113E-02 -.924E-03 -.305E-02
 -----------------------------------------------------------------------------------------------
   0.487E+02 -.194E+01 0.154E+02   -.455E-12 -.227E-12 -.159E-11   -.488E+02 0.210E+01 -.153E+02   0.866E-01 -.168E+00 -.598E-01
 
 
 POSITION                                       TOTAL-FORCE (eV/Angst)
 -----------------------------------------------------------------------------------
     13.37281      9.84801     12.50759         0.703192      1.106159      0.294611
     20.15199     16.62719     12.50759        -1.166142     -0.684756      0.200573
     16.62719      9.84801     12.50759        -0.714350      1.102351      0.287155
      9.84801     16.62719     12.50759         1.111821     -0.697711      0.283551
     15.00000     11.47521     10.20639        -0.007287      0.409250      1.280431
     15.00000     11.47521     19.79360         0.002960      0.419965     -1.275698
     15.00000      8.28283     15.00000        -0.002829      1.519089     -0.004148
      8.28283     15.00000     15.00000         1.513340     -0.001636      0.009701
     21.71717     15.00000     15.00000        -1.626130      0.576462     -1.492324
     15.00000     21.71717     15.00000        -0.002762     -1.518758     -0.004874
     18.35858     11.64142     10.25025        -0.757391      0.755618      1.064075
     18.35858     11.64142     19.74975        -0.781194      0.730466     -1.043010
     11.64142     18.35858     10.25025         0.757176     -0.753605      1.070686
     11.64142     18.35858     19.74975         0.754917     -0.756730     -1.073746
     11.64142     11.64142     10.25025         0.754516      0.753409      1.069607
     11.64142     11.64142     19.74975         0.756191      0.755395     -1.073883
     18.35858     18.35858     10.25025        -0.757619     -0.748206      1.061791
     18.35858     18.35858     19.74975        -0.755431     -0.759254     -1.083802
     13.37281      9.84801     17.49241         0.706311      1.106295     -0.295687
     20.15199     16.62719     17.49241        -0.985641     -0.882101     -0.254646
     16.73751     13.26249     12.54279         0.114253     -0.102460     -0.160399
      9.84801     13.37281     12.50759         1.112347      0.696003      0.286061
     16.62719     20.15199     12.50759        -0.711409     -1.107090      0.292087
     16.62719      9.84801     17.49241        -0.704236      1.110688     -0.291883
      9.84801     16.62719     17.49241         1.114221     -0.695387     -0.283872
     20.15199     13.37281     12.50759        -1.164427      0.693196      0.185847
     13.37281     20.15199     12.50759         0.705180     -1.104518      0.293439
     13.26249     13.26249     12.54279        -0.107134     -0.110308     -0.145472
     15.00000     11.52498     15.00000         0.002104     -0.234219      0.002567
     18.52479     15.00000     10.20639        -0.383260     -0.007823      1.299946
     18.52479     15.00000     19.79360        -0.507772      0.022690     -1.200403
     11.47521     15.00000     10.20640         0.412406     -0.000453      1.276280
     11.47521     15.00000     19.79360         0.403269      0.000022     -1.286416
     11.49535     11.49535     15.00000         0.827692      0.827858     -0.000601
     18.50465     18.50465     15.00000        -0.855185     -0.803286     -0.016010
     18.50465     11.49535     15.00000        -0.871568      0.778475     -0.035172
     11.49535     18.50465     15.00000         0.829715     -0.826100      0.000679
     15.00000     15.00000     10.04368        -0.005223     -0.001240      1.184772
     15.00000     15.00000     19.95633         0.010230      0.005529     -1.177352
      9.84801     13.37281     17.49241         1.113310      0.695841     -0.285307
     16.62719     20.15199     17.49241        -0.703577     -1.110039     -0.290755
     16.73751     13.26249     17.45721         0.052762     -0.120173      0.165038
     13.26249     16.73751     12.54279        -0.107235      0.112221     -0.150854
     13.26249     13.26249     17.45721        -0.132767     -0.110946      0.153314
     20.15199     13.37281     17.49241        -4.865477     -1.764830      1.433171
     13.37281     20.15199     17.49241         0.702062     -1.107171     -0.295919
     16.73751     16.73751     12.54279         0.113153      0.104474     -0.150779
     11.52498     15.00000     15.00000        -0.231006     -0.001144      0.000764
     18.47502     15.00000     15.00000         0.054401      0.022060     -0.097671
     15.00000     18.52480     10.20639        -0.012399     -0.405591      1.279071
     15.00000     18.52480     19.79360         0.005461     -0.416783     -1.275062
     15.00000     15.00000     15.00000         0.013449      0.003457      0.004579
     13.26249     16.73751     17.45721        -0.121668      0.112172      0.149777
     16.73751     16.73751     17.45721         0.086158      0.114742      0.166911
     15.00000     18.47502     15.00000         0.000923      0.231385     -0.000149
     21.40183     14.36835     16.80109        -5.651203      2.765518     -3.349210
     22.48281     14.26169     17.10521         9.958801     -0.698473      3.298622
 -----------------------------------------------------------------------------------
    total drift:                                0.011993     -0.003172     -0.009797


--------------------------------------------------------------------------------------------------------



  FREE ENERGIE OF THE ION-ELECTRON SYSTEM (eV)
  ---------------------------------------------------
  free  energy   TOTEN  =      -174.87666517 eV

  energy  without entropy=     -174.82644777  energy(sigma->0) =     -174.86411082
 


--------------------------------------------------------------------------------------------------------


    POTLOK:  cpu time   14.0837: real time   14.0836


--------------------------------------------------------------------------------------------------------


     LOOP+:  cpu time17459.3807: real time17459.7199
    4ORBIT:  cpu time    0.0000: real time    0.0000

 total amount of memory used by VASP MPI-rank0  5486942. kBytes
=======================================================================

   base      :      30000. kBytes
   nonlr-proj:      17127. kBytes
   fftplans  :     924480. kBytes
   grid      :    1872000. kBytes
   one-center:        886. kBytes
   wavefun   :    2642449. kBytes
 
  
  
 General timing and accounting informations for this job:
 ========================================================
  
                  Total CPU time used (sec):    17529.783
                            User time (sec):    16569.843
                          System time (sec):      959.940
                         Elapsed time (sec):    17530.152
  
                   Maximum memory used (kb):     7178664.
                   Average memory used (kb):           0.
  
                          Minor page faults:    826489184
                          Major page faults:            0
                 Voluntary context switches:          524
