 vasp.5.4.4.18Apr17-6-g9f103f2a35 (build Sep 03 2018 23:53:05) complex          
  
 executed on             LinuxIFC date 2021.11.25  21:42:43
 running on    1 total cores
 distrk:  each k-point on    1 cores,    1 groups
 distr:  one band on NCORES_PER_BAND=   1 cores,    1 groups


--------------------------------------------------------------------------------------------------------


 INCAR:
 POTCAR:    PAW_PBE Pd 04Jan2005                  
 POTCAR:    PAW_PBE C 08Apr2002                   
 POTCAR:    PAW_PBE O 08Apr2002                   
 POTCAR:    PAW_PBE Pd 04Jan2005                  
   VRHFIN =Pd : s1 d9                                                           
   LEXCH  = PE                                                                  
   EATOM  =   809.7530 eV,   59.5152 Ry                                         
                                                                                
   TITEL  = PAW_PBE Pd 04Jan2005                                                
   LULTRA =        F    use ultrasoft PP ?                                      
   IUNSCR =        1    unscreen: 0-lin 1-nonlin 2-no                           
   RPACOR =    2.000    partial core radius                                     
   POMASS =  106.420; ZVAL   =   10.000    mass and valenz                      
   RCORE  =    2.600    outmost cutoff radius                                   
   RWIGS  =    2.710; RWIGS  =    1.434    wigner-seitz radius (au A)           
   ENMAX  =  250.925; ENMIN  =  188.194 eV                                      
   ICORE  =        3    local potential                                         
   LCOR   =        T    correct aug charges                                     
   LPAW   =        T    paw PP                                                  
   EAUG   =  416.230                                                            
   DEXC   =    0.000                                                            
   RMAX   =    2.653    core radius for proj-oper                               
   RAUG   =    1.300    factor for augmentation sphere                          
   RDEP   =    2.734    radius for radial grids                                 
   RDEPT  =    2.103    core radius for aug-charge                              
                                                                                
   Atomic configuration                                                         
   12 entries                                                                   
     n  l   j            E        occ.                                          
     1  0  0.50    -24164.6631   2.0000                                         
     2  0  0.50     -3530.9218   2.0000                                         
     2  1  1.50     -3165.6822   6.0000                                         
     3  0  0.50      -639.4577   2.0000                                         
     3  1  1.50      -519.4532   6.0000                                         
     3  2  2.50      -328.9757  10.0000                                         
     4  0  0.50       -88.7014   2.0000                                         
     4  1  1.50       -54.4540   6.0000                                         
     4  2  2.50        -6.6878   9.0000                                         
     5  0  0.50        -4.3543   1.0000                                         
     5  1  0.50        -1.3606   0.0000                                         
     4  3  2.50        -1.3606   0.0000                                         
   Description                                                                  
     l       E           TYP  RCUT    TYP  RCUT                                 
     2     -6.6878251     23  2.400                                             
     2     -8.0484077     23  2.400                                             
     0     -4.3542939     23  2.400                                             
     0      4.3406793     23  2.400                                             
     1     -4.0817478     23  2.600                                             
     1     15.8380318     23  2.600                                             
     3     -4.0817478     23  2.400                                             
  local pseudopotential read in
  partial core-charges read in
  partial kinetic energy density read in
  atomic valenz-charges read in
  non local Contribution for L=           2  read in
    real space projection operators read in
  non local Contribution for L=           2  read in
    real space projection operators read in
  non local Contribution for L=           0  read in
    real space projection operators read in
  non local Contribution for L=           0  read in
    real space projection operators read in
  non local Contribution for L=           1  read in
    real space projection operators read in
  non local Contribution for L=           1  read in
    real space projection operators read in
    PAW grid and wavefunctions read in
 
   number of l-projection  operators is LMAX  =           6
   number of lm-projection operators is LMMAX =          18
 
 POTCAR:    PAW_PBE C 08Apr2002                   
   VRHFIN =C: s2p2                                                              
   LEXCH  = PE                                                                  
   EATOM  =   147.1560 eV,   10.8157 Ry                                         
                                                                                
   TITEL  = PAW_PBE C 08Apr2002                                                 
   LULTRA =        F    use ultrasoft PP ?                                      
   IUNSCR =        1    unscreen: 0-lin 1-nonlin 2-no                           
   RPACOR =    1.200    partial core radius                                     
   POMASS =   12.011; ZVAL   =    4.000    mass and valenz                      
   RCORE  =    1.500    outmost cutoff radius                                   
   RWIGS  =    1.630; RWIGS  =    0.863    wigner-seitz radius (au A)           
   ENMAX  =  400.000; ENMIN  =  300.000 eV                                      
   ICORE  =        2    local potential                                         
   LCOR   =        T    correct aug charges                                     
   LPAW   =        T    paw PP                                                  
   EAUG   =  644.873                                                            
   DEXC   =    0.000                                                            
   RMAX   =    1.529    core radius for proj-oper                               
   RAUG   =    1.300    factor for augmentation sphere                          
   RDEP   =    1.501    radius for radial grids                                 
   RDEPT  =    1.300    core radius for aug-charge                              
                                                                                
   Atomic configuration                                                         
    4 entries                                                                   
     n  l   j            E        occ.                                          
     1  0  0.50      -273.3789   2.0000                                         
     2  0  0.50       -13.7508   2.0000                                         
     2  1  0.50        -5.2854   2.0000                                         
     3  2  1.50        -5.4423   0.0000                                         
   Description                                                                  
     l       E           TYP  RCUT    TYP  RCUT                                 
     0    -13.7508458     23  1.200                                             
     0     -8.2022199     23  1.200                                             
     1     -5.2854383     23  1.500                                             
     1     34.0145650     23  1.500                                             
     2     -5.4423304      7  1.500                                             
  local pseudopotential read in
  partial core-charges read in
  partial kinetic energy density read in
  atomic valenz-charges read in
  non local Contribution for L=           0  read in
    real space projection operators read in
  non local Contribution for L=           0  read in
    real space projection operators read in
  non local Contribution for L=           1  read in
    real space projection operators read in
  non local Contribution for L=           1  read in
    real space projection operators read in
    PAW grid and wavefunctions read in
 
   number of l-projection  operators is LMAX  =           4
   number of lm-projection operators is LMMAX =           8
 
 POTCAR:    PAW_PBE O 08Apr2002                   
   VRHFIN =O: s2p4                                                              
   LEXCH  = PE                                                                  
   EATOM  =   432.3788 eV,   31.7789 Ry                                         
                                                                                
   TITEL  = PAW_PBE O 08Apr2002                                                 
   LULTRA =        F    use ultrasoft PP ?                                      
   IUNSCR =        1    unscreen: 0-lin 1-nonlin 2-no                           
   RPACOR =    1.200    partial core radius                                     
   POMASS =   16.000; ZVAL   =    6.000    mass and valenz                      
   RCORE  =    1.520    outmost cutoff radius                                   
   RWIGS  =    1.550; RWIGS  =    0.820    wigner-seitz radius (au A)           
   ENMAX  =  400.000; ENMIN  =  300.000 eV                                      
   ICORE  =        2    local potential                                         
   LCOR   =        T    correct aug charges                                     
   LPAW   =        T    paw PP                                                  
   EAUG   =  605.392                                                            
   DEXC   =    0.000                                                            
   RMAX   =    1.553    core radius for proj-oper                               
   RAUG   =    1.300    factor for augmentation sphere                          
   RDEP   =    1.550    radius for radial grids                                 
   RDEPT  =    1.329    core radius for aug-charge                              
                                                                                
   Atomic configuration                                                         
    4 entries                                                                   
     n  l   j            E        occ.                                          
     1  0  0.50      -514.6923   2.0000                                         
     2  0  0.50       -23.9615   2.0000                                         
     2  1  0.50        -9.0305   4.0000                                         
     3  2  1.50        -9.5241   0.0000                                         
   Description                                                                  
     l       E           TYP  RCUT    TYP  RCUT                                 
     0    -23.9615318     23  1.200                                             
     0     -9.5240782     23  1.200                                             
     1     -9.0304911     23  1.520                                             
     1      8.1634956     23  1.520                                             
     2     -9.5240782      7  1.500                                             
  local pseudopotential read in
  partial core-charges read in
  partial kinetic energy density read in
  kinetic energy density of atom read in
  atomic valenz-charges read in
  non local Contribution for L=           0  read in
    real space projection operators read in
  non local Contribution for L=           0  read in
    real space projection operators read in
  non local Contribution for L=           1  read in
    real space projection operators read in
  non local Contribution for L=           1  read in
    real space projection operators read in
    PAW grid and wavefunctions read in
 
   number of l-projection  operators is LMAX  =           4
   number of lm-projection operators is LMMAX =           8
 
 Optimization of the real space projectors (new method)

 maximal supplied QI-value         = 14.36
 optimisation between [QCUT,QGAM] = [ 10.20, 20.39] = [ 29.12,116.47] Ry 
 Optimized for a Real-space Cutoff    1.51 Angstroem

   l    n(q)    QCUT    max X(q) W(low)/X(q) W(high)/X(q)  e(spline) 
   2      8    10.197    59.108    0.26E-03    0.14E-03    0.96E-07
   2      8    10.197    58.101    0.27E-03    0.14E-03    0.98E-07
   0      9    10.197   102.235    0.54E-04    0.60E-05    0.72E-07
   0      9    10.197    58.388    0.52E-04    0.60E-05    0.68E-07
   1      9    10.197    22.191    0.18E-03    0.25E-03    0.79E-07
   1      9    10.197    15.590    0.15E-03    0.21E-03    0.69E-07
 Optimization of the real space projectors (new method)

 maximal supplied QI-value         = 25.13
 optimisation between [QCUT,QGAM] = [ 10.05, 20.36] = [ 28.30,116.06] Ry 
 Optimized for a Real-space Cutoff    1.30 Angstroem

   l    n(q)    QCUT    max X(q) W(low)/X(q) W(high)/X(q)  e(spline) 
   0      8    10.053   115.676    0.49E-03    0.72E-03    0.18E-06
   0      8    10.053    87.132    0.49E-03    0.71E-03    0.18E-06
   1      7    10.053     4.429    0.32E-03    0.31E-03    0.18E-06
   1      7    10.053     2.733    0.23E-03    0.19E-03    0.20E-06
 Optimization of the real space projectors (new method)

 maximal supplied QI-value         = 24.76
 optimisation between [QCUT,QGAM] = [ 10.15, 20.30] = [ 28.85,115.39] Ry 
 Optimized for a Real-space Cutoff    1.38 Angstroem

   l    n(q)    QCUT    max X(q) W(low)/X(q) W(high)/X(q)  e(spline) 
   0      8    10.150    20.381    0.22E-03    0.32E-03    0.29E-06
   0      8    10.150    15.268    0.23E-03    0.35E-03    0.30E-06
   1      8    10.150     5.964    0.46E-03    0.53E-03    0.21E-06
   1      8    10.150     5.382    0.38E-03    0.45E-03    0.19E-06

 ----------------------------------------------------------------------------- 
|                                                                             |
|  ADVICE TO THIS USER RUNNING 'VASP/VAMP'   (HEAR YOUR MASTER'S VOICE ...):  |
|                                                                             |
|      You enforced a specific xc-type in the INCAR file,                     |
|      a different type was found on the POTCAR file                          |
|          I HOPE YOU KNOW, WHAT YOU ARE  DOING                               |
|                                                                             |
 ----------------------------------------------------------------------------- 

  PAW_PBE Pd 04Jan2005                  :
 energy of atom  1       EATOM= -809.7530
 kinetic energy error for atom=    0.0091 (will be added to EATOM!!)
  PAW_PBE C 08Apr2002                   :
 energy of atom  2       EATOM= -147.1560
 kinetic energy error for atom=    0.0288 (will be added to EATOM!!)
  PAW_PBE O 08Apr2002                   :
 energy of atom  3       EATOM= -432.3788
 kinetic energy error for atom=    0.1156 (will be added to EATOM!!)
 
 
 POSCAR: Pd55PES                                 
  positions in cartesian coordinates
  No initial velocities read in
 exchange correlation table for  LEXCH =        9
   RHO(1)=    0.500       N(1)  =     2000
   RHO(2)=  100.500       N(2)  =     4000
 


--------------------------------------------------------------------------------------------------------


 ion  position               nearest neighbor table
   1  0.446  0.328  0.417-   3 3.25   5 3.25   7 3.36  15 3.36  29 3.42  28 3.42
   2  0.672  0.554  0.417-  26 3.25  30 3.25  17 3.36   9 3.36  47 3.42  49 3.42
   3  0.554  0.328  0.417-   1 3.25   5 3.25   7 3.36  11 3.36  29 3.42  21 3.42
   4  0.328  0.554  0.417-  32 3.25  22 3.25  13 3.36   8 3.36  43 3.42  48 3.42
   5  0.500  0.383  0.340-   1 3.25   3 3.25  11 3.36  15 3.36  21 3.42  28 3.42
   6  0.500  0.383  0.660-  24 3.25  19 3.25  16 3.36  12 3.36  42 3.42  44 3.42
   7  0.500  0.276  0.500-  29 3.24   3 3.36   1 3.36  19 3.36  24 3.36
   8  0.276  0.500  0.500-  48 3.24  22 3.36  40 3.36   4 3.36  25 3.36
   9  0.724  0.500  0.500-  49 3.24  26 3.36  45 3.36   2 3.36  20 3.36
  10  0.500  0.724  0.500-  55 3.24  27 3.36  23 3.36  46 3.36  41 3.36
  11  0.612  0.388  0.342-  21 3.24   5 3.36   3 3.36  30 3.36  26 3.36
  12  0.612  0.388  0.658-  42 3.24  24 3.36  45 3.36   6 3.36  31 3.36
  13  0.388  0.612  0.342-  43 3.24  32 3.36  50 3.36   4 3.36  27 3.36
  14  0.388  0.612  0.658-  53 3.24  25 3.36  33 3.36  51 3.36  46 3.36
  15  0.388  0.388  0.342-  28 3.24   5 3.36   1 3.36  32 3.36  22 3.36
  16  0.388  0.388  0.658-  44 3.24  19 3.36  40 3.36   6 3.36  33 3.36
  17  0.612  0.612  0.342-  47 3.24  30 3.36  50 3.36   2 3.36  23 3.36
  18  0.612  0.612  0.658-  54 3.24  31 3.36  20 3.36  51 3.36  41 3.36
  19  0.446  0.328  0.583-   6 3.25  24 3.25  16 3.36   7 3.36  44 3.42  29 3.42
  20  0.672  0.554  0.583-  31 3.25  45 3.25  18 3.36   9 3.36  54 3.42  49 3.42
  21  0.558  0.442  0.418-  11 3.24   5 3.42   3 3.42  30 3.42  26 3.42
  22  0.328  0.446  0.417-   4 3.25  32 3.25   8 3.36  15 3.36  48 3.42  28 3.42
  23  0.554  0.672  0.417-  27 3.25  50 3.25  10 3.36  17 3.36  55 3.42  47 3.42
  24  0.554  0.328  0.583-   6 3.25  19 3.25  12 3.36   7 3.36  42 3.42  29 3.42
  25  0.328  0.554  0.583-  33 3.25  40 3.25  14 3.36   8 3.36  53 3.42  48 3.42
  26  0.672  0.446  0.417-   2 3.25  30 3.25   9 3.36  11 3.36  49 3.42  21 3.42
  27  0.446  0.672  0.417-  23 3.25  50 3.25  10 3.36  13 3.36  55 3.42  43 3.42
  28  0.442  0.442  0.418-  15 3.24   5 3.42   1 3.42  32 3.42  22 3.42
  29  0.500  0.384  0.500-   7 3.24   3 3.42   1 3.42  24 3.42  19 3.42
  30  0.617  0.500  0.340-   2 3.25  26 3.25  17 3.36  11 3.36  47 3.42  21 3.42
  31  0.617  0.500  0.660-  20 3.25  45 3.25  18 3.36  12 3.36  54 3.42  42 3.42
  32  0.383  0.500  0.340-   4 3.25  22 3.25  13 3.36  15 3.36  43 3.42  28 3.42
  33  0.383  0.500  0.660-  25 3.25  40 3.25  14 3.36  16 3.36  53 3.42  44 3.42
  34  0.383  0.383  0.500-
  35  0.617  0.617  0.500-
  36  0.617  0.383  0.500-
  37  0.383  0.617  0.500-
  38  0.500  0.500  0.335-  56 2.28
  39  0.500  0.500  0.665-
  40  0.328  0.446  0.583-  33 3.25  25 3.25  16 3.36   8 3.36  44 3.42  48 3.42
  41  0.554  0.672  0.583-  46 3.25  51 3.25  10 3.36  18 3.36  54 3.42  55 3.42
  42  0.558  0.442  0.582-  12 3.24   6 3.42  24 3.42  31 3.42  45 3.42
  43  0.442  0.558  0.418-  13 3.24   4 3.42  32 3.42  27 3.42  50 3.42
  44  0.442  0.442  0.582-  16 3.24   6 3.42  19 3.42  33 3.42  40 3.42
  45  0.672  0.446  0.583-  20 3.25  31 3.25   9 3.36  12 3.36  49 3.42  42 3.42
  46  0.446  0.672  0.583-  41 3.25  51 3.25  10 3.36  14 3.36  53 3.42  55 3.42
  47  0.558  0.558  0.418-  17 3.24   2 3.42  30 3.42  23 3.42  50 3.42
  48  0.384  0.500  0.500-   8 3.24   4 3.42  22 3.42  25 3.42  40 3.42
  49  0.616  0.500  0.500-   9 3.24   2 3.42  26 3.42  20 3.42  45 3.42
  50  0.500  0.617  0.340-  27 3.25  23 3.25  13 3.36  17 3.36  43 3.42  47 3.42
  51  0.500  0.617  0.660-  41 3.25  46 3.25  14 3.36  18 3.36  53 3.42  54 3.42
  52  0.500  0.500  0.500-
  53  0.442  0.558  0.582-  14 3.24  25 3.42  33 3.42  51 3.42  46 3.42
  54  0.558  0.558  0.582-  18 3.24  31 3.42  20 3.42  51 3.42  41 3.42
  55  0.500  0.616  0.500-  10 3.24  23 3.42  27 3.42  41 3.42  46 3.42
  56  0.495  0.468  0.266-  57 1.13  38 2.28
  57  0.494  0.463  0.229-  56 1.13
 
  LATTYP: Found a simple cubic cell.
 ALAT       =    30.0000000000
  
  Lattice vectors:
  
 A1 = (  30.0000000000,   0.0000000000,   0.0000000000)
 A2 = (   0.0000000000,  30.0000000000,   0.0000000000)
 A3 = (   0.0000000000,   0.0000000000,  30.0000000000)


Analysis of symmetry for initial positions (statically):
=====================================================================
 Subroutine PRICEL returns:
 Original cell was already a primitive cell.
 

 Routine SETGRP: Setting up the symmetry group for a 
 simple cubic supercell.


 Subroutine GETGRP returns: Found  1 space group operations
 (whereof  1 operations were pure point group operations)
 out of a pool of 48 trial point group operations.


The static configuration has the point symmetry C_1 .


Analysis of symmetry for dynamics (positions and initial velocities):
=====================================================================
 Subroutine PRICEL returns:
 Original cell was already a primitive cell.
 

 Routine SETGRP: Setting up the symmetry group for a 
 simple cubic supercell.


 Subroutine GETGRP returns: Found  1 space group operations
 (whereof  1 operations were pure point group operations)
 out of a pool of 48 trial point group operations.


The dynamic configuration has the point symmetry C_1 .


Analysis of constrained symmetry for selective dynamics:
=====================================================================
 Subroutine PRICEL returns:
 Original cell was already a primitive cell.
 

 Routine SETGRP: Setting up the symmetry group for a 
 simple cubic supercell.


 Subroutine GETGRP returns: Found  1 space group operations
 (whereof  1 operations were pure point group operations)
 out of a pool of 48 trial point group operations.


The constrained configuration has the point symmetry C_1 .


 Subroutine INISYM returns: Found  1 space group operations
 (whereof  1 operations are pure point group operations),
 and found     1 'primitive' translations

 
 
 KPOINTS: K-points                                

Automatic generation of k-mesh.
Space group operators:
 irot       det(A)        alpha          n_x          n_y          n_z        tau_x        tau_y        tau_z
    1     1.000000     0.000000     1.000000     0.000000     0.000000     0.000000     0.000000     0.000000
 
 Subroutine IBZKPT returns following result:
 ===========================================
 
 Found      1 irreducible k-points:
 
 Following reciprocal coordinates:
            Coordinates               Weight
  0.000000  0.000000  0.000000      1.000000
 
 Following cartesian coordinates:
            Coordinates               Weight
  0.000000  0.000000  0.000000      1.000000
 


--------------------------------------------------------------------------------------------------------




 Dimension of arrays:
   k-points           NKPTS =      1   k-points in BZ     NKDIM =      1   number of bands    NBANDS=    336
   number of dos      NEDOS =    301   number of ions     NIONS =     57
   non local maximal  LDIM  =      6   non local SUM 2l+1 LMDIM =     18
   total plane-waves  NPLWV = ******
   max r-space proj   IRMAX =   1847   max aug-charges    IRDMAX=   6262
   dimension x,y,z NGX =   150 NGY =  150 NGZ =  150
   dimension x,y,z NGXF=   300 NGYF=  300 NGZF=  300
   support grid    NGXF=   300 NGYF=  300 NGZF=  300
   ions per type =              55   1   1
   NGX,Y,Z   is equivalent  to a cutoff of   8.31,  8.31,  8.31 a.u.
   NGXF,Y,Z  is equivalent  to a cutoff of  16.62, 16.62, 16.62 a.u.

 SYSTEM =  6_Pd100_top_free_z(O)                   
 POSCAR =  Pd55PES                                 

 Startparameter for this run:
   NWRITE =      2    write-flag & timer
   PREC   = normal    normal or accurate (medium, high low for compatibility)
   ISTART =      0    job   : 0-new  1-cont  2-samecut
   ICHARG =      2    charge: 1-file 2-atom 10-const
   ISPIN  =      1    spin polarized calculation?
   LNONCOLLINEAR =      F non collinear calculations
   LSORBIT =      F    spin-orbit coupling
   INIWAV =      1    electr: 0-lowe 1-rand  2-diag
   LASPH  =      F    aspherical Exc in radial PAW
   METAGGA=      F    non-selfconsistent MetaGGA calc.

 Electronic Relaxation 1
   ENCUT  =  400.0 eV  29.40 Ry    5.42 a.u.  48.92 48.92 48.92*2*pi/ulx,y,z
   ENINI  =  400.0     initial cutoff
   ENAUG  =  644.9 eV  augmentation charge cutoff
   NELM   =    100;   NELMIN=  6; NELMDL= -5     # of ELM steps 
   EDIFF  = 0.1E-03   stopping-criterion for ELM
   LREAL  =      T    real-space projection
   NLSPLINE    = F    spline interpolate recip. space projectors
   LCOMPAT=      F    compatible to vasp.4.4
   GGA_COMPAT  = T    GGA compatible to vasp.4.4-vasp.4.6
   LMAXPAW     = -100 max onsite density
   LMAXMIX     =    2 max onsite mixed and CHGCAR
   VOSKOWN=      0    Vosko Wilk Nusair interpolation
   ROPT   =   -0.00050  -0.00050  -0.00050
 Ionic relaxation
   EDIFFG = -.5E-01   stopping-criterion for IOM
   NSW    =      0    number of steps for IOM
   NBLOCK =      1;   KBLOCK =      1    inner block; outer block 
   IBRION =     -1    ionic relax: 0-MD 1-quasi-New 2-CG
   NFREE  =      1    steps in history (QN), initial steepest desc. (CG)
   ISIF   =      2    stress and relaxation
   IWAVPR =     10    prediction:  0-non 1-charg 2-wave 3-comb
   ISYM   =      2    0-nonsym 1-usesym 2-fastsym
   LCORR  =      T    Harris-Foulkes like correction to forces

   POTIM  = 0.5000    time-step for ionic-motion
   TEIN   =    0.0    initial temperature
   TEBEG  =    0.0;   TEEND  =   0.0 temperature during run
   SMASS  =  -3.00    Nose mass-parameter (am)
   estimated Nose-frequenzy (Omega)   =  0.10E-29 period in steps =****** mass=  -0.206E-25a.u.
   SCALEE = 1.0000    scale energy and forces
   NPACO  =    256;   APACO  = 16.0  distance and # of slots for P.C.
   PSTRESS=    0.0 pullay stress

  Mass of Ions in am
   POMASS = 106.42 12.01 16.00
  Ionic Valenz
   ZVAL   =  10.00  4.00  6.00
  Atomic Wigner-Seitz radii
   RWIGS  =  -1.00 -1.00 -1.00
  virtual crystal weights 
   VCA    =   1.00  1.00  1.00
   NELECT =     560.0000    total number of electrons
   NUPDOWN=      -1.0000    fix difference up-down

 DOS related values:
   EMIN   =  10.00;   EMAX   =-10.00  energy-range for DOS
   EFERMI =   0.00
   ISMEAR =     2;   SIGMA  =   0.20  broadening in eV -4-tet -1-fermi 0-gaus

 Electronic relaxation 2 (details)
   IALGO  =     68    algorithm
   LDIAG  =      T    sub-space diagonalisation (order eigenvalues)
   LSUBROT=      F    optimize rotation matrix (better conditioning)
   TURBO    =      0    0=normal 1=particle mesh
   IRESTART =      0    0=no restart 2=restart with 2 vectors
   NREBOOT  =      0    no. of reboots
   NMIN     =      0    reboot dimension
   EREF     =   0.00    reference energy to select bands
   IMIX   =      4    mixing-type and parameters
     AMIX     =   0.40;   BMIX     =  1.00
     AMIX_MAG =   1.60;   BMIX_MAG =  1.00
     AMIN     =   0.10
     WC   =   100.;   INIMIX=   1;  MIXPRE=   1;  MAXMIX= -45

 Intra band minimization:
   WEIMIN = 0.0000     energy-eigenvalue tresh-hold
   EBREAK =  0.74E-07  absolut break condition
   DEPER  =   0.30     relativ break condition  

   TIME   =   0.40     timestep for ELM

  volume/ion in A,a.u.               =     473.68      3196.58
  Fermi-wavevector in a.u.,A,eV,Ry     =   0.449797  0.849992  2.752691  0.202317
  Thomas-Fermi vector in A             =   1.430086
 
 Write flags
   LWAVE        =      F    write WAVECAR
   LDOWNSAMPLE  =      F    k-point downsampling of WAVECAR
   LCHARG       =      F    write CHGCAR
   LVTOT        =      F    write LOCPOT, total local potential
   LVHAR        =      F    write LOCPOT, Hartree potential only
   LELF         =      F    write electronic localiz. function (ELF)
   LORBIT       =      0    0 simple, 1 ext, 2 COOP (PROOUT), +10 PAW based schemes


 Dipole corrections
   LMONO  =      F    monopole corrections only (constant potential shift)
   LDIPOL =      F    correct potential (dipole corrections)
   IDIPOL =      0    1-x, 2-y, 3-z, 4-all directions 
   EPSILON=  1.0000000 bulk dielectric constant

 Exchange correlation treatment:
   GGA     =    RP    GGA type
   LEXCH   =     9    internal setting for exchange type
   VOSKOWN=      0    Vosko Wilk Nusair interpolation
   LHFCALC =     F    Hartree Fock is set to
   LHFONE  =     F    Hartree Fock one center treatment
   AEXX    =    0.0000 exact exchange contribution

 Linear response parameters
   LEPSILON=     F    determine dielectric tensor
   LRPA    =     F    only Hartree local field effects (RPA)
   LNABLA  =     F    use nabla operator in PAW spheres
   LVEL    =     F    velocity operator in full k-point grid
   LINTERFAST=   F  fast interpolation
   KINTER  =     0    interpolate to denser k-point grid
   CSHIFT  =0.1000    complex shift for real part using Kramers Kronig
   OMEGAMAX=  -1.0    maximum frequency
   DEG_THRESHOLD= 0.2000000E-02 threshold for treating states as degnerate
   RTIME   =   -0.100 relaxation time in fs
  (WPLASMAI=    0.000 imaginary part of plasma frequency in eV, 0.658/RTIME)
   DFIELD  = 0.0000000 0.0000000 0.0000000 field for delta impulse in time
 
 Orbital magnetization related:
   ORBITALMAG=     F  switch on orbital magnetization
   LCHIMAG   =     F  perturbation theory with respect to B field
   DQ        =  0.001000  dq finite difference perturbation B field
   LLRAUG    =     F  two centre corrections for induced B field



--------------------------------------------------------------------------------------------------------


 Static calculation
 charge density and potential will be updated during run
 non-spin polarized calculation
 RMM-DIIS sequential band-by-band and
  variant of blocked Davidson during initial phase
 perform sub-space diagonalisation
    before iterative eigenvector-optimisation
 modified Broyden-mixing scheme, WC =      100.0
 initial mixing is a Kerker type mixing with AMIX =  0.4000 and BMIX =      1.0000
 Hartree-type preconditioning will be used
 using additional bands           56
 real space projection scheme for non local part
 use partial core corrections
 calculate Harris-corrections to forces 
   (improved forces if not selfconsistent)
 use gradient corrections 
 use of overlap-Matrix (Vanderbilt PP)
 Methfessel and Paxton  Order N= 2 SIGMA  =   0.20


--------------------------------------------------------------------------------------------------------


  energy-cutoff  :      400.00
  volume of cell :    27000.00
      direct lattice vectors                 reciprocal lattice vectors
    30.000000000  0.000000000  0.000000000     0.033333333  0.000000000  0.000000000
     0.000000000 30.000000000  0.000000000     0.000000000  0.033333333  0.000000000
     0.000000000  0.000000000 30.000000000     0.000000000  0.000000000  0.033333333

  length of vectors
    30.000000000 30.000000000 30.000000000     0.033333333  0.033333333  0.033333333


 
 k-points in units of 2pi/SCALE and weight: K-points                                
   0.00000000  0.00000000  0.00000000       1.000
 
 k-points in reciprocal lattice and weights: K-points                                
   0.00000000  0.00000000  0.00000000       1.000
 
 position of ions in fractional coordinates (direct lattice) 
   0.44576020  0.32826710  0.41691983
   0.67173288  0.55423978  0.41691983
   0.55423980  0.32826710  0.41691983
   0.32826712  0.55423978  0.41691983
   0.50000000  0.38250690  0.34021317
   0.50000000  0.38250690  0.65978680
   0.50000000  0.27609440  0.50000000
   0.27609443  0.49999998  0.50000000
   0.72390557  0.49999998  0.50000000
   0.50000000  0.72390555  0.50000000
   0.61195280  0.38804720  0.34167483
   0.61195280  0.38804720  0.65832513
   0.38804722  0.61195278  0.34167483
   0.38804722  0.61195278  0.65832513
   0.38804720  0.38804720  0.34167483
   0.38804720  0.38804720  0.65832513
   0.61195278  0.61195278  0.34167483
   0.61195278  0.61195278  0.65832513
   0.44576020  0.32826710  0.58308023
   0.67173288  0.55423978  0.58308023
   0.55791699  0.44208301  0.41809300
   0.32826705  0.44576024  0.41691983
   0.55423973  0.67173293  0.41691983
   0.55423980  0.32826710  0.58308023
   0.32826712  0.55423978  0.58308023
   0.67173295  0.44576024  0.41691983
   0.44576027  0.67173293  0.41691983
   0.44208301  0.44208301  0.41809300
   0.50000000  0.38416601  0.50000000
   0.61749315  0.50000005  0.34021317
   0.61749315  0.50000005  0.65978680
   0.38250685  0.50000005  0.34021317
   0.38250685  0.50000005  0.65978680
   0.38317830  0.38317830  0.50000000
   0.61682172  0.61682172  0.50000000
   0.61682170  0.38317830  0.50000000
   0.38317828  0.61682172  0.50000000
   0.50000000  0.50000000  0.33478917
   0.50000000  0.50000000  0.66521087
   0.32826705  0.44576024  0.58308023
   0.55423973  0.67173293  0.58308023
   0.55791699  0.44208301  0.58190703
   0.44208298  0.55791702  0.41809300
   0.44208301  0.44208301  0.58190703
   0.67173295  0.44576024  0.58308023
   0.44576027  0.67173293  0.58308023
   0.55791702  0.55791702  0.41809300
   0.38416599  0.50000002  0.50000000
   0.61583401  0.50000002  0.50000000
   0.50000000  0.61749319  0.34021317
   0.50000000  0.61749319  0.65978680
   0.50000000  0.50000000  0.50000000
   0.44208298  0.55791702  0.58190703
   0.55791702  0.55791702  0.58190703
   0.50000000  0.61583404  0.50000000
   0.49496797  0.46789713  0.26597050
   0.49416720  0.46278837  0.22872780
 
 position of ions in cartesian coordinates  (Angst):
  13.37280588  9.84801292 12.50759500
  20.15198637 16.62719342 12.50759500
  16.62719412  9.84801292 12.50759500
   9.84801363 16.62719342 12.50759500
  15.00000000 11.47520705 10.20639500
  15.00000000 11.47520705 19.79360400
  15.00000000  8.28283206 15.00000000
   8.28283277 14.99999929 15.00000000
  21.71716723 14.99999929 15.00000000
  15.00000000 21.71716652 14.99999999
  18.35858397 11.64141603 10.25024500
  18.35858397 11.64141603 19.74975399
  11.64141674 18.35858326 10.25024500
  11.64141674 18.35858326 19.74975400
  11.64141603 11.64141603 10.25024500
  11.64141603 11.64141603 19.74975400
  18.35858326 18.35858326 10.25024500
  18.35858326 18.35858326 19.74975400
  13.37280588  9.84801291 17.49240700
  20.15198638 16.62719341 17.49240700
  16.73750985 13.26249015 12.54279000
   9.84801151 13.37280729 12.50759500
  16.62719200 20.15198779 12.50759500
  16.62719412  9.84801292 17.49240700
   9.84801363 16.62719342 17.49240700
  20.15198849 13.37280729 12.50759500
  13.37280800 20.15198779 12.50759500
  13.26249015 13.26249015 12.54279000
  15.00000000 11.52498029 15.00000000
  18.52479437 15.00000140 10.20639500
  18.52479437 15.00000141 19.79360400
  11.47520562 15.00000141 10.20639501
  11.47520563 15.00000141 19.79360400
  11.49534898 11.49534898 15.00000000
  18.50465172 18.50465172 15.00000000
  18.50465102 11.49534898 15.00000000
  11.49534828 18.50465172 15.00000000
  15.00000000 15.00000000 10.04367500
  15.00000000 15.00000000 19.95632599
   9.84801151 13.37280729 17.49240700
  16.62719200 20.15198779 17.49240700
  16.73750985 13.26249015 17.45721100
  13.26248944 16.73751056 12.54279001
  13.26249015 13.26249015 17.45721100
  20.15198849 13.37280729 17.49240699
  13.37280800 20.15198779 17.49240700
  16.73751056 16.73751056 12.54279000
  11.52497959 15.00000071 15.00000000
  18.47502041 15.00000071 15.00000000
  14.99999999 18.52479579 10.20639500
  15.00000000 18.52479578 19.79360400
  15.00000000 15.00000000 15.00000000
  13.26248944 16.73751057 17.45721101
  16.73751056 16.73751057 17.45721100
  15.00000000 18.47502112 15.00000000
  14.84903900 14.03691400  7.97911500
  14.82501600 13.88365100  6.86183400
 


--------------------------------------------------------------------------------------------------------


 k-point  1 :   0.0000 0.0000 0.0000  plane waves:  490521

 maximum and minimum number of plane-waves per node :    490521   490521

 maximum number of plane-waves:    490521
 maximum index in each direction: 
   IXMAX=   48   IYMAX=   48   IZMAX=   48
   IXMIN=  -48   IYMIN=  -48   IZMIN=  -48


 serial   3D FFT for wavefunctions
 parallel 3D FFT for charge:
    minimum data exchange during FFTs selected (reduces bandwidth)


 total amount of memory used by VASP MPI-rank0  5486942. kBytes
=======================================================================

   base      :      30000. kBytes
   nonlr-proj:      17127. kBytes
   fftplans  :     924480. kBytes
   grid      :    1872000. kBytes
   one-center:        886. kBytes
   wavefun   :    2642449. kBytes
 
     INWAV:  cpu time    0.0001: real time    0.0006
 Broyden mixing: mesh for mixing (old mesh)
   NGX = 97   NGY = 97   NGZ = 97
  (NGX  =300   NGY  =300   NGZ  =300)
  gives a total of 912673 points

 initial charge density was supplied:
 charge density of overlapping atoms calculated
 number of electron     560.0000000 magnetization 
 keeping initial charge density in first step


--------------------------------------------------------------------------------------------------------


 Maximum index for non-local projection operator         1763
 Maximum index for augmentation-charges         5898 (set IRDMAX)


--------------------------------------------------------------------------------------------------------


 First call to EWALD:  gamma=   0.059
 Maximum number of real-space cells 3x 3x 3
 Maximum number of reciprocal cells 3x 3x 3

    FEWALD:  cpu time    0.0148: real time    0.0148


--------------------------------------- Iteration      1(   1)  ---------------------------------------


    POTLOK:  cpu time   14.0412: real time   14.0440
    SETDIJ:  cpu time    0.1208: real time    0.1208
     EDDAV:  cpu time  361.7253: real time  361.7930
       DOS:  cpu time    0.0013: real time    0.0013
    --------------------------------------------
      LOOP:  cpu time  375.8887: real time  375.9591

 eigenvalue-minimisations  :   688
 total energy-change (2. order) : 0.4385194E+04  (-0.1004850E+05)
 number of electron     560.0000000 magnetization 
 augmentation part      560.0000000 magnetization 

 Free energy of the ion-electron system (eV)
  ---------------------------------------------------
  alpha Z        PSCENC =        75.25431677
  Ewald energy   TEWEN  =    138381.83570470
  -Hartree energ DENC   =   -181747.57512578
  -exchange      EXHF   =         0.00000000
  -V(xc)+E(xc)   XCENC  =     -1703.62113879
  PAW double counting   =     44873.02882129   -41398.84523641
  entropy T*S    EENTRO =         0.00907775
  eigenvalues    EBANDS =       818.60161700
  atomic energy  EATOM  =     45086.50549395
  Solvation  Ediel_sol  =         0.00000000
  ---------------------------------------------------
  free energy    TOTEN  =      4385.19353048 eV

  energy without entropy =     4385.18445273  energy(sigma->0) =     4385.19126105


--------------------------------------------------------------------------------------------------------




--------------------------------------- Iteration      1(   2)  ---------------------------------------


     EDDAV:  cpu time  564.0992: real time  564.1342
       DOS:  cpu time    0.0012: real time    0.0012
    --------------------------------------------
      LOOP:  cpu time  564.1004: real time  564.1354

 eigenvalue-minimisations  :  1224
 total energy-change (2. order) :-0.2372914E+04  (-0.2133188E+04)
 number of electron     560.0000000 magnetization 
 augmentation part      560.0000000 magnetization 

 Free energy of the ion-electron system (eV)
  ---------------------------------------------------
  alpha Z        PSCENC =        75.25431677
  Ewald energy   TEWEN  =    138381.83570470
  -Hartree energ DENC   =   -181747.57512578
  -exchange      EXHF   =         0.00000000
  -V(xc)+E(xc)   XCENC  =     -1703.62113879
  PAW double counting   =     44873.02882129   -41398.84523641
  entropy T*S    EENTRO =        -0.04655986
  eigenvalues    EBANDS =     -1554.25625841
  atomic energy  EATOM  =     45086.50549395
  Solvation  Ediel_sol  =         0.00000000
  ---------------------------------------------------
  free energy    TOTEN  =      2012.28001746 eV

  energy without entropy =     2012.32657733  energy(sigma->0) =     2012.29165743


--------------------------------------------------------------------------------------------------------




--------------------------------------- Iteration      1(   3)  ---------------------------------------


     EDDAV:  cpu time  479.7335: real time  479.7394
       DOS:  cpu time    0.0011: real time    0.0011
    --------------------------------------------
      LOOP:  cpu time  479.7347: real time  479.7406

 eigenvalue-minimisations  :  1000
 total energy-change (2. order) :-0.1778586E+04  (-0.1673454E+04)
 number of electron     560.0000000 magnetization 
 augmentation part      560.0000000 magnetization 

 Free energy of the ion-electron system (eV)
  ---------------------------------------------------
  alpha Z        PSCENC =        75.25431677
  Ewald energy   TEWEN  =    138381.83570470
  -Hartree energ DENC   =   -181747.57512578
  -exchange      EXHF   =         0.00000000
  -V(xc)+E(xc)   XCENC  =     -1703.62113879
  PAW double counting   =     44873.02882129   -41398.84523641
  entropy T*S    EENTRO =        -0.00781468
  eigenvalues    EBANDS =     -3332.88132583
  atomic energy  EATOM  =     45086.50549395
  Solvation  Ediel_sol  =         0.00000000
  ---------------------------------------------------
  free energy    TOTEN  =       233.69369522 eV

  energy without entropy =      233.70150990  energy(sigma->0) =      233.69564889


--------------------------------------------------------------------------------------------------------




--------------------------------------- Iteration      1(   4)  ---------------------------------------


     EDDAV:  cpu time  419.5028: real time  419.5324
       DOS:  cpu time    0.0012: real time    0.0012
    --------------------------------------------
      LOOP:  cpu time  419.5040: real time  419.5336

 eigenvalue-minimisations  :   832
 total energy-change (2. order) :-0.3693100E+03  (-0.3141508E+03)
 number of electron     560.0000000 magnetization 
 augmentation part      560.0000000 magnetization 

 Free energy of the ion-electron system (eV)
  ---------------------------------------------------
  alpha Z        PSCENC =        75.25431677
  Ewald energy   TEWEN  =    138381.83570470
  -Hartree energ DENC   =   -181747.57512578
  -exchange      EXHF   =         0.00000000
  -V(xc)+E(xc)   XCENC  =     -1703.62113879
  PAW double counting   =     44873.02882129   -41398.84523641
  entropy T*S    EENTRO =         0.02709941
  eigenvalues    EBANDS =     -3702.22626444
  atomic energy  EATOM  =     45086.50549395
  Solvation  Ediel_sol  =         0.00000000
  ---------------------------------------------------
  free energy    TOTEN  =      -135.61632930 eV

  energy without entropy =     -135.64342871  energy(sigma->0) =     -135.62310415


--------------------------------------------------------------------------------------------------------




--------------------------------------- Iteration      1(   5)  ---------------------------------------


     EDDAV:  cpu time  500.4002: real time  500.4165
       DOS:  cpu time    0.0014: real time    0.0014
    CHARGE:  cpu time   25.1812: real time   25.1817
    MIXING:  cpu time    0.4443: real time    0.4443
    --------------------------------------------
      LOOP:  cpu time  526.0272: real time  526.0440

 eigenvalue-minimisations  :  1056
 total energy-change (2. order) :-0.4380708E+02  (-0.3627760E+02)
 number of electron     559.9999859 magnetization 
 augmentation part      245.2209863 magnetization 

 Broyden mixing:
  rms(total) = 0.14100E+01    rms(broyden)= 0.14091E+01
  rms(prec ) = 0.15152E+01
  weight for this iteration     100.00

 Free energy of the ion-electron system (eV)
  ---------------------------------------------------
  alpha Z        PSCENC =        75.25431677
  Ewald energy   TEWEN  =    138381.83570470
  -Hartree energ DENC   =   -181747.57512578
  -exchange      EXHF   =         0.00000000
  -V(xc)+E(xc)   XCENC  =     -1703.62113879
  PAW double counting   =     44873.02882129   -41398.84523641
  entropy T*S    EENTRO =         0.51063273
  eigenvalues    EBANDS =     -3746.51687618
  atomic energy  EATOM  =     45086.50549395
  Solvation  Ediel_sol  =         0.00000000
  ---------------------------------------------------
  free energy    TOTEN  =      -179.42340772 eV

  energy without entropy =     -179.93404045  energy(sigma->0) =     -179.55106590


--------------------------------------------------------------------------------------------------------




--------------------------------------- Iteration      1(   6)  ---------------------------------------


    POTLOK:  cpu time   13.1849: real time   13.1885
    SETDIJ:  cpu time    0.1222: real time    0.1222
    EDDIAG:  cpu time   68.4926: real time   68.4945
  RMM-DIIS:  cpu time  188.0538: real time  188.0605
    ORTHCH:  cpu time   13.5208: real time   13.5211
       DOS:  cpu time    0.0014: real time    0.0014
    CHARGE:  cpu time   25.1077: real time   25.1082
    MIXING:  cpu time    0.4673: real time    0.4674
    --------------------------------------------
      LOOP:  cpu time  308.9508: real time  308.9638

 eigenvalue-minimisations  :   722
 total energy-change (2. order) :-0.3526295E-01  (-0.5217949E+01)
 number of electron     559.9999890 magnetization 
 augmentation part      240.5808456 magnetization 

 Broyden mixing:
  rms(total) = 0.23073E+01    rms(broyden)= 0.23071E+01
  rms(prec ) = 0.26971E+01
  weight for this iteration     100.00

 eigenvalues of (default mixing * dielectric matrix)
  average eigenvalue GAMMA=   0.3130
  0.3130

 Free energy of the ion-electron system (eV)
  ---------------------------------------------------
  alpha Z        PSCENC =        75.25431677
  Ewald energy   TEWEN  =    138381.83570470
  -Hartree energ DENC   =   -182155.00201587
  -exchange      EXHF   =         0.00000000
  -V(xc)+E(xc)   XCENC  =     -1697.31800038
  PAW double counting   =     45620.31715532   -42119.02325899
  entropy T*S    EENTRO =        -0.20284376
  eigenvalues    EBANDS =     -3371.82522242
  atomic energy  EATOM  =     45086.50549395
  Solvation  Ediel_sol  =         0.00000000
  ---------------------------------------------------
  free energy    TOTEN  =      -179.45867067 eV

  energy without entropy =     -179.25582692  energy(sigma->0) =     -179.40795973


--------------------------------------------------------------------------------------------------------




--------------------------------------- Iteration      1(   7)  ---------------------------------------


    POTLOK:  cpu time   13.1662: real time   13.1686
    SETDIJ:  cpu time    0.1263: real time    0.1263
    EDDIAG:  cpu time   68.7730: real time   68.7753
  RMM-DIIS:  cpu time  218.9186: real time  218.9351
    ORTHCH:  cpu time   13.1528: real time   13.1529
       DOS:  cpu time    0.0014: real time    0.0014
    CHARGE:  cpu time   24.7801: real time   24.7804
    MIXING:  cpu time    0.4872: real time    0.4872
    --------------------------------------------
      LOOP:  cpu time  339.4057: real time  339.4273

 eigenvalue-minimisations  :   851
 total energy-change (2. order) :-0.1994618E+01  (-0.1816750E+01)
 number of electron     559.9999858 magnetization 
 augmentation part      240.5130885 magnetization 

 Broyden mixing:
  rms(total) = 0.25665E+01    rms(broyden)= 0.25662E+01
  rms(prec ) = 0.31218E+01
  weight for this iteration     100.00

 eigenvalues of (default mixing * dielectric matrix)
  average eigenvalue GAMMA=   0.2777
  0.4300  0.1253

 Free energy of the ion-electron system (eV)
  ---------------------------------------------------
  alpha Z        PSCENC =        75.25431677
  Ewald energy   TEWEN  =    138381.83570470
  -Hartree energ DENC   =   -182235.44040348
  -exchange      EXHF   =         0.00000000
  -V(xc)+E(xc)   XCENC  =     -1697.48276929
  PAW double counting   =     45676.72520641   -42173.05324150
  entropy T*S    EENTRO =         0.10824654
  eigenvalues    EBANDS =     -3295.90584287
  atomic energy  EATOM  =     45086.50549395
  Solvation  Ediel_sol  =         0.00000000
  ---------------------------------------------------
  free energy    TOTEN  =      -181.45328878 eV

  energy without entropy =     -181.56153532  energy(sigma->0) =     -181.48035041


--------------------------------------------------------------------------------------------------------




--------------------------------------- Iteration      1(   8)  ---------------------------------------


    POTLOK:  cpu time   13.0155: real time   13.0186
    SETDIJ:  cpu time    0.1227: real time    0.1227
    EDDIAG:  cpu time   67.8075: real time   67.8100
  RMM-DIIS:  cpu time  207.7240: real time  207.7306
    ORTHCH:  cpu time   13.3893: real time   13.3896
       DOS:  cpu time    0.0015: real time    0.0015
    CHARGE:  cpu time   25.4707: real time   25.4743
    MIXING:  cpu time    0.5385: real time    0.5386
    --------------------------------------------
      LOOP:  cpu time  328.0698: real time  328.0857

 eigenvalue-minimisations  :   813
 total energy-change (2. order) :-0.1076951E+01  (-0.6293993E+00)
 number of electron     559.9999835 magnetization 
 augmentation part      240.1959666 magnetization 

 Broyden mixing:
  rms(total) = 0.23101E+01    rms(broyden)= 0.23098E+01
  rms(prec ) = 0.26753E+01
  weight for this iteration     100.00

 eigenvalues of (default mixing * dielectric matrix)
  average eigenvalue GAMMA=   0.2931
  0.6209  0.1292  0.1292

 Free energy of the ion-electron system (eV)
  ---------------------------------------------------
  alpha Z        PSCENC =        75.25431677
  Ewald energy   TEWEN  =    138381.83570470
  -Hartree energ DENC   =   -182276.86935883
  -exchange      EXHF   =         0.00000000
  -V(xc)+E(xc)   XCENC  =     -1697.50922743
  PAW double counting   =     45721.93120677   -42216.26588889
  entropy T*S    EENTRO =        -0.16667405
  eigenvalues    EBANDS =     -3257.24581319
  atomic energy  EATOM  =     45086.50549395
  Solvation  Ediel_sol  =         0.00000000
  ---------------------------------------------------
  free energy    TOTEN  =      -182.53024020 eV

  energy without entropy =     -182.36356615  energy(sigma->0) =     -182.48857169


--------------------------------------------------------------------------------------------------------




--------------------------------------- Iteration      1(   9)  ---------------------------------------


    POTLOK:  cpu time   13.2533: real time   13.2581
    SETDIJ:  cpu time    0.1194: real time    0.1194
    EDDIAG:  cpu time   68.7474: real time   68.7525
  RMM-DIIS:  cpu time  194.0675: real time  194.0882
    ORTHCH:  cpu time   13.8564: real time   13.8566
       DOS:  cpu time    0.0014: real time    0.0014
    CHARGE:  cpu time   26.3155: real time   26.3158
    MIXING:  cpu time    0.5845: real time    0.5845
    --------------------------------------------
      LOOP:  cpu time  316.9455: real time  316.9765

 eigenvalue-minimisations  :   722
 total energy-change (2. order) : 0.8697420E+00  (-0.5510147E+00)
 number of electron     559.9999823 magnetization 
 augmentation part      240.9892269 magnetization 

 Broyden mixing:
  rms(total) = 0.25803E+01    rms(broyden)= 0.25799E+01
  rms(prec ) = 0.30158E+01
  weight for this iteration     100.00

 eigenvalues of (default mixing * dielectric matrix)
  average eigenvalue GAMMA=   0.2799
  0.7279  0.1480  0.1480  0.0955

 Free energy of the ion-electron system (eV)
  ---------------------------------------------------
  alpha Z        PSCENC =        75.25431677
  Ewald energy   TEWEN  =    138381.83570470
  -Hartree energ DENC   =   -182296.49478621
  -exchange      EXHF   =         0.00000000
  -V(xc)+E(xc)   XCENC  =     -1697.47870414
  PAW double counting   =     45785.31903622   -42276.80835175
  entropy T*S    EENTRO =         0.00814263
  eigenvalues    EBANDS =     -3239.80135031
  atomic energy  EATOM  =     45086.50549395
  Solvation  Ediel_sol  =         0.00000000
  ---------------------------------------------------
  free energy    TOTEN  =      -181.66049815 eV

  energy without entropy =     -181.66864078  energy(sigma->0) =     -181.66253381


--------------------------------------------------------------------------------------------------------




--------------------------------------- Iteration      1(  10)  ---------------------------------------


    POTLOK:  cpu time   13.6201: real time   13.6236
    SETDIJ:  cpu time    0.1243: real time    0.1243
    EDDIAG:  cpu time   71.1976: real time   71.2014
  RMM-DIIS:  cpu time  199.3301: real time  199.3526
    ORTHCH:  cpu time   14.0103: real time   14.0106
       DOS:  cpu time    0.0015: real time    0.0015
    CHARGE:  cpu time   25.8501: real time   25.8504
    MIXING:  cpu time    0.5907: real time    0.5907
    --------------------------------------------
      LOOP:  cpu time  324.7246: real time  324.7549

 eigenvalue-minimisations  :   738
 total energy-change (2. order) : 0.8971934E+00  (-0.2921387E+00)
 number of electron     559.9999858 magnetization 
 augmentation part      241.0295275 magnetization 

 Broyden mixing:
  rms(total) = 0.21940E+01    rms(broyden)= 0.21937E+01
  rms(prec ) = 0.26021E+01
  weight for this iteration     100.00

 eigenvalues of (default mixing * dielectric matrix)
  average eigenvalue GAMMA=   0.2653
  0.8085  0.1627  0.1627  0.1094  0.0830

 Free energy of the ion-electron system (eV)
  ---------------------------------------------------
  alpha Z        PSCENC =        75.25431677
  Ewald energy   TEWEN  =    138381.83570470
  -Hartree energ DENC   =   -182324.44898226
  -exchange      EXHF   =         0.00000000
  -V(xc)+E(xc)   XCENC  =     -1697.36312665
  PAW double counting   =     45827.18335614   -42316.86760752
  entropy T*S    EENTRO =        -0.19383837
  eigenvalues    EBANDS =     -3212.66862153
  atomic energy  EATOM  =     45086.50549395
  Solvation  Ediel_sol  =         0.00000000
  ---------------------------------------------------
  free energy    TOTEN  =      -180.76330478 eV

  energy without entropy =     -180.56946640  energy(sigma->0) =     -180.71484518


--------------------------------------------------------------------------------------------------------




--------------------------------------- Iteration      1(  11)  ---------------------------------------


    POTLOK:  cpu time   13.4464: real time   13.4498
    SETDIJ:  cpu time    0.1383: real time    0.1383
    EDDIAG:  cpu time   71.7201: real time   71.7236
  RMM-DIIS:  cpu time  189.1305: real time  189.1379
    ORTHCH:  cpu time   13.2390: real time   13.2392
       DOS:  cpu time    0.0014: real time    0.0014
    CHARGE:  cpu time   24.6531: real time   24.6535
    MIXING:  cpu time    0.6016: real time    0.6016
    --------------------------------------------
      LOOP:  cpu time  312.9306: real time  312.9455

 eigenvalue-minimisations  :   726
 total energy-change (2. order) : 0.2156691E+01  (-0.2011224E+00)
 number of electron     559.9999852 magnetization 
 augmentation part      241.4255041 magnetization 

 Broyden mixing:
  rms(total) = 0.19650E+01    rms(broyden)= 0.19646E+01
  rms(prec ) = 0.22687E+01
  weight for this iteration     100.00

 eigenvalues of (default mixing * dielectric matrix)
  average eigenvalue GAMMA=   0.2538
  0.8753  0.1837  0.1837  0.1031  0.1031  0.0737

 Free energy of the ion-electron system (eV)
  ---------------------------------------------------
  alpha Z        PSCENC =        75.25431677
  Ewald energy   TEWEN  =    138381.83570470
  -Hartree energ DENC   =   -182347.04443424
  -exchange      EXHF   =         0.00000000
  -V(xc)+E(xc)   XCENC  =     -1697.21895099
  PAW double counting   =     45862.99191569   -42351.09283461
  entropy T*S    EENTRO =        -0.02150954
  eigenvalues    EBANDS =     -3189.81631528
  atomic energy  EATOM  =     45086.50549395
  Solvation  Ediel_sol  =         0.00000000
  ---------------------------------------------------
  free energy    TOTEN  =      -178.60661356 eV

  energy without entropy =     -178.58510402  energy(sigma->0) =     -178.60123617


--------------------------------------------------------------------------------------------------------




--------------------------------------- Iteration      1(  12)  ---------------------------------------


    POTLOK:  cpu time   12.8496: real time   12.8520
    SETDIJ:  cpu time    0.1205: real time    0.1205
    EDDIAG:  cpu time   67.7146: real time   67.7208
  RMM-DIIS:  cpu time  183.9471: real time  183.9496
    ORTHCH:  cpu time   13.1868: real time   13.1867
       DOS:  cpu time    0.0015: real time    0.0015
    CHARGE:  cpu time   24.6031: real time   24.6030
    MIXING:  cpu time    0.6281: real time    0.6281
    --------------------------------------------
      LOOP:  cpu time  303.0513: real time  303.0622

 eigenvalue-minimisations  :   722
 total energy-change (2. order) : 0.1595575E+01  (-0.1497650E+00)
 number of electron     559.9999849 magnetization 
 augmentation part      241.6449369 magnetization 

 Broyden mixing:
  rms(total) = 0.13908E+01    rms(broyden)= 0.13905E+01
  rms(prec ) = 0.16405E+01
  weight for this iteration     100.00

 eigenvalues of (default mixing * dielectric matrix)
  average eigenvalue GAMMA=   0.2494
  0.9158  0.2190  0.2190  0.1139  0.1139  0.1021  0.0621

 Free energy of the ion-electron system (eV)
  ---------------------------------------------------
  alpha Z        PSCENC =        75.25431677
  Ewald energy   TEWEN  =    138381.83570470
  -Hartree energ DENC   =   -182364.13855236
  -exchange      EXHF   =         0.00000000
  -V(xc)+E(xc)   XCENC  =     -1697.03385758
  PAW double counting   =     45893.54618252   -42380.20286824
  entropy T*S    EENTRO =        -0.05784382
  eigenvalues    EBANDS =     -3172.71961412
  atomic energy  EATOM  =     45086.50549395
  Solvation  Ediel_sol  =         0.00000000
  ---------------------------------------------------
  free energy    TOTEN  =      -177.01103819 eV

  energy without entropy =     -176.95319437  energy(sigma->0) =     -176.99657723


--------------------------------------------------------------------------------------------------------




--------------------------------------- Iteration      1(  13)  ---------------------------------------


    POTLOK:  cpu time   12.9121: real time   12.9129
    SETDIJ:  cpu time    0.1240: real time    0.1240
    EDDIAG:  cpu time   67.8135: real time   67.8137
  RMM-DIIS:  cpu time  184.2305: real time  184.2332
    ORTHCH:  cpu time   13.2373: real time   13.2372
       DOS:  cpu time    0.0014: real time    0.0014
    CHARGE:  cpu time   24.6736: real time   24.6735
    MIXING:  cpu time    0.6780: real time    0.6780
    --------------------------------------------
      LOOP:  cpu time  303.6705: real time  303.6739

 eigenvalue-minimisations  :   722
 total energy-change (2. order) : 0.4919831E+00  (-0.8616155E-01)
 number of electron     559.9999847 magnetization 
 augmentation part      241.5988272 magnetization 

 Broyden mixing:
  rms(total) = 0.13341E+01    rms(broyden)= 0.13338E+01
  rms(prec ) = 0.15904E+01
  weight for this iteration     100.00

 eigenvalues of (default mixing * dielectric matrix)
  average eigenvalue GAMMA=   0.2576
  0.9883  0.2902  0.2902  0.1222  0.1222  0.1110  0.0773  0.0590

 Free energy of the ion-electron system (eV)
  ---------------------------------------------------
  alpha Z        PSCENC =        75.25431677
  Ewald energy   TEWEN  =    138381.83570470
  -Hartree energ DENC   =   -182383.41764447
  -exchange      EXHF   =         0.00000000
  -V(xc)+E(xc)   XCENC  =     -1696.82963340
  PAW double counting   =     45918.94825184   -42404.28818159
  entropy T*S    EENTRO =        -0.06464588
  eigenvalues    EBANDS =     -3154.46271701
  atomic energy  EATOM  =     45086.50549395
  Solvation  Ediel_sol  =         0.00000000
  ---------------------------------------------------
  free energy    TOTEN  =      -176.51905509 eV

  energy without entropy =     -176.45440921  energy(sigma->0) =     -176.50289362


--------------------------------------------------------------------------------------------------------




--------------------------------------- Iteration      1(  14)  ---------------------------------------


    POTLOK:  cpu time   12.8761: real time   12.8770
    SETDIJ:  cpu time    0.1198: real time    0.1198
    EDDIAG:  cpu time   67.5426: real time   67.5435
  RMM-DIIS:  cpu time  185.3915: real time  185.3939
    ORTHCH:  cpu time   13.2684: real time   13.2683
       DOS:  cpu time    0.0015: real time    0.0015
    CHARGE:  cpu time   24.9049: real time   24.9048
    MIXING:  cpu time    0.7106: real time    0.7106
    --------------------------------------------
      LOOP:  cpu time  304.8153: real time  304.8194

 eigenvalue-minimisations  :   724
 total energy-change (2. order) :-0.1552612E+00  (-0.9338473E-01)
 number of electron     559.9999851 magnetization 
 augmentation part      241.4924617 magnetization 

 Broyden mixing:
  rms(total) = 0.17212E+01    rms(broyden)= 0.17210E+01
  rms(prec ) = 0.20349E+01
  weight for this iteration     100.00

 eigenvalues of (default mixing * dielectric matrix)
  average eigenvalue GAMMA=   0.2594
  1.0524  0.3506  0.3506  0.1245  0.1245  0.1239  0.0747  0.0747  0.0583

 Free energy of the ion-electron system (eV)
  ---------------------------------------------------
  alpha Z        PSCENC =        75.25431677
  Ewald energy   TEWEN  =    138381.83570470
  -Hartree energ DENC   =   -182409.04275201
  -exchange      EXHF   =         0.00000000
  -V(xc)+E(xc)   XCENC  =     -1696.46314075
  PAW double counting   =     45957.29892035   -42440.60578055
  entropy T*S    EENTRO =        -0.08004883
  eigenvalues    EBANDS =     -3131.37702992
  atomic energy  EATOM  =     45086.50549395
  Solvation  Ediel_sol  =         0.00000000
  ---------------------------------------------------
  free energy    TOTEN  =      -176.67431629 eV

  energy without entropy =     -176.59426746  energy(sigma->0) =     -176.65430408


--------------------------------------------------------------------------------------------------------




--------------------------------------- Iteration      1(  15)  ---------------------------------------


    POTLOK:  cpu time   12.8882: real time   12.8890
    SETDIJ:  cpu time    0.1237: real time    0.1237
    EDDIAG:  cpu time   67.3767: real time   67.3790
  RMM-DIIS:  cpu time  181.7377: real time  181.7391
    ORTHCH:  cpu time   13.2103: real time   13.2104
       DOS:  cpu time    0.0014: real time    0.0014
    CHARGE:  cpu time   25.0672: real time   25.0692
    MIXING:  cpu time    0.7431: real time    0.7431
    --------------------------------------------
      LOOP:  cpu time  301.1484: real time  301.1550

 eigenvalue-minimisations  :   710
 total energy-change (2. order) : 0.6702778E+00  (-0.9015120E-01)
 number of electron     559.9999843 magnetization 
 augmentation part      241.4156014 magnetization 

 Broyden mixing:
  rms(total) = 0.13064E+01    rms(broyden)= 0.13061E+01
  rms(prec ) = 0.15031E+01
  weight for this iteration     100.00

 eigenvalues of (default mixing * dielectric matrix)
  average eigenvalue GAMMA=   0.2777
  1.1958  0.5886  0.2777  0.1395  0.1395  0.1070  0.1070  0.1073  0.0573  0.0573

 Free energy of the ion-electron system (eV)
  ---------------------------------------------------
  alpha Z        PSCENC =        75.25431677
  Ewald energy   TEWEN  =    138381.83570470
  -Hartree energ DENC   =   -182436.73576482
  -exchange      EXHF   =         0.00000000
  -V(xc)+E(xc)   XCENC  =     -1696.05636789
  PAW double counting   =     45995.57546388   -42476.82358645
  entropy T*S    EENTRO =        -0.10413957
  eigenvalues    EBANDS =     -3105.45515901
  atomic energy  EATOM  =     45086.50549395
  Solvation  Ediel_sol  =         0.00000000
  ---------------------------------------------------
  free energy    TOTEN  =      -176.00403845 eV

  energy without entropy =     -175.89989888  energy(sigma->0) =     -175.97800356


--------------------------------------------------------------------------------------------------------




--------------------------------------- Iteration      1(  16)  ---------------------------------------


    POTLOK:  cpu time   13.2754: real time   13.2764
    SETDIJ:  cpu time    0.1238: real time    0.1238
    EDDIAG:  cpu time   68.9454: real time   68.9457
  RMM-DIIS:  cpu time  190.1969: real time  190.1989
    ORTHCH:  cpu time   13.5668: real time   13.5667
       DOS:  cpu time    0.0015: real time    0.0015
    CHARGE:  cpu time   25.4341: real time   25.4339
    MIXING:  cpu time    0.8262: real time    0.8262
    --------------------------------------------
      LOOP:  cpu time  312.3700: real time  312.3730

 eigenvalue-minimisations  :   714
 total energy-change (2. order) : 0.3511416E+00  (-0.9478364E-01)
 number of electron     559.9999881 magnetization 
 augmentation part      241.1693949 magnetization 

 Broyden mixing:
  rms(total) = 0.13061E+01    rms(broyden)= 0.13058E+01
  rms(prec ) = 0.15305E+01
  weight for this iteration     100.00

 eigenvalues of (default mixing * dielectric matrix)
  average eigenvalue GAMMA=   0.2912
  1.3723  0.7035  0.2424  0.1814  0.1814  0.1144  0.1144  0.0897  0.0897  0.0601
  0.0535

 Free energy of the ion-electron system (eV)
  ---------------------------------------------------
  alpha Z        PSCENC =        75.25431677
  Ewald energy   TEWEN  =    138381.83570470
  -Hartree energ DENC   =   -182479.10947728
  -exchange      EXHF   =         0.00000000
  -V(xc)+E(xc)   XCENC  =     -1695.47003502
  PAW double counting   =     46050.15911147   -42528.39895604
  entropy T*S    EENTRO =        -0.03847644
  eigenvalues    EBANDS =     -3066.39057892
  atomic energy  EATOM  =     45086.50549395
  Solvation  Ediel_sol  =         0.00000000
  ---------------------------------------------------
  free energy    TOTEN  =      -175.65289681 eV

  energy without entropy =     -175.61442036  energy(sigma->0) =     -175.64327770


--------------------------------------------------------------------------------------------------------




--------------------------------------- Iteration      1(  17)  ---------------------------------------


    POTLOK:  cpu time   13.2316: real time   13.2325
    SETDIJ:  cpu time    0.1214: real time    0.1214
    EDDIAG:  cpu time   69.3689: real time   69.3689
  RMM-DIIS:  cpu time  188.3702: real time  188.3708
    ORTHCH:  cpu time   13.5483: real time   13.5482
       DOS:  cpu time    0.0015: real time    0.0015
    CHARGE:  cpu time   25.3869: real time   25.3867
    MIXING:  cpu time    0.8825: real time    0.8825
    --------------------------------------------
      LOOP:  cpu time  310.9113: real time  310.9126

 eigenvalue-minimisations  :   709
 total energy-change (2. order) : 0.1542513E+00  (-0.6751975E-01)
 number of electron     559.9999853 magnetization 
 augmentation part      241.1017367 magnetization 

 Broyden mixing:
  rms(total) = 0.12839E+01    rms(broyden)= 0.12836E+01
  rms(prec ) = 0.15275E+01
  weight for this iteration     100.00

 eigenvalues of (default mixing * dielectric matrix)
  average eigenvalue GAMMA=   0.3005
  1.4856  0.7675  0.2785  0.2785  0.1772  0.1229  0.1229  0.0924  0.0924  0.0746
  0.0603  0.0532

 Free energy of the ion-electron system (eV)
  ---------------------------------------------------
  alpha Z        PSCENC =        75.25431677
  Ewald energy   TEWEN  =    138381.83570470
  -Hartree energ DENC   =   -182508.12554669
  -exchange      EXHF   =         0.00000000
  -V(xc)+E(xc)   XCENC  =     -1695.01442453
  PAW double counting   =     46087.23860891   -42563.30766389
  entropy T*S    EENTRO =        -0.05316727
  eigenvalues    EBANDS =     -3039.83196745
  atomic energy  EATOM  =     45086.50549395
  Solvation  Ediel_sol  =         0.00000000
  ---------------------------------------------------
  free energy    TOTEN  =      -175.49864551 eV

  energy without entropy =     -175.44547824  energy(sigma->0) =     -175.48535369


--------------------------------------------------------------------------------------------------------




--------------------------------------- Iteration      1(  18)  ---------------------------------------


    POTLOK:  cpu time   13.2586: real time   13.2598
    SETDIJ:  cpu time    0.1231: real time    0.1231
    EDDIAG:  cpu time   69.0469: real time   69.0474
  RMM-DIIS:  cpu time  188.4486: real time  188.4500
    ORTHCH:  cpu time   13.5652: real time   13.5653
       DOS:  cpu time    0.0014: real time    0.0014
    CHARGE:  cpu time   25.5751: real time   25.5752
    MIXING:  cpu time    0.9281: real time    0.9281
    --------------------------------------------
      LOOP:  cpu time  310.9471: real time  310.9503

 eigenvalue-minimisations  :   708
 total energy-change (2. order) : 0.1461952E+00  (-0.5062645E-01)
 number of electron     559.9999868 magnetization 
 augmentation part      241.1146953 magnetization 

 Broyden mixing:
  rms(total) = 0.11151E+01    rms(broyden)= 0.11149E+01
  rms(prec ) = 0.12915E+01
  weight for this iteration     100.00

 eigenvalues of (default mixing * dielectric matrix)
  average eigenvalue GAMMA=   0.3112
  1.5505  0.8920  0.3630  0.3630  0.1321  0.1321  0.1282  0.0992  0.0992  0.1060
  0.0648  0.0625  0.0535

 Free energy of the ion-electron system (eV)
  ---------------------------------------------------
  alpha Z        PSCENC =        75.25431677
  Ewald energy   TEWEN  =    138381.83570470
  -Hartree energ DENC   =   -182523.12822419
  -exchange      EXHF   =         0.00000000
  -V(xc)+E(xc)   XCENC  =     -1694.77927029
  PAW double counting   =     46104.44464728   -42579.25396859
  entropy T*S    EENTRO =         0.00606206
  eigenvalues    EBANDS =     -3026.23721202
  atomic energy  EATOM  =     45086.50549395
  Solvation  Ediel_sol  =         0.00000000
  ---------------------------------------------------
  free energy    TOTEN  =      -175.35245033 eV

  energy without entropy =     -175.35851239  energy(sigma->0) =     -175.35396585


--------------------------------------------------------------------------------------------------------




--------------------------------------- Iteration      1(  19)  ---------------------------------------


    POTLOK:  cpu time   13.3743: real time   13.3756
    SETDIJ:  cpu time    0.1225: real time    0.1225
    EDDIAG:  cpu time   69.6602: real time   69.6607
  RMM-DIIS:  cpu time  186.8497: real time  186.8509
    ORTHCH:  cpu time   13.5573: real time   13.5573
       DOS:  cpu time    0.0015: real time    0.0015
    CHARGE:  cpu time   25.4857: real time   25.4856
    MIXING:  cpu time    0.9715: real time    0.9714
    --------------------------------------------
      LOOP:  cpu time  310.0226: real time  310.0256

 eigenvalue-minimisations  :   703
 total energy-change (2. order) : 0.2223395E+00  (-0.3749010E-01)
 number of electron     559.9999866 magnetization 
 augmentation part      241.1294363 magnetization 

 Broyden mixing:
  rms(total) = 0.99814E+00    rms(broyden)= 0.99792E+00
  rms(prec ) = 0.11302E+01
  weight for this iteration     100.00

 eigenvalues of (default mixing * dielectric matrix)
  average eigenvalue GAMMA=   0.3226
  1.6068  1.0561  0.4251  0.4251  0.1576  0.1576  0.1168  0.1168  0.0934  0.0934
  0.0872  0.0636  0.0636  0.0533

 Free energy of the ion-electron system (eV)
  ---------------------------------------------------
  alpha Z        PSCENC =        75.25431677
  Ewald energy   TEWEN  =    138381.83570470
  -Hartree energ DENC   =   -182540.88191666
  -exchange      EXHF   =         0.00000000
  -V(xc)+E(xc)   XCENC  =     -1694.59260900
  PAW double counting   =     46114.75119742   -42588.56886692
  entropy T*S    EENTRO =         0.02332094
  eigenvalues    EBANDS =     -3009.45675204
  atomic energy  EATOM  =     45086.50549395
  Solvation  Ediel_sol  =         0.00000000
  ---------------------------------------------------
  free energy    TOTEN  =      -175.13011084 eV

  energy without entropy =     -175.15343178  energy(sigma->0) =     -175.13594108


--------------------------------------------------------------------------------------------------------




--------------------------------------- Iteration      1(  20)  ---------------------------------------


    POTLOK:  cpu time   13.3103: real time   13.3112
    SETDIJ:  cpu time    0.1232: real time    0.1232
    EDDIAG:  cpu time   69.3963: real time   69.3987
  RMM-DIIS:  cpu time  188.8555: real time  188.8583
    ORTHCH:  cpu time   13.4715: real time   13.4714
       DOS:  cpu time    0.0015: real time    0.0015
    CHARGE:  cpu time   25.4618: real time   25.4616
    MIXING:  cpu time    1.0588: real time    1.0588
    --------------------------------------------
      LOOP:  cpu time  311.6788: real time  311.6847

 eigenvalue-minimisations  :   709
 total energy-change (2. order) : 0.1045403E+00  (-0.3296194E-01)
 number of electron     559.9999868 magnetization 
 augmentation part      241.1957253 magnetization 

 Broyden mixing:
  rms(total) = 0.98557E+00    rms(broyden)= 0.98540E+00
  rms(prec ) = 0.11580E+01
  weight for this iteration     100.00

 eigenvalues of (default mixing * dielectric matrix)
  average eigenvalue GAMMA=   0.3322
  1.7641  1.1009  0.4676  0.4676  0.1945  0.1945  0.1222  0.1222  0.0962  0.0962
  0.0899  0.0899  0.0621  0.0621  0.0535

 Free energy of the ion-electron system (eV)
  ---------------------------------------------------
  alpha Z        PSCENC =        75.25431677
  Ewald energy   TEWEN  =    138381.83570470
  -Hartree energ DENC   =   -182557.74085444
  -exchange      EXHF   =         0.00000000
  -V(xc)+E(xc)   XCENC  =     -1694.45203799
  PAW double counting   =     46119.49581770   -42592.48524420
  entropy T*S    EENTRO =         0.04688183
  eigenvalues    EBANDS =     -2993.48564890
  atomic energy  EATOM  =     45086.50549395
  Solvation  Ediel_sol  =         0.00000000
  ---------------------------------------------------
  free energy    TOTEN  =      -175.02557059 eV

  energy without entropy =     -175.07245241  energy(sigma->0) =     -175.03729104


--------------------------------------------------------------------------------------------------------




--------------------------------------- Iteration      1(  21)  ---------------------------------------


    POTLOK:  cpu time   13.2564: real time   13.2569
    SETDIJ:  cpu time    0.1220: real time    0.1220
    EDDIAG:  cpu time   69.3219: real time   69.3222
  RMM-DIIS:  cpu time  187.6049: real time  187.6069
    ORTHCH:  cpu time   13.5456: real time   13.5457
       DOS:  cpu time    0.0015: real time    0.0015
    CHARGE:  cpu time   25.3974: real time   25.3973
    MIXING:  cpu time    1.1783: real time    1.1783
    --------------------------------------------
      LOOP:  cpu time  310.4278: real time  310.4307

 eigenvalue-minimisations  :   706
 total energy-change (2. order) : 0.1915750E+00  (-0.2549530E-01)
 number of electron     559.9999864 magnetization 
 augmentation part      241.1889237 magnetization 

 Broyden mixing:
  rms(total) = 0.70951E+00    rms(broyden)= 0.70934E+00
  rms(prec ) = 0.82506E+00
  weight for this iteration     100.00

 eigenvalues of (default mixing * dielectric matrix)
  average eigenvalue GAMMA=   0.3378
  1.8526  1.1926  0.5008  0.5008  0.2165  0.2165  0.1262  0.1262  0.1160  0.0982
  0.0982  0.0965  0.0858  0.0535  0.0622  0.0622

 Free energy of the ion-electron system (eV)
  ---------------------------------------------------
  alpha Z        PSCENC =        75.25431677
  Ewald energy   TEWEN  =    138381.83570470
  -Hartree energ DENC   =   -182576.23031185
  -exchange      EXHF   =         0.00000000
  -V(xc)+E(xc)   XCENC  =     -1694.28249695
  PAW double counting   =     46127.07328945   -42599.16955216
  entropy T*S    EENTRO =        -0.01074413
  eigenvalues    EBANDS =     -2975.80969531
  atomic energy  EATOM  =     45086.50549395
  Solvation  Ediel_sol  =         0.00000000
  ---------------------------------------------------
  free energy    TOTEN  =      -174.83399554 eV

  energy without entropy =     -174.82325141  energy(sigma->0) =     -174.83130951


--------------------------------------------------------------------------------------------------------




--------------------------------------- Iteration      1(  22)  ---------------------------------------


    POTLOK:  cpu time   13.2636: real time   13.2661
    SETDIJ:  cpu time    0.1211: real time    0.1212
    EDDIAG:  cpu time   69.1552: real time   69.1557
  RMM-DIIS:  cpu time  187.7295: real time  187.7313
    ORTHCH:  cpu time   13.5741: real time   13.5739
       DOS:  cpu time    0.0015: real time    0.0015
    CHARGE:  cpu time   25.4574: real time   25.4571
    MIXING:  cpu time    1.2408: real time    1.2408
    --------------------------------------------
      LOOP:  cpu time  310.5433: real time  310.5478

 eigenvalue-minimisations  :   708
 total energy-change (2. order) :-0.5656907E-01  (-0.1934847E-01)
 number of electron     559.9999864 magnetization 
 augmentation part      241.1255697 magnetization 

 Broyden mixing:
  rms(total) = 0.78699E+00    rms(broyden)= 0.78684E+00
  rms(prec ) = 0.92567E+00
  weight for this iteration     100.00

 eigenvalues of (default mixing * dielectric matrix)
  average eigenvalue GAMMA=   0.3394
  1.9455  1.2631  0.4760  0.4760  0.3907  0.1722  0.1722  0.1247  0.1247  0.0982
  0.0982  0.0911  0.0911  0.0695  0.0535  0.0612  0.0612

 Free energy of the ion-electron system (eV)
  ---------------------------------------------------
  alpha Z        PSCENC =        75.25431677
  Ewald energy   TEWEN  =    138381.83570470
  -Hartree energ DENC   =   -182594.00484038
  -exchange      EXHF   =         0.00000000
  -V(xc)+E(xc)   XCENC  =     -1694.11371731
  PAW double counting   =     46130.18458066   -42601.53973908
  entropy T*S    EENTRO =        -0.04943632
  eigenvalues    EBANDS =     -2958.96292759
  atomic energy  EATOM  =     45086.50549395
  Solvation  Ediel_sol  =         0.00000000
  ---------------------------------------------------
  free energy    TOTEN  =      -174.89056461 eV

  energy without entropy =     -174.84112828  energy(sigma->0) =     -174.87820552


--------------------------------------------------------------------------------------------------------




--------------------------------------- Iteration      1(  23)  ---------------------------------------


    POTLOK:  cpu time   13.2891: real time   13.2896
    SETDIJ:  cpu time    0.1219: real time    0.1219
    EDDIAG:  cpu time   69.3496: real time   69.3500
  RMM-DIIS:  cpu time  188.5124: real time  188.5127
    ORTHCH:  cpu time   13.5862: real time   13.5863
       DOS:  cpu time    0.0015: real time    0.0015
    CHARGE:  cpu time   25.4724: real time   25.4725
    MIXING:  cpu time    1.2381: real time    1.2381
    --------------------------------------------
      LOOP:  cpu time  311.5712: real time  311.5728

 eigenvalue-minimisations  :   710
 total energy-change (2. order) : 0.1001193E+00  (-0.1489734E-01)
 number of electron     559.9999858 magnetization 
 augmentation part      241.1166155 magnetization 

 Broyden mixing:
  rms(total) = 0.71619E+00    rms(broyden)= 0.71604E+00
  rms(prec ) = 0.84208E+00
  weight for this iteration     100.00

 eigenvalues of (default mixing * dielectric matrix)
  average eigenvalue GAMMA=   0.3421
  1.9923  1.3283  0.6670  0.4194  0.4194  0.1797  0.1797  0.1228  0.1228  0.1255
[...]
 -0.007  -0.011   0.004   0.004   0.006  -0.006  -0.011   0.004
 -0.011  -0.019   0.006   0.007   0.010  -0.011  -0.018   0.006
 -0.014  -0.005   0.012   0.000   0.022  -0.014  -0.005   0.012
  0.000  -0.022  -0.006  -0.015  -0.000   0.000  -0.022  -0.006
 -0.022   0.000   0.009  -0.005  -0.016  -0.021   0.000   0.008
 -0.017  -0.006   0.015   0.000   0.027  -0.017  -0.006   0.015
  0.000  -0.027  -0.008  -0.018   0.000   0.000  -0.026  -0.007
 -0.027   0.000   0.010  -0.006  -0.019  -0.026   0.000   0.010
 total augmentation occupancy for first ion, spin component:           1
  1.537  -0.034   0.005   0.024   0.017   0.077  -0.008  -0.002   0.033  -0.009   0.098  -0.033   0.013   0.000   0.002  -0.019
 -0.034   1.401   0.031   0.065   0.009  -0.008   0.073   0.011  -0.011  -0.010   0.196  -0.059   0.019   0.004   0.002  -0.006
  0.005   0.031   1.543   0.001  -0.000  -0.002   0.012   0.074  -0.012   0.018  -0.054   0.018  -0.003  -0.007  -0.006   0.015
  0.024   0.065   0.001   1.330   0.052   0.031  -0.010  -0.012   0.093  -0.023  -0.084   0.022  -0.003  -0.004  -0.003   0.001
  0.017   0.009  -0.000   0.052   1.440  -0.009  -0.010   0.016  -0.023   0.066  -0.106   0.035  -0.002  -0.011  -0.010   0.026
  0.077  -0.008  -0.002   0.031  -0.009   0.216   0.019  -0.002  -0.044   0.003  -0.048   0.002   0.017  -0.009   0.034  -0.004
 -0.008   0.073   0.012  -0.010  -0.010   0.019   0.262  -0.023  -0.004   0.007  -0.108   0.008  -0.001   0.051  -0.010  -0.001
 -0.002   0.011   0.074  -0.012   0.016  -0.002  -0.023   0.215   0.014  -0.019   0.028  -0.001  -0.012   0.009  -0.017   0.003
  0.033  -0.011  -0.012   0.093  -0.023  -0.044  -0.004   0.014   0.259   0.008   0.043  -0.004  -0.009   0.035   0.004   0.000
 -0.009  -0.010   0.018  -0.023   0.066   0.003   0.007  -0.019   0.008   0.258   0.048  -0.002  -0.038   0.002   0.049   0.007
  0.098   0.196  -0.054  -0.084  -0.106  -0.048  -0.108   0.028   0.043   0.048   0.954  -0.141   0.084   0.014   0.064  -0.013
 -0.033  -0.059   0.018   0.022   0.035   0.002   0.008  -0.001  -0.004  -0.002  -0.141   0.023  -0.014  -0.003  -0.010   0.003
  0.013   0.019  -0.003  -0.003  -0.002   0.017  -0.001  -0.012  -0.009  -0.038   0.084  -0.014   0.029  -0.008  -0.004  -0.003
  0.000   0.004  -0.007  -0.004  -0.011  -0.009   0.051   0.009   0.035   0.002   0.014  -0.003  -0.008   0.035   0.004   0.000
  0.002   0.002  -0.006  -0.003  -0.010   0.034  -0.010  -0.017   0.004   0.049   0.064  -0.010  -0.004   0.004   0.035  -0.000
 -0.019  -0.006   0.015   0.001   0.026  -0.004  -0.001   0.003   0.000   0.007  -0.013   0.003  -0.003   0.000  -0.000   0.001
  0.001  -0.028  -0.007  -0.018   0.001   0.001  -0.008  -0.002  -0.006  -0.000  -0.003   0.001   0.000  -0.003  -0.000   0.000
 -0.028   0.001   0.012  -0.006  -0.020  -0.006   0.001   0.003  -0.001  -0.007  -0.008   0.001  -0.000  -0.000  -0.003   0.000


------------------------ aborting loop because EDIFF is reached ----------------------------------------


    CHARGE:  cpu time   25.2481: real time   25.2479
    FORLOC:  cpu time    6.7958: real time    6.7958
    FORNL :  cpu time   65.9295: real time   65.9290
    STRESS:  cpu time  198.8510: real time  198.8573
    FORCOR:  cpu time   22.0438: real time   22.0453
    FORHAR:  cpu time    9.7377: real time    9.7377
    MIXING:  cpu time    3.5305: real time    3.5305
    OFIELD:  cpu time    0.0000: real time    0.0000

  FORCE on cell =-STRESS in cart. coord.  units (eV):
  Direction    XX          YY          ZZ          XY          YZ          ZX
  --------------------------------------------------------------------------------------
  Alpha Z    75.25432    75.25432    75.25432
  Ewald   44149.29566 44279.65287 49952.78143    12.28589   545.25046    87.69697
  Hartree 59079.94598 59187.43959 64484.69388     9.85138   481.53167    77.11205
  E(xc)   -2905.45076 -2905.09297 -2902.60692     0.04246     0.67162     0.12218
  Local  ************************************   -21.67830 -1018.10020  -163.35867
  n-local  -881.49018  -882.61062  -893.37556    -0.16736    -2.55444    -0.40176
  augment  4105.44269  4104.79416  4101.08561    -0.09231    -1.17560    -0.23413
  Kinetic  7815.06104  7812.51606  7784.33680    -0.37111    -6.84016    -1.18210
  Fock        0.00000     0.00000     0.00000     0.00000     0.00000     0.00000
  -------------------------------------------------------------------------------------
  Total    -113.20791  -114.17023  -113.88193    -0.12935    -1.21665    -0.24545
  in kB      -6.71775    -6.77485    -6.75774    -0.00768    -0.07220    -0.01456
  external pressure =       -6.75 kB  Pullay stress =        0.00 kB


 VOLUME and BASIS-vectors are now :
 -----------------------------------------------------------------------------
  energy-cutoff  :      400.00
  volume of cell :    27000.00
      direct lattice vectors                 reciprocal lattice vectors
    30.000000000  0.000000000  0.000000000     0.033333333  0.000000000  0.000000000
     0.000000000 30.000000000  0.000000000     0.000000000  0.033333333  0.000000000
     0.000000000  0.000000000 30.000000000     0.000000000  0.000000000  0.033333333

  length of vectors
    30.000000000 30.000000000 30.000000000     0.033333333  0.033333333  0.033333333


 FORCES acting on ions
    electron-ion (+dipol)            ewald-force                    non-local-force                 convergence-correction
 -----------------------------------------------------------------------------------------------
   0.400E+03 0.988E+03 0.393E+03   -.398E+03 -.986E+03 -.392E+03   -.154E+01 -.183E+01 -.223E+00   -.137E-01 -.354E-03 0.470E-02
   -.985E+03 -.401E+03 0.402E+03   0.982E+03 0.399E+03 -.401E+03   0.183E+01 0.152E+01 -.200E+00   0.351E-02 0.351E-02 0.340E-02
   -.401E+03 0.988E+03 0.394E+03   0.399E+03 -.985E+03 -.393E+03   0.154E+01 -.183E+01 -.215E+00   -.153E-02 -.391E-02 -.845E-03
   0.985E+03 -.402E+03 0.400E+03   -.982E+03 0.399E+03 -.400E+03   -.183E+01 0.152E+01 -.200E+00   -.761E-02 -.793E-02 0.107E-01
   -.433E+01 0.652E+03 0.890E+03   0.434E+01 -.652E+03 -.887E+03   -.690E-02 -.184E-01 -.228E+01   -.522E-02 0.345E-02 -.663E-02
   -.105E+00 0.587E+03 -.968E+03   0.114E+00 -.587E+03 0.964E+03   0.217E-03 -.306E+00 0.236E+01   -.105E-01 0.180E-01 0.552E-02
   -.245E+00 0.114E+04 -.110E+02   0.251E+00 -.114E+04 0.109E+02   0.439E-03 -.310E+01 0.336E-01   -.729E-02 -.589E-02 0.762E-02
   0.114E+04 -.132E+01 -.893E+01   -.114E+04 0.132E+01 0.889E+01   -.310E+01 -.932E-03 0.176E-01   0.880E-02 -.147E-03 0.117E-01
   -.114E+04 -.124E+01 -.831E+01   0.113E+04 0.123E+01 0.829E+01   0.310E+01 -.132E-02 0.140E-01   0.445E-02 0.393E-02 0.679E-02
   -.163E+00 -.114E+04 -.696E+01   0.164E+00 0.113E+04 0.695E+01   -.396E-03 0.311E+01 0.202E-02   -.898E-03 0.426E-02 0.122E-01
   -.614E+03 0.602E+03 0.782E+03   0.612E+03 -.599E+03 -.778E+03   0.153E+01 -.154E+01 -.221E+01   0.531E-02 0.522E-03 -.785E-02
   -.580E+03 0.579E+03 -.815E+03   0.577E+03 -.577E+03 0.812E+03   0.156E+01 -.155E+01 0.220E+01   -.720E-02 0.824E-02 0.731E-02
   0.596E+03 -.603E+03 0.795E+03   -.594E+03 0.601E+03 -.791E+03   -.155E+01 0.155E+01 -.221E+01   -.979E-02 -.348E-02 -.960E-03
   0.579E+03 -.580E+03 -.815E+03   -.577E+03 0.577E+03 0.812E+03   -.155E+01 0.156E+01 0.220E+01   0.486E-02 -.171E-01 -.236E-02
   0.616E+03 0.605E+03 0.777E+03   -.613E+03 -.603E+03 -.774E+03   -.153E+01 -.153E+01 -.221E+01   -.108E-01 0.155E-02 0.909E-03
   0.579E+03 0.579E+03 -.816E+03   -.577E+03 -.577E+03 0.812E+03   -.156E+01 -.155E+01 0.220E+01   -.267E-02 0.200E-01 -.104E-02
   -.596E+03 -.601E+03 0.796E+03   0.594E+03 0.599E+03 -.793E+03   0.156E+01 0.155E+01 -.221E+01   0.258E-02 0.247E-02 -.244E-02
   -.579E+03 -.580E+03 -.815E+03   0.577E+03 0.577E+03 0.812E+03   0.155E+01 0.156E+01 0.220E+01   -.114E-01 -.464E-02 0.344E-02
   0.395E+03 0.974E+03 -.424E+03   -.393E+03 -.971E+03 0.423E+03   -.150E+01 -.183E+01 0.195E+00   -.989E-02 0.115E-01 0.919E-02
   -.974E+03 -.396E+03 -.422E+03   0.971E+03 0.393E+03 0.421E+03   0.183E+01 0.150E+01 0.218E+00   -.387E-02 0.309E-02 0.899E-02
   -.336E+03 0.326E+03 0.410E+03   0.337E+03 -.327E+03 -.411E+03   -.367E+00 0.336E+00 0.418E+00   -.586E-02 0.992E-02 0.263E-02
   0.988E+03 0.396E+03 0.397E+03   -.985E+03 -.394E+03 -.396E+03   -.183E+01 -.152E+01 -.225E+00   -.624E-02 0.566E-02 0.136E-01
   -.398E+03 -.985E+03 0.404E+03   0.396E+03 0.982E+03 -.403E+03   0.151E+01 0.183E+01 -.206E+00   0.648E-02 0.318E-02 0.143E-02
   -.395E+03 0.974E+03 -.423E+03   0.393E+03 -.971E+03 0.423E+03   0.149E+01 -.183E+01 0.197E+00   -.667E-02 0.363E-02 0.124E-01
   0.974E+03 -.396E+03 -.422E+03   -.971E+03 0.394E+03 0.422E+03   -.183E+01 0.150E+01 0.215E+00   0.960E-02 -.121E-01 0.129E-01
   -.988E+03 0.396E+03 0.399E+03   0.985E+03 -.393E+03 -.398E+03   0.183E+01 -.152E+01 -.222E+00   0.610E-02 0.173E-02 -.187E-02
   0.397E+03 -.985E+03 0.403E+03   -.395E+03 0.982E+03 -.403E+03   -.151E+01 0.183E+01 -.209E+00   -.685E-02 0.856E-03 -.534E-03
   0.334E+03 0.327E+03 0.408E+03   -.335E+03 -.327E+03 -.408E+03   0.375E+00 0.349E+00 0.389E+00   -.124E-01 0.797E-02 0.120E-01
   -.419E+00 0.644E+03 -.194E+02   0.433E+00 -.645E+03 0.193E+02   0.453E-03 0.724E+00 0.567E-01   -.147E-01 0.120E-01 0.147E-01
   -.633E+03 -.135E+02 0.927E+03   0.633E+03 0.135E+02 -.924E+03   0.189E+00 -.161E-01 -.238E+01   -.726E-04 0.157E-03 -.351E-02
   -.588E+03 -.678E+00 -.967E+03   0.587E+03 0.671E+00 0.964E+03   0.301E+00 0.966E-03 0.236E+01   -.140E-01 0.512E-02 0.410E-02
   0.637E+03 -.159E+02 0.921E+03   -.636E+03 0.159E+02 -.917E+03   -.152E+00 -.217E-01 -.237E+01   -.813E-02 0.803E-03 0.563E-02
   0.588E+03 -.695E+00 -.968E+03   -.587E+03 0.686E+00 0.964E+03   -.302E+00 0.851E-03 0.236E+01   0.460E-02 0.757E-02 -.791E-02
   0.766E+03 0.764E+03 -.148E+02   -.764E+03 -.762E+03 0.148E+02   -.114E+01 -.114E+01 0.213E-01   -.113E-01 0.135E-01 0.128E-01
   -.765E+03 -.766E+03 -.105E+02   0.763E+03 0.764E+03 0.105E+02   0.113E+01 0.113E+01 -.281E-01   0.292E-02 0.571E-03 0.108E-01
   -.766E+03 0.764E+03 -.141E+02   0.765E+03 -.762E+03 0.140E+02   0.114E+01 -.114E+01 0.139E-01   0.488E-03 0.425E-02 0.898E-02
   0.764E+03 -.766E+03 -.110E+02   -.763E+03 0.764E+03 0.110E+02   -.113E+01 0.113E+01 -.225E-01   -.100E-01 -.159E-01 0.197E-01
   -.114E+02 -.730E+02 0.892E+03   0.112E+02 0.714E+02 -.894E+03   0.129E+00 0.801E+00 0.126E+01   -.408E-02 0.194E-02 -.107E-02
   -.104E+00 -.773E+00 -.107E+04   0.117E+00 0.746E+00 0.107E+04   0.176E-02 0.121E-01 0.163E+01   -.161E-01 0.815E-02 -.625E-03
   0.974E+03 0.394E+03 -.423E+03   -.971E+03 -.392E+03 0.422E+03   -.183E+01 -.150E+01 0.203E+00   0.700E-02 0.151E-01 0.658E-02
   -.395E+03 -.974E+03 -.421E+03   0.393E+03 0.971E+03 0.421E+03   0.150E+01 0.183E+01 0.222E+00   -.560E-02 -.710E-02 0.166E-01
   -.323E+03 0.321E+03 -.463E+03   0.323E+03 -.322E+03 0.463E+03   -.359E+00 0.360E+00 -.529E+00   -.165E-01 0.145E-01 0.181E-01
   0.330E+03 -.338E+03 0.421E+03   -.331E+03 0.338E+03 -.421E+03   0.254E+00 -.288E+00 0.594E+00   -.971E-02 -.108E-01 0.779E-02
   0.322E+03 0.321E+03 -.463E+03   -.323E+03 -.322E+03 0.464E+03   0.358E+00 0.359E+00 -.531E+00   -.132E-01 0.198E-01 0.165E-01
   -.974E+03 0.394E+03 -.423E+03   0.972E+03 -.392E+03 0.422E+03   0.183E+01 -.150E+01 0.206E+00   -.142E-02 0.763E-02 0.115E-01
   0.395E+03 -.974E+03 -.422E+03   -.392E+03 0.972E+03 0.421E+03   -.150E+01 0.183E+01 0.219E+00   -.591E-02 -.142E-01 0.236E-01
   -.332E+03 -.337E+03 0.422E+03   0.332E+03 0.337E+03 -.423E+03   -.236E+00 -.263E+00 0.631E+00   -.338E-02 -.335E-02 0.522E-02
   0.645E+03 -.239E+01 -.167E+02   -.646E+03 0.239E+01 0.166E+02   0.724E+00 0.183E-02 0.308E-01   -.106E-01 -.183E-02 0.216E-01
   -.645E+03 -.228E+01 -.158E+02   0.646E+03 0.227E+01 0.158E+02   -.725E+00 0.116E-02 0.234E-01   -.563E-02 0.747E-02 0.120E-01
   -.146E+01 -.626E+03 0.938E+03   0.147E+01 0.626E+03 -.935E+03   -.141E-02 0.279E+00 -.242E+01   -.261E-02 -.267E-02 -.493E-02
   -.861E-01 -.588E+03 -.967E+03   0.995E-01 0.587E+03 0.963E+03   0.374E-03 0.297E+00 0.237E+01   -.142E-01 -.137E-01 0.296E-02
   -.477E+00 -.313E+01 -.220E+02   0.491E+00 0.313E+01 0.220E+02   -.189E-03 -.239E-02 0.198E-01   -.145E-01 0.106E-02 0.195E-01
   0.322E+03 -.323E+03 -.462E+03   -.323E+03 0.324E+03 0.462E+03   0.366E+00 -.366E+00 -.515E+00   -.118E-01 -.108E-01 0.272E-01
   -.322E+03 -.323E+03 -.462E+03   0.323E+03 0.324E+03 0.462E+03   -.367E+00 -.367E+00 -.512E+00   -.150E-01 -.408E-02 0.204E-01
   -.310E+00 -.646E+03 -.138E+02   0.314E+00 0.647E+03 0.138E+02   -.117E-03 -.729E+00 0.101E-02   -.373E-02 -.109E-01 0.200E-01
   0.543E+01 0.305E+02 0.240E+03   -.480E+01 -.266E+02 -.214E+03   -.394E+00 -.259E+01 -.207E+02   -.108E-02 0.100E-02 -.153E-02
   0.147E+02 0.921E+02 0.751E+03   -.160E+02 -.101E+03 -.815E+03   0.126E+01 0.818E+01 0.606E+02   -.128E-02 0.629E-03 -.231E-02
 -----------------------------------------------------------------------------------------------
   -.775E+00 -.687E+01 -.432E+02   0.508E-12 -.284E-12 -.909E-12   0.106E+01 0.678E+01 0.428E+02   -.288E+00 0.838E-01 0.407E+00
 
 
 POSITION                                       TOTAL-FORCE (eV/Angst)
 -----------------------------------------------------------------------------------
     13.37281      9.84801     12.50759         0.703271      1.097775      0.297246
     20.15199     16.62719     12.50759        -1.108052     -0.703630      0.286526
     16.62719      9.84801     12.50759        -0.704024      1.099674      0.294321
      9.84801     16.62719     12.50759         1.108656     -0.704787      0.286505
     15.00000     11.47521     10.20639        -0.002726      0.435181      1.258220
     15.00000     11.47521     19.79360        -0.000220      0.407952     -1.280971
     15.00000      8.28283     15.00000        -0.000723      1.509307     -0.011749
      8.28283     15.00000     15.00000         1.510829     -0.002268     -0.006462
     21.71717     15.00000     15.00000        -1.510977     -0.002147     -0.005340
     15.00000     21.71717     15.00000        -0.000162     -1.512784     -0.002058
     18.35858     11.64142     10.25025        -0.741684      0.747633      1.075483
     18.35858     11.64142     19.74975        -0.755208      0.752396     -1.073596
     11.64142     18.35858     10.25025         0.753201     -0.752220      1.073016
     11.64142     18.35858     19.74975         0.752578     -0.754842     -1.074648
     11.64142     11.64142     10.25025         0.739343      0.745031      1.076219
     11.64142     11.64142     19.74975         0.755340      0.753022     -1.073483
     18.35858     18.35858     10.25025        -0.753131     -0.753094      1.071982
     18.35858     18.35858     19.74975        -0.752324     -0.754199     -1.074237
     13.37281      9.84801     17.49241         0.699760      1.110529     -0.287689
     20.15199     16.62719     17.49241        -1.109287     -0.699033     -0.291486
     16.73751     13.26249     12.54279         0.155394     -0.134944     -0.125567
      9.84801     13.37281     12.50759         1.101336      0.699778      0.297575
     16.62719     20.15199     12.50759        -0.698899     -1.107254      0.288975
     16.62719      9.84801     17.49241        -0.699180      1.110642     -0.287392
      9.84801     16.62719     17.49241         1.110083     -0.698863     -0.290375
     20.15199     13.37281     12.50759        -1.102648      0.699084      0.296078
     13.37281     20.15199     12.50759         0.698319     -1.106832      0.289503
     13.26249     13.26249     12.54279        -0.155181     -0.140131     -0.121929
     15.00000     11.52498     15.00000        -0.000079     -0.218973      0.002774
     18.52479     15.00000     10.20639        -0.375313      0.010196      1.323355
     18.52479     15.00000     19.79360        -0.406385     -0.001132     -1.281292
     11.47521     15.00000     10.20640         0.370901      0.011671      1.325577
     11.47521     15.00000     19.79360         0.407234     -0.001148     -1.281652
     11.49535     11.49535     15.00000         0.825795      0.827486      0.001686
     18.50465     18.50465     15.00000        -0.818420     -0.815798      0.019151
     18.50465     11.49535     15.00000        -0.823369      0.826123      0.004669
     11.49535     18.50465     15.00000         0.819304     -0.815878      0.018239
     15.00000     15.00000     10.04368        -0.124482     -0.771046     -0.800483
     15.00000     15.00000     19.95633        -0.000984     -0.006847     -1.185118
      9.84801     13.37281     17.49241         1.108489      0.700332     -0.289535
     16.62719     20.15199     17.49241        -0.700112     -1.107250     -0.292231
     16.73751     13.26249     17.45721         0.114401     -0.112855      0.154232
     13.26249     16.73751     12.54279        -0.089422      0.113402     -0.162126
     13.26249     13.26249     17.45721        -0.114217     -0.112919      0.154240
     20.15199     13.37281     17.49241        -1.107329      0.700113     -0.289705
     13.37281     20.15199     17.49241         0.700375     -1.107155     -0.291494
     16.73751     16.73751     12.54279         0.076751      0.095650     -0.177463
     11.52498     15.00000     15.00000        -0.218508      0.001522      0.001619
     18.47502     15.00000     15.00000         0.218496      0.002068      0.001238
     15.00000     18.52480     10.20639         0.000985     -0.393652      1.315302
     15.00000     18.52480     19.79360        -0.000285     -0.403854     -1.281993
     15.00000     15.00000     15.00000        -0.000050      0.000362     -0.007687
     13.26249     16.73751     17.45721        -0.113705      0.113650      0.152731
     16.73751     16.73751     17.45721         0.113790      0.113478      0.152381
     15.00000     18.47502     15.00000         0.000442      0.216923     -0.001228
     14.84904     14.03691      7.97912         0.241503      1.321142      5.175296
     14.82502     13.88365      6.86183        -0.099491     -0.526587     -3.345147
 -----------------------------------------------------------------------------------
    total drift:                               -0.005767     -0.003291      0.005165


--------------------------------------------------------------------------------------------------------



  FREE ENERGIE OF THE ION-ELECTRON SYSTEM (eV)
  ---------------------------------------------------
  free  energy   TOTEN  =      -174.48239397 eV

  energy  without entropy=     -174.42194481  energy(sigma->0) =     -174.46728168
 


--------------------------------------------------------------------------------------------------------


    POTLOK:  cpu time   14.3423: real time   14.3478


--------------------------------------------------------------------------------------------------------


     LOOP+:  cpu time18497.8444: real time18498.5207
    4ORBIT:  cpu time    0.0000: real time    0.0000

 total amount of memory used by VASP MPI-rank0  5486942. kBytes
=======================================================================

   base      :      30000. kBytes
   nonlr-proj:      17127. kBytes
   fftplans  :     924480. kBytes
   grid      :    1872000. kBytes
   one-center:        886. kBytes
   wavefun   :    2642449. kBytes
 
  
  
 General timing and accounting informations for this job:
 ========================================================
  
                  Total CPU time used (sec):    18571.209
                            User time (sec):    17520.829
                          System time (sec):     1050.381
                         Elapsed time (sec):    18571.942
  
                   Maximum memory used (kb):     7178560.
                   Average memory used (kb):           0.
  
                          Minor page faults:    827346292
                          Major page faults:            0
                 Voluntary context switches:          468
