<?xml version="1.0" encoding="ISO-8859-1"?>
<modeling>
 <generator>
  <i name="program" type="string">vasp </i>
  <i name="version" type="string">5.4.4.18Apr17-6-g9f103f2a35  </i>
  <i name="subversion" type="string">(build Sep 03 2018 23:53:05) complex            parallel </i>
  <i name="platform" type="string">LinuxIFC </i>
  <i name="date" type="string">2021 12 02 </i>
  <i name="time" type="string">20:46:43 </i>
 </generator>
 <incar>
  <i type="string" name="SYSTEM"> 6_Pd100_top_free_z(O)</i>
  <i type="int" name="ISTART">     0</i>
  <i type="string" name="PREC">normal   			! encut=max(enmax), ngx,y,z</i>
  <i type="string" name="ALGO"> Fast     			! Mix RMM-DIIS and Dav</i>
  <i type="logical" name="ADDGRID"> F  </i>
  <i type="int" name="ISPIN">     1</i>
  <i type="int" name="ICHARG">     2</i>
  <i type="int" name="NELM">   100</i>
  <i type="int" name="NELMIN">     6</i>
  <i type="int" name="IBRION">     2</i>
  <i name="EDIFF">      0.00010000</i>
  <i name="EDIFFG">     -0.05000000</i>
  <i type="int" name="NSW">     0</i>
  <i type="int" name="ISIF">     2</i>
  <i type="int" name="ISYM">     2</i>
  <i name="ENCUT">    400.00000000</i>
  <i type="string" name="LREAL"> Auto     			! Auto or A projection done</i>
  <i type="int" name="ISMEAR">     2</i>
  <i name="SIGMA">      0.20000000</i>
  <i type="logical" name="LWAVE"> F  </i>
  <i type="logical" name="LCHARG"> F  </i>
  <v type="int" name="KPOINT_BSE">    -1     0     0     0</v>
  <i type="int" name="MAXMEM"> 10000</i>
  <i type="int" name="NELM">   100</i>
  <i type="string" name="GGA"> RP         			! Revised PBE</i>
 </incar>
 <structure name="primitive_cell" >
  <crystal>
   <varray name="basis" >
    <v>      30.00000000       0.00000000       0.00000000 </v>
    <v>       0.00000000      30.00000000       0.00000000 </v>
    <v>       0.00000000       0.00000000      30.00000000 </v>
   </varray>
   <i name="volume">  27000.00000000 </i>
   <varray name="rec_basis" >
    <v>       0.03333333       0.00000000       0.00000000 </v>
    <v>       0.00000000       0.03333333       0.00000000 </v>
    <v>       0.00000000       0.00000000       0.03333333 </v>
   </varray>
  </crystal>
  <varray name="positions" >
   <v>       0.44576020       0.32826710       0.41691983 </v>
   <v>      -0.44576020       0.32826710       0.41691983 </v>
   <v>      -0.50000000       0.38250690       0.34021317 </v>
   <v>      -0.50000000       0.27609440      -0.50000000 </v>
   <v>       0.38804720       0.38804720       0.34167483 </v>
   <v>      -0.50000000       0.38416601      -0.50000000 </v>
   <v>       0.44208300       0.44208300       0.41809300 </v>
   <v>       0.38317830       0.38317830      -0.50000000 </v>
   <v>      -0.44208300       0.44208300       0.41809300 </v>
   <v>       0.44576020       0.32826710      -0.41691977 </v>
   <v>       0.32826705       0.44576024       0.41691983 </v>
   <v>      -0.38804720       0.38804720       0.34167483 </v>
   <v>      -0.38317830       0.38317830      -0.50000000 </v>
   <v>      -0.50000000      -0.50000000       0.33478917 </v>
   <v>      -0.50000000      -0.50000000      -0.50000000 </v>
   <v>      -0.44576020       0.32826710      -0.41691977 </v>
   <v>       0.38250685      -0.49999995       0.34021317 </v>
   <v>       0.44208300       0.44208300      -0.41809297 </v>
   <v>       0.38416599      -0.49999998      -0.50000000 </v>
   <v>      -0.44208300       0.44208300      -0.41809297 </v>
   <v>       0.44208298      -0.44208298       0.41809300 </v>
   <v>       0.32826705       0.44576024      -0.41691977 </v>
   <v>      -0.50000000       0.38250690      -0.34021320 </v>
   <v>       0.32826712      -0.44576022       0.41691983 </v>
   <v>      -0.38250685      -0.49999995       0.34021317 </v>
   <v>      -0.32826705       0.44576024       0.41691983 </v>
   <v>       0.27609443       0.49999998      -0.50000000 </v>
   <v>       0.38804720       0.38804720      -0.34167487 </v>
   <v>      -0.38416599      -0.49999998      -0.50000000 </v>
   <v>      -0.44208298      -0.44208298       0.41809300 </v>
   <v>       0.44208298      -0.44208298      -0.41809297 </v>
   <v>      -0.38804720       0.38804720      -0.34167487 </v>
   <v>       0.38804722      -0.38804722       0.34167483 </v>
   <v>       0.38250685      -0.49999995      -0.34021320 </v>
   <v>       0.32826712      -0.44576022      -0.41691977 </v>
   <v>      -0.32826705       0.44576024      -0.41691977 </v>
   <v>       0.50000000      -0.38250681       0.34021317 </v>
   <v>      -0.50000000      -0.38416596      -0.50000000 </v>
   <v>      -0.44208298      -0.44208298      -0.41809297 </v>
   <v>      -0.50000000      -0.50000000      -0.33478913 </v>
   <v>       0.38317828      -0.38317828      -0.50000000 </v>
   <v>      -0.32826712      -0.44576022       0.41691983 </v>
   <v>      -0.27609443       0.49999998      -0.50000000 </v>
   <v>      -0.38804722      -0.38804722       0.34167483 </v>
   <v>      -0.38250685      -0.49999995      -0.34021320 </v>
   <v>       0.44576027      -0.32826707       0.41691983 </v>
   <v>      -0.38317828      -0.38317828      -0.50000000 </v>
   <v>      -0.32826712      -0.44576022      -0.41691977 </v>
   <v>      -0.44576027      -0.32826707       0.41691983 </v>
   <v>       0.38804722      -0.38804722      -0.34167487 </v>
   <v>      -0.50000000      -0.38250681      -0.34021320 </v>
   <v>       0.44576027      -0.32826707      -0.41691977 </v>
   <v>       0.48669790      -0.49817813      -0.24185433 </v>
   <v>      -0.44576027      -0.32826707      -0.41691977 </v>
   <v>      -0.50000000      -0.27609445       0.50000000 </v>
   <v>      -0.38804722      -0.38804722      -0.34167487 </v>
   <v>       0.48476300      -0.49791313      -0.20430507 </v>
  </varray>
 </structure>
 <varray name="primitive_index" >
  <v type="int" >        1 </v>
  <v type="int" >        3 </v>
  <v type="int" >        5 </v>
  <v type="int" >        7 </v>
  <v type="int" >       15 </v>
  <v type="int" >       29 </v>
  <v type="int" >       28 </v>
  <v type="int" >       34 </v>
  <v type="int" >       21 </v>
  <v type="int" >       19 </v>
  <v type="int" >       22 </v>
  <v type="int" >       11 </v>
  <v type="int" >       36 </v>
  <v type="int" >       38 </v>
  <v type="int" >       52 </v>
  <v type="int" >       24 </v>
  <v type="int" >       32 </v>
  <v type="int" >       44 </v>
  <v type="int" >       48 </v>
  <v type="int" >       42 </v>
  <v type="int" >       43 </v>
  <v type="int" >       40 </v>
  <v type="int" >        6 </v>
  <v type="int" >        4 </v>
  <v type="int" >       30 </v>
  <v type="int" >       26 </v>
  <v type="int" >        8 </v>
  <v type="int" >       16 </v>
  <v type="int" >       49 </v>
  <v type="int" >       47 </v>
  <v type="int" >       53 </v>
  <v type="int" >       12 </v>
  <v type="int" >       13 </v>
  <v type="int" >       33 </v>
  <v type="int" >       25 </v>
  <v type="int" >       45 </v>
  <v type="int" >       50 </v>
  <v type="int" >       55 </v>
  <v type="int" >       54 </v>
  <v type="int" >       39 </v>
  <v type="int" >       37 </v>
  <v type="int" >        2 </v>
  <v type="int" >        9 </v>
  <v type="int" >       17 </v>
  <v type="int" >       31 </v>
  <v type="int" >       27 </v>
  <v type="int" >       35 </v>
  <v type="int" >       20 </v>
  <v type="int" >       23 </v>
  <v type="int" >       14 </v>
  <v type="int" >       51 </v>
  <v type="int" >       46 </v>
  <v type="int" >       56 </v>
  <v type="int" >       41 </v>
  <v type="int" >       10 </v>
  <v type="int" >       18 </v>
  <v type="int" >       57 </v>
 </varray>
 <kpoints>
  <generation param="Monkhorst-Pack">
   <v type="int" name="divisions">       1        1        1 </v>
   <v name="usershift">      0.00000000       0.00000000       0.00000000 </v>
   <v name="genvec1">      1.00000000       0.00000000       0.00000000 </v>
   <v name="genvec2">      0.00000000       1.00000000       0.00000000 </v>
   <v name="genvec3">      0.00000000       0.00000000       1.00000000 </v>
   <v name="shift">      0.00000000       0.00000000       0.00000000 </v>
  </generation>
  <varray name="kpointlist" >
   <v>       0.00000000       0.00000000       0.00000000 </v>
  </varray>
  <varray name="weights" >
   <v>       1.00000000 </v>
  </varray>
 </kpoints>
 <parameters>
  <separator name="general" >
   <i type="string" name="SYSTEM">6_Pd100_top_free_z(O)</i>
   <i type="logical" name="LCOMPAT"> F  </i>
  </separator>
  <separator name="electronic" >
   <i type="string" name="PREC">normal</i>
   <i name="ENMAX">    400.00000000</i>
   <i name="ENAUG">    644.87300000</i>
   <i name="EDIFF">      0.00010000</i>
   <i type="int" name="IALGO">    68</i>
   <i type="int" name="IWAVPR">    10</i>
   <i type="int" name="NBANDS">   336</i>
   <i name="NELECT">    560.00000000</i>
   <i type="int" name="TURBO">     0</i>
   <i type="int" name="IRESTART">     0</i>
   <i type="int" name="NREBOOT">     0</i>
   <i type="int" name="NMIN">     0</i>
   <i name="EREF">      0.00000000</i>
   <separator name="electronic smearing" >
    <i type="int" name="ISMEAR">     2</i>
    <i name="SIGMA">      0.20000000</i>
    <i name="KSPACING">      0.50000000</i>
    <i type="logical" name="KGAMMA"> T  </i>
   </separator>
   <separator name="electronic projectors" >
    <i type="logical" name="LREAL"> T  </i>
    <v name="ROPT">     -0.00050000     -0.00050000     -0.00050000</v>
    <i type="int" name="LMAXPAW">  -100</i>
    <i type="int" name="LMAXMIX">     2</i>
    <i type="logical" name="NLSPLINE"> F  </i>
   </separator>
   <separator name="electronic startup" >
    <i type="int" name="ISTART">     0</i>
    <i type="int" name="ICHARG">     2</i>
    <i type="int" name="INIWAV">     1</i>
   </separator>
   <separator name="electronic spin" >
    <i type="int" name="ISPIN">     1</i>
    <i type="logical" name="LNONCOLLINEAR"> F  </i>
    <v name="MAGMOM">      1.00000000      1.00000000      1.00000000      1.00000000      1.00000000      1.00000000      1.00000000      1.00000000      1.00000000      1.00000000      1.00000000      1.00000000      1.00000000      1.00000000      1.00000000      1.00000000      1.00000000      1.00000000      1.00000000      1.00000000
      1.00000000      1.00000000      1.00000000      1.00000000      1.00000000      1.00000000      1.00000000      1.00000000      1.00000000      1.00000000      1.00000000      1.00000000      1.00000000      1.00000000      1.00000000      1.00000000      1.00000000      1.00000000      1.00000000      1.00000000
      1.00000000      1.00000000      1.00000000      1.00000000      1.00000000      1.00000000      1.00000000      1.00000000      1.00000000      1.00000000      1.00000000      1.00000000      1.00000000      1.00000000      1.00000000      1.00000000      1.00000000</v>
    <i name="NUPDOWN">     -1.00000000</i>
    <i type="logical" name="LSORBIT"> F  </i>
    <v name="SAXIS">      0.00000000      0.00000000      1.00000000</v>
    <i type="logical" name="LSPIRAL"> F  </i>
    <v name="QSPIRAL">      0.00000000      0.00000000      0.00000000</v>
    <i type="logical" name="LZEROZ"> F  </i>
   </separator>
   <separator name="electronic exchange-correlation" >
    <i type="logical" name="LASPH"> F  </i>
    <i type="logical" name="LMETAGGA"> F  </i>
   </separator>
   <separator name="electronic convergence" >
    <i type="int" name="NELM">   100</i>
    <i type="int" name="NELMDL">    -5</i>
    <i type="int" name="NELMIN">     6</i>
    <i name="ENINI">    400.00000000</i>
    <separator name="electronic convergence detail" >
     <i type="logical" name="LDIAG"> T  </i>
     <i type="logical" name="LSUBROT"> F  </i>
     <i name="WEIMIN">      0.00000000</i>
     <i name="EBREAK">      0.00000007</i>
     <i name="DEPER">      0.30000000</i>
     <i type="int" name="NRMM">     4</i>
     <i name="TIME">      0.40000000</i>
    </separator>
   </separator>
   <separator name="electronic mixer" >
    <i name="AMIX">      0.40000000</i>
    <i name="BMIX">      1.00000000</i>
    <i name="AMIN">      0.10000000</i>
    <i name="AMIX_MAG">      1.60000000</i>
    <i name="BMIX_MAG">      1.00000000</i>
    <separator name="electronic mixer details" >
     <i type="int" name="IMIX">     4</i>
     <i type="logical" name="MIXFIRST"> F  </i>
     <i type="int" name="MAXMIX">   -45</i>
     <i name="WC">    100.00000000</i>
     <i type="int" name="INIMIX">     1</i>
     <i type="int" name="MIXPRE">     1</i>
     <i type="int" name="MREMOVE">     5</i>
    </separator>
   </separator>
   <separator name="electronic dipolcorrection" >
    <i type="logical" name="LDIPOL"> F  </i>
    <i type="logical" name="LMONO"> F  </i>
    <i type="int" name="IDIPOL">     0</i>
    <i name="EPSILON">      1.00000000</i>
    <v name="DIPOL">   -100.00000000   -100.00000000   -100.00000000</v>
    <i name="EFIELD">      0.00000000</i>
   </separator>
  </separator>
  <separator name="grids" >
   <i type="int" name="NGX">   150</i>
   <i type="int" name="NGY">   150</i>
   <i type="int" name="NGZ">   150</i>
   <i type="int" name="NGXF">   300</i>
   <i type="int" name="NGYF">   300</i>
   <i type="int" name="NGZF">   300</i>
   <i type="logical" name="ADDGRID"> F  </i>
  </separator>
  <separator name="ionic" >
   <i type="int" name="NSW">     0</i>
   <i type="int" name="IBRION">    -1</i>
   <i type="int" name="MDALGO">     0</i>
   <i type="int" name="ISIF">     2</i>
   <i name="PSTRESS">      0.00000000</i>
   <i name="EDIFFG">     -0.05000000</i>
   <i type="int" name="NFREE">     1</i>
   <i name="POTIM">      0.50000000</i>
   <i name="SMASS">     -3.00000000</i>
   <i name="SCALEE">      1.00000000</i>
  </separator>
  <separator name="ionic md" >
   <i name="TEBEG">      0.00010000</i>
   <i name="TEEND">      0.00010000</i>
   <i type="int" name="NBLOCK">     1</i>
   <i type="int" name="KBLOCK">     1</i>
   <i type="int" name="NPACO">   256</i>
   <i name="APACO">     16.00000000</i>
  </separator>
  <separator name="symmetry" >
   <i type="int" name="ISYM">     2</i>
   <i name="SYMPREC">      0.00001000</i>
  </separator>
  <separator name="dos" >
   <i type="int" name="LORBIT">     0</i>
   <v name="RWIGS">     -1.00000000     -1.00000000     -1.00000000</v>
   <i type="int" name="NEDOS">   301</i>
   <i name="EMIN">     10.00000000</i>
   <i name="EMAX">    -10.00000000</i>
   <i name="EFERMI">      0.00000000</i>
  </separator>
  <separator name="writing" >
   <i type="int" name="NWRITE">     2</i>
   <i type="logical" name="LWAVE"> F  </i>
   <i type="logical" name="LDOWNSAMPLE"> F  </i>
   <i type="logical" name="LCHARG"> F  </i>
   <i type="logical" name="LPARD"> F  </i>
   <i type="logical" name="LVTOT"> F  </i>
   <i type="logical" name="LVHAR"> F  </i>
   <i type="logical" name="LELF"> F  </i>
   <i type="logical" name="LOPTICS"> F  </i>
   <v name="STM">      0.00000000      0.00000000      0.00000000      0.00000000      0.00000000      0.00000000      0.00000000</v>
  </separator>
  <separator name="performance" >
   <i type="int" name="NPAR">     1</i>
   <i type="int" name="NSIM">     4</i>
   <i type="int" name="NBLK">    -1</i>
   <i type="logical" name="LPLANE"> T  </i>
   <i type="logical" name="LSCALAPACK"> T  </i>
   <i type="logical" name="LSCAAWARE"> F  </i>
   <i type="logical" name="LSCALU"> F  </i>
   <i type="logical" name="LASYNC"> F  </i>
   <i type="logical" name="LORBITALREAL"> F  </i>
  </separator>
  <separator name="miscellaneous" >
   <i type="int" name="IDIOT">     3</i>
   <i type="int" name="ISPECIAL">     0</i>
   <i type="logical" name="LMUSIC"> F  </i>
   <v name="POMASS">    106.42000000     12.01100000     16.00000000</v>
   <v name="DARWINR">      0.00000000      0.00000000      0.00000000</v>
   <v name="DARWINV">      1.00000000      1.00000000      1.00000000</v>
   <i type="logical" name="LCORR"> T  </i>
  </separator>
  <i type="logical" name="GGA_COMPAT"> T  </i>
  <i type="logical" name="LBERRY"> F  </i>
  <i type="int" name="ICORELEVEL">     0</i>
  <i type="logical" name="LDAU"> F  </i>
  <i type="int" name="I_CONSTRAINED_M">     0</i>
  <separator name="electronic exchange-correlation" >
   <i type="string" name="GGA">RP</i>
   <i type="int" name="VOSKOWN">     0</i>
   <i type="logical" name="LHFCALC"> F  </i>
   <i type="string" name="PRECFOCK"></i>
   <i type="logical" name="LSYMGRAD"> F  </i>
   <i type="logical" name="LHFONE"> F  </i>
   <i type="logical" name="LRHFCALC"> F  </i>
   <i type="logical" name="LTHOMAS"> F  </i>
   <i type="logical" name="LMODELHF"> F  </i>
   <i name="ENCUT4O">     -1.00000000</i>
   <i type="int" name="EXXOEP">     0</i>
   <i type="int" name="FOURORBIT">     0</i>
   <i name="AEXX">      0.00000000</i>
   <i name="HFALPHA">      0.00000000</i>
   <i name="MCALPHA">      0.00000000</i>
   <i name="ALDAX">      1.00000000</i>
   <i name="AGGAX">      1.00000000</i>
   <i name="ALDAC">      1.00000000</i>
   <i name="AGGAC">      1.00000000</i>
   <i type="int" name="NKREDX">     1</i>
   <i type="int" name="NKREDY">     1</i>
   <i type="int" name="NKREDZ">     1</i>
   <i type="logical" name="SHIFTRED"> F  </i>
   <i type="logical" name="ODDONLY"> F  </i>
   <i type="logical" name="EVENONLY"> F  </i>
   <i type="int" name="LMAXFOCK">     0</i>
   <i type="int" name="NMAXFOCKAE">     0</i>
   <i type="logical" name="LFOCKAEDFT"> F  </i>
   <i name="HFSCREEN">      0.00000000</i>
   <i name="HFSCREENC">      0.00000000</i>
   <i type="int" name="NBANDSGWLOW">     0</i>
  </separator>
  <separator name="vdW DFT" >
   <i type="logical" name="LUSE_VDW"> F  </i>
   <i name="Zab_VDW">     -0.84910000</i>
   <i name="PARAM1">      0.12340000</i>
   <i name="PARAM2">      1.00000000</i>
   <i name="PARAM3">      0.00000000</i>
  </separator>
  <separator name="model GW" >
   <i type="int" name="MODEL_GW">     0</i>
   <i name="MODEL_EPS0">    284.21052632</i>
   <i name="MODEL_ALPHA">      1.00000000</i>
  </separator>
  <separator name="linear response parameters" >
   <i type="logical" name="LEPSILON"> F  </i>
   <i type="logical" name="LRPA"> F  </i>
   <i type="logical" name="LNABLA"> F  </i>
   <i type="logical" name="LVEL"> F  </i>
   <i type="int" name="KINTER">     0</i>
   <i name="CSHIFT">      0.10000000</i>
   <i name="OMEGAMAX">     -1.00000000</i>
   <i name="DEG_THRESHOLD">      0.00200000</i>
   <i name="RTIME">     -0.10000000</i>
   <i name="WPLASMAI">      0.00000000</i>
   <v name="DFIELD">      0.00000000      0.00000000      0.00000000</v>
   <v name="WPLASMA">      0.00000000      0.00000000      0.00000000      0.00000000      0.00000000      0.00000000      0.00000000      0.00000000      0.00000000</v>
  </separator>
  <separator name="orbital magnetization" >
   <i type="logical" name="NUCIND"> F  </i>
   <v name="MAGPOS">      0.00000000      0.00000000      0.00000000</v>
   <i type="logical" name="LNICSALL"> T  </i>
   <i type="logical" name="ORBITALMAG"> F  </i>
   <i type="logical" name="LMAGBLOCH"> F  </i>
   <i type="logical" name="LCHIMAG"> F  </i>
   <i type="logical" name="LGAUGE"> T  </i>
   <i type="int" name="MAGATOM">     0</i>
   <v name="MAGDIPOL">      0.00000000      0.00000000      0.00000000</v>
   <v name="AVECCONST">      0.00000000      0.00000000      0.00000000</v>
  </separator>
  <separator name="response functions" >
   <i type="logical" name="LADDER"> F  </i>
   <i type="logical" name="LRPAFORCE"> F  </i>
   <i type="logical" name="LFXC"> F  </i>
   <i type="logical" name="LHARTREE"> T  </i>
   <i type="int" name="IBSE">     0</i>
   <v type="int" name="KPOINT">    -1     0     0     0</v>
   <i type="logical" name="LTCTE"> F  </i>
   <i type="logical" name="LTETE"> F  </i>
   <i type="logical" name="LTRIPLET"> F  </i>
   <i type="logical" name="LFXCEPS"> F  </i>
   <i type="logical" name="LFXHEG"> F  </i>
   <i type="int" name="NATURALO">     2</i>
   <i type="logical" name="L2ORDER"> F  </i>
   <i type="logical" name="LMP2LT"> F  </i>
   <i type="logical" name="LUSEW"> F  </i>
   <i name="ENCUTGW">     -2.00000000</i>
   <i name="ENCUTGWSOFT">     -2.00000000</i>
   <i name="ENCUTLF">     -1.00000000</i>
   <i type="int" name="LMAXMP2">    -1</i>
   <i name="SCISSOR">      0.00000000</i>
   <i type="int" name="NOMEGA">     0</i>
   <i type="int" name="NOMEGAR">     0</i>
   <i type="int" name="NBANDSGW">    -1</i>
   <i type="int" name="NBANDSO">    -1</i>
   <i type="int" name="NBANDSV">    -1</i>
   <i type="int" name="NELM">   100</i>
   <i type="int" name="NELMHF">     1</i>
   <i type="int" name="DIM">     3</i>
   <i type="int" name="ANTIRES">     0</i>
   <i name="OMEGAMAX">    -30.00000000</i>
   <i name="OMEGAMIN">    -30.00000000</i>
   <i name="OMEGATL">   -200.00000000</i>
   <i type="int" name="OMEGAGRID">   140</i>
   <i name="CSHIFT">     -0.10000000</i>
   <i type="logical" name="SELFENERGY"> F  </i>
   <i type="logical" name="LSPECTRAL"> F  </i>
   <i type="logical" name="LSPECTRALGW"> F  </i>
   <i type="logical" name="LSINGLES"> F  </i>
   <i type="logical" name="LFERMIGW"> F  </i>
   <i type="logical" name="ODDONLYGW"> F  </i>
   <i type="logical" name="EVENONLYGW"> F  </i>
   <i type="int" name="NKREDLFX">     1</i>
   <i type="int" name="NKREDLFY">     1</i>
   <i type="int" name="NKREDLFZ">     1</i>
   <i type="int" name="MAXMEM"> 10000</i>
   <i type="int" name="TELESCOPE">     0</i>
   <i type="int" name="TAUPAR">     1</i>
   <i type="int" name="OMEGAPAR">    -1</i>
   <i name="LAMBDA">      1.00000000</i>
  </separator>
  <separator name="External order field" >
   <i name="OFIELD_KAPPA">      0.00000000</i>
   <v name="OFIELD_K">      0.00000000      0.00000000      0.00000000</v>
   <i name="OFIELD_Q6_NEAR">      0.00000000</i>
   <i name="OFIELD_Q6_FAR">      0.00000000</i>
   <i name="OFIELD_A">      0.00000000</i>
  </separator>
 </parameters>
 <atominfo>
  <atoms>      57 </atoms>
  <types>       3 </types>
  <array name="atoms" >
   <dimension dim="1">ion</dimension>
   <field type="string">element</field>
   <field type="int">atomtype</field>
   <set>
    <rc><c>Pd</c><c>   1</c></rc>
    <rc><c>Pd</c><c>   1</c></rc>
    <rc><c>Pd</c><c>   1</c></rc>
    <rc><c>Pd</c><c>   1</c></rc>
    <rc><c>Pd</c><c>   1</c></rc>
    <rc><c>Pd</c><c>   1</c></rc>
    <rc><c>Pd</c><c>   1</c></rc>
    <rc><c>Pd</c><c>   1</c></rc>
    <rc><c>Pd</c><c>   1</c></rc>
    <rc><c>Pd</c><c>   1</c></rc>
    <rc><c>Pd</c><c>   1</c></rc>
    <rc><c>Pd</c><c>   1</c></rc>
    <rc><c>Pd</c><c>   1</c></rc>
    <rc><c>Pd</c><c>   1</c></rc>
    <rc><c>Pd</c><c>   1</c></rc>
    <rc><c>Pd</c><c>   1</c></rc>
    <rc><c>Pd</c><c>   1</c></rc>
    <rc><c>Pd</c><c>   1</c></rc>
    <rc><c>Pd</c><c>   1</c></rc>
    <rc><c>Pd</c><c>   1</c></rc>
    <rc><c>Pd</c><c>   1</c></rc>
    <rc><c>Pd</c><c>   1</c></rc>
    <rc><c>Pd</c><c>   1</c></rc>
    <rc><c>Pd</c><c>   1</c></rc>
    <rc><c>Pd</c><c>   1</c></rc>
    <rc><c>Pd</c><c>   1</c></rc>
    <rc><c>Pd</c><c>   1</c></rc>
    <rc><c>Pd</c><c>   1</c></rc>
    <rc><c>Pd</c><c>   1</c></rc>
    <rc><c>Pd</c><c>   1</c></rc>
    <rc><c>Pd</c><c>   1</c></rc>
    <rc><c>Pd</c><c>   1</c></rc>
    <rc><c>Pd</c><c>   1</c></rc>
    <rc><c>Pd</c><c>   1</c></rc>
    <rc><c>Pd</c><c>   1</c></rc>
    <rc><c>Pd</c><c>   1</c></rc>
    <rc><c>Pd</c><c>   1</c></rc>
    <rc><c>Pd</c><c>   1</c></rc>
    <rc><c>Pd</c><c>   1</c></rc>
    <rc><c>Pd</c><c>   1</c></rc>
    <rc><c>Pd</c><c>   1</c></rc>
    <rc><c>Pd</c><c>   1</c></rc>
    <rc><c>Pd</c><c>   1</c></rc>
    <rc><c>Pd</c><c>   1</c></rc>
    <rc><c>Pd</c><c>   1</c></rc>
    <rc><c>Pd</c><c>   1</c></rc>
    <rc><c>Pd</c><c>   1</c></rc>
    <rc><c>Pd</c><c>   1</c></rc>
    <rc><c>Pd</c><c>   1</c></rc>
    <rc><c>Pd</c><c>   1</c></rc>
    <rc><c>Pd</c><c>   1</c></rc>
    <rc><c>Pd</c><c>   1</c></rc>
    <rc><c>Pd</c><c>   1</c></rc>
    <rc><c>Pd</c><c>   1</c></rc>
    <rc><c>Pd</c><c>   1</c></rc>
    <rc><c>C </c><c>   2</c></rc>
    <rc><c>O </c><c>   3</c></rc>
   </set>
  </array>
  <array name="atomtypes" >
   <dimension dim="1">type</dimension>
   <field type="int">atomspertype</field>
   <field type="string">element</field>
   <field>mass</field>
   <field>valence</field>
   <field type="string">pseudopotential</field>
   <set>
    <rc><c>  55</c><c>Pd</c><c>    106.42000000</c><c>     10.00000000</c><c>  PAW_PBE Pd 04Jan2005                  </c></rc>
    <rc><c>   1</c><c>C </c><c>     12.01100000</c><c>      4.00000000</c><c>  PAW_PBE C 08Apr2002                   </c></rc>
    <rc><c>   1</c><c>O </c><c>     16.00000000</c><c>      6.00000000</c><c>  PAW_PBE O 08Apr2002                   </c></rc>
   </set>
  </array>
 </atominfo>
 <structure name="initialpos" >
  <crystal>
   <varray name="basis" >
    <v>      30.00000000       0.00000000       0.00000000 </v>
    <v>       0.00000000      30.00000000       0.00000000 </v>
    <v>       0.00000000       0.00000000      30.00000000 </v>
   </varray>
   <i name="volume">  27000.00000000 </i>
   <varray name="rec_basis" >
    <v>       0.03333333       0.00000000       0.00000000 </v>
    <v>       0.00000000       0.03333333       0.00000000 </v>
    <v>       0.00000000       0.00000000       0.03333333 </v>
   </varray>
  </crystal>
  <varray name="positions" >
   <v>       0.44576020       0.32826710       0.41691983 </v>
   <v>       0.67173288       0.55423978       0.41691983 </v>
   <v>       0.55423980       0.32826710       0.41691983 </v>
   <v>       0.32826712       0.55423978       0.41691983 </v>
   <v>       0.50000000       0.38250690       0.34021317 </v>
   <v>       0.50000000       0.38250690       0.65978680 </v>
   <v>       0.50000000       0.27609440       0.50000000 </v>
   <v>       0.27609443       0.49999998       0.50000000 </v>
   <v>       0.72390557       0.49999998       0.50000000 </v>
   <v>       0.50000000       0.72390555       0.50000000 </v>
   <v>       0.61195280       0.38804720       0.34167483 </v>
   <v>       0.61195280       0.38804720       0.65832513 </v>
   <v>       0.38804722       0.61195278       0.34167483 </v>
   <v>       0.38804722       0.61195278       0.65832513 </v>
   <v>       0.38804720       0.38804720       0.34167483 </v>
   <v>       0.38804720       0.38804720       0.65832513 </v>
   <v>       0.61195278       0.61195278       0.34167483 </v>
   <v>       0.61195278       0.61195278       0.65832513 </v>
   <v>       0.44576020       0.32826710       0.58308023 </v>
   <v>       0.67173288       0.55423978       0.58308023 </v>
   <v>       0.55791699       0.44208301       0.41809300 </v>
   <v>       0.32826705       0.44576024       0.41691983 </v>
   <v>       0.55423973       0.67173293       0.41691983 </v>
   <v>       0.55423980       0.32826710       0.58308023 </v>
   <v>       0.32826712       0.55423978       0.58308023 </v>
   <v>       0.67173295       0.44576024       0.41691983 </v>
   <v>       0.44576027       0.67173293       0.41691983 </v>
   <v>       0.44208301       0.44208301       0.41809300 </v>
   <v>       0.50000000       0.38416601       0.50000000 </v>
   <v>       0.61749315       0.50000005       0.34021317 </v>
   <v>       0.61749315       0.50000005       0.65978680 </v>
   <v>       0.38250685       0.50000005       0.34021317 </v>
   <v>       0.38250685       0.50000005       0.65978680 </v>
   <v>       0.38317830       0.38317830       0.50000000 </v>
   <v>       0.61682172       0.61682172       0.50000000 </v>
   <v>       0.61682170       0.38317830       0.50000000 </v>
   <v>       0.38317828       0.61682172       0.50000000 </v>
   <v>       0.50000000       0.50000000       0.33478917 </v>
   <v>       0.50000000       0.50000000       0.66521087 </v>
   <v>       0.32826705       0.44576024       0.58308023 </v>
   <v>       0.55423973       0.67173293       0.58308023 </v>
   <v>       0.55791699       0.44208301       0.58190703 </v>
   <v>       0.44208298       0.55791702       0.41809300 </v>
   <v>       0.44208301       0.44208301       0.58190703 </v>
   <v>       0.67173295       0.44576024       0.58308023 </v>
   <v>       0.44576027       0.67173293       0.58308023 </v>
   <v>       0.55791702       0.55791702       0.41809300 </v>
   <v>       0.38416599       0.50000002       0.50000000 </v>
   <v>       0.61583401       0.50000002       0.50000000 </v>
   <v>       0.50000000       0.61749319       0.34021317 </v>
   <v>       0.50000000       0.61749319       0.65978680 </v>
   <v>       0.50000000       0.50000000       0.50000000 </v>
   <v>       0.44208298       0.55791702       0.58190703 </v>
   <v>       0.55791702       0.55791702       0.58190703 </v>
   <v>       0.50000000       0.61583404       0.50000000 </v>
   <v>       0.48669790       0.50182187       0.75814567 </v>
   <v>       0.48476300       0.50208687       0.79569493 </v>
  </varray>
  <varray name="selective"  type="logical" >
   <v type="logical" >  F  F  F </v>
   <v type="logical" >  F  F  F </v>
   <v type="logical" >  F  F  F </v>
   <v type="logical" >  F  F  F </v>
   <v type="logical" >  F  F  F </v>
   <v type="logical" >  F  F  F </v>
   <v type="logical" >  F  F  F </v>
   <v type="logical" >  F  F  F </v>
   <v type="logical" >  F  F  F </v>
   <v type="logical" >  F  F  F </v>
   <v type="logical" >  F  F  F </v>
   <v type="logical" >  F  F  F </v>
   <v type="logical" >  F  F  F </v>
   <v type="logical" >  F  F  F </v>
   <v type="logical" >  F  F  F </v>
   <v type="logical" >  F  F  F </v>
   <v type="logical" >  F  F  F </v>
   <v type="logical" >  F  F  F </v>
   <v type="logical" >  F  F  F </v>
   <v type="logical" >  F  F  F </v>
   <v type="logical" >  F  F  F </v>
   <v type="logical" >  F  F  F </v>
   <v type="logical" >  F  F  F </v>
   <v type="logical" >  F  F  F </v>
   <v type="logical" >  F  F  F </v>
   <v type="logical" >  F  F  F </v>
   <v type="logical" >  F  F  F </v>
   <v type="logical" >  F  F  F </v>
   <v type="logical" >  F  F  F </v>
   <v type="logical" >  F  F  F </v>
   <v type="logical" >  F  F  F </v>
   <v type="logical" >  F  F  F </v>
   <v type="logical" >  F  F  F </v>
   <v type="logical" >  F  F  F </v>
   <v type="logical" >  F  F  F </v>
   <v type="logical" >  F  F  F </v>
   <v type="logical" >  F  F  F </v>
   <v type="logical" >  F  F  F </v>
   <v type="logical" >  F  F  F </v>
   <v type="logical" >  F  F  F </v>
   <v type="logical" >  F  F  F </v>
   <v type="logical" >  F  F  F </v>
   <v type="logical" >  F  F  F </v>
   <v type="logical" >  F  F  F </v>
   <v type="logical" >  F  F  F </v>
   <v type="logical" >  F  F  F </v>
   <v type="logical" >  F  F  F </v>
   <v type="logical" >  F  F  F </v>
   <v type="logical" >  F  F  F </v>
   <v type="logical" >  F  F  F </v>
   <v type="logical" >  F  F  F </v>
   <v type="logical" >  F  F  F </v>
   <v type="logical" >  F  F  F </v>
   <v type="logical" >  F  F  F </v>
   <v type="logical" >  F  F  F </v>
   <v type="logical" >  F  F  F </v>
   <v type="logical" >  F  F  F </v>
  </varray>
  <nose>
   <v>      -3.00000000       0.00000000       0.00010000       0.00010000 </v>
  </nose>
 </structure>
 <calculation>
  <scstep>
   <time name="dav">  362.93  363.00</time>
   <time name="total">  377.19  377.27</time>
   <energy>
    <i name="alphaZ">     75.25431677 </i>
    <i name="ewald"> 137739.34281324 </i>
    <i name="hartreedc">-181107.74041114 </i>
    <i name="XCdc">  -1704.09570129 </i>
    <i name="pawpsdc">  44873.02882129 </i>
    <i name="pawaedc"> -41398.84523641 </i>
    <i name="eentropy">      0.01823716 </i>
    <i name="bandstr">    818.57642234 </i>
    <i name="atom">  45086.50549395 </i>
    <i name="e_fr_energy">   4382.04475591 </i>
    <i name="e_wo_entrp">   4382.02651875 </i>
    <i name="e_0_energy">   4382.04019662 </i>
   </energy>
  </scstep>
  <scstep>
   <time name="dav">  554.62  554.63</time>
   <time name="total">  554.62  554.63</time>
   <energy>
    <i name="e_fr_energy">   2029.17276357 </i>
    <i name="e_wo_entrp">   2029.22376940 </i>
    <i name="e_0_energy">   2029.18551503 </i>
   </energy>
  </scstep>
  <scstep>
   <time name="dav">  482.64  482.66</time>
   <time name="total">  482.65  482.66</time>
   <energy>
    <i name="e_fr_energy">    239.54927385 </i>
    <i name="e_wo_entrp">    239.53957232 </i>
    <i name="e_0_energy">    239.54684847 </i>
   </energy>
  </scstep>
  <scstep>
   <time name="dav">  408.93  408.95</time>
   <time name="total">  408.93  408.95</time>
   <energy>
    <i name="e_fr_energy">   -131.37258487 </i>
    <i name="e_wo_entrp">   -131.27689218 </i>
    <i name="e_0_energy">   -131.34866170 </i>
   </energy>
  </scstep>
  <scstep>
   <time name="dav">  501.37  501.38</time>
   <time name="total">  526.91  526.92</time>
   <energy>
    <i name="e_fr_energy">   -177.99382862 </i>
    <i name="e_wo_entrp">   -178.49393806 </i>
    <i name="e_0_energy">   -178.11885598 </i>
   </energy>
  </scstep>
  <scstep>
   <time name="diag">   67.24   67.24</time>
   <time name="diis">  181.77  181.78</time>
   <time name="orth">   13.11   13.11</time>
   <time name="total">  300.39  300.40</time>
   <energy>
    <i name="e_fr_energy">   -178.40343499 </i>
    <i name="e_wo_entrp">   -178.23018761 </i>
    <i name="e_0_energy">   -178.36012315 </i>
   </energy>
  </scstep>
  <scstep>
   <time name="diag">   66.54   66.54</time>
   <time name="diis">  217.85  217.85</time>
   <time name="orth">   13.42   13.42</time>
   <time name="total">  336.45  336.45</time>
   <energy>
    <i name="e_fr_energy">   -180.35144492 </i>
    <i name="e_wo_entrp">   -180.33386515 </i>
    <i name="e_0_energy">   -180.34704998 </i>
   </energy>
  </scstep>
  <scstep>
   <time name="diag">   67.13   67.13</time>
   <time name="diis">  195.80  195.81</time>
   <time name="orth">   13.40   13.40</time>
   <time name="total">  315.41  315.42</time>
   <energy>
    <i name="e_fr_energy">   -182.81707291 </i>
    <i name="e_wo_entrp">   -182.67016726 </i>
    <i name="e_0_energy">   -182.78034649 </i>
   </energy>
  </scstep>
  <scstep>
   <time name="diag">   67.51   67.51</time>
   <time name="diis">  189.46  189.46</time>
   <time name="orth">   13.63   13.63</time>
   <time name="total">  309.66  309.67</time>
   <energy>
    <i name="e_fr_energy">   -182.12072940 </i>
    <i name="e_wo_entrp">   -182.06713257 </i>
    <i name="e_0_energy">   -182.10733019 </i>
   </energy>
  </scstep>
  <scstep>
   <time name="diag">   69.42   69.42</time>
   <time name="diis">  192.26  192.26</time>
   <time name="orth">   13.60   13.60</time>
   <time name="total">  314.85  314.85</time>
   <energy>
    <i name="e_fr_energy">   -179.82904415 </i>
    <i name="e_wo_entrp">   -179.78135366 </i>
    <i name="e_0_energy">   -179.81712153 </i>
   </energy>
  </scstep>
  <scstep>
   <time name="diag">   69.17   69.17</time>
   <time name="diis">  191.79  191.79</time>
   <time name="orth">   13.49   13.49</time>
   <time name="total">  313.99  313.99</time>
   <energy>
    <i name="e_fr_energy">   -177.66776989 </i>
    <i name="e_wo_entrp">   -177.50591945 </i>
    <i name="e_0_energy">   -177.62730728 </i>
   </energy>
  </scstep>
  <scstep>
   <time name="diag">   69.15   69.15</time>
   <time name="diis">  193.04  193.04</time>
   <time name="orth">   13.40   13.40</time>
   <time name="total">  315.22  315.22</time>
   <energy>
    <i name="e_fr_energy">   -176.30630870 </i>
    <i name="e_wo_entrp">   -176.20935897 </i>
    <i name="e_0_energy">   -176.28207127 </i>
   </energy>
  </scstep>
  <scstep>
   <time name="diag">   69.45   69.45</time>
   <time name="diis">  191.50  191.50</time>
   <time name="orth">   13.41   13.41</time>
   <time name="total">  313.67  313.67</time>
   <energy>
    <i name="e_fr_energy">   -175.67283400 </i>
    <i name="e_wo_entrp">   -175.61882605 </i>
    <i name="e_0_energy">   -175.65933201 </i>
   </energy>
  </scstep>
  <scstep>
   <time name="diag">   69.16   69.16</time>
   <time name="diis">  192.09  192.09</time>
   <time name="orth">   13.49   13.49</time>
   <time name="total">  313.95  313.96</time>
   <energy>
    <i name="e_fr_energy">   -175.65180888 </i>
    <i name="e_wo_entrp">   -175.59509586 </i>
    <i name="e_0_energy">   -175.63763063 </i>
   </energy>
  </scstep>
  <scstep>
   <time name="diag">   69.56   69.56</time>
   <time name="diis">  194.02  194.02</time>
   <time name="orth">   13.54   13.54</time>
   <time name="total">  316.31  316.31</time>
   <energy>
    <i name="e_fr_energy">   -176.30616615 </i>
    <i name="e_wo_entrp">   -176.43878282 </i>
    <i name="e_0_energy">   -176.33932032 </i>
   </energy>
  </scstep>
  <scstep>
   <time name="diag">   69.30   69.30</time>
   <time name="diis">  192.93  192.94</time>
   <time name="orth">   13.54   13.54</time>
   <time name="total">  315.21  315.21</time>
   <energy>
    <i name="e_fr_energy">   -175.37430133 </i>
    <i name="e_wo_entrp">   -175.29631800 </i>
    <i name="e_0_energy">   -175.35480550 </i>
   </energy>
  </scstep>
  <scstep>
   <time name="diag">   68.66   68.66</time>
   <time name="diis">  193.49  193.50</time>
   <time name="orth">   13.62   13.62</time>
   <time name="total">  315.13  315.14</time>
   <energy>
    <i name="e_fr_energy">   -174.57005621 </i>
    <i name="e_wo_entrp">   -174.56079006 </i>
    <i name="e_0_energy">   -174.56773967 </i>
   </energy>
  </scstep>
  <scstep>
   <time name="diag">   68.46   68.46</time>
   <time name="diis">  192.60  192.60</time>
   <time name="orth">   13.64   13.64</time>
   <time name="total">  314.00  314.00</time>
   <energy>
    <i name="e_fr_energy">   -174.40652182 </i>
    <i name="e_wo_entrp">   -174.41199403 </i>
    <i name="e_0_energy">   -174.40788987 </i>
   </energy>
  </scstep>
  <scstep>
   <time name="diag">   68.38   68.38</time>
   <time name="diis">  193.22  193.22</time>
   <time name="orth">   13.60   13.60</time>
   <time name="total">  314.67  314.67</time>
   <energy>
    <i name="e_fr_energy">   -174.25874740 </i>
    <i name="e_wo_entrp">   -174.21201926 </i>
    <i name="e_0_energy">   -174.24706536 </i>
   </energy>
  </scstep>
  <scstep>
   <time name="diag">   68.28   68.28</time>
   <time name="diis">  191.55  191.55</time>
   <time name="orth">   13.67   13.67</time>
   <time name="total">  313.32  313.32</time>
   <energy>
    <i name="e_fr_energy">   -174.19536809 </i>
    <i name="e_wo_entrp">   -174.15196267 </i>
    <i name="e_0_energy">   -174.18451673 </i>
   </energy>
  </scstep>
  <scstep>
   <time name="diag">   68.47   68.47</time>
   <time name="diis">  192.90  192.91</time>
   <time name="orth">   13.64   13.64</time>
   <time name="total">  314.96  314.96</time>
   <energy>
    <i name="e_fr_energy">   -174.13773634 </i>
    <i name="e_wo_entrp">   -174.06220310 </i>
    <i name="e_0_energy">   -174.11885303 </i>
   </energy>
  </scstep>
  <scstep>
   <time name="diag">   68.46   68.46</time>
   <time name="diis">  191.61  191.61</time>
   <time name="orth">   13.55   13.55</time>
   <time name="total">  313.59  313.59</time>
   <energy>
    <i name="e_fr_energy">   -174.18435470 </i>
    <i name="e_wo_entrp">   -174.11288538 </i>
    <i name="e_0_energy">   -174.16648737 </i>
   </energy>
  </scstep>
  <scstep>
   <time name="diag">   68.50   68.50</time>
   <time name="diis">  189.90  189.90</time>
   <time name="orth">   13.62   13.62</time>
   <time name="total">  312.22  312.22</time>
   <energy>
    <i name="e_fr_energy">   -174.02891527 </i>
    <i name="e_wo_entrp">   -173.95285910 </i>
    <i name="e_0_energy">   -174.00990123 </i>
   </energy>
  </scstep>
  <scstep>
   <time name="diag">   68.66   68.66</time>
   <time name="diis">  189.96  189.96</time>
   <time name="orth">   13.56   13.56</time>
   <time name="total">  312.45  312.45</time>
   <energy>
    <i name="e_fr_energy">   -173.89171068 </i>
    <i name="e_wo_entrp">   -173.82215330 </i>
    <i name="e_0_energy">   -173.87432134 </i>
   </energy>
  </scstep>
  <scstep>
   <time name="diag">   68.62   68.62</time>
   <time name="diis">  190.62  190.63</time>
   <time name="orth">   13.46   13.46</time>
   <time name="total">  313.03  313.05</time>
   <energy>
    <i name="e_fr_energy">   -173.87843809 </i>
    <i name="e_wo_entrp">   -173.81455606 </i>
    <i name="e_0_energy">   -173.86246758 </i>
   </energy>
  </scstep>
  <scstep>
   <time name="diag">   68.63   68.63</time>
   <time name="diis">  190.43  190.44</time>
   <time name="orth">   13.46   13.46</time>
   <time name="total">  312.84  312.85</time>
   <energy>
    <i name="e_fr_energy">   -173.85451916 </i>
    <i name="e_wo_entrp">   -173.77959225 </i>
    <i name="e_0_energy">   -173.83578743 </i>
   </energy>
  </scstep>
  <scstep>
   <time name="diag">   68.58   68.58</time>
   <time name="diis">  192.17  192.17</time>
   <time name="orth">   13.36   13.36</time>
   <time name="total">  314.76  314.77</time>
   <energy>
    <i name="e_fr_energy">   -173.80421237 </i>
    <i name="e_wo_entrp">   -173.72670959 </i>
    <i name="e_0_energy">   -173.78483667 </i>
   </energy>
  </scstep>
  <scstep>
   <time name="diag">   68.79   68.79</time>
   <time name="diis">  189.95  189.95</time>
   <time name="orth">   13.49   13.49</time>
   <time name="total">  313.21  313.21</time>
   <energy>
    <i name="e_fr_energy">   -173.78605501 </i>
    <i name="e_wo_entrp">   -173.69884115 </i>
    <i name="e_0_energy">   -173.76425154 </i>
   </energy>
  </scstep>
  <scstep>
   <time name="diag">   68.75   68.75</time>
   <time name="diis">  189.28  189.28</time>
   <time name="orth">   13.54   13.54</time>
   <time name="total">  312.38  312.39</time>
   <energy>
    <i name="e_fr_energy">   -173.76718151 </i>
    <i name="e_wo_entrp">   -173.67690518 </i>
    <i name="e_0_energy">   -173.74461242 </i>
   </energy>
  </scstep>
  <scstep>
   <time name="diag">   68.95   68.95</time>
   <time name="diis">  189.54  189.55</time>
   <time name="orth">   13.68   13.68</time>
   <time name="total">  313.03  313.04</time>
   <energy>
    <i name="e_fr_energy">   -173.76104798 </i>
    <i name="e_wo_entrp">   -173.66980770 </i>
    <i name="e_0_energy">   -173.73823791 </i>
   </energy>
  </scstep>
  <scstep>
   <time name="diag">   68.85   68.85</time>
   <time name="diis">  188.55  188.55</time>
   <time name="orth">   13.68   13.68</time>
   <time name="total">  312.08  312.08</time>
   <energy>
    <i name="e_fr_energy">   -173.75607621 </i>
    <i name="e_wo_entrp">   -173.66594473 </i>
    <i name="e_0_energy">   -173.73354334 </i>
   </energy>
  </scstep>
  <scstep>
   <time name="diag">   68.82   68.82</time>
   <time name="diis">  187.94  187.94</time>
   <time name="orth">   13.58   13.58</time>
   <time name="total">  311.23  311.23</time>
   <energy>
    <i name="e_fr_energy">   -173.75228477 </i>
    <i name="e_wo_entrp">   -173.66345692 </i>
    <i name="e_0_energy">   -173.73007781 </i>
   </energy>
  </scstep>
  <scstep>
   <time name="diag">   68.49   68.49</time>
   <time name="diis">  188.62  188.62</time>
   <time name="orth">   13.66   13.66</time>
   <time name="total">  312.27  312.27</time>
   <energy>
    <i name="e_fr_energy">   -173.75177083 </i>
    <i name="e_wo_entrp">   -173.66447177 </i>
    <i name="e_0_energy">   -173.72994606 </i>
   </energy>
  </scstep>
  <scstep>
   <time name="diag">   68.76   68.76</time>
   <time name="diis">  187.74  187.75</time>
   <time name="orth">   13.64   13.64</time>
   <time name="total">  311.59  311.60</time>
   <energy>
    <i name="e_fr_energy">   -173.75157037 </i>
    <i name="e_wo_entrp">   -173.66329914 </i>
    <i name="e_0_energy">   -173.72950256 </i>
   </energy>
  </scstep>
  <scstep>
   <time name="diag">   68.78   68.78</time>
   <time name="diis">  188.75  188.75</time>
   <time name="orth">   13.64   13.64</time>
   <time name="total">  312.76  312.76</time>
   <energy>
    <i name="e_fr_energy">   -173.75243160 </i>
    <i name="e_wo_entrp">   -173.66498058 </i>
    <i name="e_0_energy">   -173.73056884 </i>
   </energy>
  </scstep>
  <scstep>
   <time name="diag">   68.69   68.69</time>
   <time name="diis">  186.97  186.97</time>
   <time name="orth">   13.55   13.55</time>
   <time name="total">  310.67  310.67</time>
   <energy>
    <i name="e_fr_energy">   -173.75152914 </i>
    <i name="e_wo_entrp">   -173.66149924 </i>
    <i name="e_0_energy">   -173.72902166 </i>
   </energy>
  </scstep>
  <scstep>
   <time name="diag">   68.81   68.81</time>
   <time name="diis">  187.01  187.02</time>
   <time name="orth">   13.56   13.56</time>
   <time name="total">  311.27  311.28</time>
   <energy>
    <i name="e_fr_energy">   -173.75181867 </i>
    <i name="e_wo_entrp">   -173.66243057 </i>
    <i name="e_0_energy">   -173.72947164 </i>
   </energy>
  </scstep>
  <scstep>
   <time name="diag">   68.74   68.74</time>
   <time name="diis">  185.59  185.59</time>
   <time name="orth">   13.61   13.61</time>
   <time name="total">  309.70  309.70</time>
   <energy>
    <i name="e_fr_energy">   -173.75432173 </i>
    <i name="e_wo_entrp">   -173.66484178 </i>
    <i name="e_0_energy">   -173.73195174 </i>
   </energy>
  </scstep>
  <scstep>
   <time name="diag">   69.07   69.07</time>
   <time name="diis">  184.94  184.94</time>
   <time name="orth">   13.78   13.78</time>
   <time name="total">  309.81  309.82</time>
   <energy>
    <i name="e_fr_energy">   -173.75786617 </i>
    <i name="e_wo_entrp">   -173.66917156 </i>
    <i name="e_0_energy">   -173.73569252 </i>
   </energy>
  </scstep>
  <scstep>
   <time name="diag">   68.75   68.75</time>
   <time name="diis">  144.71  144.73</time>
   <time name="orth">   14.01   14.01</time>
   <time name="total">  270.54  270.57</time>
   <energy>
    <i name="e_fr_energy">   -173.75939699 </i>
    <i name="e_wo_entrp">   -173.67135013 </i>
    <i name="e_0_energy">   -173.73738527 </i>
   </energy>
  </scstep>
  <scstep>
   <time name="diag">   69.19   69.20</time>
   <time name="diis">  154.35  154.36</time>
   <time name="orth">   13.64   13.64</time>
   <time name="total">  280.02  280.05</time>
   <energy>
    <i name="e_fr_energy">   -173.76287322 </i>
    <i name="e_wo_entrp">   -173.67492897 </i>
    <i name="e_0_energy">   -173.74088716 </i>
   </energy>
  </scstep>
  <scstep>
   <time name="diag">   69.36   69.37</time>
   <time name="diis">  123.21  123.22</time>
   <time name="orth">   13.85   13.85</time>
   <time name="total">  249.36  249.38</time>
   <energy>
    <i name="e_fr_energy">   -173.76404949 </i>
    <i name="e_wo_entrp">   -173.67564718 </i>
    <i name="e_0_energy">   -173.74194891 </i>
   </energy>
  </scstep>
  <scstep>
   <time name="diag">   69.52   69.52</time>
   <time name="diis">  121.43  121.45</time>
   <time name="orth">   13.67   13.67</time>
   <time name="total">  247.58  247.61</time>
   <energy>
    <i name="e_fr_energy">   -173.76588587 </i>
    <i name="e_wo_entrp">   -173.67769274 </i>
    <i name="e_0_energy">   -173.74383759 </i>
   </energy>
  </scstep>
  <scstep>
   <time name="diag">   69.25   69.26</time>
   <time name="diis">  119.08  119.09</time>
   <time name="orth">   13.90   13.90</time>
   <time name="total">  245.00  245.02</time>
   <energy>
    <i name="e_fr_energy">   -173.76743720 </i>
    <i name="e_wo_entrp">   -173.67878980 </i>
    <i name="e_0_energy">   -173.74527535 </i>
   </energy>
  </scstep>
  <scstep>
   <time name="diag">   68.67   68.68</time>
   <time name="diis">  119.91  119.92</time>
   <time name="orth">   13.70   13.71</time>
   <time name="total">  245.13  245.15</time>
   <energy>
    <i name="e_fr_energy">   -173.76852753 </i>
    <i name="e_wo_entrp">   -173.68058620 </i>
    <i name="e_0_energy">   -173.74654220 </i>
   </energy>
  </scstep>
  <scstep>
   <time name="diag">   69.44   69.44</time>
   <time name="diis">  125.32  125.33</time>
   <time name="orth">   13.58   13.58</time>
   <time name="total">  251.92  251.94</time>
   <energy>
    <i name="e_fr_energy">   -173.77156552 </i>
    <i name="e_wo_entrp">   -173.68355277 </i>
    <i name="e_0_energy">   -173.74956233 </i>
   </energy>
  </scstep>
  <scstep>
   <time name="diag">   69.05   69.05</time>
   <time name="diis">  119.39  119.39</time>
   <time name="orth">   13.67   13.67</time>
   <time name="total">  245.24  245.24</time>
   <energy>
    <i name="e_fr_energy">   -173.77226631 </i>
    <i name="e_wo_entrp">   -173.68421382 </i>
    <i name="e_0_energy">   -173.75025319 </i>
   </energy>
  </scstep>
  <scstep>
   <time name="diag">   68.95   68.95</time>
   <time name="diis">  120.11  120.11</time>
   <time name="orth">   13.36   13.36</time>
   <time name="total">  245.53  245.53</time>
   <energy>
    <i name="e_fr_energy">   -173.77368645 </i>
    <i name="e_wo_entrp">   -173.68560687 </i>
    <i name="e_0_energy">   -173.75166656 </i>
   </energy>
  </scstep>
  <scstep>
   <time name="diag">   68.65   68.65</time>
   <time name="diis">  119.17  119.17</time>
   <time name="orth">   13.33   13.33</time>
   <time name="total">  244.23  244.23</time>
   <energy>
    <i name="e_fr_energy">   -173.77448380 </i>
    <i name="e_wo_entrp">   -173.68636873 </i>
    <i name="e_0_energy">   -173.75245503 </i>
   </energy>
  </scstep>
  <scstep>
   <time name="diag">   67.97   67.97</time>
   <time name="diis">  119.78  119.78</time>
   <time name="orth">   13.85   13.85</time>
   <time name="total">  243.74  243.75</time>
   <energy>
    <i name="e_fr_energy">   -173.77495214 </i>
    <i name="e_wo_entrp">   -173.68696059 </i>
    <i name="e_0_energy">   -173.75295425 </i>
   </energy>
  </scstep>
  <scstep>
   <time name="diag">   67.41   67.41</time>
   <time name="diis">  118.00  118.00</time>
   <time name="orth">   13.78   13.78</time>
   <time name="total">  242.23  242.23</time>
   <energy>
    <i name="e_fr_energy">   -173.77565804 </i>
    <i name="e_wo_entrp">   -173.68773852 </i>
    <i name="e_0_energy">   -173.75367816 </i>
   </energy>
  </scstep>
  <scstep>
   <time name="diag">   67.81   67.81</time>
   <time name="diis">  102.50  102.51</time>
   <time name="orth">   13.78   13.78</time>
   <time name="total">  227.64  227.64</time>
   <energy>
    <i name="e_fr_energy">   -173.77582116 </i>
    <i name="e_wo_entrp">   -173.68770007 </i>
    <i name="e_0_energy">   -173.75379088 </i>
   </energy>
  </scstep>
  <scstep>
   <time name="diag">   67.89   67.90</time>
   <time name="diis">   89.85   89.86</time>
   <time name="orth">   13.63   13.63</time>
   <time name="total">  215.10  215.11</time>
   <energy>
    <i name="e_fr_energy">   -173.77615012 </i>
    <i name="e_wo_entrp">   -173.68802664 </i>
    <i name="e_0_energy">   -173.75411925 </i>
   </energy>
  </scstep>
  <scstep>
   <time name="diag">   67.65   67.65</time>
   <time name="diis">   80.61   80.61</time>
   <time name="orth">   13.63   13.63</time>
   <time name="total">  206.24  206.24</time>
   <energy>
    <i name="e_fr_energy">   -173.77635752 </i>
    <i name="e_wo_entrp">   -173.68831097 </i>
    <i name="e_0_energy">   -173.75434588 </i>
   </energy>
  </scstep>
  <scstep>
   <time name="diag">   68.31   68.31</time>
   <time name="diis">   87.51   87.51</time>
   <time name="orth">   13.59   13.59</time>
   <time name="total">  212.72  212.72</time>
   <energy>
    <i name="e_fr_energy">   -173.77658301 </i>
    <i name="e_wo_entrp">   -173.68840540 </i>
    <i name="e_0_energy">   -173.75453861 </i>
   </energy>
  </scstep>
  <scstep>
   <time name="diag">   68.62   68.63</time>
   <time name="diis">   89.44   89.44</time>
   <time name="orth">   13.74   13.74</time>
   <time name="total">  215.34  215.35</time>
   <energy>
    <i name="e_fr_energy">   -173.77684057 </i>
    <i name="e_wo_entrp">   -173.68869485 </i>
    <i name="e_0_energy">   -173.75480414 </i>
   </energy>
  </scstep>
  <scstep>
   <time name="diag">   68.54   68.54</time>
   <time name="diis">   82.92   82.92</time>
   <time name="orth">   13.23   13.23</time>
   <time name="total">  208.28  208.29</time>
   <energy>
    <i name="e_fr_energy">   -173.77701209 </i>
    <i name="e_wo_entrp">   -173.68887840 </i>
    <i name="e_0_energy">   -173.75497866 </i>
   </energy>
  </scstep>
  <scstep>
   <time name="diag">   68.25   68.26</time>
   <time name="diis">   83.26   83.26</time>
   <time name="orth">   13.54   13.54</time>
   <time name="total">  208.38  208.38</time>
   <energy>
    <i name="e_fr_energy">   -173.77715604 </i>
    <i name="e_wo_entrp">   -173.68909853 </i>
    <i name="e_0_energy">   -173.75514166 </i>
   </energy>
  </scstep>
  <scstep>
   <time name="diag">   68.54   68.54</time>
   <time name="diis">   84.66   84.67</time>
   <time name="orth">   13.20   13.20</time>
   <time name="total">  210.13  210.13</time>
   <energy>
    <i name="e_fr_energy">   -173.77728620 </i>
    <i name="e_wo_entrp">   -173.68915858 </i>
    <i name="e_0_energy">   -173.75525429 </i>
   </energy>
  </scstep>
  <scstep>
   <time name="diag">   68.26   68.26</time>
   <time name="diis">   75.80   75.80</time>
   <time name="orth">   13.77   13.77</time>
   <time name="total">  171.91  171.91</time>
   <energy>
    <i name="alphaZ">     75.25431677 </i>
    <i name="ewald"> 137739.34281324 </i>
    <i name="hartreedc">-182116.81523097 </i>
    <i name="XCdc">  -1693.39823202 </i>
    <i name="pawpsdc">  46033.79075965 </i>
    <i name="pawaedc"> -42503.13058092 </i>
    <i name="eentropy">     -0.08811121 </i>
    <i name="bandstr">  -2795.23857806 </i>
    <i name="atom">  45086.50549395 </i>
    <i name="e_fr_energy">   -173.77734957 </i>
    <i name="e_wo_entrp">   -173.68923836 </i>
    <i name="e_0_energy">   -173.75532177 </i>
   </energy>
  </scstep>
  <structure>
   <crystal>
    <varray name="basis" >
     <v>      30.00000000       0.00000000       0.00000000 </v>
     <v>       0.00000000      30.00000000       0.00000000 </v>
     <v>       0.00000000       0.00000000      30.00000000 </v>
    </varray>
    <i name="volume">  27000.00000000 </i>
    <varray name="rec_basis" >
     <v>       0.03333333       0.00000000       0.00000000 </v>
     <v>       0.00000000       0.03333333       0.00000000 </v>
     <v>       0.00000000       0.00000000       0.03333333 </v>
    </varray>
   </crystal>
   <varray name="positions" >
    <v>       0.44576020       0.32826710       0.41691983 </v>
    <v>       0.67173288       0.55423978       0.41691983 </v>
    <v>       0.55423980       0.32826710       0.41691983 </v>
    <v>       0.32826712       0.55423978       0.41691983 </v>
    <v>       0.50000000       0.38250690       0.34021317 </v>
    <v>       0.50000000       0.38250690       0.65978680 </v>
    <v>       0.50000000       0.27609440       0.50000000 </v>
    <v>       0.27609443       0.49999998       0.50000000 </v>
    <v>       0.72390557       0.49999998       0.50000000 </v>
    <v>       0.50000000       0.72390555       0.50000000 </v>
    <v>       0.61195280       0.38804720       0.34167483 </v>
    <v>       0.61195280       0.38804720       0.65832513 </v>
    <v>       0.38804722       0.61195278       0.34167483 </v>
    <v>       0.38804722       0.61195278       0.65832513 </v>
    <v>       0.38804720       0.38804720       0.34167483 </v>
    <v>       0.38804720       0.38804720       0.65832513 </v>
    <v>       0.61195278       0.61195278       0.34167483 </v>
    <v>       0.61195278       0.61195278       0.65832513 </v>
    <v>       0.44576020       0.32826710       0.58308023 </v>
    <v>       0.67173288       0.55423978       0.58308023 </v>
    <v>       0.55791699       0.44208301       0.41809300 </v>
    <v>       0.32826705       0.44576024       0.41691983 </v>
    <v>       0.55423973       0.67173293       0.41691983 </v>
    <v>       0.55423980       0.32826710       0.58308023 </v>
    <v>       0.32826712       0.55423978       0.58308023 </v>
    <v>       0.67173295       0.44576024       0.41691983 </v>
    <v>       0.44576027       0.67173293       0.41691983 </v>
    <v>       0.44208301       0.44208301       0.41809300 </v>
    <v>       0.50000000       0.38416601       0.50000000 </v>
    <v>       0.61749315       0.50000005       0.34021317 </v>
    <v>       0.61749315       0.50000005       0.65978680 </v>
    <v>       0.38250685       0.50000005       0.34021317 </v>
    <v>       0.38250685       0.50000005       0.65978680 </v>
    <v>       0.38317830       0.38317830       0.50000000 </v>
    <v>       0.61682172       0.61682172       0.50000000 </v>
    <v>       0.61682170       0.38317830       0.50000000 </v>
    <v>       0.38317828       0.61682172       0.50000000 </v>
    <v>       0.50000000       0.50000000       0.33478917 </v>
    <v>       0.50000000       0.50000000       0.66521087 </v>
    <v>       0.32826705       0.44576024       0.58308023 </v>
    <v>       0.55423973       0.67173293       0.58308023 </v>
    <v>       0.55791699       0.44208301       0.58190703 </v>
    <v>       0.44208298       0.55791702       0.41809300 </v>
    <v>       0.44208301       0.44208301       0.58190703 </v>
    <v>       0.67173295       0.44576024       0.58308023 </v>
    <v>       0.44576027       0.67173293       0.58308023 </v>
    <v>       0.55791702       0.55791702       0.41809300 </v>
    <v>       0.38416599       0.50000002       0.50000000 </v>
    <v>       0.61583401       0.50000002       0.50000000 </v>
    <v>       0.50000000       0.61749319       0.34021317 </v>
    <v>       0.50000000       0.61749319       0.65978680 </v>
    <v>       0.50000000       0.50000000       0.50000000 </v>
    <v>       0.44208298       0.55791702       0.58190703 </v>
    <v>       0.55791702       0.55791702       0.58190703 </v>
    <v>       0.50000000       0.61583404       0.50000000 </v>
    <v>       0.48669790       0.50182187       0.75814567 </v>
    <v>       0.48476300       0.50208687       0.79569493 </v>
   </varray>
  </structure>
  <varray name="forces" >
   <v>       0.70242473       1.10754155       0.29217645 </v>
   <v>      -1.10748634      -0.70248513       0.29283921 </v>
   <v>      -0.70279445       1.10791145       0.29299088 </v>
   <v>       1.10772156      -0.70243656       0.29199116 </v>
   <v>      -0.00031667       0.41081769       1.28128366 </v>
   <v>       0.00037709       0.39171995      -1.30596288 </v>
   <v>      -0.00011183       1.51533374       0.00029312 </v>
   <v>       1.51453467       0.00019297       0.00068282 </v>
   <v>      -1.51553398       0.00014666       0.00004568 </v>
   <v>      -0.00013629      -1.51484529       0.00034548 </v>
   <v>      -0.75577831       0.75546910       1.07299111 </v>
   <v>      -0.75680441       0.75702239      -1.07206189 </v>
   <v>       0.75508787      -0.75547034       1.07303210 </v>
   <v>       0.75623519      -0.75546068      -1.07393541 </v>
   <v>       0.75492436       0.75570550       1.07282906 </v>
   <v>       0.75638738       0.75576576      -1.07352118 </v>
   <v>      -0.75579441      -0.75503828       1.07294655 </v>
   <v>      -0.75662270      -0.75668791      -1.07213611 </v>
   <v>       0.70135822       1.10729283      -0.29164950 </v>
   <v>      -1.10724216      -0.70150099      -0.29122011 </v>
   <v>       0.11230118      -0.11232700      -0.15650143 </v>
   <v>       1.10756269       0.70269370       0.29205784 </v>
   <v>      -0.70278254      -1.10754401       0.29286681 </v>
   <v>      -0.70290010       1.10810357      -0.29072778 </v>
   <v>       1.10768342      -0.70256132      -0.29106119 </v>
   <v>      -1.10760395       0.70284255       0.29296959 </v>
   <v>       0.70251225      -1.10739991       0.29210812 </v>
   <v>      -0.11274415      -0.11246096      -0.15650626 </v>
   <v>       0.00051094      -0.22371162      -0.00056185 </v>
   <v>      -0.41068446       0.00015718       1.28125753 </v>
   <v>      -0.39753389       0.00014490      -1.30316216 </v>
   <v>       0.41053134       0.00026231       1.28137182 </v>
   <v>       0.38233198       0.00009039      -1.30805137 </v>
   <v>       0.82433182       0.82410776      -0.00694867 </v>
   <v>      -0.82313970      -0.82345570      -0.00856469 </v>
   <v>      -0.82315045       0.82365455      -0.00866824 </v>
   <v>       0.82447048      -0.82409345      -0.00658839 </v>
   <v>      -0.00108125       0.00029342       1.18174809 </v>
   <v>      -0.06742390       0.00937150      -0.41534105 </v>
   <v>       1.10770666       0.70301258      -0.29087927 </v>
   <v>      -0.70305512      -1.10787042      -0.29065228 </v>
   <v>       0.10323561      -0.10012401       0.16162301 </v>
   <v>      -0.11281436       0.11286367      -0.15654040 </v>
   <v>      -0.11363344      -0.11725386       0.15232813 </v>
   <v>      -1.10746045       0.70208169      -0.29116710 </v>
   <v>       0.70146979      -1.10697268      -0.29165306 </v>
   <v>       0.11229442       0.11266679      -0.15650048 </v>
   <v>      -0.22379935       0.00012512      -0.00145424 </v>
   <v>       0.22382025       0.00004049       0.00021904 </v>
   <v>      -0.00039548      -0.41051217       1.28136609 </v>
   <v>       0.00048224      -0.38927945      -1.30676409 </v>
   <v>      -0.00034855       0.00017921       0.00708649 </v>
   <v>      -0.11551574       0.11848082       0.15152760 </v>
   <v>       0.10596330       0.10222806       0.15992840 </v>
   <v>       0.00045766       0.22396821      -0.00080287 </v>
   <v>       0.23447423      -0.03039847      -3.22433524 </v>
   <v>      -0.12650287       0.00760211       2.57101334 </v>
  </varray>
  <varray name="stress" >
   <v>      -6.74666585       0.00037026       0.00995663 </v>
   <v>       0.00037027      -6.74515217      -0.00127536 </v>
   <v>       0.00995661      -0.00127541      -6.69590006 </v>
  </varray>
  <energy>
   <i name="e_fr_energy">   -173.77734957 </i>
   <i name="e_wo_entrp">   -173.75532177 </i>
   <i name="e_0_energy">     -0.08811121 </i>
  </energy>
  <time name="totalsc">18241.2118241.73</time>
  <eigenvalues>
   <array>
    <dimension dim="1">band</dimension>
    <dimension dim="2">kpoint</dimension>
    <dimension dim="3">spin</dimension>
    <field>eigene</field>
    <field>occ</field>
    <set>
     <set comment="spin 1">
      <set comment="kpoint 1">
       <r>  -29.2555    1.0000 </r>
       <r>  -13.7667    1.0000 </r>
       <r>  -11.5518    1.0000 </r>
       <r>  -11.5515    1.0000 </r>
       <r>   -9.1839    1.0000 </r>
       <r>   -6.6185    1.0000 </r>
       <r>   -6.1004    1.0000 </r>
       <r>   -6.1003    1.0000 </r>
       <r>   -6.0946    1.0000 </r>
       <r>   -5.7859    1.0000 </r>
       <r>   -5.7858    1.0000 </r>
       <r>   -5.7848    1.0000 </r>
       <r>   -5.7182    1.0000 </r>
       <r>   -5.6662    1.0000 </r>
       <r>   -5.6577    1.0000 </r>
       <r>   -5.6577    1.0000 </r>
       <r>   -5.6575    1.0000 </r>
       <r>   -5.5946    1.0000 </r>
       <r>   -5.5936    1.0000 </r>
       <r>   -5.5803    1.0000 </r>
       <r>   -5.5691    1.0000 </r>
       <r>   -5.5691    1.0000 </r>
       <r>   -5.5687    1.0000 </r>
       <r>   -5.5239    1.0000 </r>
       <r>   -5.5221    1.0000 </r>
       <r>   -5.5220    1.0000 </r>
       <r>   -5.5201    1.0000 </r>
       <r>   -5.4934    1.0000 </r>
       <r>   -5.4933    1.0000 </r>
       <r>   -5.4920    1.0000 </r>
       <r>   -5.4868    1.0000 </r>
       <r>   -5.4868    1.0000 </r>
       <r>   -5.4866    1.0000 </r>
       <r>   -5.4863    1.0000 </r>
       <r>   -5.4849    1.0000 </r>
       <r>   -5.4509    1.0000 </r>
       <r>   -5.4509    1.0000 </r>
       <r>   -5.4422    1.0000 </r>
       <r>   -5.4422    1.0000 </r>
       <r>   -5.4400    1.0000 </r>
       <r>   -5.4400    1.0000 </r>
       <r>   -5.4399    1.0000 </r>
       <r>   -5.4398    1.0000 </r>
       <r>   -5.4033    1.0000 </r>
       <r>   -5.4021    1.0000 </r>
       <r>   -5.4020    1.0000 </r>
       <r>   -5.4010    1.0000 </r>
       <r>   -5.3998    1.0000 </r>
       <r>   -5.3959    1.0000 </r>
       <r>   -5.3955    1.0000 </r>
       <r>   -5.3943    1.0000 </r>
       <r>   -5.3798    1.0000 </r>
       <r>   -5.3789    1.0000 </r>
       <r>   -5.3788    1.0000 </r>
       <r>   -5.3634    1.0000 </r>
       <r>   -5.3019    1.0000 </r>
       <r>   -5.3005    1.0000 </r>
       <r>   -5.3003    1.0000 </r>
       <r>   -5.2995    1.0000 </r>
       <r>   -5.2892    1.0000 </r>
       <r>   -5.2890    1.0000 </r>
       <r>   -5.2890    1.0000 </r>
       <r>   -5.2748    1.0000 </r>
       <r>   -5.2746    1.0000 </r>
       <r>   -5.2727    1.0000 </r>
       <r>   -5.2603    1.0000 </r>
       <r>   -5.2599    1.0000 </r>
       <r>   -5.1884    1.0000 </r>
       <r>   -5.1795    1.0000 </r>
       <r>   -5.1783    1.0000 </r>
       <r>   -5.1780    1.0000 </r>
       <r>   -5.1535    1.0000 </r>
       <r>   -5.1523    1.0000 </r>
       <r>   -5.1523    1.0000 </r>
       <r>   -5.1504    1.0000 </r>
       <r>   -5.1470    1.0000 </r>
       <r>   -5.1354    1.0000 </r>
       <r>   -5.1352    1.0000 </r>
       <r>   -5.1349    1.0000 </r>
       <r>   -5.1199    1.0000 </r>
       <r>   -5.0973    1.0000 </r>
       <r>   -5.0966    1.0000 </r>
       <r>   -5.0964    1.0000 </r>
       <r>   -5.0855    1.0000 </r>
       <r>   -5.0758    1.0000 </r>
       <r>   -5.0757    1.0000 </r>
       <r>   -5.0751    1.0000 </r>
       <r>   -5.0326    1.0000 </r>
       <r>   -5.0312    1.0000 </r>
       <r>   -5.0280    1.0000 </r>
       <r>   -5.0279    1.0000 </r>
       <r>   -5.0275    1.0000 </r>
       <r>   -5.0233    1.0000 </r>
       <r>   -5.0209    1.0000 </r>
       <r>   -5.0209    1.0000 </r>
       <r>   -5.0088    1.0000 </r>
       <r>   -5.0084    1.0000 </r>
       <r>   -5.0005    1.0000 </r>
       <r>   -4.9905    1.0000 </r>
       <r>   -4.9902    1.0000 </r>
       <r>   -4.9778    1.0000 </r>
       <r>   -4.9776    1.0000 </r>
       <r>   -4.9776    1.0000 </r>
       <r>   -4.9657    1.0000 </r>
       <r>   -4.9655    1.0000 </r>
       <r>   -4.9637    1.0000 </r>
       <r>   -4.9524    1.0000 </r>
       <r>   -4.9522    1.0000 </r>
       <r>   -4.9522    1.0000 </r>
       <r>   -4.9422    1.0000 </r>
       <r>   -4.9412    1.0000 </r>
       <r>   -4.9326    1.0000 </r>
       <r>   -4.9320    1.0000 </r>
       <r>   -4.9267    1.0000 </r>
       <r>   -4.9253    1.0000 </r>
       <r>   -4.9252    1.0000 </r>
       <r>   -4.9096    1.0000 </r>
       <r>   -4.8903    1.0000 </r>
       <r>   -4.8903    1.0000 </r>
       <r>   -4.8899    1.0000 </r>
       <r>   -4.8776    1.0000 </r>
       <r>   -4.8765    1.0000 </r>
       <r>   -4.8761    1.0000 </r>
       <r>   -4.8741    1.0000 </r>
       <r>   -4.8741    1.0000 </r>
       <r>   -4.8738    1.0000 </r>
       <r>   -4.8198    1.0000 </r>
       <r>   -4.8167    1.0000 </r>
       <r>   -4.8159    1.0000 </r>
       <r>   -4.8157    1.0000 </r>
       <r>   -4.8140    1.0000 </r>
       <r>   -4.8139    1.0000 </r>
       <r>   -4.8034    1.0000 </r>
       <r>   -4.8033    1.0000 </r>
       <r>   -4.8024    1.0000 </r>
       <r>   -4.7661    0.9999 </r>
       <r>   -4.7649    0.9999 </r>
       <r>   -4.7637    0.9999 </r>
       <r>   -4.7635    0.9999 </r>
       <r>   -4.7490    0.9999 </r>
       <r>   -4.7472    0.9998 </r>
       <r>   -4.7339    0.9998 </r>
       <r>   -4.7097    0.9996 </r>
       <r>   -4.7096    0.9996 </r>
       <r>   -4.7094    0.9996 </r>
       <r>   -4.6979    0.9995 </r>
       <r>   -4.6972    0.9995 </r>
       <r>   -4.6789    0.9993 </r>
       <r>   -4.6672    0.9991 </r>
       <r>   -4.6666    0.9991 </r>
       <r>   -4.6611    0.9990 </r>
       <r>   -4.6552    0.9988 </r>
       <r>   -4.6469    0.9987 </r>
       <r>   -4.6465    0.9987 </r>
       <r>   -4.6459    0.9986 </r>
       <r>   -4.6455    0.9986 </r>
       <r>   -4.6447    0.9986 </r>
       <r>   -4.6447    0.9986 </r>
       <r>   -4.6268    0.9981 </r>
       <r>   -4.6234    0.9980 </r>
       <r>   -4.6232    0.9980 </r>
       <r>   -4.6221    0.9980 </r>
       <r>   -4.6207    0.9979 </r>
       <r>   -4.6198    0.9979 </r>
       <r>   -4.6179    0.9979 </r>
       <r>   -4.6179    0.9979 </r>
       <r>   -4.6143    0.9977 </r>
       <r>   -4.6136    0.9977 </r>
       <r>   -4.6023    0.9973 </r>
       <r>   -4.6003    0.9972 </r>
       <r>   -4.5786    0.9964 </r>
       <r>   -4.5769    0.9964 </r>
       <r>   -4.5697    0.9961 </r>
       <r>   -4.5697    0.9961 </r>
       <r>   -4.5677    0.9960 </r>
       <r>   -4.5676    0.9960 </r>
       <r>   -4.5656    0.9960 </r>
       <r>   -4.5612    0.9958 </r>
       <r>   -4.5554    0.9956 </r>
       <r>   -4.5552    0.9956 </r>
       <r>   -4.5456    0.9954 </r>
       <r>   -4.5249    0.9951 </r>
       <r>   -4.5247    0.9951 </r>
       <r>   -4.5243    0.9951 </r>
       <r>   -4.5238    0.9951 </r>
       <r>   -4.5238    0.9951 </r>
       <r>   -4.5233    0.9951 </r>
       <r>   -4.5225    0.9951 </r>
       <r>   -4.5210    0.9951 </r>
       <r>   -4.5209    0.9951 </r>
       <r>   -4.4793    0.9972 </r>
       <r>   -4.4777    0.9974 </r>
       <r>   -4.4776    0.9974 </r>
       <r>   -4.4761    0.9976 </r>
       <r>   -4.4757    0.9977 </r>
       <r>   -4.4633    0.9995 </r>
       <r>   -4.4530    1.0015 </r>
       <r>   -4.4530    1.0015 </r>
       <r>   -4.4509    1.0019 </r>
       <r>   -4.4404    1.0045 </r>
       <r>   -4.4401    1.0046 </r>
       <r>   -4.4307    1.0074 </r>
       <r>   -4.4285    1.0081 </r>
       <r>   -4.4285    1.0081 </r>
       <r>   -4.4198    1.0111 </r>
       <r>   -4.4196    1.0112 </r>
       <r>   -4.4195    1.0112 </r>
       <r>   -4.4165    1.0123 </r>
       <r>   -4.4164    1.0123 </r>
       <r>   -4.4118    1.0141 </r>
       <r>   -4.3947    1.0214 </r>
       <r>   -4.3817    1.0275 </r>
       <r>   -4.3808    1.0280 </r>
       <r>   -4.3808    1.0280 </r>
       <r>   -4.3804    1.0281 </r>
       <r>   -4.3766    1.0300 </r>
       <r>   -4.3731    1.0317 </r>
       <r>   -4.3731    1.0317 </r>
       <r>   -4.3720    1.0322 </r>
       <r>   -4.3419    1.0454 </r>
       <r>   -4.3416    1.0455 </r>
       <r>   -4.3316    1.0487 </r>
       <r>   -4.3125    1.0516 </r>
       <r>   -4.3121    1.0516 </r>
       <r>   -4.3099    1.0516 </r>
       <r>   -4.3095    1.0516 </r>
       <r>   -4.3084    1.0515 </r>
       <r>   -4.3078    1.0515 </r>
       <r>   -4.3077    1.0515 </r>
       <r>   -4.3058    1.0513 </r>
       <r>   -4.3008    1.0505 </r>
       <r>   -4.3001    1.0503 </r>
       <r>   -4.2984    1.0499 </r>
       <r>   -4.2953    1.0490 </r>
       <r>   -4.2933    1.0483 </r>
       <r>   -4.2930    1.0482 </r>
       <r>   -4.2930    1.0482 </r>
       <r>   -4.2896    1.0468 </r>
       <r>   -4.2888    1.0463 </r>
       <r>   -4.2888    1.0463 </r>
       <r>   -4.2736    1.0358 </r>
       <r>   -4.2718    1.0341 </r>
       <r>   -4.2606    1.0215 </r>
       <r>   -4.2604    1.0212 </r>
       <r>   -4.2555    1.0143 </r>
       <r>   -4.2555    1.0143 </r>
       <r>   -4.2553    1.0141 </r>
       <r>   -4.2550    1.0135 </r>
       <r>   -4.2491    1.0041 </r>
       <r>   -4.2356    0.9774 </r>
       <r>   -4.2341    0.9740 </r>
       <r>   -4.2276    0.9585 </r>
       <r>   -4.2266    0.9559 </r>
       <r>   -4.2261    0.9545 </r>
       <r>   -4.2210    0.9409 </r>
       <r>   -4.2208    0.9403 </r>
       <r>   -4.2199    0.9377 </r>
       <r>   -4.2159    0.9262 </r>
       <r>   -4.2148    0.9230 </r>
       <r>   -4.2148    0.9229 </r>
       <r>   -4.2091    0.9051 </r>
       <r>   -4.2080    0.9016 </r>
       <r>   -4.2080    0.9016 </r>
       <r>   -4.2079    0.9012 </r>
       <r>   -4.2047    0.8906 </r>
       <r>   -4.1930    0.8481 </r>
       <r>   -4.1924    0.8458 </r>
       <r>   -4.1892    0.8333 </r>
       <r>   -4.1891    0.8327 </r>
       <r>   -4.1890    0.8325 </r>
       <r>   -4.1865    0.8222 </r>
       <r>   -4.1859    0.8199 </r>
       <r>   -4.1637    0.7217 </r>
       <r>   -4.1633    0.7200 </r>
       <r>   -4.1627    0.7168 </r>
       <r>   -4.1512    0.6608 </r>
       <r>   -4.1511    0.6605 </r>
       <r>   -4.1473    0.6411 </r>
       <r>   -4.1404    0.6060 </r>
       <r>   -4.1404    0.6057 </r>
       <r>   -4.1399    0.6032 </r>
       <r>   -4.1261    0.5312 </r>
       <r>   -4.0997    0.3921 </r>
       <r>   -4.0996    0.3919 </r>
       <r>   -4.0990    0.3888 </r>
       <r>   -4.0961    0.3737 </r>
       <r>   -4.0834    0.3101 </r>
       <r>   -4.0816    0.3016 </r>
       <r>   -4.0782    0.2851 </r>
       <r>   -3.9403   -0.0503 </r>
       <r>   -3.8691   -0.0325 </r>
       <r>   -3.7901   -0.0020 </r>
       <r>   -3.7897   -0.0020 </r>
       <r>   -3.7889   -0.0018 </r>
       <r>   -3.4627    0.0001 </r>
       <r>   -3.4624    0.0001 </r>
       <r>   -3.4249    0.0000 </r>
       <r>   -3.0267    0.0000 </r>
       <r>   -3.0267    0.0000 </r>
       <r>   -2.9996    0.0000 </r>
       <r>   -2.9854    0.0000 </r>
       <r>   -2.9850    0.0000 </r>
       <r>   -2.9845    0.0000 </r>
       <r>   -2.9018    0.0000 </r>
       <r>   -2.8672    0.0000 </r>
       <r>   -2.5223    0.0000 </r>
       <r>   -2.5207    0.0000 </r>
       <r>   -2.4904    0.0000 </r>
       <r>   -2.2724    0.0000 </r>
       <r>   -2.0929    0.0000 </r>
       <r>   -2.0926    0.0000 </r>
       <r>   -2.0895    0.0000 </r>
       <r>   -1.9236    0.0000 </r>
       <r>   -1.9229    0.0000 </r>
       <r>   -1.8779    0.0000 </r>
       <r>   -1.8361    0.0000 </r>
       <r>   -1.8216    0.0000 </r>
       <r>   -1.7765    0.0000 </r>
       <r>   -1.7712    0.0000 </r>
       <r>   -1.7060    0.0000 </r>
       <r>   -1.6162    0.0000 </r>
       <r>   -1.5260    0.0000 </r>
       <r>   -1.5243    0.0000 </r>
       <r>   -1.5197    0.0000 </r>
       <r>   -1.4913    0.0000 </r>
       <r>   -1.1620    0.0000 </r>
       <r>   -1.1613    0.0000 </r>
       <r>   -1.1040    0.0000 </r>
       <r>   -0.9629    0.0000 </r>
       <r>   -0.9619    0.0000 </r>
       <r>   -0.9603    0.0000 </r>
       <r>   -0.9147    0.0000 </r>
       <r>   -0.9028    0.0000 </r>
       <r>   -0.8810    0.0000 </r>
       <r>   -0.8551    0.0000 </r>
       <r>   -0.7349    0.0000 </r>
      </set>
     </set>
    </set>
   </array>
  </eigenvalues>
  <separator name="orbital magnetization" >
   <v name="MAGDIPOLOUT">      0.00000000      0.00000000      0.00000000</v>
  </separator>
  <dos>
   <i name="efermi">     -4.12021938 </i>
   <total>
    <array>
     <dimension dim="1">gridpoints</dimension>
     <dimension dim="2">spin</dimension>
     <field>energy</field>
     <field>total</field>
     <field>integrated</field>
     <set>
      <set comment="spin 1">
       <r>   -31.2555     0.0000     0.0000 </r>
       <r>   -31.1471     0.0000     0.0000 </r>
       <r>   -31.0387     0.0000     0.0000 </r>
       <r>   -30.9303     0.0000     0.0000 </r>
       <r>   -30.8219     0.0000     0.0000 </r>
       <r>   -30.7135     0.0000     0.0000 </r>
       <r>   -30.6051     0.0000     0.0000 </r>
       <r>   -30.4967     0.0000     0.0000 </r>
       <r>   -30.3883     0.0000     0.0000 </r>
       <r>   -30.2799     0.0000     0.0000 </r>
       <r>   -30.1715     0.0000     0.0000 </r>
       <r>   -30.0631     0.0000     0.0000 </r>
       <r>   -29.9547     0.0004     0.0000 </r>
       <r>   -29.8462     0.0064     0.0007 </r>
       <r>   -29.7378     0.0425     0.0053 </r>
       <r>   -29.6294     0.0257     0.0081 </r>
       <r>   -29.5210    -0.5470    -0.0512 </r>
       <r>   -29.4126    -0.2490    -0.0782 </r>
       <r>   -29.3042     5.4002     0.5072 </r>
       <r>   -29.1958     9.9817     1.5893 </r>
       <r>   -29.0874     4.6393     2.0922 </r>
       <r>   -28.9790    -0.4709     2.0411 </r>
       <r>   -28.8706    -0.4643     1.9908 </r>
       <r>   -28.7622     0.0427     1.9954 </r>
       <r>   -28.6538     0.0370     1.9994 </r>
       <r>   -28.5454     0.0050     2.0000 </r>
       <r>   -28.4370     0.0003     2.0000 </r>
       <r>   -28.3286     0.0000     2.0000 </r>
       <r>   -28.2202     0.0000     2.0000 </r>
       <r>   -28.1118     0.0000     2.0000 </r>
       <r>   -28.0034     0.0000     2.0000 </r>
       <r>   -27.8950     0.0000     2.0000 </r>
       <r>   -27.7866     0.0000     2.0000 </r>
       <r>   -27.6782     0.0000     2.0000 </r>
       <r>   -27.5698     0.0000     2.0000 </r>
       <r>   -27.4614     0.0000     2.0000 </r>
       <r>   -27.3530     0.0000     2.0000 </r>
       <r>   -27.2446     0.0000     2.0000 </r>
       <r>   -27.1362     0.0000     2.0000 </r>
       <r>   -27.0278     0.0000     2.0000 </r>
       <r>   -26.9194     0.0000     2.0000 </r>
       <r>   -26.8110     0.0000     2.0000 </r>
       <r>   -26.7026     0.0000     2.0000 </r>
       <r>   -26.5942     0.0000     2.0000 </r>
       <r>   -26.4858     0.0000     2.0000 </r>
       <r>   -26.3774     0.0000     2.0000 </r>
       <r>   -26.2690     0.0000     2.0000 </r>
       <r>   -26.1606     0.0000     2.0000 </r>
       <r>   -26.0522     0.0000     2.0000 </r>
       <r>   -25.9438     0.0000     2.0000 </r>
       <r>   -25.8354     0.0000     2.0000 </r>
       <r>   -25.7270     0.0000     2.0000 </r>
       <r>   -25.6186     0.0000     2.0000 </r>
       <r>   -25.5102     0.0000     2.0000 </r>
       <r>   -25.4018     0.0000     2.0000 </r>
       <r>   -25.2934     0.0000     2.0000 </r>
       <r>   -25.1850     0.0000     2.0000 </r>
       <r>   -25.0766     0.0000     2.0000 </r>
       <r>   -24.9682     0.0000     2.0000 </r>
       <r>   -24.8598     0.0000     2.0000 </r>
       <r>   -24.7514     0.0000     2.0000 </r>
       <r>   -24.6430     0.0000     2.0000 </r>
       <r>   -24.5346     0.0000     2.0000 </r>
       <r>   -24.4262     0.0000     2.0000 </r>
       <r>   -24.3178     0.0000     2.0000 </r>
       <r>   -24.2094     0.0000     2.0000 </r>
       <r>   -24.1009     0.0000     2.0000 </r>
       <r>   -23.9925     0.0000     2.0000 </r>
       <r>   -23.8841     0.0000     2.0000 </r>
       <r>   -23.7757     0.0000     2.0000 </r>
       <r>   -23.6673     0.0000     2.0000 </r>
       <r>   -23.5589     0.0000     2.0000 </r>
       <r>   -23.4505     0.0000     2.0000 </r>
       <r>   -23.3421     0.0000     2.0000 </r>
       <r>   -23.2337     0.0000     2.0000 </r>
       <r>   -23.1253     0.0000     2.0000 </r>
       <r>   -23.0169     0.0000     2.0000 </r>
       <r>   -22.9085     0.0000     2.0000 </r>
       <r>   -22.8001     0.0000     2.0000 </r>
       <r>   -22.6917     0.0000     2.0000 </r>
       <r>   -22.5833     0.0000     2.0000 </r>
       <r>   -22.4749     0.0000     2.0000 </r>
       <r>   -22.3665     0.0000     2.0000 </r>
       <r>   -22.2581     0.0000     2.0000 </r>
       <r>   -22.1497     0.0000     2.0000 </r>
       <r>   -22.0413     0.0000     2.0000 </r>
       <r>   -21.9329     0.0000     2.0000 </r>
       <r>   -21.8245     0.0000     2.0000 </r>
       <r>   -21.7161     0.0000     2.0000 </r>
       <r>   -21.6077     0.0000     2.0000 </r>
       <r>   -21.4993     0.0000     2.0000 </r>
       <r>   -21.3909     0.0000     2.0000 </r>
       <r>   -21.2825     0.0000     2.0000 </r>
       <r>   -21.1741     0.0000     2.0000 </r>
       <r>   -21.0657     0.0000     2.0000 </r>
       <r>   -20.9573     0.0000     2.0000 </r>
       <r>   -20.8489     0.0000     2.0000 </r>
       <r>   -20.7405     0.0000     2.0000 </r>
       <r>   -20.6321     0.0000     2.0000 </r>
       <r>   -20.5237     0.0000     2.0000 </r>
       <r>   -20.4153     0.0000     2.0000 </r>
       <r>   -20.3069     0.0000     2.0000 </r>
       <r>   -20.1985     0.0000     2.0000 </r>
       <r>   -20.0901     0.0000     2.0000 </r>
       <r>   -19.9817     0.0000     2.0000 </r>
       <r>   -19.8733     0.0000     2.0000 </r>
       <r>   -19.7649     0.0000     2.0000 </r>
       <r>   -19.6565     0.0000     2.0000 </r>
       <r>   -19.5481     0.0000     2.0000 </r>
       <r>   -19.4397     0.0000     2.0000 </r>
       <r>   -19.3313     0.0000     2.0000 </r>
       <r>   -19.2229     0.0000     2.0000 </r>
       <r>   -19.1145     0.0000     2.0000 </r>
       <r>   -19.0061     0.0000     2.0000 </r>
       <r>   -18.8977     0.0000     2.0000 </r>
       <r>   -18.7893     0.0000     2.0000 </r>
       <r>   -18.6809     0.0000     2.0000 </r>
       <r>   -18.5725     0.0000     2.0000 </r>
       <r>   -18.4641     0.0000     2.0000 </r>
       <r>   -18.3557     0.0000     2.0000 </r>
       <r>   -18.2472     0.0000     2.0000 </r>
       <r>   -18.1388     0.0000     2.0000 </r>
       <r>   -18.0304     0.0000     2.0000 </r>
       <r>   -17.9220     0.0000     2.0000 </r>
       <r>   -17.8136     0.0000     2.0000 </r>
       <r>   -17.7052     0.0000     2.0000 </r>
       <r>   -17.5968     0.0000     2.0000 </r>
       <r>   -17.4884     0.0000     2.0000 </r>
       <r>   -17.3800     0.0000     2.0000 </r>
       <r>   -17.2716     0.0000     2.0000 </r>
       <r>   -17.1632     0.0000     2.0000 </r>
       <r>   -17.0548     0.0000     2.0000 </r>
       <r>   -16.9464     0.0000     2.0000 </r>
       <r>   -16.8380     0.0000     2.0000 </r>
       <r>   -16.7296     0.0000     2.0000 </r>
       <r>   -16.6212     0.0000     2.0000 </r>
       <r>   -16.5128     0.0000     2.0000 </r>
       <r>   -16.4044     0.0000     2.0000 </r>
       <r>   -16.2960     0.0000     2.0000 </r>
       <r>   -16.1876     0.0000     2.0000 </r>
       <r>   -16.0792     0.0000     2.0000 </r>
       <r>   -15.9708     0.0000     2.0000 </r>
       <r>   -15.8624     0.0000     2.0000 </r>
       <r>   -15.7540     0.0000     2.0000 </r>
       <r>   -15.6456     0.0000     2.0000 </r>
       <r>   -15.5372     0.0000     2.0000 </r>
       <r>   -15.4288     0.0000     2.0000 </r>
       <r>   -15.3204     0.0000     2.0000 </r>
       <r>   -15.2120     0.0000     2.0000 </r>
       <r>   -15.1036     0.0000     2.0000 </r>
       <r>   -14.9952     0.0000     2.0000 </r>
       <r>   -14.8868     0.0000     2.0000 </r>
       <r>   -14.7784     0.0000     2.0000 </r>
       <r>   -14.6700     0.0000     2.0000 </r>
       <r>   -14.5616     0.0000     2.0000 </r>
       <r>   -14.4532     0.0006     2.0001 </r>
       <r>   -14.3448     0.0084     2.0010 </r>
       <r>   -14.2364     0.0489     2.0063 </r>
       <r>   -14.1280    -0.0025     2.0060 </r>
       <r>   -14.0196    -0.6401     1.9366 </r>
       <r>   -13.9112     0.0953     1.9469 </r>
       <r>   -13.8028     6.2861     2.6284 </r>
       <r>   -13.6944     9.8204     3.6929 </r>
       <r>   -13.5860     3.7651     4.1011 </r>
       <r>   -13.4776    -0.6538     4.0302 </r>
       <r>   -13.3692    -0.3689     3.9902 </r>
       <r>   -13.2608     0.0555     3.9962 </r>
       <r>   -13.1524     0.0310     3.9996 </r>
       <r>   -13.0440     0.0037     4.0000 </r>
       <r>   -12.9356     0.0002     4.0000 </r>
       <r>   -12.8272     0.0000     4.0000 </r>
       <r>   -12.7188     0.0000     4.0000 </r>
       <r>   -12.6104     0.0000     4.0000 </r>
       <r>   -12.5019     0.0000     4.0000 </r>
       <r>   -12.3935     0.0000     4.0000 </r>
       <r>   -12.2851     0.0003     4.0000 </r>
       <r>   -12.1767     0.0057     4.0007 </r>
       <r>   -12.0683     0.0527     4.0064 </r>
       <r>   -11.9599     0.1229     4.0197 </r>
       <r>   -11.8515    -0.5863     3.9561 </r>
       <r>   -11.7431    -1.5002     3.7935 </r>
       <r>   -11.6347     6.1254     4.4575 </r>
       <r>   -11.5263    19.1099     6.5291 </r>
       <r>   -11.4179    14.0098     8.0477 </r>
       <r>   -11.3095     0.9169     8.1471 </r>
       <r>   -11.2011    -1.4196     7.9932 </r>
       <r>   -11.0927    -0.0683     7.9858 </r>
       <r>   -10.9843     0.1080     7.9975 </r>
       <r>   -10.8759     0.0210     7.9998 </r>
       <r>   -10.7675     0.0015     8.0000 </r>
       <r>   -10.6591     0.0001     8.0000 </r>
       <r>   -10.5507     0.0000     8.0000 </r>
       <r>   -10.4423     0.0000     8.0000 </r>
       <r>   -10.3339     0.0000     8.0000 </r>
       <r>   -10.2255     0.0000     8.0000 </r>
       <r>   -10.1171     0.0000     8.0000 </r>
       <r>   -10.0087     0.0000     8.0000 </r>
       <r>    -9.9003     0.0002     8.0000 </r>
       <r>    -9.7919     0.0043     8.0005 </r>
       <r>    -9.6835     0.0340     8.0042 </r>
       <r>    -9.5751     0.0500     8.0096 </r>
       <r>    -9.4667    -0.4162     7.9645 </r>
       <r>    -9.3583    -0.5720     7.9025 </r>
       <r>    -9.2499     4.1995     8.3577 </r>
       <r>    -9.1415     9.9228     9.4333 </r>
       <r>    -9.0331     5.8444    10.0669 </r>
       <r>    -8.9247    -0.0890    10.0572 </r>
       <r>    -8.8163    -0.5944     9.9928 </r>
       <r>    -8.7079     0.0128     9.9942 </r>
       <r>    -8.5995     0.0457     9.9992 </r>
       <r>    -8.4911     0.0074     9.9999 </r>
       <r>    -8.3827     0.0005    10.0000 </r>
       <r>    -8.2743     0.0000    10.0000 </r>
       <r>    -8.1659     0.0000    10.0000 </r>
       <r>    -8.0575     0.0000    10.0000 </r>
       <r>    -7.9491     0.0000    10.0000 </r>
       <r>    -7.8407     0.0000    10.0000 </r>
       <r>    -7.7323     0.0000    10.0000 </r>
       <r>    -7.6239     0.0000    10.0000 </r>
       <r>    -7.5155     0.0000    10.0000 </r>
       <r>    -7.4071     0.0000    10.0000 </r>
       <r>    -7.2987     0.0007    10.0001 </r>
       <r>    -7.1903     0.0096    10.0011 </r>
       <r>    -7.0819     0.0519    10.0067 </r>
       <r>    -6.9735    -0.0201    10.0046 </r>
       <r>    -6.8651    -0.6821     9.9306 </r>
       <r>    -6.7567     0.3032     9.9635 </r>
       <r>    -6.6482     6.7554    10.6958 </r>
       <r>    -6.5398     9.8617    11.7648 </r>
       <r>    -6.4314     3.0451    12.0949 </r>
       <r>    -6.3230    -3.0250    11.7670 </r>
       <r>    -6.2146     3.5805    12.1551 </r>
       <r>    -6.1062    24.2912    14.7883 </r>
       <r>    -5.9978    24.4335    17.4370 </r>
       <r>    -5.8894     7.9843    18.3025 </r>
       <r>    -5.7810    22.5860    20.7509 </r>
       <r>    -5.6726    63.8607    27.6735 </r>
       <r>    -5.5642   150.7899    44.0194 </r>
       <r>    -5.4558   276.2616    73.9667 </r>
       <r>    -5.3474   301.1203   106.6087 </r>
       <r>    -5.2390   222.5394   130.7323 </r>
       <r>    -5.1306   215.6246   154.1065 </r>
       <r>    -5.0222   311.8482   187.9114 </r>
       <r>    -4.9138   370.1279   228.0339 </r>
       <r>    -4.8054   316.3628   262.3283 </r>
       <r>    -4.6970   303.9588   295.2780 </r>
       <r>    -4.5886   396.1308   338.2193 </r>
       <r>    -4.4802   426.7238   384.4769 </r>
       <r>    -4.3718   431.5777   431.2608 </r>
       <r>    -4.2634   534.8158   489.2358 </r>
       <r>    -4.1550   530.5924   546.7530 </r>
       <r>    -4.0466   273.9556   576.4503 </r>
       <r>    -3.9382    46.2438   581.4632 </r>
       <r>    -3.8298    15.9942   583.1970 </r>
       <r>    -3.7214    32.2848   586.6968 </r>
       <r>    -3.6130    12.4706   588.0486 </r>
       <r>    -3.5046    13.3427   589.4950 </r>
       <r>    -3.3962    28.7672   592.6134 </r>
       <r>    -3.2878    13.1030   594.0338 </r>
       <r>    -3.1794    -4.6016   593.5350 </r>
       <r>    -3.0710    21.1290   595.8254 </r>
       <r>    -2.9626    65.2307   602.8965 </r>
       <r>    -2.8542    55.4723   608.9098 </r>
       <r>    -2.7458    11.8076   610.1898 </r>
       <r>    -2.6374    -0.4278   610.1434 </r>
       <r>    -2.5290    20.5285   612.3687 </r>
       <r>    -2.4206    27.5569   615.3560 </r>
       <r>    -2.3122    11.9803   616.6546 </r>
       <r>    -2.2038    11.0808   617.8558 </r>
       <r>    -2.0954    25.0357   620.5697 </r>
       <r>    -1.9870    33.5556   624.2072 </r>
       <r>    -1.8786    46.5021   629.2481 </r>
       <r>    -1.7702    56.4968   635.3725 </r>
       <r>    -1.6618    42.9265   640.0258 </r>
       <r>    -1.5534    40.5613   644.4227 </r>
       <r>    -1.4450    39.9801   648.7567 </r>
       <r>    -1.3366    12.9561   650.1611 </r>
       <r>    -1.2282     4.6976   650.6704 </r>
       <r>    -1.1198    22.3700   653.0953 </r>
       <r>    -1.0114    40.9502   657.5344 </r>
       <r>    -0.9029    62.1860   664.2755 </r>
       <r>    -0.7945    52.5595   669.9730 </r>
       <r>    -0.6861    18.4526   671.9733 </r>
       <r>    -0.5777     1.2969   672.1139 </r>
       <r>    -0.4693    -1.0426   672.0009 </r>
       <r>    -0.3609    -0.2025   671.9789 </r>
       <r>    -0.2525     0.1337   671.9934 </r>
       <r>    -0.1441     0.0535   671.9992 </r>
       <r>    -0.0357     0.0069   672.0000 </r>
       <r>     0.0727     0.0004   672.0000 </r>
       <r>     0.1811     0.0000   672.0000 </r>
       <r>     0.2895     0.0000   672.0000 </r>
       <r>     0.3979     0.0000   672.0000 </r>
       <r>     0.5063     0.0000   672.0000 </r>
       <r>     0.6147     0.0000   672.0000 </r>
       <r>     0.7231     0.0000   672.0000 </r>
       <r>     0.8315     0.0000   672.0000 </r>
       <r>     0.9399     0.0000   672.0000 </r>
       <r>     1.0483     0.0000   672.0000 </r>
       <r>     1.1567     0.0000   672.0000 </r>
       <r>     1.2651     0.0000   672.0000 </r>
      </set>
     </set>
    </array>
   </total>
  </dos>
 </calculation>
 <structure name="finalpos" >
  <crystal>
   <varray name="basis" >
    <v>      30.00000000       0.00000000       0.00000000 </v>
    <v>       0.00000000      30.00000000       0.00000000 </v>
    <v>       0.00000000       0.00000000      30.00000000 </v>
   </varray>
   <i name="volume">  27000.00000000 </i>
   <varray name="rec_basis" >
    <v>       0.03333333       0.00000000       0.00000000 </v>
    <v>       0.00000000       0.03333333       0.00000000 </v>
    <v>       0.00000000       0.00000000       0.03333333 </v>
   </varray>
  </crystal>
  <varray name="positions" >
   <v>       0.44576020       0.32826710       0.41691983 </v>
   <v>       0.67173288       0.55423978       0.41691983 </v>
   <v>       0.55423980       0.32826710       0.41691983 </v>
   <v>       0.32826712       0.55423978       0.41691983 </v>
   <v>       0.50000000       0.38250690       0.34021317 </v>
   <v>       0.50000000       0.38250690       0.65978680 </v>
   <v>       0.50000000       0.27609440       0.50000000 </v>
   <v>       0.27609443       0.49999998       0.50000000 </v>
   <v>       0.72390557       0.49999998       0.50000000 </v>
   <v>       0.50000000       0.72390555       0.50000000 </v>
   <v>       0.61195280       0.38804720       0.34167483 </v>
   <v>       0.61195280       0.38804720       0.65832513 </v>
   <v>       0.38804722       0.61195278       0.34167483 </v>
   <v>       0.38804722       0.61195278       0.65832513 </v>
   <v>       0.38804720       0.38804720       0.34167483 </v>
   <v>       0.38804720       0.38804720       0.65832513 </v>
   <v>       0.61195278       0.61195278       0.34167483 </v>
   <v>       0.61195278       0.61195278       0.65832513 </v>
   <v>       0.44576020       0.32826710       0.58308023 </v>
   <v>       0.67173288       0.55423978       0.58308023 </v>
   <v>       0.55791699       0.44208301       0.41809300 </v>
   <v>       0.32826705       0.44576024       0.41691983 </v>
   <v>       0.55423973       0.67173293       0.41691983 </v>
   <v>       0.55423980       0.32826710       0.58308023 </v>
   <v>       0.32826712       0.55423978       0.58308023 </v>
   <v>       0.67173295       0.44576024       0.41691983 </v>
   <v>       0.44576027       0.67173293       0.41691983 </v>
   <v>       0.44208301       0.44208301       0.41809300 </v>
   <v>       0.50000000       0.38416601       0.50000000 </v>
   <v>       0.61749315       0.50000005       0.34021317 </v>
   <v>       0.61749315       0.50000005       0.65978680 </v>
   <v>       0.38250685       0.50000005       0.34021317 </v>
   <v>       0.38250685       0.50000005       0.65978680 </v>
   <v>       0.38317830       0.38317830       0.50000000 </v>
   <v>       0.61682172       0.61682172       0.50000000 </v>
   <v>       0.61682170       0.38317830       0.50000000 </v>
   <v>       0.38317828       0.61682172       0.50000000 </v>
   <v>       0.50000000       0.50000000       0.33478917 </v>
   <v>       0.50000000       0.50000000       0.66521087 </v>
   <v>       0.32826705       0.44576024       0.58308023 </v>
   <v>       0.55423973       0.67173293       0.58308023 </v>
   <v>       0.55791699       0.44208301       0.58190703 </v>
   <v>       0.44208298       0.55791702       0.41809300 </v>
   <v>       0.44208301       0.44208301       0.58190703 </v>
   <v>       0.67173295       0.44576024       0.58308023 </v>
   <v>       0.44576027       0.67173293       0.58308023 </v>
   <v>       0.55791702       0.55791702       0.41809300 </v>
   <v>       0.38416599       0.50000002       0.50000000 </v>
   <v>       0.61583401       0.50000002       0.50000000 </v>
   <v>       0.50000000       0.61749319       0.34021317 </v>
   <v>       0.50000000       0.61749319       0.65978680 </v>
   <v>       0.50000000       0.50000000       0.50000000 </v>
   <v>       0.44208298       0.55791702       0.58190703 </v>
   <v>       0.55791702       0.55791702       0.58190703 </v>
   <v>       0.50000000       0.61583404       0.50000000 </v>
   <v>       0.48669790       0.50182187       0.75814567 </v>
   <v>       0.48476300       0.50208687       0.79569493 </v>
  </varray>
  <varray name="selective"  type="logical" >
   <v type="logical" >  F  F  F </v>
   <v type="logical" >  F  F  F </v>
   <v type="logical" >  F  F  F </v>
   <v type="logical" >  F  F  F </v>
   <v type="logical" >  F  F  F </v>
   <v type="logical" >  F  F  F </v>
   <v type="logical" >  F  F  F </v>
   <v type="logical" >  F  F  F </v>
   <v type="logical" >  F  F  F </v>
   <v type="logical" >  F  F  F </v>
   <v type="logical" >  F  F  F </v>
   <v type="logical" >  F  F  F </v>
   <v type="logical" >  F  F  F </v>
   <v type="logical" >  F  F  F </v>
   <v type="logical" >  F  F  F </v>
   <v type="logical" >  F  F  F </v>
   <v type="logical" >  F  F  F </v>
   <v type="logical" >  F  F  F </v>
   <v type="logical" >  F  F  F </v>
   <v type="logical" >  F  F  F </v>
   <v type="logical" >  F  F  F </v>
   <v type="logical" >  F  F  F </v>
   <v type="logical" >  F  F  F </v>
   <v type="logical" >  F  F  F </v>
   <v type="logical" >  F  F  F </v>
   <v type="logical" >  F  F  F </v>
   <v type="logical" >  F  F  F </v>
   <v type="logical" >  F  F  F </v>
   <v type="logical" >  F  F  F </v>
   <v type="logical" >  F  F  F </v>
   <v type="logical" >  F  F  F </v>
   <v type="logical" >  F  F  F </v>
   <v type="logical" >  F  F  F </v>
   <v type="logical" >  F  F  F </v>
   <v type="logical" >  F  F  F </v>
   <v type="logical" >  F  F  F </v>
   <v type="logical" >  F  F  F </v>
   <v type="logical" >  F  F  F </v>
   <v type="logical" >  F  F  F </v>
   <v type="logical" >  F  F  F </v>
   <v type="logical" >  F  F  F </v>
   <v type="logical" >  F  F  F </v>
   <v type="logical" >  F  F  F </v>
   <v type="logical" >  F  F  F </v>
   <v type="logical" >  F  F  F </v>
   <v type="logical" >  F  F  F </v>
   <v type="logical" >  F  F  F </v>
   <v type="logical" >  F  F  F </v>
   <v type="logical" >  F  F  F </v>
   <v type="logical" >  F  F  F </v>
   <v type="logical" >  F  F  F </v>
   <v type="logical" >  F  F  F </v>
   <v type="logical" >  F  F  F </v>
   <v type="logical" >  F  F  F </v>
   <v type="logical" >  F  F  F </v>
   <v type="logical" >  F  F  F </v>
   <v type="logical" >  F  F  F </v>
  </varray>
  <nose>
   <v>      -3.00000000       0.00000000       0.00010000       0.00010000 </v>
  </nose>
 </structure>
</modeling>
