 vasp.5.4.4.18Apr17-6-g9f103f2a35 (build Sep 03 2018 23:53:05) complex          
  
 executed on             LinuxIFC date 2021.11.30  19:25:44
 running on    1 total cores
 distrk:  each k-point on    1 cores,    1 groups
 distr:  one band on NCORES_PER_BAND=   1 cores,    1 groups


--------------------------------------------------------------------------------------------------------


 INCAR:
 POTCAR:    PAW_PBE Pd 04Jan2005                  
 POTCAR:    PAW_PBE C 08Apr2002                   
 POTCAR:    PAW_PBE O 08Apr2002                   
 POTCAR:    PAW_PBE Pd 04Jan2005                  
   VRHFIN =Pd : s1 d9                                                           
   LEXCH  = PE                                                                  
   EATOM  =   809.7530 eV,   59.5152 Ry                                         
                                                                                
   TITEL  = PAW_PBE Pd 04Jan2005                                                
   LULTRA =        F    use ultrasoft PP ?                                      
   IUNSCR =        1    unscreen: 0-lin 1-nonlin 2-no                           
   RPACOR =    2.000    partial core radius                                     
   POMASS =  106.420; ZVAL   =   10.000    mass and valenz                      
   RCORE  =    2.600    outmost cutoff radius                                   
   RWIGS  =    2.710; RWIGS  =    1.434    wigner-seitz radius (au A)           
   ENMAX  =  250.925; ENMIN  =  188.194 eV                                      
   ICORE  =        3    local potential                                         
   LCOR   =        T    correct aug charges                                     
   LPAW   =        T    paw PP                                                  
   EAUG   =  416.230                                                            
   DEXC   =    0.000                                                            
   RMAX   =    2.653    core radius for proj-oper                               
   RAUG   =    1.300    factor for augmentation sphere                          
   RDEP   =    2.734    radius for radial grids                                 
   RDEPT  =    2.103    core radius for aug-charge                              
                                                                                
   Atomic configuration                                                         
   12 entries                                                                   
     n  l   j            E        occ.                                          
     1  0  0.50    -24164.6631   2.0000                                         
     2  0  0.50     -3530.9218   2.0000                                         
     2  1  1.50     -3165.6822   6.0000                                         
     3  0  0.50      -639.4577   2.0000                                         
     3  1  1.50      -519.4532   6.0000                                         
     3  2  2.50      -328.9757  10.0000                                         
     4  0  0.50       -88.7014   2.0000                                         
     4  1  1.50       -54.4540   6.0000                                         
     4  2  2.50        -6.6878   9.0000                                         
     5  0  0.50        -4.3543   1.0000                                         
     5  1  0.50        -1.3606   0.0000                                         
     4  3  2.50        -1.3606   0.0000                                         
   Description                                                                  
     l       E           TYP  RCUT    TYP  RCUT                                 
     2     -6.6878251     23  2.400                                             
     2     -8.0484077     23  2.400                                             
     0     -4.3542939     23  2.400                                             
     0      4.3406793     23  2.400                                             
     1     -4.0817478     23  2.600                                             
     1     15.8380318     23  2.600                                             
     3     -4.0817478     23  2.400                                             
  local pseudopotential read in
  partial core-charges read in
  partial kinetic energy density read in
  atomic valenz-charges read in
  non local Contribution for L=           2  read in
    real space projection operators read in
  non local Contribution for L=           2  read in
    real space projection operators read in
  non local Contribution for L=           0  read in
    real space projection operators read in
  non local Contribution for L=           0  read in
    real space projection operators read in
  non local Contribution for L=           1  read in
    real space projection operators read in
  non local Contribution for L=           1  read in
    real space projection operators read in
    PAW grid and wavefunctions read in
 
   number of l-projection  operators is LMAX  =           6
   number of lm-projection operators is LMMAX =          18
 
 POTCAR:    PAW_PBE C 08Apr2002                   
   VRHFIN =C: s2p2                                                              
   LEXCH  = PE                                                                  
   EATOM  =   147.1560 eV,   10.8157 Ry                                         
                                                                                
   TITEL  = PAW_PBE C 08Apr2002                                                 
   LULTRA =        F    use ultrasoft PP ?                                      
   IUNSCR =        1    unscreen: 0-lin 1-nonlin 2-no                           
   RPACOR =    1.200    partial core radius                                     
   POMASS =   12.011; ZVAL   =    4.000    mass and valenz                      
   RCORE  =    1.500    outmost cutoff radius                                   
   RWIGS  =    1.630; RWIGS  =    0.863    wigner-seitz radius (au A)           
   ENMAX  =  400.000; ENMIN  =  300.000 eV                                      
   ICORE  =        2    local potential                                         
   LCOR   =        T    correct aug charges                                     
   LPAW   =        T    paw PP                                                  
   EAUG   =  644.873                                                            
   DEXC   =    0.000                                                            
   RMAX   =    1.529    core radius for proj-oper                               
   RAUG   =    1.300    factor for augmentation sphere                          
   RDEP   =    1.501    radius for radial grids                                 
   RDEPT  =    1.300    core radius for aug-charge                              
                                                                                
   Atomic configuration                                                         
    4 entries                                                                   
     n  l   j            E        occ.                                          
     1  0  0.50      -273.3789   2.0000                                         
     2  0  0.50       -13.7508   2.0000                                         
     2  1  0.50        -5.2854   2.0000                                         
     3  2  1.50        -5.4423   0.0000                                         
   Description                                                                  
     l       E           TYP  RCUT    TYP  RCUT                                 
     0    -13.7508458     23  1.200                                             
     0     -8.2022199     23  1.200                                             
     1     -5.2854383     23  1.500                                             
     1     34.0145650     23  1.500                                             
     2     -5.4423304      7  1.500                                             
  local pseudopotential read in
  partial core-charges read in
  partial kinetic energy density read in
  atomic valenz-charges read in
  non local Contribution for L=           0  read in
    real space projection operators read in
  non local Contribution for L=           0  read in
    real space projection operators read in
  non local Contribution for L=           1  read in
    real space projection operators read in
  non local Contribution for L=           1  read in
    real space projection operators read in
    PAW grid and wavefunctions read in
 
   number of l-projection  operators is LMAX  =           4
   number of lm-projection operators is LMMAX =           8
 
 POTCAR:    PAW_PBE O 08Apr2002                   
   VRHFIN =O: s2p4                                                              
   LEXCH  = PE                                                                  
   EATOM  =   432.3788 eV,   31.7789 Ry                                         
                                                                                
   TITEL  = PAW_PBE O 08Apr2002                                                 
   LULTRA =        F    use ultrasoft PP ?                                      
   IUNSCR =        1    unscreen: 0-lin 1-nonlin 2-no                           
   RPACOR =    1.200    partial core radius                                     
   POMASS =   16.000; ZVAL   =    6.000    mass and valenz                      
   RCORE  =    1.520    outmost cutoff radius                                   
   RWIGS  =    1.550; RWIGS  =    0.820    wigner-seitz radius (au A)           
   ENMAX  =  400.000; ENMIN  =  300.000 eV                                      
   ICORE  =        2    local potential                                         
   LCOR   =        T    correct aug charges                                     
   LPAW   =        T    paw PP                                                  
   EAUG   =  605.392                                                            
   DEXC   =    0.000                                                            
   RMAX   =    1.553    core radius for proj-oper                               
   RAUG   =    1.300    factor for augmentation sphere                          
   RDEP   =    1.550    radius for radial grids                                 
   RDEPT  =    1.329    core radius for aug-charge                              
                                                                                
   Atomic configuration                                                         
    4 entries                                                                   
     n  l   j            E        occ.                                          
     1  0  0.50      -514.6923   2.0000                                         
     2  0  0.50       -23.9615   2.0000                                         
     2  1  0.50        -9.0305   4.0000                                         
     3  2  1.50        -9.5241   0.0000                                         
   Description                                                                  
     l       E           TYP  RCUT    TYP  RCUT                                 
     0    -23.9615318     23  1.200                                             
     0     -9.5240782     23  1.200                                             
     1     -9.0304911     23  1.520                                             
     1      8.1634956     23  1.520                                             
     2     -9.5240782      7  1.500                                             
  local pseudopotential read in
  partial core-charges read in
  partial kinetic energy density read in
  kinetic energy density of atom read in
  atomic valenz-charges read in
  non local Contribution for L=           0  read in
    real space projection operators read in
  non local Contribution for L=           0  read in
    real space projection operators read in
  non local Contribution for L=           1  read in
    real space projection operators read in
  non local Contribution for L=           1  read in
    real space projection operators read in
    PAW grid and wavefunctions read in
 
   number of l-projection  operators is LMAX  =           4
   number of lm-projection operators is LMMAX =           8
 
 Optimization of the real space projectors (new method)

 maximal supplied QI-value         = 14.36
 optimisation between [QCUT,QGAM] = [ 10.20, 20.39] = [ 29.12,116.47] Ry 
 Optimized for a Real-space Cutoff    1.51 Angstroem

   l    n(q)    QCUT    max X(q) W(low)/X(q) W(high)/X(q)  e(spline) 
   2      8    10.197    59.108    0.26E-03    0.14E-03    0.96E-07
   2      8    10.197    58.101    0.27E-03    0.14E-03    0.98E-07
   0      9    10.197   102.235    0.54E-04    0.60E-05    0.72E-07
   0      9    10.197    58.388    0.52E-04    0.60E-05    0.68E-07
   1      9    10.197    22.191    0.18E-03    0.25E-03    0.79E-07
   1      9    10.197    15.590    0.15E-03    0.21E-03    0.69E-07
 Optimization of the real space projectors (new method)

 maximal supplied QI-value         = 25.13
 optimisation between [QCUT,QGAM] = [ 10.05, 20.36] = [ 28.30,116.06] Ry 
 Optimized for a Real-space Cutoff    1.30 Angstroem

   l    n(q)    QCUT    max X(q) W(low)/X(q) W(high)/X(q)  e(spline) 
   0      8    10.053   115.676    0.49E-03    0.72E-03    0.18E-06
   0      8    10.053    87.132    0.49E-03    0.71E-03    0.18E-06
   1      7    10.053     4.429    0.32E-03    0.31E-03    0.18E-06
   1      7    10.053     2.733    0.23E-03    0.19E-03    0.20E-06
 Optimization of the real space projectors (new method)

 maximal supplied QI-value         = 24.76
 optimisation between [QCUT,QGAM] = [ 10.15, 20.30] = [ 28.85,115.39] Ry 
 Optimized for a Real-space Cutoff    1.38 Angstroem

   l    n(q)    QCUT    max X(q) W(low)/X(q) W(high)/X(q)  e(spline) 
   0      8    10.150    20.381    0.22E-03    0.32E-03    0.29E-06
   0      8    10.150    15.268    0.23E-03    0.35E-03    0.30E-06
   1      8    10.150     5.964    0.46E-03    0.53E-03    0.21E-06
   1      8    10.150     5.382    0.38E-03    0.45E-03    0.19E-06

 ----------------------------------------------------------------------------- 
|                                                                             |
|  ADVICE TO THIS USER RUNNING 'VASP/VAMP'   (HEAR YOUR MASTER'S VOICE ...):  |
|                                                                             |
|      You enforced a specific xc-type in the INCAR file,                     |
|      a different type was found on the POTCAR file                          |
|          I HOPE YOU KNOW, WHAT YOU ARE  DOING                               |
|                                                                             |
 ----------------------------------------------------------------------------- 

  PAW_PBE Pd 04Jan2005                  :
 energy of atom  1       EATOM= -809.7530
 kinetic energy error for atom=    0.0091 (will be added to EATOM!!)
  PAW_PBE C 08Apr2002                   :
 energy of atom  2       EATOM= -147.1560
 kinetic energy error for atom=    0.0288 (will be added to EATOM!!)
  PAW_PBE O 08Apr2002                   :
 energy of atom  3       EATOM= -432.3788
 kinetic energy error for atom=    0.1156 (will be added to EATOM!!)
 
 
 POSCAR: Pd55PES                                 
  positions in cartesian coordinates
  No initial velocities read in
 exchange correlation table for  LEXCH =        9
   RHO(1)=    0.500       N(1)  =     2000
   RHO(2)=  100.500       N(2)  =     4000
 


--------------------------------------------------------------------------------------------------------


 ion  position               nearest neighbor table
   1  0.446  0.328  0.417-   3 3.25   5 3.25   7 3.36  15 3.36  29 3.42  28 3.42
   2  0.672  0.554  0.417-  56 2.32  26 3.25  30 3.25  17 3.36   9 3.36  47 3.42  49 3.42
   3  0.554  0.328  0.417-   1 3.25   5 3.25   7 3.36  11 3.36  29 3.42  21 3.42
   4  0.328  0.554  0.417-  32 3.25  22 3.25  13 3.36   8 3.36  43 3.42  48 3.42
   5  0.500  0.383  0.340-   1 3.25   3 3.25  11 3.36  15 3.36  21 3.42  28 3.42
   6  0.500  0.383  0.660-  24 3.25  19 3.25  16 3.36  12 3.36  42 3.42  44 3.42
   7  0.500  0.276  0.500-  29 3.24   3 3.36   1 3.36  19 3.36  24 3.36
   8  0.276  0.500  0.500-  48 3.24  22 3.36  40 3.36   4 3.36  25 3.36
   9  0.724  0.500  0.500-  49 3.24  26 3.36  45 3.36   2 3.36  20 3.36
  10  0.500  0.724  0.500-  55 3.24  27 3.36  23 3.36  46 3.36  41 3.36
  11  0.612  0.388  0.342-  21 3.24   5 3.36   3 3.36  30 3.36  26 3.36
  12  0.612  0.388  0.658-  42 3.24  24 3.36  45 3.36   6 3.36  31 3.36
  13  0.388  0.612  0.342-  43 3.24  32 3.36  50 3.36   4 3.36  27 3.36
  14  0.388  0.612  0.658-  53 3.24  25 3.36  33 3.36  51 3.36  46 3.36
  15  0.388  0.388  0.342-  28 3.24   5 3.36   1 3.36  32 3.36  22 3.36
  16  0.388  0.388  0.658-  44 3.24  19 3.36  40 3.36   6 3.36  33 3.36
  17  0.612  0.612  0.342-  47 3.24  30 3.36  50 3.36   2 3.36  23 3.36
  18  0.612  0.612  0.658-  54 3.24  31 3.36  20 3.36  51 3.36  41 3.36
  19  0.446  0.328  0.583-   6 3.25  24 3.25  16 3.36   7 3.36  44 3.42  29 3.42
  20  0.672  0.554  0.583-  31 3.25  45 3.25  18 3.36   9 3.36  54 3.42  49 3.42
  21  0.558  0.442  0.418-  11 3.24   5 3.42   3 3.42  30 3.42  26 3.42
  22  0.328  0.446  0.417-   4 3.25  32 3.25   8 3.36  15 3.36  48 3.42  28 3.42
  23  0.554  0.672  0.417-  27 3.25  50 3.25  10 3.36  17 3.36  55 3.42  47 3.42
  24  0.554  0.328  0.583-   6 3.25  19 3.25  12 3.36   7 3.36  42 3.42  29 3.42
  25  0.328  0.554  0.583-  33 3.25  40 3.25  14 3.36   8 3.36  53 3.42  48 3.42
  26  0.672  0.446  0.417-   2 3.25  30 3.25   9 3.36  11 3.36  49 3.42  21 3.42
  27  0.446  0.672  0.417-  23 3.25  50 3.25  10 3.36  13 3.36  55 3.42  43 3.42
  28  0.442  0.442  0.418-  15 3.24   5 3.42   1 3.42  32 3.42  22 3.42
  29  0.500  0.384  0.500-   7 3.24   3 3.42   1 3.42  24 3.42  19 3.42
  30  0.617  0.500  0.340-   2 3.25  26 3.25  17 3.36  11 3.36  47 3.42  21 3.42
  31  0.617  0.500  0.660-  20 3.25  45 3.25  18 3.36  12 3.36  54 3.42  42 3.42
  32  0.383  0.500  0.340-   4 3.25  22 3.25  13 3.36  15 3.36  43 3.42  28 3.42
  33  0.383  0.500  0.660-  25 3.25  40 3.25  14 3.36  16 3.36  53 3.42  44 3.42
  34  0.383  0.383  0.500-
  35  0.617  0.617  0.500-
  36  0.617  0.383  0.500-
  37  0.383  0.617  0.500-
  38  0.500  0.500  0.335-
  39  0.500  0.500  0.665-
  40  0.328  0.446  0.583-  33 3.25  25 3.25  16 3.36   8 3.36  44 3.42  48 3.42
  41  0.554  0.672  0.583-  46 3.25  51 3.25  10 3.36  18 3.36  54 3.42  55 3.42
  42  0.558  0.442  0.582-  12 3.24   6 3.42  24 3.42  31 3.42  45 3.42
  43  0.442  0.558  0.418-  13 3.24   4 3.42  32 3.42  27 3.42  50 3.42
  44  0.442  0.442  0.582-  16 3.24   6 3.42  19 3.42  33 3.42  40 3.42
  45  0.672  0.446  0.583-  20 3.25  31 3.25   9 3.36  12 3.36  49 3.42  42 3.42
  46  0.446  0.672  0.583-  41 3.25  51 3.25  10 3.36  14 3.36  53 3.42  55 3.42
  47  0.558  0.558  0.418-  17 3.24   2 3.42  30 3.42  23 3.42  50 3.42
  48  0.384  0.500  0.500-   8 3.24   4 3.42  22 3.42  25 3.42  40 3.42
  49  0.616  0.500  0.500-   9 3.24   2 3.42  26 3.42  20 3.42  45 3.42
  50  0.500  0.617  0.340-  27 3.25  23 3.25  13 3.36  17 3.36  43 3.42  47 3.42
  51  0.500  0.617  0.660-  41 3.25  46 3.25  14 3.36  18 3.36  53 3.42  54 3.42
  52  0.500  0.500  0.500-
  53  0.442  0.558  0.582-  14 3.24  25 3.42  33 3.42  51 3.42  46 3.42
  54  0.558  0.558  0.582-  18 3.24  31 3.42  20 3.42  51 3.42  41 3.42
  55  0.500  0.616  0.500-  10 3.24  23 3.42  27 3.42  41 3.42  46 3.42
  56  0.730  0.522  0.378-  57 1.13   2 2.32
  57  0.763  0.525  0.360-  56 1.13
 
  LATTYP: Found a simple cubic cell.
 ALAT       =    30.0000000000
  
  Lattice vectors:
  
 A1 = (  30.0000000000,   0.0000000000,   0.0000000000)
 A2 = (   0.0000000000,  30.0000000000,   0.0000000000)
 A3 = (   0.0000000000,   0.0000000000,  30.0000000000)


Analysis of symmetry for initial positions (statically):
=====================================================================
 Subroutine PRICEL returns:
 Original cell was already a primitive cell.
 

 Routine SETGRP: Setting up the symmetry group for a 
 simple cubic supercell.


 Subroutine GETGRP returns: Found  1 space group operations
 (whereof  1 operations were pure point group operations)
 out of a pool of 48 trial point group operations.


The static configuration has the point symmetry C_1 .


Analysis of symmetry for dynamics (positions and initial velocities):
=====================================================================
 Subroutine PRICEL returns:
 Original cell was already a primitive cell.
 

 Routine SETGRP: Setting up the symmetry group for a 
 simple cubic supercell.


 Subroutine GETGRP returns: Found  1 space group operations
 (whereof  1 operations were pure point group operations)
 out of a pool of 48 trial point group operations.


The dynamic configuration has the point symmetry C_1 .


Analysis of constrained symmetry for selective dynamics:
=====================================================================
 Subroutine PRICEL returns:
 Original cell was already a primitive cell.
 

 Routine SETGRP: Setting up the symmetry group for a 
 simple cubic supercell.


 Subroutine GETGRP returns: Found  1 space group operations
 (whereof  1 operations were pure point group operations)
 out of a pool of 48 trial point group operations.


The constrained configuration has the point symmetry C_1 .


 Subroutine INISYM returns: Found  1 space group operations
 (whereof  1 operations are pure point group operations),
 and found     1 'primitive' translations

 
 
 KPOINTS: K-points                                

Automatic generation of k-mesh.
Space group operators:
 irot       det(A)        alpha          n_x          n_y          n_z        tau_x        tau_y        tau_z
    1     1.000000     0.000000     1.000000     0.000000     0.000000     0.000000     0.000000     0.000000
 
 Subroutine IBZKPT returns following result:
 ===========================================
 
 Found      1 irreducible k-points:
 
 Following reciprocal coordinates:
            Coordinates               Weight
  0.000000  0.000000  0.000000      1.000000
 
 Following cartesian coordinates:
            Coordinates               Weight
  0.000000  0.000000  0.000000      1.000000
 


--------------------------------------------------------------------------------------------------------




 Dimension of arrays:
   k-points           NKPTS =      1   k-points in BZ     NKDIM =      1   number of bands    NBANDS=    336
   number of dos      NEDOS =    301   number of ions     NIONS =     57
   non local maximal  LDIM  =      6   non local SUM 2l+1 LMDIM =     18
   total plane-waves  NPLWV = ******
   max r-space proj   IRMAX =   1847   max aug-charges    IRDMAX=   6262
   dimension x,y,z NGX =   150 NGY =  150 NGZ =  150
   dimension x,y,z NGXF=   300 NGYF=  300 NGZF=  300
   support grid    NGXF=   300 NGYF=  300 NGZF=  300
   ions per type =              55   1   1
   NGX,Y,Z   is equivalent  to a cutoff of   8.31,  8.31,  8.31 a.u.
   NGXF,Y,Z  is equivalent  to a cutoff of  16.62, 16.62, 16.62 a.u.

 SYSTEM =  6_Pd100_top_free_z(O)                   
 POSCAR =  Pd55PES                                 

 Startparameter for this run:
   NWRITE =      2    write-flag & timer
   PREC   = normal    normal or accurate (medium, high low for compatibility)
   ISTART =      0    job   : 0-new  1-cont  2-samecut
   ICHARG =      2    charge: 1-file 2-atom 10-const
   ISPIN  =      1    spin polarized calculation?
   LNONCOLLINEAR =      F non collinear calculations
   LSORBIT =      F    spin-orbit coupling
   INIWAV =      1    electr: 0-lowe 1-rand  2-diag
   LASPH  =      F    aspherical Exc in radial PAW
   METAGGA=      F    non-selfconsistent MetaGGA calc.

 Electronic Relaxation 1
   ENCUT  =  400.0 eV  29.40 Ry    5.42 a.u.  48.92 48.92 48.92*2*pi/ulx,y,z
   ENINI  =  400.0     initial cutoff
   ENAUG  =  644.9 eV  augmentation charge cutoff
   NELM   =    100;   NELMIN=  6; NELMDL= -5     # of ELM steps 
   EDIFF  = 0.1E-03   stopping-criterion for ELM
   LREAL  =      T    real-space projection
   NLSPLINE    = F    spline interpolate recip. space projectors
   LCOMPAT=      F    compatible to vasp.4.4
   GGA_COMPAT  = T    GGA compatible to vasp.4.4-vasp.4.6
   LMAXPAW     = -100 max onsite density
   LMAXMIX     =    2 max onsite mixed and CHGCAR
   VOSKOWN=      0    Vosko Wilk Nusair interpolation
   ROPT   =   -0.00050  -0.00050  -0.00050
 Ionic relaxation
   EDIFFG = -.5E-01   stopping-criterion for IOM
   NSW    =      0    number of steps for IOM
   NBLOCK =      1;   KBLOCK =      1    inner block; outer block 
   IBRION =     -1    ionic relax: 0-MD 1-quasi-New 2-CG
   NFREE  =      1    steps in history (QN), initial steepest desc. (CG)
   ISIF   =      2    stress and relaxation
   IWAVPR =     10    prediction:  0-non 1-charg 2-wave 3-comb
   ISYM   =      2    0-nonsym 1-usesym 2-fastsym
   LCORR  =      T    Harris-Foulkes like correction to forces

   POTIM  = 0.5000    time-step for ionic-motion
   TEIN   =    0.0    initial temperature
   TEBEG  =    0.0;   TEEND  =   0.0 temperature during run
   SMASS  =  -3.00    Nose mass-parameter (am)
   estimated Nose-frequenzy (Omega)   =  0.10E-29 period in steps =****** mass=  -0.206E-25a.u.
   SCALEE = 1.0000    scale energy and forces
   NPACO  =    256;   APACO  = 16.0  distance and # of slots for P.C.
   PSTRESS=    0.0 pullay stress

  Mass of Ions in am
   POMASS = 106.42 12.01 16.00
  Ionic Valenz
   ZVAL   =  10.00  4.00  6.00
  Atomic Wigner-Seitz radii
   RWIGS  =  -1.00 -1.00 -1.00
  virtual crystal weights 
   VCA    =   1.00  1.00  1.00
   NELECT =     560.0000    total number of electrons
   NUPDOWN=      -1.0000    fix difference up-down

 DOS related values:
   EMIN   =  10.00;   EMAX   =-10.00  energy-range for DOS
   EFERMI =   0.00
   ISMEAR =     2;   SIGMA  =   0.20  broadening in eV -4-tet -1-fermi 0-gaus

 Electronic relaxation 2 (details)
   IALGO  =     68    algorithm
   LDIAG  =      T    sub-space diagonalisation (order eigenvalues)
   LSUBROT=      F    optimize rotation matrix (better conditioning)
   TURBO    =      0    0=normal 1=particle mesh
   IRESTART =      0    0=no restart 2=restart with 2 vectors
   NREBOOT  =      0    no. of reboots
   NMIN     =      0    reboot dimension
   EREF     =   0.00    reference energy to select bands
   IMIX   =      4    mixing-type and parameters
     AMIX     =   0.40;   BMIX     =  1.00
     AMIX_MAG =   1.60;   BMIX_MAG =  1.00
     AMIN     =   0.10
     WC   =   100.;   INIMIX=   1;  MIXPRE=   1;  MAXMIX= -45

 Intra band minimization:
   WEIMIN = 0.0000     energy-eigenvalue tresh-hold
   EBREAK =  0.74E-07  absolut break condition
   DEPER  =   0.30     relativ break condition  

   TIME   =   0.40     timestep for ELM

  volume/ion in A,a.u.               =     473.68      3196.58
  Fermi-wavevector in a.u.,A,eV,Ry     =   0.449797  0.849992  2.752691  0.202317
  Thomas-Fermi vector in A             =   1.430086
 
 Write flags
   LWAVE        =      F    write WAVECAR
   LDOWNSAMPLE  =      F    k-point downsampling of WAVECAR
   LCHARG       =      F    write CHGCAR
   LVTOT        =      F    write LOCPOT, total local potential
   LVHAR        =      F    write LOCPOT, Hartree potential only
   LELF         =      F    write electronic localiz. function (ELF)
   LORBIT       =      0    0 simple, 1 ext, 2 COOP (PROOUT), +10 PAW based schemes


 Dipole corrections
   LMONO  =      F    monopole corrections only (constant potential shift)
   LDIPOL =      F    correct potential (dipole corrections)
   IDIPOL =      0    1-x, 2-y, 3-z, 4-all directions 
   EPSILON=  1.0000000 bulk dielectric constant

 Exchange correlation treatment:
   GGA     =    RP    GGA type
   LEXCH   =     9    internal setting for exchange type
   VOSKOWN=      0    Vosko Wilk Nusair interpolation
   LHFCALC =     F    Hartree Fock is set to
   LHFONE  =     F    Hartree Fock one center treatment
   AEXX    =    0.0000 exact exchange contribution

 Linear response parameters
   LEPSILON=     F    determine dielectric tensor
   LRPA    =     F    only Hartree local field effects (RPA)
   LNABLA  =     F    use nabla operator in PAW spheres
   LVEL    =     F    velocity operator in full k-point grid
   LINTERFAST=   F  fast interpolation
   KINTER  =     0    interpolate to denser k-point grid
   CSHIFT  =0.1000    complex shift for real part using Kramers Kronig
   OMEGAMAX=  -1.0    maximum frequency
   DEG_THRESHOLD= 0.2000000E-02 threshold for treating states as degnerate
   RTIME   =   -0.100 relaxation time in fs
  (WPLASMAI=    0.000 imaginary part of plasma frequency in eV, 0.658/RTIME)
   DFIELD  = 0.0000000 0.0000000 0.0000000 field for delta impulse in time
 
 Orbital magnetization related:
   ORBITALMAG=     F  switch on orbital magnetization
   LCHIMAG   =     F  perturbation theory with respect to B field
   DQ        =  0.001000  dq finite difference perturbation B field
   LLRAUG    =     F  two centre corrections for induced B field



--------------------------------------------------------------------------------------------------------


 Static calculation
 charge density and potential will be updated during run
 non-spin polarized calculation
 RMM-DIIS sequential band-by-band and
  variant of blocked Davidson during initial phase
 perform sub-space diagonalisation
    before iterative eigenvector-optimisation
 modified Broyden-mixing scheme, WC =      100.0
 initial mixing is a Kerker type mixing with AMIX =  0.4000 and BMIX =      1.0000
 Hartree-type preconditioning will be used
 using additional bands           56
 real space projection scheme for non local part
 use partial core corrections
 calculate Harris-corrections to forces 
   (improved forces if not selfconsistent)
 use gradient corrections 
 use of overlap-Matrix (Vanderbilt PP)
 Methfessel and Paxton  Order N= 2 SIGMA  =   0.20


--------------------------------------------------------------------------------------------------------


  energy-cutoff  :      400.00
  volume of cell :    27000.00
      direct lattice vectors                 reciprocal lattice vectors
    30.000000000  0.000000000  0.000000000     0.033333333  0.000000000  0.000000000
     0.000000000 30.000000000  0.000000000     0.000000000  0.033333333  0.000000000
     0.000000000  0.000000000 30.000000000     0.000000000  0.000000000  0.033333333

  length of vectors
    30.000000000 30.000000000 30.000000000     0.033333333  0.033333333  0.033333333


 
 k-points in units of 2pi/SCALE and weight: K-points                                
   0.00000000  0.00000000  0.00000000       1.000
 
 k-points in reciprocal lattice and weights: K-points                                
   0.00000000  0.00000000  0.00000000       1.000
 
 position of ions in fractional coordinates (direct lattice) 
   0.44576020  0.32826710  0.41691983
   0.67173288  0.55423978  0.41691983
   0.55423980  0.32826710  0.41691983
   0.32826712  0.55423978  0.41691983
   0.50000000  0.38250690  0.34021317
   0.50000000  0.38250690  0.65978680
   0.50000000  0.27609440  0.50000000
   0.27609443  0.49999998  0.50000000
   0.72390557  0.49999998  0.50000000
   0.50000000  0.72390555  0.50000000
   0.61195280  0.38804720  0.34167483
   0.61195280  0.38804720  0.65832513
   0.38804722  0.61195278  0.34167483
   0.38804722  0.61195278  0.65832513
   0.38804720  0.38804720  0.34167483
   0.38804720  0.38804720  0.65832513
   0.61195278  0.61195278  0.34167483
   0.61195278  0.61195278  0.65832513
   0.44576020  0.32826710  0.58308023
   0.67173288  0.55423978  0.58308023
   0.55791699  0.44208301  0.41809300
   0.32826705  0.44576024  0.41691983
   0.55423973  0.67173293  0.41691983
   0.55423980  0.32826710  0.58308023
   0.32826712  0.55423978  0.58308023
   0.67173295  0.44576024  0.41691983
   0.44576027  0.67173293  0.41691983
   0.44208301  0.44208301  0.41809300
   0.50000000  0.38416601  0.50000000
   0.61749315  0.50000005  0.34021317
   0.61749315  0.50000005  0.65978680
   0.38250685  0.50000005  0.34021317
   0.38250685  0.50000005  0.65978680
   0.38317830  0.38317830  0.50000000
   0.61682172  0.61682172  0.50000000
   0.61682170  0.38317830  0.50000000
   0.38317828  0.61682172  0.50000000
   0.50000000  0.50000000  0.33478917
   0.50000000  0.50000000  0.66521087
   0.32826705  0.44576024  0.58308023
   0.55423973  0.67173293  0.58308023
   0.55791699  0.44208301  0.58190703
   0.44208298  0.55791702  0.41809300
   0.44208301  0.44208301  0.58190703
   0.67173295  0.44576024  0.58308023
   0.44576027  0.67173293  0.58308023
   0.55791702  0.55791702  0.41809300
   0.38416599  0.50000002  0.50000000
   0.61583401  0.50000002  0.50000000
   0.50000000  0.61749319  0.34021317
   0.50000000  0.61749319  0.65978680
   0.50000000  0.50000000  0.50000000
   0.44208298  0.55791702  0.58190703
   0.55791702  0.55791702  0.58190703
   0.50000000  0.61583404  0.50000000
   0.72999010  0.52174047  0.37768367
   0.76307223  0.52486763  0.36008950
 
 position of ions in cartesian coordinates  (Angst):
  13.37280588  9.84801292 12.50759500
  20.15198637 16.62719342 12.50759500
  16.62719412  9.84801292 12.50759500
   9.84801363 16.62719342 12.50759500
  15.00000000 11.47520705 10.20639500
  15.00000000 11.47520705 19.79360400
  15.00000000  8.28283206 15.00000000
   8.28283277 14.99999929 15.00000000
  21.71716723 14.99999929 15.00000000
  15.00000000 21.71716652 14.99999999
  18.35858397 11.64141603 10.25024500
  18.35858397 11.64141603 19.74975399
  11.64141674 18.35858326 10.25024500
  11.64141674 18.35858326 19.74975400
  11.64141603 11.64141603 10.25024500
  11.64141603 11.64141603 19.74975400
  18.35858326 18.35858326 10.25024500
  18.35858326 18.35858326 19.74975400
  13.37280588  9.84801291 17.49240700
  20.15198638 16.62719341 17.49240700
  16.73750985 13.26249015 12.54279000
   9.84801151 13.37280729 12.50759500
  16.62719200 20.15198779 12.50759500
  16.62719412  9.84801292 17.49240700
   9.84801363 16.62719342 17.49240700
  20.15198849 13.37280729 12.50759500
  13.37280800 20.15198779 12.50759500
  13.26249015 13.26249015 12.54279000
  15.00000000 11.52498029 15.00000000
  18.52479437 15.00000140 10.20639500
  18.52479437 15.00000141 19.79360400
  11.47520562 15.00000141 10.20639501
  11.47520563 15.00000141 19.79360400
  11.49534898 11.49534898 15.00000000
  18.50465172 18.50465172 15.00000000
  18.50465102 11.49534898 15.00000000
  11.49534828 18.50465172 15.00000000
  15.00000000 15.00000000 10.04367500
  15.00000000 15.00000000 19.95632599
   9.84801151 13.37280729 17.49240700
  16.62719200 20.15198779 17.49240700
  16.73750985 13.26249015 17.45721100
  13.26248944 16.73751056 12.54279001
  13.26249015 13.26249015 17.45721100
  20.15198849 13.37280729 17.49240699
  13.37280800 20.15198779 17.49240700
  16.73751056 16.73751056 12.54279000
  11.52497959 15.00000071 15.00000000
  18.47502041 15.00000071 15.00000000
  14.99999999 18.52479579 10.20639500
  15.00000000 18.52479578 19.79360400
  15.00000000 15.00000000 15.00000000
  13.26248944 16.73751057 17.45721101
  16.73751056 16.73751057 17.45721100
  15.00000000 18.47502112 15.00000000
  21.89970300 15.65221400 11.33051000
  22.89216700 15.74602900 10.80268500
 


--------------------------------------------------------------------------------------------------------


 k-point  1 :   0.0000 0.0000 0.0000  plane waves:  490521

 maximum and minimum number of plane-waves per node :    490521   490521

 maximum number of plane-waves:    490521
 maximum index in each direction: 
   IXMAX=   48   IYMAX=   48   IZMAX=   48
   IXMIN=  -48   IYMIN=  -48   IZMIN=  -48


 serial   3D FFT for wavefunctions
 parallel 3D FFT for charge:
    minimum data exchange during FFTs selected (reduces bandwidth)


 total amount of memory used by VASP MPI-rank0  5486940. kBytes
=======================================================================

   base      :      30000. kBytes
   nonlr-proj:      17125. kBytes
   fftplans  :     924480. kBytes
   grid      :    1872000. kBytes
   one-center:        886. kBytes
   wavefun   :    2642449. kBytes
 
     INWAV:  cpu time    0.0001: real time    0.0005
 Broyden mixing: mesh for mixing (old mesh)
   NGX = 97   NGY = 97   NGZ = 97
  (NGX  =300   NGY  =300   NGZ  =300)
  gives a total of 912673 points

 initial charge density was supplied:
 charge density of overlapping atoms calculated
 number of electron     560.0000000 magnetization 
 keeping initial charge density in first step


--------------------------------------------------------------------------------------------------------


 Maximum index for non-local projection operator         1763
 Maximum index for augmentation-charges         5898 (set IRDMAX)


--------------------------------------------------------------------------------------------------------


 First call to EWALD:  gamma=   0.059
 Maximum number of real-space cells 3x 3x 3
 Maximum number of reciprocal cells 3x 3x 3

    FEWALD:  cpu time    0.0126: real time    0.0126


--------------------------------------- Iteration      1(   1)  ---------------------------------------


    POTLOK:  cpu time   11.2724: real time   11.2768
    SETDIJ:  cpu time    0.0983: real time    0.0983
     EDDAV:  cpu time  305.8910: real time  305.9471
       DOS:  cpu time    0.0012: real time    0.0012
    --------------------------------------------
      LOOP:  cpu time  317.2628: real time  317.3233

 eigenvalue-minimisations  :   688
 total energy-change (2. order) : 0.4384465E+04  (-0.1004974E+05)
 number of electron     560.0000000 magnetization 
 augmentation part      560.0000000 magnetization 

 Free energy of the ion-electron system (eV)
  ---------------------------------------------------
  alpha Z        PSCENC =        75.25431677
  Ewald energy   TEWEN  =    137897.64333373
  -Hartree energ DENC   =   -181263.34096131
  -exchange      EXHF   =         0.00000000
  -V(xc)+E(xc)   XCENC  =     -1703.57053074
  PAW double counting   =     44873.02882129   -41398.84523641
  entropy T*S    EENTRO =        -0.00379841
  eigenvalues    EBANDS =       817.79348864
  atomic energy  EATOM  =     45086.50549395
  Solvation  Ediel_sol  =         0.00000000
  ---------------------------------------------------
  free energy    TOTEN  =      4384.46492752 eV

  energy without entropy =     4384.46872593  energy(sigma->0) =     4384.46587712


--------------------------------------------------------------------------------------------------------




--------------------------------------- Iteration      1(   2)  ---------------------------------------


     EDDAV:  cpu time  489.9105: real time  489.9723
       DOS:  cpu time    0.0011: real time    0.0011
    --------------------------------------------
      LOOP:  cpu time  489.9116: real time  489.9733

 eigenvalue-minimisations  :  1224
 total energy-change (2. order) :-0.2376414E+04  (-0.2137901E+04)
 number of electron     560.0000000 magnetization 
 augmentation part      560.0000000 magnetization 

 Free energy of the ion-electron system (eV)
  ---------------------------------------------------
  alpha Z        PSCENC =        75.25431677
  Ewald energy   TEWEN  =    137897.64333373
  -Hartree energ DENC   =   -181263.34096131
  -exchange      EXHF   =         0.00000000
  -V(xc)+E(xc)   XCENC  =     -1703.57053074
  PAW double counting   =     44873.02882129   -41398.84523641
  entropy T*S    EENTRO =         0.01465843
  eigenvalues    EBANDS =     -1558.63884730
  atomic energy  EATOM  =     45086.50549395
  Solvation  Ediel_sol  =         0.00000000
  ---------------------------------------------------
  free energy    TOTEN  =      2008.05104842 eV

  energy without entropy =     2008.03638999  energy(sigma->0) =     2008.04738381


--------------------------------------------------------------------------------------------------------




--------------------------------------- Iteration      1(   3)  ---------------------------------------


     EDDAV:  cpu time  424.8300: real time  424.8308
       DOS:  cpu time    0.0010: real time    0.0010
    --------------------------------------------
      LOOP:  cpu time  424.8310: real time  424.8318

 eigenvalue-minimisations  :  1008
 total energy-change (2. order) :-0.1774837E+04  (-0.1670788E+04)
 number of electron     560.0000000 magnetization 
 augmentation part      560.0000000 magnetization 

 Free energy of the ion-electron system (eV)
  ---------------------------------------------------
  alpha Z        PSCENC =        75.25431677
  Ewald energy   TEWEN  =    137897.64333373
  -Hartree energ DENC   =   -181263.34096131
  -exchange      EXHF   =         0.00000000
  -V(xc)+E(xc)   XCENC  =     -1703.57053074
  PAW double counting   =     44873.02882129   -41398.84523641
  entropy T*S    EENTRO =        -0.06724538
  eigenvalues    EBANDS =     -3333.39390355
  atomic energy  EATOM  =     45086.50549395
  Solvation  Ediel_sol  =         0.00000000
  ---------------------------------------------------
  free energy    TOTEN  =       233.21408835 eV

  energy without entropy =      233.28133374  energy(sigma->0) =      233.23089970


--------------------------------------------------------------------------------------------------------




--------------------------------------- Iteration      1(   4)  ---------------------------------------


     EDDAV:  cpu time  370.1062: real time  370.1077
       DOS:  cpu time    0.0009: real time    0.0009
    --------------------------------------------
      LOOP:  cpu time  370.1071: real time  370.1086

 eigenvalue-minimisations  :   840
 total energy-change (2. order) :-0.3677956E+03  (-0.3151844E+03)
 number of electron     560.0000000 magnetization 
 augmentation part      560.0000000 magnetization 

 Free energy of the ion-electron system (eV)
  ---------------------------------------------------
  alpha Z        PSCENC =        75.25431677
  Ewald energy   TEWEN  =    137897.64333373
  -Hartree energ DENC   =   -181263.34096131
  -exchange      EXHF   =         0.00000000
  -V(xc)+E(xc)   XCENC  =     -1703.57053074
  PAW double counting   =     44873.02882129   -41398.84523641
  entropy T*S    EENTRO =        -0.00823405
  eigenvalues    EBANDS =     -3701.24851573
  atomic energy  EATOM  =     45086.50549395
  Solvation  Ediel_sol  =         0.00000000
  ---------------------------------------------------
  free energy    TOTEN  =      -134.58151248 eV

  energy without entropy =     -134.57327844  energy(sigma->0) =     -134.57945397


--------------------------------------------------------------------------------------------------------




--------------------------------------- Iteration      1(   5)  ---------------------------------------


     EDDAV:  cpu time  433.4396: real time  433.4432
       DOS:  cpu time    0.0012: real time    0.0012
    CHARGE:  cpu time   21.5279: real time   21.5279
    MIXING:  cpu time    0.3721: real time    0.3721
    --------------------------------------------
      LOOP:  cpu time  455.3408: real time  455.3443

 eigenvalue-minimisations  :  1048
 total energy-change (2. order) :-0.4453733E+02  (-0.3705208E+02)
 number of electron     559.9999894 magnetization 
 augmentation part      245.1947924 magnetization 

 Broyden mixing:
  rms(total) = 0.14043E+01    rms(broyden)= 0.14034E+01
  rms(prec ) = 0.15108E+01
  weight for this iteration     100.00

 Free energy of the ion-electron system (eV)
  ---------------------------------------------------
  alpha Z        PSCENC =        75.25431677
  Ewald energy   TEWEN  =    137897.64333373
  -Hartree energ DENC   =   -181263.34096131
  -exchange      EXHF   =         0.00000000
  -V(xc)+E(xc)   XCENC  =     -1703.57053074
  PAW double counting   =     44873.02882129   -41398.84523641
  entropy T*S    EENTRO =         0.50032197
  eigenvalues    EBANDS =     -3746.29440392
  atomic energy  EATOM  =     45086.50549395
  Solvation  Ediel_sol  =         0.00000000
  ---------------------------------------------------
  free energy    TOTEN  =      -179.11884467 eV

  energy without entropy =     -179.61916663  energy(sigma->0) =     -179.24392516


--------------------------------------------------------------------------------------------------------




--------------------------------------- Iteration      1(   6)  ---------------------------------------


    POTLOK:  cpu time   10.2515: real time   10.2551
    SETDIJ:  cpu time    0.1001: real time    0.1001
    EDDIAG:  cpu time   56.9301: real time   56.9316
  RMM-DIIS:  cpu time  156.2091: real time  156.2082
    ORTHCH:  cpu time   11.1296: real time   11.1294
       DOS:  cpu time    0.0012: real time    0.0012
    CHARGE:  cpu time   21.3885: real time   21.3881
    MIXING:  cpu time    0.3902: real time    0.3902
    --------------------------------------------
      LOOP:  cpu time  256.4003: real time  256.4039

 eigenvalue-minimisations  :   720
 total energy-change (2. order) :-0.1804264E+00  (-0.5373944E+01)
 number of electron     559.9999923 magnetization 
 augmentation part      240.6069517 magnetization 

 Broyden mixing:
  rms(total) = 0.22607E+01    rms(broyden)= 0.22605E+01
  rms(prec ) = 0.26494E+01
  weight for this iteration     100.00

 eigenvalues of (default mixing * dielectric matrix)
  average eigenvalue GAMMA=   0.3199
  0.3199

 Free energy of the ion-electron system (eV)
  ---------------------------------------------------
  alpha Z        PSCENC =        75.25431677
  Ewald energy   TEWEN  =    137897.64333373
  -Hartree energ DENC   =   -181672.28396258
  -exchange      EXHF   =         0.00000000
  -V(xc)+E(xc)   XCENC  =     -1697.30719513
  PAW double counting   =     45620.56925205   -42119.34556929
  entropy T*S    EENTRO =        -0.14321817
  eigenvalues    EBANDS =     -3370.19172242
  atomic energy  EATOM  =     45086.50549395
  Solvation  Ediel_sol  =         0.00000000
  ---------------------------------------------------
  free energy    TOTEN  =      -179.29927109 eV

  energy without entropy =     -179.15605291  energy(sigma->0) =     -179.26346654


--------------------------------------------------------------------------------------------------------




--------------------------------------- Iteration      1(   7)  ---------------------------------------


    POTLOK:  cpu time   10.5445: real time   10.5479
    SETDIJ:  cpu time    0.1004: real time    0.1004
    EDDIAG:  cpu time   57.0774: real time   57.0777
  RMM-DIIS:  cpu time  184.3708: real time  184.3742
    ORTHCH:  cpu time   11.1070: real time   11.1070
       DOS:  cpu time    0.0012: real time    0.0012
    CHARGE:  cpu time   21.3480: real time   21.3479
    MIXING:  cpu time    0.4131: real time    0.4131
    --------------------------------------------
      LOOP:  cpu time  284.9624: real time  284.9695

 eigenvalue-minimisations  :   852
 total energy-change (2. order) :-0.2326428E+01  (-0.1830201E+01)
 number of electron     559.9999878 magnetization 
 augmentation part      240.3995469 magnetization 

 Broyden mixing:
  rms(total) = 0.23511E+01    rms(broyden)= 0.23508E+01
  rms(prec ) = 0.28538E+01
  weight for this iteration     100.00

 eigenvalues of (default mixing * dielectric matrix)
  average eigenvalue GAMMA=   0.3019
  0.4682  0.1356

 Free energy of the ion-electron system (eV)
  ---------------------------------------------------
  alpha Z        PSCENC =        75.25431677
  Ewald energy   TEWEN  =    137897.64333373
  -Hartree energ DENC   =   -181752.76727151
  -exchange      EXHF   =         0.00000000
  -V(xc)+E(xc)   XCENC  =     -1697.47737170
  PAW double counting   =     45677.85231025   -42174.15997991
  entropy T*S    EENTRO =         0.06075078
  eigenvalues    EBANDS =     -3294.53728151
  atomic energy  EATOM  =     45086.50549395
  Solvation  Ediel_sol  =         0.00000000
  ---------------------------------------------------
  free energy    TOTEN  =      -181.62569914 eV

  energy without entropy =     -181.68644993  energy(sigma->0) =     -181.64088684


--------------------------------------------------------------------------------------------------------




--------------------------------------- Iteration      1(   8)  ---------------------------------------


    POTLOK:  cpu time   10.5349: real time   10.5382
    SETDIJ:  cpu time    0.1007: real time    0.1007
    EDDIAG:  cpu time   57.6799: real time   57.6809
  RMM-DIIS:  cpu time  173.7064: real time  173.7043
    ORTHCH:  cpu time   10.9516: real time   10.9514
       DOS:  cpu time    0.0012: real time    0.0012
    CHARGE:  cpu time   21.5290: real time   21.5286
    MIXING:  cpu time    0.4299: real time    0.4299
    --------------------------------------------
      LOOP:  cpu time  274.9336: real time  274.9352

 eigenvalue-minimisations  :   795
 total energy-change (2. order) :-0.1764004E+01  (-0.6660026E+00)
 number of electron     559.9999867 magnetization 
 augmentation part      240.1334633 magnetization 

 Broyden mixing:
  rms(total) = 0.25549E+01    rms(broyden)= 0.25546E+01
  rms(prec ) = 0.30167E+01
  weight for this iteration     100.00

 eigenvalues of (default mixing * dielectric matrix)
  average eigenvalue GAMMA=   0.2940
  0.6243  0.1288  0.1288

 Free energy of the ion-electron system (eV)
  ---------------------------------------------------
  alpha Z        PSCENC =        75.25431677
  Ewald energy   TEWEN  =    137897.64333373
  -Hartree energ DENC   =   -181798.77574472
  -exchange      EXHF   =         0.00000000
  -V(xc)+E(xc)   XCENC  =     -1697.51704875
  PAW double counting   =     45729.62246681   -42223.62124258
  entropy T*S    EENTRO =        -0.10713219
  eigenvalues    EBANDS =     -3252.39414573
  atomic energy  EATOM  =     45086.50549395
  Solvation  Ediel_sol  =         0.00000000
  ---------------------------------------------------
  free energy    TOTEN  =      -183.38970271 eV

  energy without entropy =     -183.28257052  energy(sigma->0) =     -183.36291966


--------------------------------------------------------------------------------------------------------




--------------------------------------- Iteration      1(   9)  ---------------------------------------


    POTLOK:  cpu time   10.5710: real time   10.5740
    SETDIJ:  cpu time    0.1008: real time    0.1008
    EDDIAG:  cpu time   57.8656: real time   57.8649
  RMM-DIIS:  cpu time  159.9617: real time  159.9622
    ORTHCH:  cpu time   11.1103: real time   11.1103
       DOS:  cpu time    0.0012: real time    0.0012
    CHARGE:  cpu time   21.3253: real time   21.3252
    MIXING:  cpu time    0.4473: real time    0.4475
    --------------------------------------------
      LOOP:  cpu time  261.3832: real time  261.3861

 eigenvalue-minimisations  :   730
 total energy-change (2. order) : 0.1805711E+01  (-0.4931606E+00)
 number of electron     559.9999877 magnetization 
 augmentation part      240.9213644 magnetization 

 Broyden mixing:
  rms(total) = 0.24857E+01    rms(broyden)= 0.24854E+01
  rms(prec ) = 0.28761E+01
  weight for this iteration     100.00

 eigenvalues of (default mixing * dielectric matrix)
  average eigenvalue GAMMA=   0.2866
  0.7474  0.1539  0.1539  0.0912

 Free energy of the ion-electron system (eV)
  ---------------------------------------------------
  alpha Z        PSCENC =        75.25431677
  Ewald energy   TEWEN  =    137897.64333373
  -Hartree energ DENC   =   -181813.55285564
  -exchange      EXHF   =         0.00000000
  -V(xc)+E(xc)   XCENC  =     -1697.50536689
  PAW double counting   =     45781.87584153   -42273.49787514
  entropy T*S    EENTRO =        -0.08890888
  eigenvalues    EBANDS =     -3238.21797094
  atomic energy  EATOM  =     45086.50549395
  Solvation  Ediel_sol  =         0.00000000
  ---------------------------------------------------
  free energy    TOTEN  =      -181.58399150 eV

  energy without entropy =     -181.49508262  energy(sigma->0) =     -181.56176428


--------------------------------------------------------------------------------------------------------




--------------------------------------- Iteration      1(  10)  ---------------------------------------


    POTLOK:  cpu time   10.4855: real time   10.4891
    SETDIJ:  cpu time    0.1020: real time    0.1020
    EDDIAG:  cpu time   57.7973: real time   57.7977
  RMM-DIIS:  cpu time  160.5614: real time  160.5625
    ORTHCH:  cpu time   11.1030: real time   11.1030
       DOS:  cpu time    0.0012: real time    0.0012
    CHARGE:  cpu time   21.3993: real time   21.3993
    MIXING:  cpu time    0.4814: real time    0.4814
    --------------------------------------------
      LOOP:  cpu time  261.9310: real time  261.9361

 eigenvalue-minimisations  :   733
 total energy-change (2. order) : 0.2320046E+01  (-0.3189950E+00)
 number of electron     559.9999880 magnetization 
 augmentation part      241.2772439 magnetization 

 Broyden mixing:
  rms(total) = 0.19831E+01    rms(broyden)= 0.19828E+01
  rms(prec ) = 0.22627E+01
  weight for this iteration     100.00

 eigenvalues of (default mixing * dielectric matrix)
  average eigenvalue GAMMA=   0.2765
  0.8418  0.1678  0.1678  0.1201  0.0849

 Free energy of the ion-electron system (eV)
  ---------------------------------------------------
  alpha Z        PSCENC =        75.25431677
  Ewald energy   TEWEN  =    137897.64333373
  -Hartree energ DENC   =   -181838.79356432
  -exchange      EXHF   =         0.00000000
  -V(xc)+E(xc)   XCENC  =     -1697.38007250
  PAW double counting   =     45828.21853061   -42317.81803864
  entropy T*S    EENTRO =        -0.19392200
  eigenvalues    EBANDS =     -3212.70002307
  atomic energy  EATOM  =     45086.50549395
  Solvation  Ediel_sol  =         0.00000000
  ---------------------------------------------------
  free energy    TOTEN  =      -179.26394546 eV

  energy without entropy =     -179.07002346  energy(sigma->0) =     -179.21546496


--------------------------------------------------------------------------------------------------------




--------------------------------------- Iteration      1(  11)  ---------------------------------------


    POTLOK:  cpu time   10.3090: real time   10.3099
    SETDIJ:  cpu time    0.1001: real time    0.1001
    EDDIAG:  cpu time   57.3273: real time   57.3277
  RMM-DIIS:  cpu time  158.7645: real time  158.7690
    ORTHCH:  cpu time   11.1063: real time   11.1062
       DOS:  cpu time    0.0013: real time    0.0013
    CHARGE:  cpu time   21.3696: real time   21.3697
    MIXING:  cpu time    0.5048: real time    0.5048
    --------------------------------------------
      LOOP:  cpu time  259.4828: real time  259.4886

 eigenvalue-minimisations  :   724
 total energy-change (2. order) : 0.1982628E+01  (-0.2116843E+00)
 number of electron     559.9999895 magnetization 
 augmentation part      241.5627955 magnetization 

 Broyden mixing:
  rms(total) = 0.16335E+01    rms(broyden)= 0.16332E+01
  rms(prec ) = 0.18672E+01
  weight for this iteration     100.00

 eigenvalues of (default mixing * dielectric matrix)
  average eigenvalue GAMMA=   0.2636
  0.9019  0.1847  0.1847  0.1150  0.1150  0.0804

 Free energy of the ion-electron system (eV)
  ---------------------------------------------------
  alpha Z        PSCENC =        75.25431677
  Ewald energy   TEWEN  =    137897.64333373
  -Hartree energ DENC   =   -181862.44966118
  -exchange      EXHF   =         0.00000000
  -V(xc)+E(xc)   XCENC  =     -1697.19901117
  PAW double counting   =     45867.74429564   -42355.53319977
  entropy T*S    EENTRO =        -0.17760331
  eigenvalues    EBANDS =     -3189.06928222
  atomic energy  EATOM  =     45086.50549395
  Solvation  Ediel_sol  =         0.00000000
  ---------------------------------------------------
  free energy    TOTEN  =      -177.28131755 eV

  energy without entropy =     -177.10371425  energy(sigma->0) =     -177.23691673


--------------------------------------------------------------------------------------------------------




--------------------------------------- Iteration      1(  12)  ---------------------------------------


    POTLOK:  cpu time   10.3118: real time   10.3125
    SETDIJ:  cpu time    0.1001: real time    0.1001
    EDDIAG:  cpu time   57.2817: real time   57.2824
  RMM-DIIS:  cpu time  158.8244: real time  158.8250
    ORTHCH:  cpu time   11.0796: real time   11.0795
       DOS:  cpu time    0.0013: real time    0.0013
    CHARGE:  cpu time   21.3647: real time   21.3645
    MIXING:  cpu time    0.5347: real time    0.5347
    --------------------------------------------
      LOOP:  cpu time  259.4981: real time  259.4999

 eigenvalue-minimisations  :   724
 total energy-change (2. order) : 0.7607465E+00  (-0.1240203E+00)
 number of electron     559.9999892 magnetization 
 augmentation part      241.5923045 magnetization 

 Broyden mixing:
  rms(total) = 0.14686E+01    rms(broyden)= 0.14684E+01
  rms(prec ) = 0.17969E+01
  weight for this iteration     100.00

 eigenvalues of (default mixing * dielectric matrix)
  average eigenvalue GAMMA=   0.2514
  0.9302  0.2154  0.2154  0.1194  0.1194  0.0907  0.0695

 Free energy of the ion-electron system (eV)
  ---------------------------------------------------
  alpha Z        PSCENC =        75.25431677
  Ewald energy   TEWEN  =    137897.64333373
  -Hartree energ DENC   =   -181880.50623852
  -exchange      EXHF   =         0.00000000
  -V(xc)+E(xc)   XCENC  =     -1696.99447422
  PAW double counting   =     45896.57776619   -42382.94308480
  entropy T*S    EENTRO =        -0.15082722
  eigenvalues    EBANDS =     -3171.90685698
  atomic energy  EATOM  =     45086.50549395
  Solvation  Ediel_sol  =         0.00000000
  ---------------------------------------------------
  free energy    TOTEN  =      -176.52057108 eV

  energy without entropy =     -176.36974387  energy(sigma->0) =     -176.48286428


--------------------------------------------------------------------------------------------------------




--------------------------------------- Iteration      1(  13)  ---------------------------------------


    POTLOK:  cpu time   10.3441: real time   10.3450
    SETDIJ:  cpu time    0.1006: real time    0.1006
    EDDIAG:  cpu time   57.2374: real time   57.2377
  RMM-DIIS:  cpu time  159.9612: real time  159.9614
    ORTHCH:  cpu time   11.0981: real time   11.0980
       DOS:  cpu time    0.0013: real time    0.0013
    CHARGE:  cpu time   21.3625: real time   21.3624
    MIXING:  cpu time    0.5699: real time    0.5699
    --------------------------------------------
      LOOP:  cpu time  260.6751: real time  260.6763

 eigenvalue-minimisations  :   730
 total energy-change (2. order) : 0.5657793E+00  (-0.6161434E-01)
 number of electron     559.9999879 magnetization 
 augmentation part      241.6058425 magnetization 

 Broyden mixing:
  rms(total) = 0.12093E+01    rms(broyden)= 0.12090E+01
  rms(prec ) = 0.14131E+01
  weight for this iteration     100.00

 eigenvalues of (default mixing * dielectric matrix)
  average eigenvalue GAMMA=   0.2753
  1.0645  0.3165  0.3165  0.1306  0.1306  0.0941  0.0941  0.0553

 Free energy of the ion-electron system (eV)
  ---------------------------------------------------
  alpha Z        PSCENC =        75.25431677
  Ewald energy   TEWEN  =    137897.64333373
  -Hartree energ DENC   =   -181894.73299817
  -exchange      EXHF   =         0.00000000
  -V(xc)+E(xc)   XCENC  =     -1696.83296899
  PAW double counting   =     45915.36263557   -42400.74664875
  entropy T*S    EENTRO =        -0.18799867
  eigenvalues    EBANDS =     -3158.21995721
  atomic energy  EATOM  =     45086.50549395
  Solvation  Ediel_sol  =         0.00000000
  ---------------------------------------------------
  free energy    TOTEN  =      -175.95479176 eV

  energy without entropy =     -175.76679309  energy(sigma->0) =     -175.90779210


--------------------------------------------------------------------------------------------------------




--------------------------------------- Iteration      1(  14)  ---------------------------------------


    POTLOK:  cpu time   10.2924: real time   10.2931
    SETDIJ:  cpu time    0.1001: real time    0.1001
    EDDIAG:  cpu time   57.2894: real time   57.2897
  RMM-DIIS:  cpu time  154.7704: real time  154.7721
    ORTHCH:  cpu time   11.0792: real time   11.0791
       DOS:  cpu time    0.0013: real time    0.0013
    CHARGE:  cpu time   21.3698: real time   21.3696
    MIXING:  cpu time    0.6017: real time    0.6017
    --------------------------------------------
      LOOP:  cpu time  255.5042: real time  255.5067

 eigenvalue-minimisations  :   706
 total energy-change (2. order) : 0.1284635E+00  (-0.1294062E+00)
 number of electron     559.9999874 magnetization 
 augmentation part      241.4887990 magnetization 

 Broyden mixing:
  rms(total) = 0.14743E+01    rms(broyden)= 0.14740E+01
  rms(prec ) = 0.16721E+01
  weight for this iteration     100.00

 eigenvalues of (default mixing * dielectric matrix)
  average eigenvalue GAMMA=   0.2944
  1.2283  0.5403  0.2491  0.1446  0.1446  0.0988  0.0988  0.0915  0.0538

 Free energy of the ion-electron system (eV)
  ---------------------------------------------------
  alpha Z        PSCENC =        75.25431677
  Ewald energy   TEWEN  =    137897.64333373
  -Hartree energ DENC   =   -181936.76049992
  -exchange      EXHF   =         0.00000000
  -V(xc)+E(xc)   XCENC  =     -1696.22525672
  PAW double counting   =     45977.68603019   -42459.72357807
  entropy T*S    EENTRO =        -0.09329369
  eigenvalues    EBANDS =     -3120.11287455
  atomic energy  EATOM  =     45086.50549395
  Solvation  Ediel_sol  =         0.00000000
  ---------------------------------------------------
  free energy    TOTEN  =      -175.82632830 eV

  energy without entropy =     -175.73303461  energy(sigma->0) =     -175.80300488


--------------------------------------------------------------------------------------------------------




--------------------------------------- Iteration      1(  15)  ---------------------------------------


    POTLOK:  cpu time   10.3004: real time   10.3010
    SETDIJ:  cpu time    0.1008: real time    0.1008
    EDDIAG:  cpu time   57.2279: real time   57.2282
  RMM-DIIS:  cpu time  156.0423: real time  156.0439
    ORTHCH:  cpu time   11.0806: real time   11.0805
       DOS:  cpu time    0.0012: real time    0.0012
    CHARGE:  cpu time   21.3730: real time   21.3730
    MIXING:  cpu time    0.6401: real time    0.6401
    --------------------------------------------
      LOOP:  cpu time  256.7664: real time  256.7687

 eigenvalue-minimisations  :   712
 total energy-change (2. order) :-0.5014934E+00  (-0.9989048E-01)
 number of electron     559.9999932 magnetization 
 augmentation part      241.3747945 magnetization 

 Broyden mixing:
  rms(total) = 0.29501E+01    rms(broyden)= 0.29499E+01
  rms(prec ) = 0.34050E+01
  weight for this iteration     100.00

 eigenvalues of (default mixing * dielectric matrix)
  average eigenvalue GAMMA=   0.2890
  1.3192  0.6545  0.2137  0.1577  0.1577  0.0995  0.0995  0.0873  0.0556  0.0450

 Free energy of the ion-electron system (eV)
  ---------------------------------------------------
  alpha Z        PSCENC =        75.25431677
  Ewald energy   TEWEN  =    137897.64333373
  -Hartree energ DENC   =   -181974.49614420
  -exchange      EXHF   =         0.00000000
  -V(xc)+E(xc)   XCENC  =     -1695.61257285
  PAW double counting   =     46033.49667314   -42512.50938154
  entropy T*S    EENTRO =         0.16542306
  eigenvalues    EBANDS =     -3086.77496379
  atomic energy  EATOM  =     45086.50549395
  Solvation  Ediel_sol  =         0.00000000
  ---------------------------------------------------
  free energy    TOTEN  =      -176.32782171 eV

  energy without entropy =     -176.49324477  energy(sigma->0) =     -176.36917748


--------------------------------------------------------------------------------------------------------




--------------------------------------- Iteration      1(  16)  ---------------------------------------


    POTLOK:  cpu time   10.3387: real time   10.3393
    SETDIJ:  cpu time    0.1007: real time    0.1007
    EDDIAG:  cpu time   59.1797: real time   59.1804
  RMM-DIIS:  cpu time  160.2951: real time  160.2975
    ORTHCH:  cpu time   11.3549: real time   11.3548
       DOS:  cpu time    0.0012: real time    0.0012
    CHARGE:  cpu time   21.8643: real time   21.8643
    MIXING:  cpu time    0.6911: real time    0.6911
    --------------------------------------------
      LOOP:  cpu time  263.8257: real time  263.8294

 eigenvalue-minimisations  :   720
 total energy-change (2. order) : 0.6131061E+00  (-0.6179468E-01)
 number of electron     559.9999903 magnetization 
 augmentation part      241.1279497 magnetization 

 Broyden mixing:
  rms(total) = 0.16554E+01    rms(broyden)= 0.16552E+01
  rms(prec ) = 0.19141E+01
  weight for this iteration     100.00

 eigenvalues of (default mixing * dielectric matrix)
  average eigenvalue GAMMA=   0.2893
  1.4037  0.7580  0.1858  0.1858  0.1719  0.1111  0.1111  0.0820  0.0820  0.0536
  0.0377

 Free energy of the ion-electron system (eV)
  ---------------------------------------------------
  alpha Z        PSCENC =        75.25431677
  Ewald energy   TEWEN  =    137897.64333373
  -Hartree energ DENC   =   -181996.07927445
  -exchange      EXHF   =         0.00000000
  -V(xc)+E(xc)   XCENC  =     -1695.33660911
  PAW double counting   =     46059.29873027   -42536.91109584
  entropy T*S    EENTRO =        -0.02290009
  eigenvalues    EBANDS =     -3066.06671080
  atomic energy  EATOM  =     45086.50549395
  Solvation  Ediel_sol  =         0.00000000
  ---------------------------------------------------
  free energy    TOTEN  =      -175.71471558 eV

  energy without entropy =     -175.69181549  energy(sigma->0) =     -175.70899055


--------------------------------------------------------------------------------------------------------




--------------------------------------- Iteration      1(  17)  ---------------------------------------


    POTLOK:  cpu time   10.9838: real time   10.9850
    SETDIJ:  cpu time    0.1021: real time    0.1021
    EDDIAG:  cpu time   57.5186: real time   57.5191
  RMM-DIIS:  cpu time  160.1113: real time  160.1143
    ORTHCH:  cpu time   11.1418: real time   11.1417
       DOS:  cpu time    0.0012: real time    0.0012
    CHARGE:  cpu time   21.4489: real time   21.4490
    MIXING:  cpu time    0.7197: real time    0.7197
    --------------------------------------------
      LOOP:  cpu time  262.0275: real time  262.0322

 eigenvalue-minimisations  :   717
 total energy-change (2. order) : 0.2041990E+00  (-0.5728133E-01)
 number of electron     559.9999891 magnetization 
 augmentation part      241.0034584 magnetization 

 Broyden mixing:
  rms(total) = 0.15013E+01    rms(broyden)= 0.15011E+01
  rms(prec ) = 0.17694E+01
  weight for this iteration     100.00

 eigenvalues of (default mixing * dielectric matrix)
  average eigenvalue GAMMA=   0.2910
  1.5109  0.8081  0.2323  0.2323  0.1409  0.1220  0.1220  0.0833  0.0833  0.0654
  0.0507  0.0403

 Free energy of the ion-electron system (eV)
  ---------------------------------------------------
  alpha Z        PSCENC =        75.25431677
  Ewald energy   TEWEN  =    137897.64333373
  -Hartree energ DENC   =   -182017.23236454
  -exchange      EXHF   =         0.00000000
  -V(xc)+E(xc)   XCENC  =     -1695.08366836
  PAW double counting   =     46081.88995092   -42558.21569638
  entropy T*S    EENTRO =        -0.00151409
  eigenvalues    EBANDS =     -3046.27036855
  atomic energy  EATOM  =     45086.50549395
  Solvation  Ediel_sol  =         0.00000000
  ---------------------------------------------------
  free energy    TOTEN  =      -175.51051655 eV

  energy without entropy =     -175.50900246  energy(sigma->0) =     -175.51013802


--------------------------------------------------------------------------------------------------------




--------------------------------------- Iteration      1(  18)  ---------------------------------------


    POTLOK:  cpu time   10.4045: real time   10.4053
    SETDIJ:  cpu time    0.1009: real time    0.1009
    EDDIAG:  cpu time   57.7899: real time   57.7905
  RMM-DIIS:  cpu time  158.8597: real time  158.8619
    ORTHCH:  cpu time   11.1540: real time   11.1540
       DOS:  cpu time    0.0012: real time    0.0012
    CHARGE:  cpu time   21.4854: real time   21.4854
    MIXING:  cpu time    0.7612: real time    0.7612
    --------------------------------------------
      LOOP:  cpu time  260.5569: real time  260.5605

 eigenvalue-minimisations  :   712
 total energy-change (2. order) : 0.2450468E+00  (-0.4679840E-01)
 number of electron     559.9999895 magnetization 
 augmentation part      240.9539758 magnetization 

 Broyden mixing:
  rms(total) = 0.11236E+01    rms(broyden)= 0.11234E+01
  rms(prec ) = 0.13095E+01
  weight for this iteration     100.00

 eigenvalues of (default mixing * dielectric matrix)
  average eigenvalue GAMMA=   0.2976
  1.6117  0.8888  0.2806  0.2806  0.1436  0.1436  0.1055  0.1055  0.0784  0.0784
  0.0625  0.0515  0.0388

 Free energy of the ion-electron system (eV)
  ---------------------------------------------------
  alpha Z        PSCENC =        75.25431677
  Ewald energy   TEWEN  =    137897.64333373
  -Hartree energ DENC   =   -182032.56145486
  -exchange      EXHF   =         0.00000000
  -V(xc)+E(xc)   XCENC  =     -1694.89614448
  PAW double counting   =     46098.17671502   -42573.46582217
  entropy T*S    EENTRO =        -0.04044805
  eigenvalues    EBANDS =     -3031.88145962
  atomic energy  EATOM  =     45086.50549395
  Solvation  Ediel_sol  =         0.00000000
  ---------------------------------------------------
  free energy    TOTEN  =      -175.26546971 eV

  energy without entropy =     -175.22502166  energy(sigma->0) =     -175.25535770


--------------------------------------------------------------------------------------------------------




--------------------------------------- Iteration      1(  19)  ---------------------------------------


    POTLOK:  cpu time   10.4065: real time   10.4074
    SETDIJ:  cpu time    0.1009: real time    0.1009
    EDDIAG:  cpu time   57.9468: real time   57.9477
  RMM-DIIS:  cpu time  159.0605: real time  159.0628
    ORTHCH:  cpu time   11.1782: real time   11.1780
       DOS:  cpu time    0.0013: real time    0.0013
    CHARGE:  cpu time   21.5001: real time   21.4998
    MIXING:  cpu time    0.8037: real time    0.8037
    --------------------------------------------
      LOOP:  cpu time  260.9979: real time  261.0015

 eigenvalue-minimisations  :   714
 total energy-change (2. order) :-0.9407268E-02  (-0.3752916E-01)
 number of electron     559.9999907 magnetization 
 augmentation part      241.0568410 magnetization 

 Broyden mixing:
  rms(total) = 0.13383E+01    rms(broyden)= 0.13381E+01
  rms(prec ) = 0.15828E+01
  weight for this iteration     100.00

 eigenvalues of (default mixing * dielectric matrix)
  average eigenvalue GAMMA=   0.3043
  1.7133  0.9992  0.3190  0.3190  0.1566  0.1566  0.1106  0.1106  0.0813  0.0813
  0.0607  0.0607  0.0530  0.0375

 Free energy of the ion-electron system (eV)
  ---------------------------------------------------
  alpha Z        PSCENC =        75.25431677
  Ewald energy   TEWEN  =    137897.64333373
  -Hartree energ DENC   =   -182044.69001749
  -exchange      EXHF   =         0.00000000
  -V(xc)+E(xc)   XCENC  =     -1694.75562936
  PAW double counting   =     46107.73651234   -42582.17413738
  entropy T*S    EENTRO =         0.00137733
  eigenvalues    EBANDS =     -3020.79612686
  atomic energy  EATOM  =     45086.50549395
  Solvation  Ediel_sol  =         0.00000000
  ---------------------------------------------------
  free energy    TOTEN  =      -175.27487698 eV

  energy without entropy =     -175.27625431  energy(sigma->0) =     -175.27522131


--------------------------------------------------------------------------------------------------------




--------------------------------------- Iteration      1(  20)  ---------------------------------------


    POTLOK:  cpu time   10.4147: real time   10.4161
    SETDIJ:  cpu time    0.1010: real time    0.1010
    EDDIAG:  cpu time   57.2774: real time   57.2773
  RMM-DIIS:  cpu time  157.2748: real time  157.2742
    ORTHCH:  cpu time   11.3725: real time   11.3723
       DOS:  cpu time    0.0013: real time    0.0013
    CHARGE:  cpu time   21.9339: real time   21.9336
    MIXING:  cpu time    0.8804: real time    0.8804
    --------------------------------------------
      LOOP:  cpu time  259.2561: real time  259.2562

 eigenvalue-minimisations  :   708
 total energy-change (2. order) :-0.4102896E-01  (-0.3400950E-01)
 number of electron     559.9999888 magnetization 
 augmentation part      241.0726600 magnetization 

 Broyden mixing:
  rms(total) = 0.14480E+01    rms(broyden)= 0.14478E+01
  rms(prec ) = 0.17599E+01
  weight for this iteration     100.00

 eigenvalues of (default mixing * dielectric matrix)
  average eigenvalue GAMMA=   0.3151
  1.8937  1.0759  0.3607  0.3607  0.1754  0.1754  0.1127  0.1127  0.0898  0.0898
  0.0771  0.0582  0.0582  0.0490  0.0370

 Free energy of the ion-electron system (eV)
  ---------------------------------------------------
  alpha Z        PSCENC =        75.25431677
  Ewald energy   TEWEN  =    137897.64333373
  -Hartree energ DENC   =   -182061.22559369
  -exchange      EXHF   =         0.00000000
  -V(xc)+E(xc)   XCENC  =     -1694.58950246
  PAW double counting   =     46116.47914121   -42589.96570844
  entropy T*S    EENTRO =         0.04306786
  eigenvalues    EBANDS =     -3005.46045488
  atomic energy  EATOM  =     45086.50549395
  Solvation  Ediel_sol  =         0.00000000
  ---------------------------------------------------
  free energy    TOTEN  =      -175.31590594 eV

  energy without entropy =     -175.35897380  energy(sigma->0) =     -175.32667291


--------------------------------------------------------------------------------------------------------




--------------------------------------- Iteration      1(  21)  ---------------------------------------


    POTLOK:  cpu time   11.0631: real time   11.0639
    SETDIJ:  cpu time    0.1018: real time    0.1018
    EDDIAG:  cpu time   58.2593: real time   58.2596
  RMM-DIIS:  cpu time  153.7732: real time  153.7722
    ORTHCH:  cpu time   11.1875: real time   11.1873
       DOS:  cpu time    0.0013: real time    0.0013
    CHARGE:  cpu time   21.4499: real time   21.4496
    MIXING:  cpu time    0.9061: real time    0.9061
    --------------------------------------------
      LOOP:  cpu time  256.7422: real time  256.7418

 eigenvalue-minimisations  :   700
 total energy-change (2. order) : 0.3162354E+00  (-0.3316617E-01)
 number of electron     559.9999899 magnetization 
 augmentation part      241.0546300 magnetization 

 Broyden mixing:
  rms(total) = 0.88400E+00    rms(broyden)= 0.88379E+00
  rms(prec ) = 0.10007E+01
  weight for this iteration     100.00

 eigenvalues of (default mixing * dielectric matrix)
  average eigenvalue GAMMA=   0.3205
  1.9910  1.2044  0.3796  0.3796  0.1846  0.1846  0.1157  0.1157  0.1275  0.0855
  0.0855  0.0785  0.0549  0.0549  0.0494  0.0369

 Free energy of the ion-electron system (eV)
  ---------------------------------------------------
  alpha Z        PSCENC =        75.25431677
  Ewald energy   TEWEN  =    137897.64333373
  -Hartree energ DENC   =   -182080.68216545
  -exchange      EXHF   =         0.00000000
  -V(xc)+E(xc)   XCENC  =     -1694.40195321
  PAW double counting   =     46124.96473931   -42597.40602410
  entropy T*S    EENTRO =        -0.08109390
  eigenvalues    EBANDS =     -2986.79631766
  atomic energy  EATOM  =     45086.50549395
  Solvation  Ediel_sol  =         0.00000000
  ---------------------------------------------------
  free energy    TOTEN  =      -174.99967055 eV

  energy without entropy =     -174.91857665  energy(sigma->0) =     -174.97939708


--------------------------------------------------------------------------------------------------------




--------------------------------------- Iteration      1(  22)  ---------------------------------------


    POTLOK:  cpu time   10.4139: real time   10.4145
    SETDIJ:  cpu time    0.1011: real time    0.1011
    EDDIAG:  cpu time   57.3455: real time   57.3448
  RMM-DIIS:  cpu time  157.2350: real time  157.2333
    ORTHCH:  cpu time   11.3070: real time   11.3068
       DOS:  cpu time    0.0013: real time    0.0013
    CHARGE:  cpu time   21.8515: real time   21.8510
    MIXING:  cpu time    0.9814: real time    0.9813
    --------------------------------------------
      LOOP:  cpu time  259.2365: real time  259.2342

 eigenvalue-minimisations  :   706
 total energy-change (2. order) : 0.2312063E+00  (-0.2568577E-01)
 number of electron     559.9999889 magnetization 
 augmentation part      241.0655331 magnetization 

 Broyden mixing:
  rms(total) = 0.72798E+00    rms(broyden)= 0.72781E+00
  rms(prec ) = 0.85748E+00
  weight for this iteration     100.00

 eigenvalues of (default mixing * dielectric matrix)
  average eigenvalue GAMMA=   0.3213
  2.0785  1.2544  0.4507  0.2782  0.2782  0.1735  0.1735  0.1152  0.1152  0.0927
  0.0927  0.0810  0.0810  0.0551  0.0551  0.0500  0.0369

 Free energy of the ion-electron system (eV)
  ---------------------------------------------------
  alpha Z        PSCENC =        75.25431677
  Ewald energy   TEWEN  =    137897.64333373
  -Hartree energ DENC   =   -182099.78404787
  -exchange      EXHF   =         0.00000000
  -V(xc)+E(xc)   XCENC  =     -1694.25562838
  PAW double counting   =     46125.85457059   -42597.53276747
  entropy T*S    EENTRO =        -0.13380855
  eigenvalues    EBANDS =     -2968.31992702
  atomic energy  EATOM  =     45086.50549395
  Solvation  Ediel_sol  =         0.00000000
  ---------------------------------------------------
  free energy    TOTEN  =      -174.76846424 eV

  energy without entropy =     -174.63465569  energy(sigma->0) =     -174.73501210


--------------------------------------------------------------------------------------------------------




--------------------------------------- Iteration      1(  23)  ---------------------------------------


    POTLOK:  cpu time   11.1404: real time   11.1414
    SETDIJ:  cpu time    0.1021: real time    0.1021
    EDDIAG:  cpu time   58.1967: real time   58.1959
  RMM-DIIS:  cpu time  155.0346: real time  155.0328
    ORTHCH:  cpu time   11.1175: real time   11.1174
       DOS:  cpu time    0.0011: real time    0.0011
    CHARGE:  cpu time   21.4152: real time   21.4149
    MIXING:  cpu time    1.0094: real time    1.0094
    --------------------------------------------
      LOOP:  cpu time  258.0171: real time  258.0149

 eigenvalue-minimisations  :   701
 total energy-change (2. order) : 0.8861702E-01  (-0.1625167E-01)
 number of electron     559.9999887 magnetization 
 augmentation part      241.1231109 magnetization 

 Broyden mixing:
  rms(total) = 0.69928E+00    rms(broyden)= 0.69916E+00
  rms(prec ) = 0.80018E+00
  weight for this iteration     100.00

 eigenvalues of (default mixing * dielectric matrix)
  average eigenvalue GAMMA=   0.3335
  2.1699  1.3199  0.6544  0.3171  0.3171  0.1713  0.1713  0.1348  0.1119  0.1119
[...]
 -0.006  -0.012   0.004   0.004   0.005  -0.006  -0.011   0.004
 -0.011  -0.020   0.006   0.007   0.009  -0.010  -0.019   0.006
 -0.015  -0.005   0.013   0.000   0.022  -0.014  -0.005   0.012
  0.000  -0.023  -0.006  -0.015  -0.000   0.000  -0.022  -0.006
 -0.022   0.000   0.009  -0.005  -0.016  -0.022   0.000   0.008
 -0.017  -0.006   0.015   0.000   0.027  -0.017  -0.006   0.015
  0.000  -0.027  -0.007  -0.018  -0.000   0.000  -0.027  -0.007
 -0.027   0.000   0.010  -0.006  -0.019  -0.026   0.000   0.010
 total augmentation occupancy for first ion, spin component:           1
  1.541  -0.031   0.004   0.016   0.025   0.074  -0.008  -0.001   0.036  -0.010   0.091  -0.031   0.012   0.002   0.002  -0.019
 -0.031   1.402   0.030   0.071   0.001  -0.007   0.070   0.011  -0.014  -0.008   0.214  -0.065   0.019   0.002   0.002  -0.006
  0.004   0.030   1.546   0.003   0.002  -0.001   0.013   0.072  -0.013   0.017  -0.053   0.018  -0.003  -0.007  -0.005   0.016
  0.016   0.071   0.003   1.340   0.044   0.034  -0.013  -0.013   0.090  -0.023  -0.083   0.022  -0.001  -0.009  -0.003   0.001
  0.025   0.001   0.002   0.044   1.442  -0.010  -0.009   0.016  -0.022   0.067  -0.093   0.030  -0.003  -0.010  -0.010   0.026
  0.074  -0.007  -0.001   0.034  -0.010   0.217   0.019  -0.002  -0.045   0.004  -0.049   0.002   0.017  -0.010   0.035  -0.004
 -0.008   0.070   0.013  -0.013  -0.009   0.019   0.262  -0.023  -0.003   0.006  -0.109   0.007  -0.001   0.051  -0.010  -0.000
 -0.001   0.011   0.072  -0.013   0.016  -0.002  -0.023   0.214   0.014  -0.020   0.028  -0.001  -0.012   0.009  -0.018   0.003
  0.036  -0.014  -0.013   0.090  -0.022  -0.045  -0.003   0.014   0.260   0.007   0.043  -0.004  -0.009   0.036   0.004   0.000
 -0.010  -0.008   0.017  -0.023   0.067   0.004   0.006  -0.020   0.007   0.258   0.046  -0.003  -0.038   0.002   0.049   0.007
  0.091   0.214  -0.053  -0.083  -0.093  -0.049  -0.109   0.028   0.043   0.046   0.949  -0.141   0.084   0.014   0.064  -0.013
 -0.031  -0.065   0.018   0.022   0.030   0.002   0.007  -0.001  -0.004  -0.003  -0.141   0.023  -0.014  -0.003  -0.010   0.003
  0.012   0.019  -0.003  -0.001  -0.003   0.017  -0.001  -0.012  -0.009  -0.038   0.084  -0.014   0.029  -0.008  -0.004  -0.003
  0.002   0.002  -0.007  -0.009  -0.010  -0.010   0.051   0.009   0.036   0.002   0.014  -0.003  -0.008   0.036   0.004   0.000
  0.002   0.002  -0.005  -0.003  -0.010   0.035  -0.010  -0.018   0.004   0.049   0.064  -0.010  -0.004   0.004   0.035  -0.000
 -0.019  -0.006   0.016   0.001   0.026  -0.004  -0.000   0.003   0.000   0.007  -0.013   0.003  -0.003   0.000  -0.000   0.001
  0.001  -0.028  -0.007  -0.018   0.001   0.001  -0.008  -0.002  -0.006  -0.000  -0.003   0.001   0.000  -0.003  -0.000   0.000
 -0.028   0.001   0.012  -0.005  -0.019  -0.006   0.001   0.003  -0.001  -0.007  -0.008   0.001  -0.000  -0.000  -0.003   0.000


------------------------ aborting loop because EDIFF is reached ----------------------------------------


    CHARGE:  cpu time   21.6463: real time   21.6459
    FORLOC:  cpu time    5.8475: real time    5.8474
    FORNL :  cpu time   56.1189: real time   56.1179
    STRESS:  cpu time  170.7314: real time  170.7306
    FORCOR:  cpu time   18.1492: real time   18.1492
    FORHAR:  cpu time    8.1605: real time    8.1605
    MIXING:  cpu time    2.9773: real time    2.9773
    OFIELD:  cpu time    0.0000: real time    0.0000

  FORCE on cell =-STRESS in cart. coord.  units (eV):
  Direction    XX          YY          ZZ          XY          YZ          ZX
  --------------------------------------------------------------------------------------
  Alpha Z    75.25432    75.25432    75.25432
  Ewald   48853.58178 43793.52641 45250.42948   296.70270  -203.05897 -1824.29302
  Hartree 63463.95675 58711.85844 60083.16826   285.82701  -194.95052 -1654.39255
  E(xc)   -2903.05515 -2904.85187 -2904.41446    -0.13206     0.12802    -1.25211
  Local  ************************************  -582.16146   398.29872  3461.82134
  n-local  -888.08393  -882.96886  -882.99490    -0.17402     0.20529     3.10370
  augment  4102.17713  4105.15396  4104.10578     0.46680    -0.52057     2.29734
  Kinetic  7791.04494  7811.27505  7805.67253     0.74076    -1.00561    12.83520
  Fock        0.00000     0.00000     0.00000     0.00000     0.00000     0.00000
  -------------------------------------------------------------------------------------
  Total    -113.04451  -114.75642  -113.95422     1.26973    -0.90365     0.11990
  in kB      -6.70805    -6.80963    -6.76203     0.07535    -0.05362     0.00711
  external pressure =       -6.76 kB  Pullay stress =        0.00 kB


 VOLUME and BASIS-vectors are now :
 -----------------------------------------------------------------------------
  energy-cutoff  :      400.00
  volume of cell :    27000.00
      direct lattice vectors                 reciprocal lattice vectors
    30.000000000  0.000000000  0.000000000     0.033333333  0.000000000  0.000000000
     0.000000000 30.000000000  0.000000000     0.000000000  0.033333333  0.000000000
     0.000000000  0.000000000 30.000000000     0.000000000  0.000000000  0.033333333

  length of vectors
    30.000000000 30.000000000 30.000000000     0.033333333  0.033333333  0.033333333


 FORCES acting on ions
    electron-ion (+dipol)            ewald-force                    non-local-force                 convergence-correction
 -----------------------------------------------------------------------------------------------
   0.401E+03 0.976E+03 0.414E+03   -.399E+03 -.973E+03 -.414E+03   -.149E+01 -.182E+01 -.229E+00   -.111E-01 -.175E-02 0.791E-02
   -.824E+03 -.459E+03 0.320E+03   0.824E+03 0.456E+03 -.322E+03   -.231E-01 0.139E+01 0.817E+00   -.131E-02 0.996E-03 0.706E-02
   -.381E+03 0.983E+03 0.412E+03   0.378E+03 -.980E+03 -.412E+03   0.148E+01 -.183E+01 -.218E+00   0.272E-02 -.231E-02 0.545E-02
   0.974E+03 -.394E+03 0.415E+03   -.971E+03 0.392E+03 -.414E+03   -.183E+01 0.150E+01 -.196E+00   0.324E-02 0.117E-02 0.506E-02
   0.149E+02 0.594E+03 0.965E+03   -.149E+02 -.594E+03 -.962E+03   -.159E-01 -.320E+00 -.234E+01   -.311E-02 0.287E-03 0.151E-02
   0.463E+01 0.588E+03 -.969E+03   -.459E+01 -.588E+03 0.965E+03   -.208E-01 -.293E+00 0.236E+01   -.388E-02 0.939E-02 0.172E-02
   0.611E+01 0.114E+04 -.348E+01   -.612E+01 -.113E+04 0.349E+01   0.526E-02 -.311E+01 -.128E-01   -.372E-02 0.878E-03 0.197E-02
   0.113E+04 0.371E+00 -.201E+01   -.113E+04 -.370E+00 0.201E+01   -.310E+01 -.323E-03 -.105E-01   0.493E-02 -.807E-03 0.939E-02
   -.112E+04 0.145E+02 -.815E+02   0.111E+04 -.145E+02 0.817E+02   0.297E+01 0.468E-01 -.169E+00   -.564E-02 0.233E-02 0.474E-02
   0.803E+01 -.114E+04 -.452E+01   -.804E+01 0.113E+04 0.453E+01   0.871E-02 0.310E+01 -.131E-01   -.106E-02 -.105E-02 0.200E-02
   -.549E+03 0.606E+03 0.817E+03   0.547E+03 -.604E+03 -.814E+03   0.159E+01 -.152E+01 -.221E+01   0.825E-02 0.223E-03 -.131E-02
   -.573E+03 0.582E+03 -.820E+03   0.571E+03 -.580E+03 0.817E+03   0.157E+01 -.154E+01 0.218E+01   -.645E-02 0.247E-02 0.145E-02
   0.585E+03 -.580E+03 0.812E+03   -.583E+03 0.578E+03 -.809E+03   -.154E+01 0.157E+01 -.220E+01   -.207E-03 -.253E-03 0.136E-02
   0.581E+03 -.579E+03 -.815E+03   -.578E+03 0.576E+03 0.811E+03   -.156E+01 0.155E+01 0.219E+01   -.790E-03 -.611E-02 -.183E-02
   0.584E+03 0.581E+03 0.812E+03   -.582E+03 -.578E+03 -.809E+03   -.154E+01 -.156E+01 -.220E+01   -.783E-02 -.128E-03 0.140E-02
   0.580E+03 0.579E+03 -.814E+03   -.578E+03 -.577E+03 0.811E+03   -.155E+01 -.155E+01 0.219E+01   0.312E-02 0.758E-02 -.390E-02
   -.530E+03 -.608E+03 0.821E+03   0.528E+03 0.606E+03 -.818E+03   0.164E+01 0.150E+01 -.218E+01   0.425E-03 0.991E-03 -.418E-04
   -.572E+03 -.581E+03 -.822E+03   0.570E+03 0.579E+03 0.819E+03   0.157E+01 0.155E+01 0.218E+01   -.486E-03 -.167E-02 -.135E-02
   0.398E+03 0.974E+03 -.419E+03   -.396E+03 -.971E+03 0.419E+03   -.152E+01 -.180E+01 0.214E+00   -.504E-02 0.128E-01 0.593E-02
   -.961E+03 -.397E+03 -.442E+03   0.958E+03 0.395E+03 0.442E+03   0.184E+01 0.151E+01 0.262E+00   -.636E-02 0.315E-02 0.123E-02
   -.290E+03 0.334E+03 0.444E+03   0.291E+03 -.334E+03 -.445E+03   -.408E+00 0.367E+00 0.513E+00   0.303E-02 0.857E-02 0.118E-01
   0.974E+03 0.395E+03 0.415E+03   -.971E+03 -.393E+03 -.414E+03   -.183E+01 -.150E+01 -.196E+00   0.154E-02 0.916E-03 0.845E-02
   -.375E+03 -.985E+03 0.411E+03   0.373E+03 0.982E+03 -.410E+03   0.148E+01 0.185E+01 -.218E+00   -.113E-02 -.102E-02 0.310E-02
   -.387E+03 0.976E+03 -.422E+03   0.385E+03 -.973E+03 0.422E+03   0.153E+01 -.180E+01 0.189E+00   -.920E-03 0.785E-02 0.833E-02
   0.973E+03 -.394E+03 -.418E+03   -.970E+03 0.392E+03 0.418E+03   -.182E+01 0.151E+01 0.225E+00   0.308E-02 -.798E-02 -.209E-02
   -.900E+03 0.468E+03 0.370E+03   0.897E+03 -.467E+03 -.370E+03   0.172E+01 -.103E+01 -.183E+00   0.233E-03 0.272E-02 0.621E-02
   0.403E+03 -.975E+03 0.414E+03   -.401E+03 0.973E+03 -.413E+03   -.149E+01 0.181E+01 -.228E+00   -.364E-02 -.253E-02 0.181E-02
   0.333E+03 0.324E+03 0.450E+03   -.333E+03 -.324E+03 -.451E+03   0.401E+00 0.376E+00 0.518E+00   -.712E-02 0.584E-02 0.129E-01
   0.111E+02 0.644E+03 -.619E+01   -.111E+02 -.645E+03 0.619E+01   0.143E-01 0.740E+00 -.504E-02   -.726E-02 0.975E-02 0.972E-02
   -.503E+03 0.149E+02 0.982E+03   0.502E+03 -.150E+02 -.979E+03   0.503E+00 0.787E-01 -.212E+01   0.130E-02 0.306E-02 0.422E-03
   -.580E+03 0.104E+01 -.975E+03   0.579E+03 -.105E+01 0.972E+03   0.317E+00 -.195E-02 0.234E+01   -.648E-02 0.575E-02 -.250E-02
   0.594E+03 0.705E+00 0.964E+03   -.593E+03 -.706E+00 -.961E+03   -.282E+00 -.289E-02 -.236E+01   -.108E-02 0.495E-02 -.393E-03
   0.589E+03 0.334E+00 -.967E+03   -.588E+03 -.332E+00 0.963E+03   -.310E+00 0.347E-02 0.235E+01   0.372E-02 -.597E-02 -.775E-02
   0.765E+03 0.762E+03 -.269E+01   -.763E+03 -.760E+03 0.267E+01   -.115E+01 -.114E+01 0.631E-02   -.301E-02 0.586E-02 0.952E-02
   -.737E+03 -.776E+03 -.227E+02   0.735E+03 0.774E+03 0.225E+02   0.109E+01 0.129E+01 0.149E+00   0.218E-03 -.513E-02 0.761E-02
   -.744E+03 0.776E+03 -.159E+02   0.742E+03 -.774E+03 0.158E+02   0.112E+01 -.119E+01 0.495E-01   0.145E-02 0.628E-02 0.634E-02
   0.765E+03 -.762E+03 -.298E+01   -.763E+03 0.760E+03 0.297E+01   -.115E+01 0.114E+01 0.577E-02   -.628E-04 -.568E-02 0.302E-02
   0.229E+02 0.223E+01 0.107E+04   -.229E+02 -.224E+01 -.107E+04   -.503E-01 -.248E-02 -.161E+01   -.361E-02 0.896E-02 0.103E-02
   0.549E+01 0.578E+00 -.107E+04   -.548E+01 -.574E+00 0.107E+04   -.335E-02 0.983E-04 0.161E+01   -.296E-02 -.443E-02 -.384E-02
   0.973E+03 0.395E+03 -.418E+03   -.970E+03 -.392E+03 0.418E+03   -.182E+01 -.151E+01 0.223E+00   0.678E-02 0.172E-02 -.115E-02
   -.386E+03 -.976E+03 -.424E+03   0.383E+03 0.973E+03 0.424E+03   0.154E+01 0.180E+01 0.176E+00   0.463E-02 -.648E-02 0.390E-02
   -.310E+03 0.325E+03 -.464E+03   0.310E+03 -.325E+03 0.465E+03   -.365E+00 0.378E+00 -.549E+00   -.737E-02 0.655E-02 0.461E-02
   0.334E+03 -.322E+03 0.450E+03   -.334E+03 0.323E+03 -.451E+03   0.414E+00 -.374E+00 0.520E+00   -.291E-02 0.101E-02 0.602E-02
   0.327E+03 0.322E+03 -.458E+03   -.327E+03 -.323E+03 0.458E+03   0.380E+00 0.353E+00 -.520E+00   -.393E-02 0.465E-02 0.458E-02
   -.962E+03 0.402E+03 -.438E+03   0.959E+03 -.400E+03 0.438E+03   0.181E+01 -.152E+01 0.256E+00   -.374E-02 0.404E-02 -.817E-03
   0.399E+03 -.973E+03 -.420E+03   -.397E+03 0.970E+03 0.420E+03   -.152E+01 0.181E+01 0.210E+00   -.391E-04 -.406E-02 -.112E-02
   -.283E+03 -.327E+03 0.443E+03   0.284E+03 0.328E+03 -.443E+03   -.513E+00 -.395E+00 0.485E+00   -.115E-02 -.609E-03 0.873E-02
   0.644E+03 0.597E+00 -.325E+01   -.645E+03 -.594E+00 0.326E+01   0.724E+00 -.798E-03 -.201E-01   0.831E-03 -.209E-02 0.126E-01
   -.607E+03 0.560E+01 -.311E+02   0.608E+03 -.555E+01 0.311E+02   -.663E+00 -.505E-01 -.210E-01   -.294E-02 0.392E-02 0.809E-02
   0.189E+02 -.593E+03 0.966E+03   -.188E+02 0.592E+03 -.962E+03   -.282E-01 0.317E+00 -.235E+01   -.419E-02 0.371E-04 0.891E-03
   0.517E+01 -.588E+03 -.969E+03   -.517E+01 0.587E+03 0.966E+03   -.938E-02 0.285E+00 0.235E+01   0.666E-02 -.766E-02 -.102E-02
   0.159E+02 0.157E+01 -.876E+01   -.158E+02 -.157E+01 0.873E+01   -.198E-01 -.224E-02 0.549E-02   -.281E-02 0.221E-02 0.109E-01
   0.327E+03 -.321E+03 -.458E+03   -.328E+03 0.322E+03 0.459E+03   0.374E+00 -.358E+00 -.518E+00   -.254E-03 -.106E-01 -.683E-04
   -.309E+03 -.323E+03 -.465E+03   0.309E+03 0.323E+03 0.466E+03   -.380E+00 -.364E+00 -.529E+00   0.612E-03 -.259E-02 0.330E-02
   0.135E+02 -.643E+03 -.748E+01   -.135E+02 0.644E+03 0.747E+01   0.120E-01 -.735E+00 0.271E-02   -.162E-02 -.616E-02 0.450E-02
   -.202E+03 -.664E+01 0.119E+03   0.180E+03 0.507E+01 -.107E+03   0.183E+02 0.205E+01 -.954E+01   0.747E-03 0.603E-03 0.375E-03
   -.644E+03 -.635E+02 0.356E+03   0.701E+03 0.689E+02 -.387E+03   -.535E+02 -.533E+01 0.284E+02   0.679E-03 0.717E-03 0.397E-03
 -----------------------------------------------------------------------------------------------
   0.372E+02 0.275E+01 -.202E+02   -.114E-12 0.853E-13 -.193E-11   -.371E+02 -.279E+01 0.200E+02   -.670E-01 0.511E-01 0.188E+00
 
 
 POSITION                                       TOTAL-FORCE (eV/Angst)
 -----------------------------------------------------------------------------------
     13.37281      9.84801     12.50759         0.702991      1.108419      0.292885
     20.15199     16.62719     12.50759         0.301132     -1.345180     -0.612699
     16.62719      9.84801     12.50759        -0.698697      1.110201      0.285618
      9.84801     16.62719     12.50759         1.118463     -0.702448      0.280003
     15.00000     11.47521     10.20639         0.008748      0.412329      1.280584
     15.00000     11.47521     19.79360         0.012069      0.409600     -1.290814
     15.00000      8.28283     15.00000        -0.001706      1.521653      0.008289
      8.28283     15.00000     15.00000         1.517939     -0.000237      0.000906
     21.71717     15.00000     15.00000        -1.513436     -0.018214      0.054741
     15.00000     21.71717     15.00000        -0.004302     -1.521214      0.008091
     18.35858     11.64142     10.25025        -0.776589      0.759319      1.090356
     18.35858     11.64142     19.74975        -0.771722      0.750788     -1.072962
     11.64142     18.35858     10.25025         0.749569     -0.767547      1.079315
     11.64142     18.35858     19.74975         0.763802     -0.753610     -1.075677
     11.64142     11.64142     10.25025         0.752533      0.764514      1.076769
     11.64142     11.64142     19.74975         0.761129      0.755493     -1.075286
     18.35858     18.35858     10.25025        -0.808708     -0.741232      1.075496
     18.35858     18.35858     19.74975        -0.767483     -0.754942     -1.072661
     13.37281      9.84801     17.49241         0.716691      1.107992     -0.292692
     20.15199     16.62719     17.49241        -1.103050     -0.710636     -0.283695
     16.73751     13.26249     12.54279         0.097489     -0.120658     -0.149536
      9.84801     13.37281     12.50759         1.119478      0.704214      0.282002
     16.62719     20.15199     12.50759        -0.699378     -1.110775      0.283791
     16.62719      9.84801     17.49241        -0.720427      1.106714     -0.277487
      9.84801     16.62719     17.49241         1.109018     -0.710348     -0.291252
     20.15199     13.37281     12.50759        -0.945012      0.759562      0.189372
     13.37281     20.15199     12.50759         0.705573     -1.109045      0.292791
     13.26249     13.26249     12.54279        -0.123779     -0.110292     -0.159442
     15.00000     11.52498     15.00000         0.003198     -0.230840      0.001388
     18.52479     15.00000     10.20639        -0.493962     -0.032718      1.209992
     18.52479     15.00000     19.79360        -0.410697      0.001008     -1.286043
     11.47521     15.00000     10.20640         0.401905      0.001336      1.286320
     11.47521     15.00000     19.79360         0.409497     -0.001165     -1.284530
     11.49535     11.49535     15.00000         0.826846      0.826358      0.001008
     18.50465     18.50465     15.00000        -0.826176     -0.867397     -0.051931
     18.50465     11.49535     15.00000        -0.821934      0.835962     -0.026671
     11.49535     18.50465     15.00000         0.827272     -0.825506      0.000922
     15.00000     15.00000     10.04368         0.023493     -0.004540      1.176230
     15.00000     15.00000     19.95633        -0.000485      0.000079     -1.172978
      9.84801     13.37281     17.49241         1.109140      0.709526     -0.289939
     16.62719     20.15199     17.49241        -0.734917     -1.103757     -0.267017
     16.73751     13.26249     17.45721         0.102707     -0.125684      0.167825
     13.26249     16.73751     12.54279        -0.138291      0.110549     -0.162662
     13.26249     13.26249     17.45721        -0.116309     -0.110494      0.157650
     20.15199     13.37281     17.49241        -1.099440      0.714180     -0.290439
     13.37281     20.15199     17.49241         0.716304     -1.109294     -0.289259
     16.73751     16.73751     12.54279         0.110924      0.130848     -0.129628
     11.52498     15.00000     15.00000        -0.226732     -0.000475      0.008330
     18.47502     15.00000     15.00000         0.177708      0.003624      0.049088
     15.00000     18.52480     10.20639         0.013809     -0.409919      1.281621
     15.00000     18.52480     19.79360         0.005992     -0.407216     -1.292697
     15.00000     15.00000     15.00000         0.015411     -0.002046     -0.012122
     13.26249     16.73751     17.45721        -0.113624      0.113433      0.158845
     16.73751     16.73751     17.45721         0.115642      0.115662      0.154340
     15.00000     18.47502     15.00000         0.009233      0.231015     -0.002145
     21.89970     15.65221     11.33051        -4.563977      0.483154      2.730564
     22.89217     15.74603     10.80269         3.175132      0.159899     -1.752871
 -----------------------------------------------------------------------------------
    total drift:                                0.002941      0.006953     -0.008264


--------------------------------------------------------------------------------------------------------



  FREE ENERGIE OF THE ION-ELECTRON SYSTEM (eV)
  ---------------------------------------------------
  free  energy   TOTEN  =      -174.34284664 eV

  energy  without entropy=     -174.21495443  energy(sigma->0) =     -174.31087359
 


--------------------------------------------------------------------------------------------------------


    POTLOK:  cpu time   11.1166: real time   11.1178


--------------------------------------------------------------------------------------------------------


     LOOP+:  cpu time15458.4723: real time15458.7880
    4ORBIT:  cpu time    0.0000: real time    0.0000

 total amount of memory used by VASP MPI-rank0  5486940. kBytes
=======================================================================

   base      :      30000. kBytes
   nonlr-proj:      17125. kBytes
   fftplans  :     924480. kBytes
   grid      :    1872000. kBytes
   one-center:        886. kBytes
   wavefun   :    2642449. kBytes
 
  
  
 General timing and accounting informations for this job:
 ========================================================
  
                  Total CPU time used (sec):    15521.237
                            User time (sec):    14677.278
                          System time (sec):      843.959
                         Elapsed time (sec):    15521.614
  
                   Maximum memory used (kb):     7178556.
                   Average memory used (kb):           0.
  
                          Minor page faults:    821980915
                          Major page faults:            0
                 Voluntary context switches:          483
