  57  57   0   0
  0.4736842E+03  0.3000000E-08  0.3000000E-08  0.3000000E-08  0.5000000E-15
  1.000000000000000E-004
  CAR 
 6_Pd100_top_free_z(O)                   
      1.40348365    -30.90977890  301     -4.14867702      1.00000000
    -30.910  0.0000E+00  0.0000E+00
    -30.802  0.0000E+00  0.0000E+00
    -30.694  0.0000E+00  0.0000E+00
    -30.587  0.4332E-27  0.4666E-28
    -30.479  0.2203E-23  0.2373E-24
    -30.371  0.6171E-20  0.6650E-21
    -30.264  0.9499E-17  0.1024E-17
    -30.156  0.8002E-14  0.8629E-15
    -30.048  0.3679E-11  0.3971E-12
    -29.940  0.9131E-09  0.9875E-10
    -29.833  0.1213E-06  0.1317E-07
    -29.725  0.8488E-05  0.9274E-06
    -29.617  0.3038E-03  0.3365E-04
    -29.510  0.5257E-02  0.5999E-03
    -29.402  0.3777E-01  0.4669E-02
    -29.294  0.4186E-01  0.9178E-02
    -29.186 -0.4654E+00 -0.4095E-01
    -29.079 -0.4834E+00 -0.9302E-01
    -28.971  0.4553E+01  0.3974E+00
    -28.863  0.9976E+01  0.1472E+01
    -28.756  0.5583E+01  0.2073E+01
    -28.648 -0.1726E+00  0.2055E+01
    -28.540 -0.5770E+00  0.1992E+01
    -28.432  0.1682E-01  0.1994E+01
    -28.325  0.4517E-01  0.1999E+01
    -28.217  0.7287E-02  0.2000E+01
    -28.109  0.4688E-03  0.2000E+01
    -28.002  0.1440E-04  0.2000E+01
    -27.894  0.2251E-06  0.2000E+01
    -27.786  0.1847E-08  0.2000E+01
    -27.678  0.8095E-11  0.2000E+01
    -27.571  0.1855E-13  0.2000E+01
    -27.463  0.0000E+00  0.2000E+01
    -27.355  0.0000E+00  0.2000E+01
    -27.248  0.0000E+00  0.2000E+01
    -27.140  0.0000E+00  0.2000E+01
    -27.032  0.0000E+00  0.2000E+01
    -26.924  0.0000E+00  0.2000E+01
    -26.817  0.0000E+00  0.2000E+01
    -26.709  0.0000E+00  0.2000E+01
    -26.601  0.0000E+00  0.2000E+01
    -26.494  0.0000E+00  0.2000E+01
    -26.386  0.0000E+00  0.2000E+01
    -26.278  0.0000E+00  0.2000E+01
    -26.171  0.0000E+00  0.2000E+01
    -26.063  0.0000E+00  0.2000E+01
    -25.955  0.0000E+00  0.2000E+01
    -25.847  0.0000E+00  0.2000E+01
    -25.740  0.0000E+00  0.2000E+01
    -25.632  0.0000E+00  0.2000E+01
    -25.524  0.0000E+00  0.2000E+01
    -25.417  0.0000E+00  0.2000E+01
    -25.309  0.0000E+00  0.2000E+01
    -25.201  0.0000E+00  0.2000E+01
    -25.093  0.0000E+00  0.2000E+01
    -24.986  0.0000E+00  0.2000E+01
    -24.878  0.0000E+00  0.2000E+01
    -24.770  0.0000E+00  0.2000E+01
    -24.663  0.0000E+00  0.2000E+01
    -24.555  0.0000E+00  0.2000E+01
    -24.447  0.0000E+00  0.2000E+01
    -24.339  0.0000E+00  0.2000E+01
    -24.232  0.0000E+00  0.2000E+01
    -24.124  0.0000E+00  0.2000E+01
    -24.016  0.0000E+00  0.2000E+01
    -23.909  0.0000E+00  0.2000E+01
    -23.801  0.0000E+00  0.2000E+01
    -23.693  0.0000E+00  0.2000E+01
    -23.585  0.0000E+00  0.2000E+01
    -23.478  0.0000E+00  0.2000E+01
    -23.370  0.0000E+00  0.2000E+01
    -23.262  0.0000E+00  0.2000E+01
    -23.155  0.0000E+00  0.2000E+01
    -23.047  0.0000E+00  0.2000E+01
    -22.939  0.0000E+00  0.2000E+01
    -22.831  0.0000E+00  0.2000E+01
    -22.724  0.0000E+00  0.2000E+01
    -22.616  0.0000E+00  0.2000E+01
    -22.508  0.0000E+00  0.2000E+01
    -22.401  0.0000E+00  0.2000E+01
    -22.293  0.0000E+00  0.2000E+01
    -22.185  0.0000E+00  0.2000E+01
    -22.077  0.0000E+00  0.2000E+01
    -21.970  0.0000E+00  0.2000E+01
    -21.862  0.0000E+00  0.2000E+01
    -21.754  0.0000E+00  0.2000E+01
    -21.647  0.0000E+00  0.2000E+01
    -21.539  0.0000E+00  0.2000E+01
    -21.431  0.0000E+00  0.2000E+01
    -21.324  0.0000E+00  0.2000E+01
    -21.216  0.0000E+00  0.2000E+01
    -21.108  0.0000E+00  0.2000E+01
    -21.000  0.0000E+00  0.2000E+01
    -20.893  0.0000E+00  0.2000E+01
    -20.785  0.0000E+00  0.2000E+01
    -20.677  0.0000E+00  0.2000E+01
    -20.570  0.0000E+00  0.2000E+01
    -20.462  0.0000E+00  0.2000E+01
    -20.354  0.0000E+00  0.2000E+01
    -20.246  0.0000E+00  0.2000E+01
    -20.139  0.0000E+00  0.2000E+01
    -20.031  0.0000E+00  0.2000E+01
    -19.923  0.0000E+00  0.2000E+01
    -19.816  0.0000E+00  0.2000E+01
    -19.708  0.0000E+00  0.2000E+01
    -19.600  0.0000E+00  0.2000E+01
    -19.492  0.0000E+00  0.2000E+01
    -19.385  0.0000E+00  0.2000E+01
    -19.277  0.0000E+00  0.2000E+01
    -19.169  0.0000E+00  0.2000E+01
    -19.062  0.0000E+00  0.2000E+01
    -18.954  0.0000E+00  0.2000E+01
    -18.846  0.0000E+00  0.2000E+01
    -18.738  0.0000E+00  0.2000E+01
    -18.631  0.0000E+00  0.2000E+01
    -18.523  0.0000E+00  0.2000E+01
    -18.415  0.0000E+00  0.2000E+01
    -18.308  0.0000E+00  0.2000E+01
    -18.200  0.0000E+00  0.2000E+01
    -18.092  0.0000E+00  0.2000E+01
    -17.984  0.0000E+00  0.2000E+01
    -17.877  0.0000E+00  0.2000E+01
    -17.769  0.0000E+00  0.2000E+01
    -17.661  0.0000E+00  0.2000E+01
    -17.554  0.0000E+00  0.2000E+01
    -17.446  0.0000E+00  0.2000E+01
    -17.338  0.0000E+00  0.2000E+01
    -17.230  0.0000E+00  0.2000E+01
    -17.123  0.0000E+00  0.2000E+01
    -17.015  0.0000E+00  0.2000E+01
    -16.907  0.0000E+00  0.2000E+01
    -16.800  0.0000E+00  0.2000E+01
    -16.692  0.0000E+00  0.2000E+01
    -16.584  0.0000E+00  0.2000E+01
    -16.477  0.0000E+00  0.2000E+01
    -16.369  0.0000E+00  0.2000E+01
    -16.261  0.0000E+00  0.2000E+01
    -16.153  0.0000E+00  0.2000E+01
    -16.046  0.0000E+00  0.2000E+01
    -15.938  0.0000E+00  0.2000E+01
    -15.830  0.0000E+00  0.2000E+01
    -15.723  0.0000E+00  0.2000E+01
    -15.615  0.0000E+00  0.2000E+01
    -15.507  0.0000E+00  0.2000E+01
    -15.399  0.0000E+00  0.2000E+01
    -15.292  0.0000E+00  0.2000E+01
    -15.184  0.8366E-28  0.2000E+01
    -15.076  0.4749E-24  0.2000E+01
    -14.969  0.1486E-20  0.2000E+01
    -14.861  0.2556E-17  0.2000E+01
    -14.753  0.2408E-14  0.2000E+01
    -14.645  0.1239E-11  0.2000E+01
    -14.538  0.3449E-09  0.2000E+01
    -14.430  0.5149E-07  0.2000E+01
    -14.322  0.4063E-05  0.2000E+01
    -14.215  0.1652E-03  0.2000E+01
    -14.107  0.3291E-02  0.2000E+01
    -13.999  0.2845E-01  0.2003E+01
    -13.891  0.5972E-01  0.2010E+01
    -13.784 -0.3181E+00  0.1976E+01
    -13.676 -0.7307E+00  0.1897E+01
    -13.568  0.3207E+01  0.2242E+01
    -13.461  0.9608E+01  0.3277E+01
    -13.353  0.6947E+01  0.4026E+01
    -13.245  0.4464E+00  0.4074E+01
    -13.137 -0.7133E+00  0.3997E+01
    -13.030 -0.3760E-01  0.3993E+01
    -12.922  0.5487E-01  0.3999E+01
    -12.814  0.1105E-01  0.4000E+01
    -12.707  0.8260E-03  0.4000E+01
    -12.599  0.2890E-04  0.4000E+01
    -12.491  0.5104E-06  0.4000E+01
    -12.384  0.4735E-08  0.4000E+01
    -12.276  0.5316E-08  0.4000E+01
    -12.168  0.6152E-06  0.4000E+01
    -12.060  0.3750E-04  0.4000E+01
    -11.953  0.1160E-02  0.4000E+01
    -11.845  0.1704E-01  0.4002E+01
    -11.737  0.9746E-01  0.4012E+01
    -11.630 -0.7439E-03  0.4012E+01
    -11.522 -0.1257E+01  0.3877E+01
    -11.414  0.5559E-01  0.3883E+01
    -11.306  0.1215E+02  0.5192E+01
    -11.199  0.1976E+02  0.7321E+01
    -11.091  0.8128E+01  0.8196E+01
    -10.983 -0.1176E+01  0.8070E+01
    -10.876 -0.8234E+00  0.7981E+01
    -10.768  0.9935E-01  0.7992E+01
    -10.660  0.6868E-01  0.7999E+01
    -10.552  0.8968E-02  0.8000E+01
    -10.445  0.4952E-03  0.8000E+01
    -10.337  0.4520E-04  0.8000E+01
    -10.229  0.8955E-03  0.8000E+01
    -10.122  0.1171E-01  0.8001E+01
    -10.014  0.5615E-01  0.8007E+01
     -9.906 -0.4777E-01  0.8002E+01
     -9.798 -0.7301E+00  0.7924E+01
     -9.691  0.5566E+00  0.7984E+01
     -9.583  0.7138E+01  0.8752E+01
     -9.475  0.9521E+01  0.9778E+01
     -9.368  0.3021E+01  0.1010E+02
     -9.260 -0.7521E+00  0.1002E+02
     -9.152 -0.2980E+00  0.9990E+01
     -9.044  0.6107E-01  0.9997E+01
     -8.937  0.2720E-01  0.1000E+02
     -8.829  0.3067E-02  0.1000E+02
     -8.721  0.1508E-03  0.1000E+02
     -8.614  0.3642E-05  0.1000E+02
     -8.506  0.4535E-07  0.1000E+02
     -8.398  0.2986E-09  0.1000E+02
     -8.290  0.1055E-11  0.1000E+02
     -8.183  0.2061E-14  0.1000E+02
     -8.075  0.4120E-19  0.1000E+02
     -7.967  0.5453E-16  0.1000E+02
     -7.860  0.3946E-13  0.1000E+02
     -7.752  0.1556E-10  0.1000E+02
     -7.644  0.3306E-08  0.1000E+02
     -7.537  0.3746E-06  0.1000E+02
     -7.429  0.2222E-04  0.1000E+02
     -7.321  0.6676E-03  0.1000E+02
     -7.213  0.9465E-02  0.1000E+02
     -7.106  0.5132E-01  0.1001E+02
     -6.998 -0.1382E-01  0.1001E+02
     -6.890 -0.6649E+00  0.9934E+01
     -6.783  0.1860E+00  0.9954E+01
     -6.675  0.6478E+01  0.1065E+02
     -6.567  0.9972E+01  0.1173E+02
     -6.459  0.3486E+01  0.1210E+02
     -6.352 -0.2861E+01  0.1179E+02
     -6.244  0.2465E+01  0.1206E+02
     -6.136  0.2267E+02  0.1450E+02
     -6.029  0.2562E+02  0.1726E+02
     -5.921  0.9082E+01  0.1824E+02
     -5.813  0.2105E+02  0.2051E+02
     -5.705  0.6283E+02  0.2727E+02
     -5.598  0.1480E+03  0.4322E+02
     -5.490  0.2708E+03  0.7238E+02
     -5.382  0.3017E+03  0.1049E+03
     -5.275  0.2277E+03  0.1294E+03
     -5.167  0.2144E+03  0.1525E+03
     -5.059  0.3044E+03  0.1853E+03
     -4.951  0.3680E+03  0.2249E+03
     -4.844  0.3212E+03  0.2595E+03
     -4.736  0.2990E+03  0.2917E+03
     -4.628  0.3847E+03  0.3332E+03
     -4.521  0.4298E+03  0.3795E+03
     -4.413  0.4291E+03  0.4257E+03
     -4.305  0.5193E+03  0.4816E+03
     -4.197  0.5459E+03  0.5404E+03
     -4.090  0.3157E+03  0.5744E+03
     -3.982  0.6262E+02  0.5811E+03
     -3.874  0.5945E+01  0.5818E+03
     -3.767  0.3139E+02  0.5852E+03
     -3.659  0.2257E+02  0.5876E+03
     -3.551  0.1307E+02  0.5890E+03
     -3.444  0.2591E+02  0.5918E+03
     -3.336  0.1867E+02  0.5938E+03
     -3.228 -0.1160E+01  0.5937E+03
     -3.120  0.1449E+02  0.5952E+03
     -3.013  0.5405E+02  0.6011E+03
     -2.905  0.5514E+02  0.6070E+03
     -2.797  0.2304E+02  0.6095E+03
     -2.690  0.4914E+01  0.6100E+03
     -2.582  0.1394E+02  0.6115E+03
     -2.474  0.2690E+02  0.6144E+03
     -2.366  0.1962E+02  0.6165E+03
     -2.259  0.1219E+02  0.6178E+03
     -2.151  0.2395E+02  0.6204E+03
     -2.043  0.4096E+02  0.6248E+03
     -1.936  0.3936E+02  0.6291E+03
     -1.828  0.3165E+02  0.6325E+03
     -1.720  0.3984E+02  0.6368E+03
     -1.612  0.4769E+02  0.6419E+03
     -1.505  0.3411E+02  0.6456E+03
     -1.397  0.2010E+02  0.6478E+03
     -1.289  0.2045E+02  0.6500E+03
     -1.182  0.2338E+02  0.6525E+03
     -1.074  0.2751E+02  0.6554E+03
     -0.966  0.4900E+02  0.6607E+03
     -0.858  0.6035E+02  0.6672E+03
     -0.751  0.2827E+02  0.6703E+03
     -0.643  0.4909E+01  0.6708E+03
     -0.535  0.7221E+01  0.6716E+03
     -0.428  0.4592E+01  0.6721E+03
     -0.320 -0.2388E+00  0.6720E+03
     -0.212 -0.4179E+00  0.6720E+03
     -0.104  0.4564E-01  0.6720E+03
      0.003  0.3792E-01  0.6720E+03
      0.111  0.5260E-02  0.6720E+03
      0.219  0.3039E-03  0.6720E+03
      0.326  0.8488E-05  0.6720E+03
      0.434  0.1213E-06  0.6720E+03
      0.542  0.9131E-09  0.6720E+03
      0.650  0.3678E-11  0.6720E+03
      0.757  0.8246E-14  0.6720E+03
      0.865  0.0000E+00  0.6720E+03
      0.973  0.0000E+00  0.6720E+03
      1.080  0.0000E+00  0.6720E+03
      1.188  0.0000E+00  0.6720E+03
      1.296  0.0000E+00  0.6720E+03
      1.403  0.0000E+00  0.6720E+03
