   57   57    1    1
  0.4736842E+03  0.3000000E-08  0.3000000E-08  0.3000000E-08  0.5000000E-15
  1.000000000000000E-004
  CAR 
 6_Pd100_top_free_z(O)                   
    560      1    336
 
  0.0000000E+00  0.0000000E+00  0.0000000E+00  0.1000000E+01
    1      -28.813440   1.000000
    2      -13.509821   1.000000
    3      -11.217703   1.000000
    4      -11.183136   1.000000
    5      -10.420849   1.000000
    6       -6.651974   1.000000
    7       -6.147493   1.000000
    8       -6.138945   1.000000
    9       -6.130085   1.000000
   10       -5.984008   1.000000
   11       -5.920729   1.000000
   12       -5.846918   1.000000
   13       -5.816503   1.000000
   14       -5.799261   1.000000
   15       -5.751040   1.000000
   16       -5.732681   1.000000
   17       -5.695602   1.000000
   18       -5.688850   1.000000
   19       -5.685155   1.000000
   20       -5.640176   1.000000
   21       -5.627740   1.000000
   22       -5.622105   1.000000
   23       -5.612948   1.000000
   24       -5.598977   1.000000
   25       -5.596032   1.000000
   26       -5.576374   1.000000
   27       -5.571580   1.000000
   28       -5.561154   1.000000
   29       -5.552947   1.000000
   30       -5.552163   1.000000
   31       -5.546697   1.000000
   32       -5.525842   1.000000
   33       -5.523253   1.000000
   34       -5.518651   1.000000
   35       -5.517526   1.000000
   36       -5.514065   1.000000
   37       -5.513221   1.000000
   38       -5.509038   1.000000
   39       -5.494345   1.000000
   40       -5.485396   1.000000
   41       -5.478237   1.000000
   42       -5.475879   1.000000
   43       -5.474077   1.000000
   44       -5.471650   1.000000
   45       -5.468577   1.000000
   46       -5.451118   1.000000
   47       -5.434646   1.000000
   48       -5.433849   1.000000
   49       -5.431596   1.000000
   50       -5.429956   1.000000
   51       -5.426758   1.000000
   52       -5.425299   1.000000
   53       -5.412634   1.000000
   54       -5.411768   1.000000
   55       -5.407553   1.000000
   56       -5.400154   1.000000
   57       -5.387192   1.000000
   58       -5.336949   1.000000
   59       -5.333787   1.000000
   60       -5.330761   1.000000
   61       -5.330624   1.000000
   62       -5.326471   1.000000
   63       -5.321268   1.000000
   64       -5.308294   1.000000
   65       -5.304960   1.000000
   66       -5.303740   1.000000
   67       -5.297638   1.000000
   68       -5.289959   1.000000
   69       -5.283442   1.000000
   70       -5.217451   1.000000
   71       -5.210337   1.000000
   72       -5.208521   1.000000
   73       -5.195332   1.000000
   74       -5.186280   1.000000
   75       -5.184928   1.000000
   76       -5.184226   1.000000
   77       -5.177132   1.000000
   78       -5.171577   1.000000
   79       -5.164591   1.000000
   80       -5.162205   1.000000
   81       -5.158649   1.000000
   82       -5.148648   1.000000
   83       -5.134892   1.000000
   84       -5.131347   1.000000
   85       -5.128476   1.000000
   86       -5.115149   1.000000
   87       -5.108859   1.000000
   88       -5.098831   1.000000
   89       -5.085643   1.000000
   90       -5.075609   1.000000
   91       -5.064267   1.000000
   92       -5.059350   1.000000
   93       -5.058666   1.000000
   94       -5.057210   1.000000
   95       -5.054522   1.000000
   96       -5.050762   1.000000
   97       -5.044209   1.000000
   98       -5.041690   1.000000
   99       -5.033319   1.000000
  100       -5.031640   1.000000
  101       -5.026919   1.000000
  102       -5.022455   1.000000
  103       -5.013408   1.000000
  104       -5.006913   1.000000
  105       -5.005350   1.000000
  106       -5.001585   1.000000
  107       -4.998157   1.000000
  108       -4.995496   1.000000
  109       -4.990807   1.000000
  110       -4.981968   1.000000
  111       -4.980576   1.000000
  112       -4.971316   1.000000
  113       -4.965599   0.999999
  114       -4.961326   0.999999
  115       -4.960428   0.999999
  116       -4.956658   0.999999
  117       -4.955937   0.999999
  118       -4.934695   0.999998
  119       -4.932891   0.999998
  120       -4.929525   0.999998
  121       -4.920132   0.999997
  122       -4.913838   0.999997
  123       -4.912283   0.999997
  124       -4.906606   0.999996
  125       -4.906425   0.999996
  126       -4.904710   0.999996
  127       -4.888743   0.999993
  128       -4.872570   0.999988
  129       -4.854871   0.999979
  130       -4.846258   0.999974
  131       -4.845755   0.999973
  132       -4.843222   0.999971
  133       -4.840925   0.999969
  134       -4.838184   0.999967
  135       -4.833997   0.999962
  136       -4.817742   0.999941
  137       -4.803936   0.999914
  138       -4.796259   0.999895
  139       -4.789922   0.999876
  140       -4.783269   0.999853
  141       -4.778177   0.999833
  142       -4.768254   0.999787
  143       -4.753365   0.999697
  144       -4.746725   0.999647
  145       -4.742992   0.999616
  146       -4.740374   0.999593
  147       -4.731534   0.999506
  148       -4.720899   0.999381
  149       -4.718578   0.999351
  150       -4.704495   0.999139
  151       -4.691116   0.998889
  152       -4.689828   0.998863
  153       -4.684112   0.998738
  154       -4.679030   0.998620
  155       -4.675440   0.998532
  156       -4.674550   0.998509
  157       -4.673780   0.998489
  158       -4.673234   0.998475
  159       -4.670351   0.998400
  160       -4.660921   0.998134
  161       -4.654761   0.997947
  162       -4.651742   0.997851
  163       -4.649857   0.997790
  164       -4.649331   0.997773
  165       -4.648636   0.997750
  166       -4.646645   0.997684
  167       -4.644496   0.997612
  168       -4.636367   0.997328
  169       -4.635219   0.997287
  170       -4.624660   0.996900
  171       -4.615278   0.996547
  172       -4.607500   0.996257
  173       -4.605696   0.996190
  174       -4.599829   0.995979
  175       -4.597421   0.995895
  176       -4.596357   0.995859
  177       -4.594394   0.995792
  178       -4.590901   0.995679
  179       -4.587926   0.995586
  180       -4.582082   0.995421
  181       -4.578858   0.995339
  182       -4.572863   0.995211
  183       -4.567828   0.995131
  184       -4.559710   0.995067
  185       -4.559155   0.995066
  186       -4.555383   0.995071
  187       -4.553043   0.995085
  188       -4.551772   0.995097
  189       -4.550949   0.995106
  190       -4.547326   0.995161
  191       -4.531114   0.995751
  192       -4.522817   0.996311
  193       -4.513397   0.997201
  194       -4.510304   0.997558
  195       -4.508363   0.997800
  196       -4.502002   0.998689
  197       -4.494399   0.999959
  198       -4.493753   1.000078
  199       -4.481210   1.002739
  200       -4.478633   1.003372
  201       -4.474121   1.004552
  202       -4.467010   1.006601
  203       -4.465081   1.007197
  204       -4.461693   1.008284
  205       -4.456085   1.010196
  206       -4.452621   1.011447
  207       -4.450567   1.012212
  208       -4.447566   1.013363
  209       -4.445812   1.014053
  210       -4.442672   1.015317
  211       -4.426676   1.022289
  212       -4.424576   1.023259
  213       -4.419250   1.025759
  214       -4.412298   1.029082
  215       -4.411273   1.029575
  216       -4.409008   1.030666
  217       -4.408120   1.031094
  218       -4.407885   1.031207
  219       -4.406457   1.031894
  220       -4.376921   1.045008
  221       -4.372050   1.046736
  222       -4.369218   1.047649
  223       -4.366472   1.048461
  224       -4.356431   1.050722
  225       -4.347160   1.051608
  226       -4.341832   1.051490
  227       -4.340922   1.051419
  228       -4.339527   1.051280
  229       -4.338130   1.051103
  230       -4.335978   1.050755
  231       -4.335381   1.050642
  232       -4.334442   1.050450
  233       -4.331909   1.049837
  234       -4.329643   1.049170
  235       -4.327570   1.048458
  236       -4.326095   1.047891
  237       -4.324630   1.047276
  238       -4.323239   1.046644
  239       -4.319641   1.044785
  240       -4.317172   1.043314
  241       -4.308785   1.037070
  242       -4.306585   1.035096
  243       -4.298702   1.026803
  244       -4.293825   1.020673
  245       -4.291579   1.017581
  246       -4.289790   1.014997
  247       -4.286581   1.010080
  248       -4.283744   1.005432
  249       -4.283497   1.005013
  250       -4.273559   0.986328
  251       -4.268336   0.975028
  252       -4.262813   0.961946
  253       -4.261737   0.959259
  254       -4.258749   0.951568
  255       -4.257466   0.948157
  256       -4.252188   0.933461
  257       -4.251698   0.932042
  258       -4.250925   0.929784
  259       -4.247585   0.919764
  260       -4.246620   0.916787
  261       -4.245058   0.911895
  262       -4.242437   0.903480
  263       -4.240896   0.898407
  264       -4.239802   0.894752
  265       -4.238480   0.890275
  266       -4.229666   0.858766
  267       -4.226775   0.847817
  268       -4.225071   0.841225
  269       -4.222923   0.832771
  270       -4.221842   0.828457
  271       -4.218808   0.816139
  272       -4.215780   0.803542
  273       -4.202656   0.745675
  274       -4.195219   0.710769
  275       -4.185299   0.662216
  276       -4.184793   0.659686
  277       -4.180670   0.638908
  278       -4.179182   0.631341
  279       -4.177537   0.622936
  280       -4.172899   0.599041
  281       -4.166461   0.565482
  282       -4.162371   0.543983
  283       -4.138027   0.415703
  284       -4.131484   0.381847
  285       -4.131269   0.380745
  286       -4.130055   0.374524
  287       -4.128750   0.367866
  288       -4.118705   0.317547
  289       -4.113148   0.290566
  290       -3.962757  -0.051623
  291       -3.856350  -0.011774
  292       -3.829275  -0.003327
  293       -3.817011  -0.000589
  294       -3.760159   0.004850
  295       -3.503133   0.000084
  296       -3.488691   0.000057
  297       -3.404877   0.000005
  298       -3.065095   0.000000
  299       -3.058907   0.000000
  300       -3.052878   0.000000
  301       -3.030840   0.000000
  302       -3.017867   0.000000
  303       -2.941907   0.000000
  304       -2.937053   0.000000
  305       -2.859532   0.000000
  306       -2.530851   0.000000
  307       -2.519854   0.000000
  308       -2.506636   0.000000
  309       -2.328678   0.000000
  310       -2.118136   0.000000
  311       -2.114820   0.000000
  312       -2.062049   0.000000
  313       -2.025999   0.000000
  314       -1.948268   0.000000
  315       -1.936077   0.000000
  316       -1.874782   0.000000
  317       -1.784913   0.000000
  318       -1.724688   0.000000
  319       -1.674642   0.000000
  320       -1.654534   0.000000
  321       -1.639534   0.000000
  322       -1.585726   0.000000
  323       -1.552854   0.000000
  324       -1.392658   0.000000
  325       -1.250638   0.000000
  326       -1.235748   0.000000
  327       -1.177288   0.000000
  328       -1.064407   0.000000
  329       -0.992633   0.000000
  330       -0.974052   0.000000
  331       -0.960655   0.000000
  332       -0.933806   0.000000
  333       -0.925340   0.000000
  334       -0.878083   0.000000
  335       -0.819285   0.000000
  336       -0.712176   0.000000
