 vasp.5.4.4.18Apr17-6-g9f103f2a35 (build Sep 03 2018 23:53:05) complex          
  
 executed on             LinuxIFC date 2021.11.30  22:05:22
 running on    1 total cores
 distrk:  each k-point on    1 cores,    1 groups
 distr:  one band on NCORES_PER_BAND=   1 cores,    1 groups


--------------------------------------------------------------------------------------------------------


 INCAR:
 POTCAR:    PAW_PBE Pd 04Jan2005                  
 POTCAR:    PAW_PBE C 08Apr2002                   
 POTCAR:    PAW_PBE O 08Apr2002                   
 POTCAR:    PAW_PBE Pd 04Jan2005                  
   VRHFIN =Pd : s1 d9                                                           
   LEXCH  = PE                                                                  
   EATOM  =   809.7530 eV,   59.5152 Ry                                         
                                                                                
   TITEL  = PAW_PBE Pd 04Jan2005                                                
   LULTRA =        F    use ultrasoft PP ?                                      
   IUNSCR =        1    unscreen: 0-lin 1-nonlin 2-no                           
   RPACOR =    2.000    partial core radius                                     
   POMASS =  106.420; ZVAL   =   10.000    mass and valenz                      
   RCORE  =    2.600    outmost cutoff radius                                   
   RWIGS  =    2.710; RWIGS  =    1.434    wigner-seitz radius (au A)           
   ENMAX  =  250.925; ENMIN  =  188.194 eV                                      
   ICORE  =        3    local potential                                         
   LCOR   =        T    correct aug charges                                     
   LPAW   =        T    paw PP                                                  
   EAUG   =  416.230                                                            
   DEXC   =    0.000                                                            
   RMAX   =    2.653    core radius for proj-oper                               
   RAUG   =    1.300    factor for augmentation sphere                          
   RDEP   =    2.734    radius for radial grids                                 
   RDEPT  =    2.103    core radius for aug-charge                              
                                                                                
   Atomic configuration                                                         
   12 entries                                                                   
     n  l   j            E        occ.                                          
     1  0  0.50    -24164.6631   2.0000                                         
     2  0  0.50     -3530.9218   2.0000                                         
     2  1  1.50     -3165.6822   6.0000                                         
     3  0  0.50      -639.4577   2.0000                                         
     3  1  1.50      -519.4532   6.0000                                         
     3  2  2.50      -328.9757  10.0000                                         
     4  0  0.50       -88.7014   2.0000                                         
     4  1  1.50       -54.4540   6.0000                                         
     4  2  2.50        -6.6878   9.0000                                         
     5  0  0.50        -4.3543   1.0000                                         
     5  1  0.50        -1.3606   0.0000                                         
     4  3  2.50        -1.3606   0.0000                                         
   Description                                                                  
     l       E           TYP  RCUT    TYP  RCUT                                 
     2     -6.6878251     23  2.400                                             
     2     -8.0484077     23  2.400                                             
     0     -4.3542939     23  2.400                                             
     0      4.3406793     23  2.400                                             
     1     -4.0817478     23  2.600                                             
     1     15.8380318     23  2.600                                             
     3     -4.0817478     23  2.400                                             
  local pseudopotential read in
  partial core-charges read in
  partial kinetic energy density read in
  atomic valenz-charges read in
  non local Contribution for L=           2  read in
    real space projection operators read in
  non local Contribution for L=           2  read in
    real space projection operators read in
  non local Contribution for L=           0  read in
    real space projection operators read in
  non local Contribution for L=           0  read in
    real space projection operators read in
  non local Contribution for L=           1  read in
    real space projection operators read in
  non local Contribution for L=           1  read in
    real space projection operators read in
    PAW grid and wavefunctions read in
 
   number of l-projection  operators is LMAX  =           6
   number of lm-projection operators is LMMAX =          18
 
 POTCAR:    PAW_PBE C 08Apr2002                   
   VRHFIN =C: s2p2                                                              
   LEXCH  = PE                                                                  
   EATOM  =   147.1560 eV,   10.8157 Ry                                         
                                                                                
   TITEL  = PAW_PBE C 08Apr2002                                                 
   LULTRA =        F    use ultrasoft PP ?                                      
   IUNSCR =        1    unscreen: 0-lin 1-nonlin 2-no                           
   RPACOR =    1.200    partial core radius                                     
   POMASS =   12.011; ZVAL   =    4.000    mass and valenz                      
   RCORE  =    1.500    outmost cutoff radius                                   
   RWIGS  =    1.630; RWIGS  =    0.863    wigner-seitz radius (au A)           
   ENMAX  =  400.000; ENMIN  =  300.000 eV                                      
   ICORE  =        2    local potential                                         
   LCOR   =        T    correct aug charges                                     
   LPAW   =        T    paw PP                                                  
   EAUG   =  644.873                                                            
   DEXC   =    0.000                                                            
   RMAX   =    1.529    core radius for proj-oper                               
   RAUG   =    1.300    factor for augmentation sphere                          
   RDEP   =    1.501    radius for radial grids                                 
   RDEPT  =    1.300    core radius for aug-charge                              
                                                                                
   Atomic configuration                                                         
    4 entries                                                                   
     n  l   j            E        occ.                                          
     1  0  0.50      -273.3789   2.0000                                         
     2  0  0.50       -13.7508   2.0000                                         
     2  1  0.50        -5.2854   2.0000                                         
     3  2  1.50        -5.4423   0.0000                                         
   Description                                                                  
     l       E           TYP  RCUT    TYP  RCUT                                 
     0    -13.7508458     23  1.200                                             
     0     -8.2022199     23  1.200                                             
     1     -5.2854383     23  1.500                                             
     1     34.0145650     23  1.500                                             
     2     -5.4423304      7  1.500                                             
  local pseudopotential read in
  partial core-charges read in
  partial kinetic energy density read in
  atomic valenz-charges read in
  non local Contribution for L=           0  read in
    real space projection operators read in
  non local Contribution for L=           0  read in
    real space projection operators read in
  non local Contribution for L=           1  read in
    real space projection operators read in
  non local Contribution for L=           1  read in
    real space projection operators read in
    PAW grid and wavefunctions read in
 
   number of l-projection  operators is LMAX  =           4
   number of lm-projection operators is LMMAX =           8
 
 POTCAR:    PAW_PBE O 08Apr2002                   
   VRHFIN =O: s2p4                                                              
   LEXCH  = PE                                                                  
   EATOM  =   432.3788 eV,   31.7789 Ry                                         
                                                                                
   TITEL  = PAW_PBE O 08Apr2002                                                 
   LULTRA =        F    use ultrasoft PP ?                                      
   IUNSCR =        1    unscreen: 0-lin 1-nonlin 2-no                           
   RPACOR =    1.200    partial core radius                                     
   POMASS =   16.000; ZVAL   =    6.000    mass and valenz                      
   RCORE  =    1.520    outmost cutoff radius                                   
   RWIGS  =    1.550; RWIGS  =    0.820    wigner-seitz radius (au A)           
   ENMAX  =  400.000; ENMIN  =  300.000 eV                                      
   ICORE  =        2    local potential                                         
   LCOR   =        T    correct aug charges                                     
   LPAW   =        T    paw PP                                                  
   EAUG   =  605.392                                                            
   DEXC   =    0.000                                                            
   RMAX   =    1.553    core radius for proj-oper                               
   RAUG   =    1.300    factor for augmentation sphere                          
   RDEP   =    1.550    radius for radial grids                                 
   RDEPT  =    1.329    core radius for aug-charge                              
                                                                                
   Atomic configuration                                                         
    4 entries                                                                   
     n  l   j            E        occ.                                          
     1  0  0.50      -514.6923   2.0000                                         
     2  0  0.50       -23.9615   2.0000                                         
     2  1  0.50        -9.0305   4.0000                                         
     3  2  1.50        -9.5241   0.0000                                         
   Description                                                                  
     l       E           TYP  RCUT    TYP  RCUT                                 
     0    -23.9615318     23  1.200                                             
     0     -9.5240782     23  1.200                                             
     1     -9.0304911     23  1.520                                             
     1      8.1634956     23  1.520                                             
     2     -9.5240782      7  1.500                                             
  local pseudopotential read in
  partial core-charges read in
  partial kinetic energy density read in
  kinetic energy density of atom read in
  atomic valenz-charges read in
  non local Contribution for L=           0  read in
    real space projection operators read in
  non local Contribution for L=           0  read in
    real space projection operators read in
  non local Contribution for L=           1  read in
    real space projection operators read in
  non local Contribution for L=           1  read in
    real space projection operators read in
    PAW grid and wavefunctions read in
 
   number of l-projection  operators is LMAX  =           4
   number of lm-projection operators is LMMAX =           8
 
 Optimization of the real space projectors (new method)

 maximal supplied QI-value         = 14.36
 optimisation between [QCUT,QGAM] = [ 10.20, 20.39] = [ 29.12,116.47] Ry 
 Optimized for a Real-space Cutoff    1.51 Angstroem

   l    n(q)    QCUT    max X(q) W(low)/X(q) W(high)/X(q)  e(spline) 
   2      8    10.197    59.108    0.26E-03    0.14E-03    0.96E-07
   2      8    10.197    58.101    0.27E-03    0.14E-03    0.98E-07
   0      9    10.197   102.235    0.54E-04    0.60E-05    0.72E-07
   0      9    10.197    58.388    0.52E-04    0.60E-05    0.68E-07
   1      9    10.197    22.191    0.18E-03    0.25E-03    0.79E-07
   1      9    10.197    15.590    0.15E-03    0.21E-03    0.69E-07
 Optimization of the real space projectors (new method)

 maximal supplied QI-value         = 25.13
 optimisation between [QCUT,QGAM] = [ 10.05, 20.36] = [ 28.30,116.06] Ry 
 Optimized for a Real-space Cutoff    1.30 Angstroem

   l    n(q)    QCUT    max X(q) W(low)/X(q) W(high)/X(q)  e(spline) 
   0      8    10.053   115.676    0.49E-03    0.72E-03    0.18E-06
   0      8    10.053    87.132    0.49E-03    0.71E-03    0.18E-06
   1      7    10.053     4.429    0.32E-03    0.31E-03    0.18E-06
   1      7    10.053     2.733    0.23E-03    0.19E-03    0.20E-06
 Optimization of the real space projectors (new method)

 maximal supplied QI-value         = 24.76
 optimisation between [QCUT,QGAM] = [ 10.15, 20.30] = [ 28.85,115.39] Ry 
 Optimized for a Real-space Cutoff    1.38 Angstroem

   l    n(q)    QCUT    max X(q) W(low)/X(q) W(high)/X(q)  e(spline) 
   0      8    10.150    20.381    0.22E-03    0.32E-03    0.29E-06
   0      8    10.150    15.268    0.23E-03    0.35E-03    0.30E-06
   1      8    10.150     5.964    0.46E-03    0.53E-03    0.21E-06
   1      8    10.150     5.382    0.38E-03    0.45E-03    0.19E-06

 ----------------------------------------------------------------------------- 
|                                                                             |
|  ADVICE TO THIS USER RUNNING 'VASP/VAMP'   (HEAR YOUR MASTER'S VOICE ...):  |
|                                                                             |
|      You enforced a specific xc-type in the INCAR file,                     |
|      a different type was found on the POTCAR file                          |
|          I HOPE YOU KNOW, WHAT YOU ARE  DOING                               |
|                                                                             |
 ----------------------------------------------------------------------------- 

  PAW_PBE Pd 04Jan2005                  :
 energy of atom  1       EATOM= -809.7530
 kinetic energy error for atom=    0.0091 (will be added to EATOM!!)
  PAW_PBE C 08Apr2002                   :
 energy of atom  2       EATOM= -147.1560
 kinetic energy error for atom=    0.0288 (will be added to EATOM!!)
  PAW_PBE O 08Apr2002                   :
 energy of atom  3       EATOM= -432.3788
 kinetic energy error for atom=    0.1156 (will be added to EATOM!!)
 
 
 POSCAR: Pd55PES                                 
  positions in cartesian coordinates
  No initial velocities read in
 exchange correlation table for  LEXCH =        9
   RHO(1)=    0.500       N(1)  =     2000
   RHO(2)=  100.500       N(2)  =     4000
 


--------------------------------------------------------------------------------------------------------


 ion  position               nearest neighbor table
   1  0.446  0.328  0.417-   3 3.25   5 3.25   7 3.36  15 3.36  29 3.42  28 3.42
   2  0.672  0.554  0.417-  26 3.25  30 3.25  17 3.36   9 3.36  47 3.42  49 3.42
   3  0.554  0.328  0.417-   1 3.25   5 3.25   7 3.36  11 3.36  29 3.42  21 3.42
   4  0.328  0.554  0.417-  56 2.44  32 3.25  22 3.25  13 3.36   8 3.36  43 3.42  48 3.42
   5  0.500  0.383  0.340-   1 3.25   3 3.25  11 3.36  15 3.36  21 3.42  28 3.42
   6  0.500  0.383  0.660-  24 3.25  19 3.25  16 3.36  12 3.36  42 3.42  44 3.42
   7  0.500  0.276  0.500-  29 3.24   3 3.36   1 3.36  19 3.36  24 3.36
   8  0.276  0.500  0.500-  48 3.24  22 3.36  40 3.36   4 3.36  25 3.36
   9  0.724  0.500  0.500-  49 3.24  26 3.36  45 3.36   2 3.36  20 3.36
  10  0.500  0.724  0.500-  55 3.24  27 3.36  23 3.36  46 3.36  41 3.36
  11  0.612  0.388  0.342-  21 3.24   5 3.36   3 3.36  30 3.36  26 3.36
  12  0.612  0.388  0.658-  42 3.24  24 3.36  45 3.36   6 3.36  31 3.36
  13  0.388  0.612  0.342-  43 3.24  32 3.36  50 3.36   4 3.36  27 3.36
  14  0.388  0.612  0.658-  53 3.24  25 3.36  33 3.36  51 3.36  46 3.36
  15  0.388  0.388  0.342-  28 3.24   5 3.36   1 3.36  32 3.36  22 3.36
  16  0.388  0.388  0.658-  44 3.24  19 3.36  40 3.36   6 3.36  33 3.36
  17  0.612  0.612  0.342-  47 3.24  30 3.36  50 3.36   2 3.36  23 3.36
  18  0.612  0.612  0.658-  54 3.24  31 3.36  20 3.36  51 3.36  41 3.36
  19  0.446  0.328  0.583-   6 3.25  24 3.25  16 3.36   7 3.36  44 3.42  29 3.42
  20  0.672  0.554  0.583-  31 3.25  45 3.25  18 3.36   9 3.36  54 3.42  49 3.42
  21  0.558  0.442  0.418-  11 3.24   5 3.42   3 3.42  30 3.42  26 3.42
  22  0.328  0.446  0.417-   4 3.25  32 3.25   8 3.36  15 3.36  48 3.42  28 3.42
  23  0.554  0.672  0.417-  27 3.25  50 3.25  10 3.36  17 3.36  55 3.42  47 3.42
  24  0.554  0.328  0.583-   6 3.25  19 3.25  12 3.36   7 3.36  42 3.42  29 3.42
  25  0.328  0.554  0.583-  33 3.25  40 3.25  14 3.36   8 3.36  53 3.42  48 3.42
  26  0.672  0.446  0.417-   2 3.25  30 3.25   9 3.36  11 3.36  49 3.42  21 3.42
  27  0.446  0.672  0.417-  23 3.25  50 3.25  10 3.36  13 3.36  55 3.42  43 3.42
  28  0.442  0.442  0.418-  15 3.24   5 3.42   1 3.42  32 3.42  22 3.42
  29  0.500  0.384  0.500-   7 3.24   3 3.42   1 3.42  24 3.42  19 3.42
  30  0.617  0.500  0.340-   2 3.25  26 3.25  17 3.36  11 3.36  47 3.42  21 3.42
  31  0.617  0.500  0.660-  20 3.25  45 3.25  18 3.36  12 3.36  54 3.42  42 3.42
  32  0.383  0.500  0.340-   4 3.25  22 3.25  13 3.36  15 3.36  43 3.42  28 3.42
  33  0.383  0.500  0.660-  25 3.25  40 3.25  14 3.36  16 3.36  53 3.42  44 3.42
  34  0.383  0.383  0.500-
  35  0.617  0.617  0.500-
  36  0.617  0.383  0.500-
  37  0.383  0.617  0.500-  56 2.18
  38  0.500  0.500  0.335-
  39  0.500  0.500  0.665-
  40  0.328  0.446  0.583-  33 3.25  25 3.25  16 3.36   8 3.36  44 3.42  48 3.42
  41  0.554  0.672  0.583-  46 3.25  51 3.25  10 3.36  18 3.36  54 3.42  55 3.42
  42  0.558  0.442  0.582-  12 3.24   6 3.42  24 3.42  31 3.42  45 3.42
  43  0.442  0.558  0.418-  13 3.24   4 3.42  32 3.42  27 3.42  50 3.42
  44  0.442  0.442  0.582-  16 3.24   6 3.42  19 3.42  33 3.42  40 3.42
  45  0.672  0.446  0.583-  20 3.25  31 3.25   9 3.36  12 3.36  49 3.42  42 3.42
  46  0.446  0.672  0.583-  41 3.25  51 3.25  10 3.36  14 3.36  53 3.42  55 3.42
  47  0.558  0.558  0.418-  17 3.24   2 3.42  30 3.42  23 3.42  50 3.42
  48  0.384  0.500  0.500-   8 3.24   4 3.42  22 3.42  25 3.42  40 3.42
  49  0.616  0.500  0.500-   9 3.24   2 3.42  26 3.42  20 3.42  45 3.42
  50  0.500  0.617  0.340-  27 3.25  23 3.25  13 3.36  17 3.36  43 3.42  47 3.42
  51  0.500  0.617  0.660-  41 3.25  46 3.25  14 3.36  18 3.36  53 3.42  54 3.42
  52  0.500  0.500  0.500-
  53  0.442  0.558  0.582-  14 3.24  25 3.42  33 3.42  51 3.42  46 3.42
  54  0.558  0.558  0.582-  18 3.24  31 3.42  20 3.42  51 3.42  41 3.42
  55  0.500  0.616  0.500-  10 3.24  23 3.42  27 3.42  41 3.42  46 3.42
  56  0.321  0.622  0.462-  57 1.13  37 2.18   4 2.44
  57  0.291  0.642  0.456-  56 1.13
 
  LATTYP: Found a simple cubic cell.
 ALAT       =    30.0000000000
  
  Lattice vectors:
  
 A1 = (  30.0000000000,   0.0000000000,   0.0000000000)
 A2 = (   0.0000000000,  30.0000000000,   0.0000000000)
 A3 = (   0.0000000000,   0.0000000000,  30.0000000000)


Analysis of symmetry for initial positions (statically):
=====================================================================
 Subroutine PRICEL returns:
 Original cell was already a primitive cell.
 

 Routine SETGRP: Setting up the symmetry group for a 
 simple cubic supercell.


 Subroutine GETGRP returns: Found  1 space group operations
 (whereof  1 operations were pure point group operations)
 out of a pool of 48 trial point group operations.


The static configuration has the point symmetry C_1 .


Analysis of symmetry for dynamics (positions and initial velocities):
=====================================================================
 Subroutine PRICEL returns:
 Original cell was already a primitive cell.
 

 Routine SETGRP: Setting up the symmetry group for a 
 simple cubic supercell.


 Subroutine GETGRP returns: Found  1 space group operations
 (whereof  1 operations were pure point group operations)
 out of a pool of 48 trial point group operations.


The dynamic configuration has the point symmetry C_1 .


Analysis of constrained symmetry for selective dynamics:
=====================================================================
 Subroutine PRICEL returns:
 Original cell was already a primitive cell.
 

 Routine SETGRP: Setting up the symmetry group for a 
 simple cubic supercell.


 Subroutine GETGRP returns: Found  1 space group operations
 (whereof  1 operations were pure point group operations)
 out of a pool of 48 trial point group operations.


The constrained configuration has the point symmetry C_1 .


 Subroutine INISYM returns: Found  1 space group operations
 (whereof  1 operations are pure point group operations),
 and found     1 'primitive' translations

 
 
 KPOINTS: K-points                                

Automatic generation of k-mesh.
Space group operators:
 irot       det(A)        alpha          n_x          n_y          n_z        tau_x        tau_y        tau_z
    1     1.000000     0.000000     1.000000     0.000000     0.000000     0.000000     0.000000     0.000000
 
 Subroutine IBZKPT returns following result:
 ===========================================
 
 Found      1 irreducible k-points:
 
 Following reciprocal coordinates:
            Coordinates               Weight
  0.000000  0.000000  0.000000      1.000000
 
 Following cartesian coordinates:
            Coordinates               Weight
  0.000000  0.000000  0.000000      1.000000
 


--------------------------------------------------------------------------------------------------------




 Dimension of arrays:
   k-points           NKPTS =      1   k-points in BZ     NKDIM =      1   number of bands    NBANDS=    336
   number of dos      NEDOS =    301   number of ions     NIONS =     57
   non local maximal  LDIM  =      6   non local SUM 2l+1 LMDIM =     18
   total plane-waves  NPLWV = ******
   max r-space proj   IRMAX =   1847   max aug-charges    IRDMAX=   6262
   dimension x,y,z NGX =   150 NGY =  150 NGZ =  150
   dimension x,y,z NGXF=   300 NGYF=  300 NGZF=  300
   support grid    NGXF=   300 NGYF=  300 NGZF=  300
   ions per type =              55   1   1
   NGX,Y,Z   is equivalent  to a cutoff of   8.31,  8.31,  8.31 a.u.
   NGXF,Y,Z  is equivalent  to a cutoff of  16.62, 16.62, 16.62 a.u.

 SYSTEM =  6_Pd100_top_free_z(O)                   
 POSCAR =  Pd55PES                                 

 Startparameter for this run:
   NWRITE =      2    write-flag & timer
   PREC   = normal    normal or accurate (medium, high low for compatibility)
   ISTART =      0    job   : 0-new  1-cont  2-samecut
   ICHARG =      2    charge: 1-file 2-atom 10-const
   ISPIN  =      1    spin polarized calculation?
   LNONCOLLINEAR =      F non collinear calculations
   LSORBIT =      F    spin-orbit coupling
   INIWAV =      1    electr: 0-lowe 1-rand  2-diag
   LASPH  =      F    aspherical Exc in radial PAW
   METAGGA=      F    non-selfconsistent MetaGGA calc.

 Electronic Relaxation 1
   ENCUT  =  400.0 eV  29.40 Ry    5.42 a.u.  48.92 48.92 48.92*2*pi/ulx,y,z
   ENINI  =  400.0     initial cutoff
   ENAUG  =  644.9 eV  augmentation charge cutoff
   NELM   =    100;   NELMIN=  6; NELMDL= -5     # of ELM steps 
   EDIFF  = 0.1E-03   stopping-criterion for ELM
   LREAL  =      T    real-space projection
   NLSPLINE    = F    spline interpolate recip. space projectors
   LCOMPAT=      F    compatible to vasp.4.4
   GGA_COMPAT  = T    GGA compatible to vasp.4.4-vasp.4.6
   LMAXPAW     = -100 max onsite density
   LMAXMIX     =    2 max onsite mixed and CHGCAR
   VOSKOWN=      0    Vosko Wilk Nusair interpolation
   ROPT   =   -0.00050  -0.00050  -0.00050
 Ionic relaxation
   EDIFFG = -.5E-01   stopping-criterion for IOM
   NSW    =      0    number of steps for IOM
   NBLOCK =      1;   KBLOCK =      1    inner block; outer block 
   IBRION =     -1    ionic relax: 0-MD 1-quasi-New 2-CG
   NFREE  =      1    steps in history (QN), initial steepest desc. (CG)
   ISIF   =      2    stress and relaxation
   IWAVPR =     10    prediction:  0-non 1-charg 2-wave 3-comb
   ISYM   =      2    0-nonsym 1-usesym 2-fastsym
   LCORR  =      T    Harris-Foulkes like correction to forces

   POTIM  = 0.5000    time-step for ionic-motion
   TEIN   =    0.0    initial temperature
   TEBEG  =    0.0;   TEEND  =   0.0 temperature during run
   SMASS  =  -3.00    Nose mass-parameter (am)
   estimated Nose-frequenzy (Omega)   =  0.10E-29 period in steps =****** mass=  -0.206E-25a.u.
   SCALEE = 1.0000    scale energy and forces
   NPACO  =    256;   APACO  = 16.0  distance and # of slots for P.C.
   PSTRESS=    0.0 pullay stress

  Mass of Ions in am
   POMASS = 106.42 12.01 16.00
  Ionic Valenz
   ZVAL   =  10.00  4.00  6.00
  Atomic Wigner-Seitz radii
   RWIGS  =  -1.00 -1.00 -1.00
  virtual crystal weights 
   VCA    =   1.00  1.00  1.00
   NELECT =     560.0000    total number of electrons
   NUPDOWN=      -1.0000    fix difference up-down

 DOS related values:
   EMIN   =  10.00;   EMAX   =-10.00  energy-range for DOS
   EFERMI =   0.00
   ISMEAR =     2;   SIGMA  =   0.20  broadening in eV -4-tet -1-fermi 0-gaus

 Electronic relaxation 2 (details)
   IALGO  =     68    algorithm
   LDIAG  =      T    sub-space diagonalisation (order eigenvalues)
   LSUBROT=      F    optimize rotation matrix (better conditioning)
   TURBO    =      0    0=normal 1=particle mesh
   IRESTART =      0    0=no restart 2=restart with 2 vectors
   NREBOOT  =      0    no. of reboots
   NMIN     =      0    reboot dimension
   EREF     =   0.00    reference energy to select bands
   IMIX   =      4    mixing-type and parameters
     AMIX     =   0.40;   BMIX     =  1.00
     AMIX_MAG =   1.60;   BMIX_MAG =  1.00
     AMIN     =   0.10
     WC   =   100.;   INIMIX=   1;  MIXPRE=   1;  MAXMIX= -45

 Intra band minimization:
   WEIMIN = 0.0000     energy-eigenvalue tresh-hold
   EBREAK =  0.74E-07  absolut break condition
   DEPER  =   0.30     relativ break condition  

   TIME   =   0.40     timestep for ELM

  volume/ion in A,a.u.               =     473.68      3196.58
  Fermi-wavevector in a.u.,A,eV,Ry     =   0.449797  0.849992  2.752691  0.202317
  Thomas-Fermi vector in A             =   1.430086
 
 Write flags
   LWAVE        =      F    write WAVECAR
   LDOWNSAMPLE  =      F    k-point downsampling of WAVECAR
   LCHARG       =      F    write CHGCAR
   LVTOT        =      F    write LOCPOT, total local potential
   LVHAR        =      F    write LOCPOT, Hartree potential only
   LELF         =      F    write electronic localiz. function (ELF)
   LORBIT       =      0    0 simple, 1 ext, 2 COOP (PROOUT), +10 PAW based schemes


 Dipole corrections
   LMONO  =      F    monopole corrections only (constant potential shift)
   LDIPOL =      F    correct potential (dipole corrections)
   IDIPOL =      0    1-x, 2-y, 3-z, 4-all directions 
   EPSILON=  1.0000000 bulk dielectric constant

 Exchange correlation treatment:
   GGA     =    RP    GGA type
   LEXCH   =     9    internal setting for exchange type
   VOSKOWN=      0    Vosko Wilk Nusair interpolation
   LHFCALC =     F    Hartree Fock is set to
   LHFONE  =     F    Hartree Fock one center treatment
   AEXX    =    0.0000 exact exchange contribution

 Linear response parameters
   LEPSILON=     F    determine dielectric tensor
   LRPA    =     F    only Hartree local field effects (RPA)
   LNABLA  =     F    use nabla operator in PAW spheres
   LVEL    =     F    velocity operator in full k-point grid
   LINTERFAST=   F  fast interpolation
   KINTER  =     0    interpolate to denser k-point grid
   CSHIFT  =0.1000    complex shift for real part using Kramers Kronig
   OMEGAMAX=  -1.0    maximum frequency
   DEG_THRESHOLD= 0.2000000E-02 threshold for treating states as degnerate
   RTIME   =   -0.100 relaxation time in fs
  (WPLASMAI=    0.000 imaginary part of plasma frequency in eV, 0.658/RTIME)
   DFIELD  = 0.0000000 0.0000000 0.0000000 field for delta impulse in time
 
 Orbital magnetization related:
   ORBITALMAG=     F  switch on orbital magnetization
   LCHIMAG   =     F  perturbation theory with respect to B field
   DQ        =  0.001000  dq finite difference perturbation B field
   LLRAUG    =     F  two centre corrections for induced B field



--------------------------------------------------------------------------------------------------------


 Static calculation
 charge density and potential will be updated during run
 non-spin polarized calculation
 RMM-DIIS sequential band-by-band and
  variant of blocked Davidson during initial phase
 perform sub-space diagonalisation
    before iterative eigenvector-optimisation
 modified Broyden-mixing scheme, WC =      100.0
 initial mixing is a Kerker type mixing with AMIX =  0.4000 and BMIX =      1.0000
 Hartree-type preconditioning will be used
 using additional bands           56
 real space projection scheme for non local part
 use partial core corrections
 calculate Harris-corrections to forces 
   (improved forces if not selfconsistent)
 use gradient corrections 
 use of overlap-Matrix (Vanderbilt PP)
 Methfessel and Paxton  Order N= 2 SIGMA  =   0.20


--------------------------------------------------------------------------------------------------------


  energy-cutoff  :      400.00
  volume of cell :    27000.00
      direct lattice vectors                 reciprocal lattice vectors
    30.000000000  0.000000000  0.000000000     0.033333333  0.000000000  0.000000000
     0.000000000 30.000000000  0.000000000     0.000000000  0.033333333  0.000000000
     0.000000000  0.000000000 30.000000000     0.000000000  0.000000000  0.033333333

  length of vectors
    30.000000000 30.000000000 30.000000000     0.033333333  0.033333333  0.033333333


 
 k-points in units of 2pi/SCALE and weight: K-points                                
   0.00000000  0.00000000  0.00000000       1.000
 
 k-points in reciprocal lattice and weights: K-points                                
   0.00000000  0.00000000  0.00000000       1.000
 
 position of ions in fractional coordinates (direct lattice) 
   0.44576020  0.32826710  0.41691983
   0.67173288  0.55423978  0.41691983
   0.55423980  0.32826710  0.41691983
   0.32826712  0.55423978  0.41691983
   0.50000000  0.38250690  0.34021317
   0.50000000  0.38250690  0.65978680
   0.50000000  0.27609440  0.50000000
   0.27609443  0.49999998  0.50000000
   0.72390557  0.49999998  0.50000000
   0.50000000  0.72390555  0.50000000
   0.61195280  0.38804720  0.34167483
   0.61195280  0.38804720  0.65832513
   0.38804722  0.61195278  0.34167483
   0.38804722  0.61195278  0.65832513
   0.38804720  0.38804720  0.34167483
   0.38804720  0.38804720  0.65832513
   0.61195278  0.61195278  0.34167483
   0.61195278  0.61195278  0.65832513
   0.44576020  0.32826710  0.58308023
   0.67173288  0.55423978  0.58308023
   0.55791699  0.44208301  0.41809300
   0.32826705  0.44576024  0.41691983
   0.55423973  0.67173293  0.41691983
   0.55423980  0.32826710  0.58308023
   0.32826712  0.55423978  0.58308023
   0.67173295  0.44576024  0.41691983
   0.44576027  0.67173293  0.41691983
   0.44208301  0.44208301  0.41809300
   0.50000000  0.38416601  0.50000000
   0.61749315  0.50000005  0.34021317
   0.61749315  0.50000005  0.65978680
   0.38250685  0.50000005  0.34021317
   0.38250685  0.50000005  0.65978680
   0.38317830  0.38317830  0.50000000
   0.61682172  0.61682172  0.50000000
   0.61682170  0.38317830  0.50000000
   0.38317828  0.61682172  0.50000000
   0.50000000  0.50000000  0.33478917
   0.50000000  0.50000000  0.66521087
   0.32826705  0.44576024  0.58308023
   0.55423973  0.67173293  0.58308023
   0.55791699  0.44208301  0.58190703
   0.44208298  0.55791702  0.41809300
   0.44208301  0.44208301  0.58190703
   0.67173295  0.44576024  0.58308023
   0.44576027  0.67173293  0.58308023
   0.55791702  0.55791702  0.41809300
   0.38416599  0.50000002  0.50000000
   0.61583401  0.50000002  0.50000000
   0.50000000  0.61749319  0.34021317
   0.50000000  0.61749319  0.65978680
   0.50000000  0.50000000  0.50000000
   0.44208298  0.55791702  0.58190703
   0.55791702  0.55791702  0.58190703
   0.50000000  0.61583404  0.50000000
   0.32116360  0.62153710  0.46226250
   0.29052843  0.64235673  0.45579797
 
 position of ions in cartesian coordinates  (Angst):
  13.37280588  9.84801292 12.50759500
  20.15198637 16.62719342 12.50759500
  16.62719412  9.84801292 12.50759500
   9.84801363 16.62719342 12.50759500
  15.00000000 11.47520705 10.20639500
  15.00000000 11.47520705 19.79360400
  15.00000000  8.28283206 15.00000000
   8.28283277 14.99999929 15.00000000
  21.71716723 14.99999929 15.00000000
  15.00000000 21.71716652 14.99999999
  18.35858397 11.64141603 10.25024500
  18.35858397 11.64141603 19.74975399
  11.64141674 18.35858326 10.25024500
  11.64141674 18.35858326 19.74975400
  11.64141603 11.64141603 10.25024500
  11.64141603 11.64141603 19.74975400
  18.35858326 18.35858326 10.25024500
  18.35858326 18.35858326 19.74975400
  13.37280588  9.84801291 17.49240700
  20.15198638 16.62719341 17.49240700
  16.73750985 13.26249015 12.54279000
   9.84801151 13.37280729 12.50759500
  16.62719200 20.15198779 12.50759500
  16.62719412  9.84801292 17.49240700
   9.84801363 16.62719342 17.49240700
  20.15198849 13.37280729 12.50759500
  13.37280800 20.15198779 12.50759500
  13.26249015 13.26249015 12.54279000
  15.00000000 11.52498029 15.00000000
  18.52479437 15.00000140 10.20639500
  18.52479437 15.00000141 19.79360400
  11.47520562 15.00000141 10.20639501
  11.47520563 15.00000141 19.79360400
  11.49534898 11.49534898 15.00000000
  18.50465172 18.50465172 15.00000000
  18.50465102 11.49534898 15.00000000
  11.49534828 18.50465172 15.00000000
  15.00000000 15.00000000 10.04367500
  15.00000000 15.00000000 19.95632599
   9.84801151 13.37280729 17.49240700
  16.62719200 20.15198779 17.49240700
  16.73750985 13.26249015 17.45721100
  13.26248944 16.73751056 12.54279001
  13.26249015 13.26249015 17.45721100
  20.15198849 13.37280729 17.49240699
  13.37280800 20.15198779 17.49240700
  16.73751056 16.73751056 12.54279000
  11.52497959 15.00000071 15.00000000
  18.47502041 15.00000071 15.00000000
  14.99999999 18.52479579 10.20639500
  15.00000000 18.52479578 19.79360400
  15.00000000 15.00000000 15.00000000
  13.26248944 16.73751057 17.45721101
  16.73751056 16.73751057 17.45721100
  15.00000000 18.47502112 15.00000000
   9.63490800 18.64611300 13.86787500
   8.71585300 19.27070200 13.67393900
 


--------------------------------------------------------------------------------------------------------


 k-point  1 :   0.0000 0.0000 0.0000  plane waves:  490521

 maximum and minimum number of plane-waves per node :    490521   490521

 maximum number of plane-waves:    490521
 maximum index in each direction: 
   IXMAX=   48   IYMAX=   48   IZMAX=   48
   IXMIN=  -48   IYMIN=  -48   IZMIN=  -48


 serial   3D FFT for wavefunctions
 parallel 3D FFT for charge:
    minimum data exchange during FFTs selected (reduces bandwidth)


 total amount of memory used by VASP MPI-rank0  5486942. kBytes
=======================================================================

   base      :      30000. kBytes
   nonlr-proj:      17127. kBytes
   fftplans  :     924480. kBytes
   grid      :    1872000. kBytes
   one-center:        886. kBytes
   wavefun   :    2642449. kBytes
 
     INWAV:  cpu time    0.0003: real time    0.0007
 Broyden mixing: mesh for mixing (old mesh)
   NGX = 97   NGY = 97   NGZ = 97
  (NGX  =300   NGY  =300   NGZ  =300)
  gives a total of 912673 points

 initial charge density was supplied:
 charge density of overlapping atoms calculated
 number of electron     560.0000000 magnetization 
 keeping initial charge density in first step


--------------------------------------------------------------------------------------------------------


 Maximum index for non-local projection operator         1763
 Maximum index for augmentation-charges         5898 (set IRDMAX)


--------------------------------------------------------------------------------------------------------


 First call to EWALD:  gamma=   0.059
 Maximum number of real-space cells 3x 3x 3
 Maximum number of reciprocal cells 3x 3x 3

    FEWALD:  cpu time    0.0179: real time    0.0179


--------------------------------------- Iteration      1(   1)  ---------------------------------------


    POTLOK:  cpu time   21.6794: real time   21.6860
    SETDIJ:  cpu time    0.1389: real time    0.1389
     EDDAV:  cpu time  519.7296: real time  519.9528
       DOS:  cpu time    0.0015: real time    0.0015
    --------------------------------------------
      LOOP:  cpu time  541.5494: real time  541.7792

 eigenvalue-minimisations  :   688
 total energy-change (2. order) : 0.4387901E+04  (-0.1005093E+05)
 number of electron     560.0000000 magnetization 
 augmentation part      560.0000000 magnetization 

 Free energy of the ion-electron system (eV)
  ---------------------------------------------------
  alpha Z        PSCENC =        75.25431677
  Ewald energy   TEWEN  =    138938.08218643
  -Hartree energ DENC   =   -182300.54903774
  -exchange      EXHF   =         0.00000000
  -V(xc)+E(xc)   XCENC  =     -1703.05757287
  PAW double counting   =     44873.02882129   -41398.84523641
  entropy T*S    EENTRO =        -0.00854567
  eigenvalues    EBANDS =       817.49082492
  atomic energy  EATOM  =     45086.50549395
  Solvation  Ediel_sol  =         0.00000000
  ---------------------------------------------------
  free energy    TOTEN  =      4387.90125067 eV

  energy without entropy =     4387.90979635  energy(sigma->0) =     4387.90338709


--------------------------------------------------------------------------------------------------------




--------------------------------------- Iteration      1(   2)  ---------------------------------------


     EDDAV:  cpu time  834.5621: real time  834.6908
       DOS:  cpu time    0.0015: real time    0.0015
    --------------------------------------------
      LOOP:  cpu time  834.5635: real time  834.6923

 eigenvalue-minimisations  :  1208
 total energy-change (2. order) :-0.2361289E+04  (-0.2118989E+04)
 number of electron     560.0000000 magnetization 
 augmentation part      560.0000000 magnetization 

 Free energy of the ion-electron system (eV)
  ---------------------------------------------------
  alpha Z        PSCENC =        75.25431677
  Ewald energy   TEWEN  =    138938.08218643
  -Hartree energ DENC   =   -182300.54903774
  -exchange      EXHF   =         0.00000000
  -V(xc)+E(xc)   XCENC  =     -1703.05757287
  PAW double counting   =     44873.02882129   -41398.84523641
  entropy T*S    EENTRO =        -0.05039534
  eigenvalues    EBANDS =     -1543.75654658
  atomic energy  EATOM  =     45086.50549395
  Solvation  Ediel_sol  =         0.00000000
  ---------------------------------------------------
  free energy    TOTEN  =      2026.61202950 eV

  energy without entropy =     2026.66242484  energy(sigma->0) =     2026.62462834


--------------------------------------------------------------------------------------------------------




--------------------------------------- Iteration      1(   3)  ---------------------------------------


     EDDAV:  cpu time  680.5556: real time  680.6611
       DOS:  cpu time    0.0013: real time    0.0013
    --------------------------------------------
      LOOP:  cpu time  680.5569: real time  680.6624

 eigenvalue-minimisations  :  1024
 total energy-change (2. order) :-0.1788865E+04  (-0.1680235E+04)
 number of electron     560.0000000 magnetization 
 augmentation part      560.0000000 magnetization 

 Free energy of the ion-electron system (eV)
  ---------------------------------------------------
  alpha Z        PSCENC =        75.25431677
  Ewald energy   TEWEN  =    138938.08218643
  -Hartree energ DENC   =   -182300.54903774
  -exchange      EXHF   =         0.00000000
  -V(xc)+E(xc)   XCENC  =     -1703.05757287
  PAW double counting   =     44873.02882129   -41398.84523641
  entropy T*S    EENTRO =         0.00381302
  eigenvalues    EBANDS =     -3332.67587053
  atomic energy  EATOM  =     45086.50549395
  Solvation  Ediel_sol  =         0.00000000
  ---------------------------------------------------
  free energy    TOTEN  =       237.74691392 eV

  energy without entropy =      237.74310090  energy(sigma->0) =      237.74596066


--------------------------------------------------------------------------------------------------------




--------------------------------------- Iteration      1(   4)  ---------------------------------------


     EDDAV:  cpu time  641.7121: real time  641.8101
       DOS:  cpu time    0.0014: real time    0.0014
    --------------------------------------------
      LOOP:  cpu time  641.7135: real time  641.8115

 eigenvalue-minimisations  :   832
 total energy-change (2. order) :-0.3712844E+03  (-0.3165448E+03)
 number of electron     560.0000000 magnetization 
 augmentation part      560.0000000 magnetization 

 Free energy of the ion-electron system (eV)
  ---------------------------------------------------
  alpha Z        PSCENC =        75.25431677
  Ewald energy   TEWEN  =    138938.08218643
  -Hartree energ DENC   =   -182300.54903774
  -exchange      EXHF   =         0.00000000
  -V(xc)+E(xc)   XCENC  =     -1703.05757287
  PAW double counting   =     44873.02882129   -41398.84523641
  entropy T*S    EENTRO =        -0.00955875
  eigenvalues    EBANDS =     -3703.94690559
  atomic energy  EATOM  =     45086.50549395
  Solvation  Ediel_sol  =         0.00000000
  ---------------------------------------------------
  free energy    TOTEN  =      -133.53749291 eV

  energy without entropy =     -133.52793417  energy(sigma->0) =     -133.53510323


--------------------------------------------------------------------------------------------------------




--------------------------------------- Iteration      1(   5)  ---------------------------------------


     EDDAV:  cpu time  700.6101: real time  700.7095
       DOS:  cpu time    0.0016: real time    0.0016
    CHARGE:  cpu time   28.8295: real time   28.8329
    MIXING:  cpu time    0.4753: real time    0.4754
    --------------------------------------------
      LOOP:  cpu time  729.9165: real time  730.0194

 eigenvalue-minimisations  :  1056
 total energy-change (2. order) :-0.4612478E+02  (-0.3824360E+02)
 number of electron     559.9999862 magnetization 
 augmentation part      245.0322555 magnetization 

 Broyden mixing:
  rms(total) = 0.14419E+01    rms(broyden)= 0.14410E+01
  rms(prec ) = 0.15468E+01
  weight for this iteration     100.00

 Free energy of the ion-electron system (eV)
  ---------------------------------------------------
  alpha Z        PSCENC =        75.25431677
  Ewald energy   TEWEN  =    138938.08218643
  -Hartree energ DENC   =   -182300.54903774
  -exchange      EXHF   =         0.00000000
  -V(xc)+E(xc)   XCENC  =     -1703.05757287
  PAW double counting   =     44873.02882129   -41398.84523641
  entropy T*S    EENTRO =         0.52429773
  eigenvalues    EBANDS =     -3750.60554087
  atomic energy  EATOM  =     45086.50549395
  Solvation  Ediel_sol  =         0.00000000
  ---------------------------------------------------
  free energy    TOTEN  =      -179.66227171 eV

  energy without entropy =     -180.18656944  energy(sigma->0) =     -179.79334614


--------------------------------------------------------------------------------------------------------




--------------------------------------- Iteration      1(   6)  ---------------------------------------


    POTLOK:  cpu time   14.8274: real time   14.8315
    SETDIJ:  cpu time    0.1335: real time    0.1335
    EDDIAG:  cpu time   93.6260: real time   93.6399
  RMM-DIIS:  cpu time  254.4718: real time  254.5106
    ORTHCH:  cpu time   26.2580: real time   26.2617
       DOS:  cpu time    0.0017: real time    0.0017
    CHARGE:  cpu time   31.4716: real time   31.4803
    MIXING:  cpu time    0.5259: real time    0.5259
    --------------------------------------------
      LOOP:  cpu time  421.3158: real time  421.3852

 eigenvalue-minimisations  :   731
 total energy-change (2. order) :-0.5644830E+00  (-0.5737900E+01)
 number of electron     559.9999880 magnetization 
 augmentation part      240.4851422 magnetization 

 Broyden mixing:
  rms(total) = 0.23287E+01    rms(broyden)= 0.23285E+01
  rms(prec ) = 0.26823E+01
  weight for this iteration     100.00

 eigenvalues of (default mixing * dielectric matrix)
  average eigenvalue GAMMA=   0.3222
  0.3222

 Free energy of the ion-electron system (eV)
  ---------------------------------------------------
  alpha Z        PSCENC =        75.25431677
  Ewald energy   TEWEN  =    138938.08218643
  -Hartree energ DENC   =   -182698.09389172
  -exchange      EXHF   =         0.00000000
  -V(xc)+E(xc)   XCENC  =     -1696.81583932
  PAW double counting   =     45621.63488977   -42120.93141360
  entropy T*S    EENTRO =        -0.29520173
  eigenvalues    EBANDS =     -3385.56729522
  atomic energy  EATOM  =     45086.50549395
  Solvation  Ediel_sol  =         0.00000000
  ---------------------------------------------------
  free energy    TOTEN  =      -180.22675467 eV

  energy without entropy =     -179.93155294  energy(sigma->0) =     -180.15295424


--------------------------------------------------------------------------------------------------------




--------------------------------------- Iteration      1(   7)  ---------------------------------------


    POTLOK:  cpu time   16.8578: real time   16.8623
    SETDIJ:  cpu time    0.1354: real time    0.1355
    EDDIAG:  cpu time   97.8991: real time   97.9139
  RMM-DIIS:  cpu time  303.4674: real time  303.5231
    ORTHCH:  cpu time   26.5339: real time   26.5378
       DOS:  cpu time    0.0018: real time    0.0017
    CHARGE:  cpu time   32.7911: real time   32.7957
    MIXING:  cpu time    0.5779: real time    0.5780
    --------------------------------------------
      LOOP:  cpu time  478.2644: real time  478.3480

 eigenvalue-minimisations  :   852
 total energy-change (2. order) :-0.1065801E+01  (-0.2017133E+01)
 number of electron     559.9999863 magnetization 
 augmentation part      240.6711637 magnetization 

 Broyden mixing:
  rms(total) = 0.20854E+01    rms(broyden)= 0.20851E+01
  rms(prec ) = 0.24956E+01
  weight for this iteration     100.00

 eigenvalues of (default mixing * dielectric matrix)
  average eigenvalue GAMMA=   0.3164
  0.4781  0.1546

 Free energy of the ion-electron system (eV)
  ---------------------------------------------------
  alpha Z        PSCENC =        75.25431677
  Ewald energy   TEWEN  =    138938.08218643
  -Hartree energ DENC   =   -182783.53879822
  -exchange      EXHF   =         0.00000000
  -V(xc)+E(xc)   XCENC  =     -1697.05791014
  PAW double counting   =     45685.41772521   -42182.31593023
  entropy T*S    EENTRO =        -0.00564211
  eigenvalues    EBANDS =     -3303.63399693
  atomic energy  EATOM  =     45086.50549395
  Solvation  Ediel_sol  =         0.00000000
  ---------------------------------------------------
  free energy    TOTEN  =      -181.29255527 eV

  energy without entropy =     -181.28691317  energy(sigma->0) =     -181.29114474


--------------------------------------------------------------------------------------------------------




--------------------------------------- Iteration      1(   8)  ---------------------------------------


    POTLOK:  cpu time   17.2894: real time   17.2933
    SETDIJ:  cpu time    0.1325: real time    0.1325
    EDDIAG:  cpu time   91.6404: real time   91.6525
  RMM-DIIS:  cpu time  234.1290: real time  234.1641
    ORTHCH:  cpu time   25.1152: real time   25.1179
       DOS:  cpu time    0.0017: real time    0.0017
    CHARGE:  cpu time   29.4971: real time   29.5010
    MIXING:  cpu time    0.5838: real time    0.5839
    --------------------------------------------
      LOOP:  cpu time  398.3891: real time  398.4469

 eigenvalue-minimisations  :   796
 total energy-change (2. order) :-0.2598506E+01  (-0.6470877E+00)
 number of electron     559.9999859 magnetization 
 augmentation part      240.1972076 magnetization 

 Broyden mixing:
  rms(total) = 0.25515E+01    rms(broyden)= 0.25512E+01
  rms(prec ) = 0.30383E+01
  weight for this iteration     100.00

 eigenvalues of (default mixing * dielectric matrix)
  average eigenvalue GAMMA=   0.3041
  0.6333  0.1395  0.1395

 Free energy of the ion-electron system (eV)
  ---------------------------------------------------
  alpha Z        PSCENC =        75.25431677
  Ewald energy   TEWEN  =    138938.08218643
  -Hartree energ DENC   =   -182827.41655861
  -exchange      EXHF   =         0.00000000
  -V(xc)+E(xc)   XCENC  =     -1697.00189958
  PAW double counting   =     45749.44968210   -42243.69705546
  entropy T*S    EENTRO =        -0.15257805
  eigenvalues    EBANDS =     -3264.91464862
  atomic energy  EATOM  =     45086.50549395
  Solvation  Ediel_sol  =         0.00000000
  ---------------------------------------------------
  free energy    TOTEN  =      -183.89106106 eV

  energy without entropy =     -183.73848301  energy(sigma->0) =     -183.85291655


--------------------------------------------------------------------------------------------------------




--------------------------------------- Iteration      1(   9)  ---------------------------------------


    POTLOK:  cpu time   14.8941: real time   14.8965
    SETDIJ:  cpu time    0.1327: real time    0.1327
    EDDIAG:  cpu time   91.1569: real time   91.1695
  RMM-DIIS:  cpu time  225.6171: real time  225.6498
    ORTHCH:  cpu time   25.8641: real time   25.8677
       DOS:  cpu time    0.0017: real time    0.0017
    CHARGE:  cpu time   31.9293: real time   31.9328
    MIXING:  cpu time    0.6828: real time    0.6828
    --------------------------------------------
      LOOP:  cpu time  390.2786: real time  390.3335

 eigenvalue-minimisations  :   735
 total energy-change (2. order) : 0.1829175E+01  (-0.4679770E+00)
 number of electron     559.9999842 magnetization 
 augmentation part      241.0630123 magnetization 

 Broyden mixing:
  rms(total) = 0.23980E+01    rms(broyden)= 0.23977E+01
  rms(prec ) = 0.27437E+01
  weight for this iteration     100.00

 eigenvalues of (default mixing * dielectric matrix)
  average eigenvalue GAMMA=   0.2916
  0.7463  0.1619  0.1619  0.0964

 Free energy of the ion-electron system (eV)
  ---------------------------------------------------
  alpha Z        PSCENC =        75.25431677
  Ewald energy   TEWEN  =    138938.08218643
  -Hartree energ DENC   =   -182848.10169232
  -exchange      EXHF   =         0.00000000
  -V(xc)+E(xc)   XCENC  =     -1696.96436135
  PAW double counting   =     45808.01441239   -42299.90012529
  entropy T*S    EENTRO =        -0.15525123
  eigenvalues    EBANDS =     -3244.79686555
  atomic energy  EATOM  =     45086.50549395
  Solvation  Ediel_sol  =         0.00000000
  ---------------------------------------------------
  free energy    TOTEN  =      -182.06188620 eV

  energy without entropy =     -181.90663497  energy(sigma->0) =     -182.02307339


--------------------------------------------------------------------------------------------------------




--------------------------------------- Iteration      1(  10)  ---------------------------------------


    POTLOK:  cpu time   17.0606: real time   17.0632
    SETDIJ:  cpu time    0.1360: real time    0.1360
    EDDIAG:  cpu time   97.2475: real time   97.2608
  RMM-DIIS:  cpu time  221.7256: real time  221.7586
    ORTHCH:  cpu time   25.1867: real time   25.1889
       DOS:  cpu time    0.0017: real time    0.0017
    CHARGE:  cpu time   29.2235: real time   29.2261
    MIXING:  cpu time    0.7438: real time    0.7440
    --------------------------------------------
      LOOP:  cpu time  391.3253: real time  391.3793

 eigenvalue-minimisations  :   730
 total energy-change (2. order) : 0.2818600E+01  (-0.3083862E+00)
 number of electron     559.9999861 magnetization 
 augmentation part      241.4912001 magnetization 

 Broyden mixing:
  rms(total) = 0.17927E+01    rms(broyden)= 0.17924E+01
  rms(prec ) = 0.20800E+01
  weight for this iteration     100.00

 eigenvalues of (default mixing * dielectric matrix)
  average eigenvalue GAMMA=   0.2856
  0.8378  0.1972  0.1972  0.0980  0.0980

 Free energy of the ion-electron system (eV)
  ---------------------------------------------------
  alpha Z        PSCENC =        75.25431677
  Ewald energy   TEWEN  =    138938.08218643
  -Hartree energ DENC   =   -182877.40879606
  -exchange      EXHF   =         0.00000000
  -V(xc)+E(xc)   XCENC  =     -1696.80618770
  PAW double counting   =     45857.60119559   -42347.49635719
  entropy T*S    EENTRO =        -0.05218800
  eigenvalues    EBANDS =     -3214.92294995
  atomic energy  EATOM  =     45086.50549395
  Solvation  Ediel_sol  =         0.00000000
  ---------------------------------------------------
  free energy    TOTEN  =      -179.24328617 eV

  energy without entropy =     -179.19109817  energy(sigma->0) =     -179.23023917


--------------------------------------------------------------------------------------------------------




--------------------------------------- Iteration      1(  11)  ---------------------------------------


    POTLOK:  cpu time   16.6290: real time   16.6311
    SETDIJ:  cpu time    0.1468: real time    0.1468
    EDDIAG:  cpu time   95.8000: real time   95.8117
  RMM-DIIS:  cpu time  248.1782: real time  248.2032
    ORTHCH:  cpu time   26.6827: real time   26.6844
       DOS:  cpu time    0.0018: real time    0.0018
    CHARGE:  cpu time   36.2282: real time   36.2306
    MIXING:  cpu time    0.7263: real time    0.7264
    --------------------------------------------
      LOOP:  cpu time  424.3930: real time  424.4359

 eigenvalue-minimisations  :   728
 total energy-change (2. order) : 0.8005604E+00  (-0.1874923E+00)
 number of electron     559.9999885 magnetization 
 augmentation part      241.5989411 magnetization 

 Broyden mixing:
  rms(total) = 0.18156E+01    rms(broyden)= 0.18153E+01
  rms(prec ) = 0.22107E+01
  weight for this iteration     100.00

 eigenvalues of (default mixing * dielectric matrix)
  average eigenvalue GAMMA=   0.2699
  0.8853  0.2233  0.2233  0.1046  0.1046  0.0785

 Free energy of the ion-electron system (eV)
  ---------------------------------------------------
  alpha Z        PSCENC =        75.25431677
  Ewald energy   TEWEN  =    138938.08218643
  -Hartree energ DENC   =   -182899.58603860
  -exchange      EXHF   =         0.00000000
  -V(xc)+E(xc)   XCENC  =     -1696.57774052
  PAW double counting   =     45900.49003896   -42388.49714409
  entropy T*S    EENTRO =         0.00048137
  eigenvalues    EBANDS =     -3194.11432001
  atomic energy  EATOM  =     45086.50549395
  Solvation  Ediel_sol  =         0.00000000
  ---------------------------------------------------
  free energy    TOTEN  =      -178.44272574 eV

  energy without entropy =     -178.44320711  energy(sigma->0) =     -178.44284608


--------------------------------------------------------------------------------------------------------




--------------------------------------- Iteration      1(  12)  ---------------------------------------


    POTLOK:  cpu time   17.6919: real time   17.6937
    SETDIJ:  cpu time    0.1351: real time    0.1351
    EDDIAG:  cpu time  102.9718: real time  102.9807
  RMM-DIIS:  cpu time  278.0642: real time  278.0872
    ORTHCH:  cpu time   27.6574: real time   27.6592
       DOS:  cpu time    0.0018: real time    0.0018
    CHARGE:  cpu time   36.5223: real time   36.5248
    MIXING:  cpu time    0.9564: real time    0.9565
    --------------------------------------------
      LOOP:  cpu time  464.0011: real time  464.0391

 eigenvalue-minimisations  :   733
 total energy-change (2. order) : 0.8189608E+00  (-0.1055634E+00)
 number of electron     559.9999876 magnetization 
 augmentation part      241.6815669 magnetization 

 Broyden mixing:
  rms(total) = 0.16777E+01    rms(broyden)= 0.16773E+01
  rms(prec ) = 0.20004E+01
  weight for this iteration     100.00

 eigenvalues of (default mixing * dielectric matrix)
  average eigenvalue GAMMA=   0.2586
  0.9309  0.2467  0.2467  0.1130  0.1078  0.1078  0.0570

 Free energy of the ion-electron system (eV)
  ---------------------------------------------------
  alpha Z        PSCENC =        75.25431677
  Ewald energy   TEWEN  =    138938.08218643
  -Hartree energ DENC   =   -182916.58052703
  -exchange      EXHF   =         0.00000000
  -V(xc)+E(xc)   XCENC  =     -1696.38405266
  PAW double counting   =     45928.65256320   -42415.35318808
  entropy T*S    EENTRO =        -0.04727401
  eigenvalues    EBANDS =     -3177.75328352
  atomic energy  EATOM  =     45086.50549395
  Solvation  Ediel_sol  =         0.00000000
  ---------------------------------------------------
  free energy    TOTEN  =      -177.62376494 eV

  energy without entropy =     -177.57649092  energy(sigma->0) =     -177.61194643


--------------------------------------------------------------------------------------------------------




--------------------------------------- Iteration      1(  13)  ---------------------------------------


    POTLOK:  cpu time   20.4245: real time   20.4280
    SETDIJ:  cpu time    0.1376: real time    0.1376
    EDDIAG:  cpu time  108.1100: real time  108.1219
  RMM-DIIS:  cpu time  270.6331: real time  270.6629
    ORTHCH:  cpu time   25.7943: real time   25.7961
       DOS:  cpu time    0.0017: real time    0.0017
    CHARGE:  cpu time   29.0065: real time   29.0083
    MIXING:  cpu time    0.8421: real time    0.8422
    --------------------------------------------
      LOOP:  cpu time  454.9498: real time  454.9987

 eigenvalue-minimisations  :   724
 total energy-change (2. order) : 0.9905355E+00  (-0.9180626E-01)
 number of electron     559.9999877 magnetization 
 augmentation part      241.6602532 magnetization 

 Broyden mixing:
  rms(total) = 0.11083E+01    rms(broyden)= 0.11080E+01
  rms(prec ) = 0.12686E+01
  weight for this iteration     100.00

 eigenvalues of (default mixing * dielectric matrix)
  average eigenvalue GAMMA=   0.2750
  1.0672  0.3070  0.3070  0.1280  0.1280  0.1042  0.1042  0.0545

 Free energy of the ion-electron system (eV)
  ---------------------------------------------------
  alpha Z        PSCENC =        75.25431677
  Ewald energy   TEWEN  =    138938.08218643
  -Hartree energ DENC   =   -182935.64207327
  -exchange      EXHF   =         0.00000000
  -V(xc)+E(xc)   XCENC  =     -1696.15720485
  PAW double counting   =     45956.05940905   -42441.44696019
  entropy T*S    EENTRO =        -0.06263296
  eigenvalues    EBANDS =     -3159.22576437
  atomic energy  EATOM  =     45086.50549395
  Solvation  Ediel_sol  =         0.00000000
  ---------------------------------------------------
  free energy    TOTEN  =      -176.63322944 eV

  energy without entropy =     -176.57059648  energy(sigma->0) =     -176.61757120


--------------------------------------------------------------------------------------------------------




--------------------------------------- Iteration      1(  14)  ---------------------------------------


    POTLOK:  cpu time   15.7780: real time   15.7808
    SETDIJ:  cpu time    0.1342: real time    0.1342
    EDDIAG:  cpu time   94.6856: real time   94.6926
  RMM-DIIS:  cpu time  221.2626: real time  221.2806
    ORTHCH:  cpu time   25.6753: real time   25.6769
       DOS:  cpu time    0.0017: real time    0.0017
    CHARGE:  cpu time   30.0603: real time   30.0621
    MIXING:  cpu time    0.7666: real time    0.7667
    --------------------------------------------
      LOOP:  cpu time  388.3642: real time  388.3955

 eigenvalue-minimisations  :   714
 total energy-change (2. order) : 0.9602876E-01  (-0.1165066E+00)
 number of electron     559.9999844 magnetization 
 augmentation part      241.6067885 magnetization 

 Broyden mixing:
  rms(total) = 0.13659E+01    rms(broyden)= 0.13655E+01
  rms(prec ) = 0.15720E+01
  weight for this iteration     100.00

 eigenvalues of (default mixing * dielectric matrix)
  average eigenvalue GAMMA=   0.2940
  1.2163  0.5358  0.2386  0.1357  0.1357  0.1196  0.1056  0.1056  0.0529

 Free energy of the ion-electron system (eV)
  ---------------------------------------------------
  alpha Z        PSCENC =        75.25431677
  Ewald energy   TEWEN  =    138938.08218643
  -Hartree energ DENC   =   -182970.28749833
  -exchange      EXHF   =         0.00000000
  -V(xc)+E(xc)   XCENC  =     -1695.61771128
  PAW double counting   =     46013.69012894   -42496.14649411
  entropy T*S    EENTRO =        -0.03824711
  eigenvalues    EBANDS =     -3127.97937594
  atomic energy  EATOM  =     45086.50549395
  Solvation  Ediel_sol  =         0.00000000
  ---------------------------------------------------
  free energy    TOTEN  =      -176.53720068 eV

  energy without entropy =     -176.49895357  energy(sigma->0) =     -176.52763890


--------------------------------------------------------------------------------------------------------




--------------------------------------- Iteration      1(  15)  ---------------------------------------


    POTLOK:  cpu time   14.8029: real time   14.8045
    SETDIJ:  cpu time    0.1332: real time    0.1332
    EDDIAG:  cpu time   96.5213: real time   96.5285
  RMM-DIIS:  cpu time  228.2127: real time  228.2348
    ORTHCH:  cpu time   26.2750: real time   26.2766
       DOS:  cpu time    0.0018: real time    0.0018
    CHARGE:  cpu time   28.9585: real time   28.9604
    MIXING:  cpu time    0.8504: real time    0.8505
    --------------------------------------------
      LOOP:  cpu time  395.7557: real time  395.7904

 eigenvalue-minimisations  :   706
 total energy-change (2. order) :-0.2091422E+00  (-0.9768751E-01)
 number of electron     559.9999840 magnetization 
 augmentation part      241.3067364 magnetization 

 Broyden mixing:
  rms(total) = 0.22774E+01    rms(broyden)= 0.22772E+01
  rms(prec ) = 0.26278E+01
  weight for this iteration     100.00

 eigenvalues of (default mixing * dielectric matrix)
  average eigenvalue GAMMA=   0.2935
  1.3120  0.6536  0.2070  0.1650  0.1650  0.1302  0.0950  0.0950  0.0606  0.0515

 Free energy of the ion-electron system (eV)
  ---------------------------------------------------
  alpha Z        PSCENC =        75.25431677
  Ewald energy   TEWEN  =    138938.08218643
  -Hartree energ DENC   =   -183018.02942302
  -exchange      EXHF   =         0.00000000
  -V(xc)+E(xc)   XCENC  =     -1694.95447458
  PAW double counting   =     46076.98093471   -42556.07811496
  entropy T*S    EENTRO =         0.05153638
  eigenvalues    EBANDS =     -3084.55879855
  atomic energy  EATOM  =     45086.50549395
  Solvation  Ediel_sol  =         0.00000000
  ---------------------------------------------------
  free energy    TOTEN  =      -176.74634287 eV

  energy without entropy =     -176.79787925  energy(sigma->0) =     -176.75922696


--------------------------------------------------------------------------------------------------------




--------------------------------------- Iteration      1(  16)  ---------------------------------------


    POTLOK:  cpu time   15.9328: real time   15.9345
    SETDIJ:  cpu time    0.1334: real time    0.1336
    EDDIAG:  cpu time   95.4314: real time   95.4392
  RMM-DIIS:  cpu time  228.5886: real time  228.6083
    ORTHCH:  cpu time   25.1591: real time   25.1607
       DOS:  cpu time    0.0016: real time    0.0016
    CHARGE:  cpu time   29.4500: real time   29.4519
    MIXING:  cpu time    0.9054: real time    0.9054
    --------------------------------------------
      LOOP:  cpu time  395.6023: real time  395.6352

 eigenvalue-minimisations  :   707
 total energy-change (2. order) : 0.6680054E+00  (-0.7159308E-01)
 number of electron     559.9999877 magnetization 
 augmentation part      241.0782961 magnetization 

 Broyden mixing:
  rms(total) = 0.11769E+01    rms(broyden)= 0.11767E+01
  rms(prec ) = 0.13492E+01
  weight for this iteration     100.00

 eigenvalues of (default mixing * dielectric matrix)
  average eigenvalue GAMMA=   0.2994
  1.4468  0.7102  0.2281  0.2281  0.1607  0.1020  0.1020  0.1024  0.1024  0.0525
  0.0584

 Free energy of the ion-electron system (eV)
  ---------------------------------------------------
  alpha Z        PSCENC =        75.25431677
  Ewald energy   TEWEN  =    138938.08218643
  -Hartree energ DENC   =   -183043.39019839
  -exchange      EXHF   =         0.00000000
  -V(xc)+E(xc)   XCENC  =     -1694.63477755
  PAW double counting   =     46108.47329305   -42585.91927161
  entropy T*S    EENTRO =        -0.02724599
  eigenvalues    EBANDS =     -3060.42213416
  atomic energy  EATOM  =     45086.50549395
  Solvation  Ediel_sol  =         0.00000000
  ---------------------------------------------------
  free energy    TOTEN  =      -176.07833749 eV

  energy without entropy =     -176.05109151  energy(sigma->0) =     -176.07152600


--------------------------------------------------------------------------------------------------------




--------------------------------------- Iteration      1(  17)  ---------------------------------------


    POTLOK:  cpu time   15.8992: real time   15.9008
    SETDIJ:  cpu time    0.1512: real time    0.1512
    EDDIAG:  cpu time   95.9368: real time   95.9488
  RMM-DIIS:  cpu time  221.0216: real time  221.0477
    ORTHCH:  cpu time   26.2291: real time   26.2317
       DOS:  cpu time    0.0017: real time    0.0017
    CHARGE:  cpu time   31.7480: real time   31.7513
    MIXING:  cpu time    1.1542: real time    1.1543
    --------------------------------------------
      LOOP:  cpu time  392.1419: real time  392.1876

 eigenvalue-minimisations  :   703
 total energy-change (2. order) : 0.1666279E+00  (-0.5666362E-01)
 number of electron     559.9999889 magnetization 
 augmentation part      241.0238608 magnetization 

 Broyden mixing:
  rms(total) = 0.10505E+01    rms(broyden)= 0.10503E+01
  rms(prec ) = 0.12286E+01
  weight for this iteration     100.00

 eigenvalues of (default mixing * dielectric matrix)
  average eigenvalue GAMMA=   0.3119
  1.5389  0.8555  0.2876  0.2876  0.1354  0.1354  0.1267  0.0932  0.0932  0.0815
  0.0554  0.0527

 Free energy of the ion-electron system (eV)
  ---------------------------------------------------
  alpha Z        PSCENC =        75.25431677
  Ewald energy   TEWEN  =    138938.08218643
  -Hartree energ DENC   =   -183063.30182679
  -exchange      EXHF   =         0.00000000
  -V(xc)+E(xc)   XCENC  =     -1694.36242197
  PAW double counting   =     46133.48816390   -42609.49673095
  entropy T*S    EENTRO =         0.05145603
  eigenvalues    EBANDS =     -3042.13234698
  atomic energy  EATOM  =     45086.50549395
  Solvation  Ediel_sol  =         0.00000000
  ---------------------------------------------------
  free energy    TOTEN  =      -175.91170961 eV

  energy without entropy =     -175.96316564  energy(sigma->0) =     -175.92457362


--------------------------------------------------------------------------------------------------------




--------------------------------------- Iteration      1(  18)  ---------------------------------------


    POTLOK:  cpu time   16.2107: real time   16.2123
    SETDIJ:  cpu time    0.1324: real time    0.1324
    EDDIAG:  cpu time   93.7248: real time   93.7322
  RMM-DIIS:  cpu time  227.1703: real time  227.1892
    ORTHCH:  cpu time   27.4670: real time   27.4688
       DOS:  cpu time    0.0018: real time    0.0018
    CHARGE:  cpu time   34.4270: real time   34.4294
    MIXING:  cpu time    1.1499: real time    1.1500
    --------------------------------------------
      LOOP:  cpu time  400.2840: real time  400.3159

 eigenvalue-minimisations  :   715
 total energy-change (2. order) :-0.1989961E+00  (-0.4044927E-01)
 number of electron     559.9999893 magnetization 
 augmentation part      241.0278874 magnetization 

 Broyden mixing:
  rms(total) = 0.14233E+01    rms(broyden)= 0.14231E+01
  rms(prec ) = 0.16822E+01
  weight for this iteration     100.00

 eigenvalues of (default mixing * dielectric matrix)
  average eigenvalue GAMMA=   0.3217
  1.6055  1.0430  0.3403  0.3403  0.1448  0.1448  0.1129  0.0950  0.0950  0.0795
  0.0795  0.0522  0.0496

 Free energy of the ion-electron system (eV)
  ---------------------------------------------------
  alpha Z        PSCENC =        75.25431677
  Ewald energy   TEWEN  =    138938.08218643
  -Hartree energ DENC   =   -183081.95642351
  -exchange      EXHF   =         0.00000000
  -V(xc)+E(xc)   XCENC  =     -1694.10680612
  PAW double counting   =     46150.02110606   -42624.76829743
  entropy T*S    EENTRO =         0.07390941
  eigenvalues    EBANDS =     -3025.21619131
  atomic energy  EATOM  =     45086.50549395
  Solvation  Ediel_sol  =         0.00000000
  ---------------------------------------------------
  free energy    TOTEN  =      -176.11070574 eV

  energy without entropy =     -176.18461515  energy(sigma->0) =     -176.12918310


--------------------------------------------------------------------------------------------------------




--------------------------------------- Iteration      1(  19)  ---------------------------------------


    POTLOK:  cpu time   17.7289: real time   17.7307
    SETDIJ:  cpu time    0.1387: real time    0.1387
    EDDIAG:  cpu time   94.9592: real time   94.9666
  RMM-DIIS:  cpu time  249.6071: real time  249.6292
    ORTHCH:  cpu time   27.8377: real time   27.8397
       DOS:  cpu time    0.0018: real time    0.0018
    CHARGE:  cpu time   33.9526: real time   33.9549
    MIXING:  cpu time    1.1502: real time    1.1503
    --------------------------------------------
      LOOP:  cpu time  425.3762: real time  425.4120

 eigenvalue-minimisations  :   705
 total energy-change (2. order) : 0.7665688E-01  (-0.4268490E-01)
 number of electron     559.9999876 magnetization 
 augmentation part      241.0425313 magnetization 

 Broyden mixing:
  rms(total) = 0.11929E+01    rms(broyden)= 0.11927E+01
  rms(prec ) = 0.13849E+01
  weight for this iteration     100.00

 eigenvalues of (default mixing * dielectric matrix)
  average eigenvalue GAMMA=   0.3290
  1.7073  1.1674  0.3797  0.3797  0.1625  0.1625  0.1062  0.1062  0.0962  0.0962
  0.0710  0.0710  0.0510  0.0485

 Free energy of the ion-electron system (eV)
  ---------------------------------------------------
  alpha Z        PSCENC =        75.25431677
  Ewald energy   TEWEN  =    138938.08218643
  -Hartree energ DENC   =   -183100.62438374
  -exchange      EXHF   =         0.00000000
  -V(xc)+E(xc)   XCENC  =     -1693.90235489
  PAW double counting   =     46161.00966908   -42634.61466124
  entropy T*S    EENTRO =         0.08442833
  eigenvalues    EBANDS =     -3007.82874354
  atomic energy  EATOM  =     45086.50549395
  Solvation  Ediel_sol  =         0.00000000
  ---------------------------------------------------
  free energy    TOTEN  =      -176.03404886 eV

  energy without entropy =     -176.11847719  energy(sigma->0) =     -176.05515594


--------------------------------------------------------------------------------------------------------




--------------------------------------- Iteration      1(  20)  ---------------------------------------


    POTLOK:  cpu time   16.1617: real time   16.1633
    SETDIJ:  cpu time    0.1333: real time    0.1333
    EDDIAG:  cpu time   96.6219: real time   96.6296
  RMM-DIIS:  cpu time  244.1447: real time  244.1666
    ORTHCH:  cpu time   26.9285: real time   26.9304
       DOS:  cpu time    0.0018: real time    0.0018
    CHARGE:  cpu time   35.9067: real time   35.9093
    MIXING:  cpu time    1.5062: real time    1.5064
    --------------------------------------------
      LOOP:  cpu time  421.4050: real time  421.4407

 eigenvalue-minimisations  :   704
 total energy-change (2. order) : 0.1997579E+00  (-0.3443879E-01)
 number of electron     559.9999858 magnetization 
 augmentation part      241.1329083 magnetization 

 Broyden mixing:
  rms(total) = 0.12873E+01    rms(broyden)= 0.12871E+01
  rms(prec ) = 0.15249E+01
  weight for this iteration     100.00

 eigenvalues of (default mixing * dielectric matrix)
  average eigenvalue GAMMA=   0.3220
  1.7764  1.1965  0.3952  0.3952  0.1738  0.1738  0.0964  0.0964  0.1026  0.1026
  0.0975  0.0654  0.0559  0.0559  0.0463

 Free energy of the ion-electron system (eV)
  ---------------------------------------------------
  alpha Z        PSCENC =        75.25431677
  Ewald energy   TEWEN  =    138938.08218643
  -Hartree energ DENC   =   -183117.09933665
  -exchange      EXHF   =         0.00000000
  -V(xc)+E(xc)   XCENC  =     -1693.74913642
  PAW double counting   =     46167.01633881   -42639.75789502
  entropy T*S    EENTRO =         0.05909913
  eigenvalues    EBANDS =     -2992.14535796
  atomic energy  EATOM  =     45086.50549395
  Solvation  Ediel_sol  =         0.00000000
  ---------------------------------------------------
  free energy    TOTEN  =      -175.83429095 eV

  energy without entropy =     -175.89339008  energy(sigma->0) =     -175.84906574


--------------------------------------------------------------------------------------------------------




--------------------------------------- Iteration      1(  21)  ---------------------------------------


    POTLOK:  cpu time   19.5552: real time   19.5574
    SETDIJ:  cpu time    0.1407: real time    0.1407
    EDDIAG:  cpu time  108.7629: real time  108.7734
  RMM-DIIS:  cpu time  235.9030: real time  235.9246
    ORTHCH:  cpu time   25.5382: real time   25.5400
       DOS:  cpu time    0.0018: real time    0.0018
    CHARGE:  cpu time   30.5011: real time   30.5031
    MIXING:  cpu time    1.2298: real time    1.2299
    --------------------------------------------
      LOOP:  cpu time  421.6328: real time  421.6711

 eigenvalue-minimisations  :   695
 total energy-change (2. order) : 0.3280947E+00  (-0.2153608E-01)
 number of electron     559.9999866 magnetization 
 augmentation part      241.1689492 magnetization 

 Broyden mixing:
  rms(total) = 0.66658E+00    rms(broyden)= 0.66640E+00
  rms(prec ) = 0.77456E+00
  weight for this iteration     100.00

 eigenvalues of (default mixing * dielectric matrix)
  average eigenvalue GAMMA=   0.3300
  1.7769  1.4232  0.4008  0.3103  0.3103  0.1718  0.1718  0.1089  0.1089  0.0936
  0.0936  0.0801  0.0801  0.0532  0.0532  0.0438

 Free energy of the ion-electron system (eV)
  ---------------------------------------------------
  alpha Z        PSCENC =        75.25431677
  Ewald energy   TEWEN  =    138938.08218643
  -Hartree energ DENC   =   -183125.20560860
  -exchange      EXHF   =         0.00000000
  -V(xc)+E(xc)   XCENC  =     -1693.67715879
  PAW double counting   =     46169.36121275   -42641.67190557
  entropy T*S    EENTRO =        -0.02737733
  eigenvalues    EBANDS =     -2984.12735592
  atomic energy  EATOM  =     45086.50549395
  Solvation  Ediel_sol  =         0.00000000
  ---------------------------------------------------
  free energy    TOTEN  =      -175.50619630 eV

  energy without entropy =     -175.47881897  energy(sigma->0) =     -175.49935197


--------------------------------------------------------------------------------------------------------




--------------------------------------- Iteration      1(  22)  ---------------------------------------


    POTLOK:  cpu time   14.9086: real time   14.9100
    SETDIJ:  cpu time    0.1322: real time    0.1322
    EDDIAG:  cpu time   91.9057: real time   91.9125
  RMM-DIIS:  cpu time  204.6490: real time  204.6661
    ORTHCH:  cpu time   25.3596: real time   25.3614
       DOS:  cpu time    0.0017: real time    0.0017
    CHARGE:  cpu time   30.5688: real time   30.5708
    MIXING:  cpu time    1.3131: real time    1.3132
    --------------------------------------------
      LOOP:  cpu time  368.8389: real time  368.8679

 eigenvalue-minimisations  :   697
 total energy-change (2. order) : 0.1876216E-01  (-0.2473019E-01)
 number of electron     559.9999879 magnetization 
 augmentation part      241.1592074 magnetization 

 Broyden mixing:
  rms(total) = 0.68981E+00    rms(broyden)= 0.68961E+00
  rms(prec ) = 0.78727E+00
  weight for this iteration     100.00

 eigenvalues of (default mixing * dielectric matrix)
  average eigenvalue GAMMA=   0.3437
  1.9556  1.4543  0.6135  0.3349  0.3349  0.1614  0.1614  0.1129  0.1129  0.0945
  0.0945  0.0943  0.0943  0.0727  0.0534  0.0534  0.0440

 Free energy of the ion-electron system (eV)
  ---------------------------------------------------
  alpha Z        PSCENC =        75.25431677
  Ewald energy   TEWEN  =    138938.08218643
  -Hartree energ DENC   =   -183144.25165320
  -exchange      EXHF   =         0.00000000
  -V(xc)+E(xc)   XCENC  =     -1693.51018144
  PAW double counting   =     46169.07369208   -42640.63972230
  entropy T*S    EENTRO =        -0.05679099
  eigenvalues    EBANDS =     -2965.94477544
  atomic energy  EATOM  =     45086.50549395
  Solvation  Ediel_sol  =         0.00000000
  ---------------------------------------------------
  free energy    TOTEN  =      -175.48743413 eV

  energy without entropy =     -175.43064315  energy(sigma->0) =     -175.47323639


--------------------------------------------------------------------------------------------------------




--------------------------------------- Iteration      1(  23)  ---------------------------------------


    POTLOK:  cpu time   15.8341: real time   15.8370
    SETDIJ:  cpu time    0.1343: real time    0.1343
    EDDIAG:  cpu time   96.9413: real time   96.9491
  RMM-DIIS:  cpu time  220.9422: real time  220.9613
    ORTHCH:  cpu time   24.7344: real time   24.7360
       DOS:  cpu time    0.0018: real time    0.0018
    CHARGE:  cpu time   28.9683: real time   28.9701
    MIXING:  cpu time    1.1983: real time    1.1984
    --------------------------------------------
      LOOP:  cpu time  388.7546: real time  388.7879

 eigenvalue-minimisations  :   699
 total energy-change (2. order) : 0.1116126E+00  (-0.1645312E-01)
 number of electron     559.9999865 magnetization 
 augmentation part      241.1741343 magnetization 

 Broyden mixing:
  rms(total) = 0.69853E+00    rms(broyden)= 0.69837E+00
  rms(prec ) = 0.81671E+00
  weight for this iteration     100.00

 eigenvalues of (default mixing * dielectric matrix)
  average eigenvalue GAMMA=   0.3426
[...]
 -0.007  -0.012   0.004   0.004   0.005  -0.006  -0.012   0.004
 -0.011  -0.020   0.007   0.007   0.009  -0.011  -0.019   0.006
 -0.015  -0.005   0.012   0.000   0.022  -0.015  -0.005   0.012
  0.000  -0.022  -0.006  -0.016  -0.000   0.000  -0.022  -0.006
 -0.022   0.000   0.009  -0.005  -0.016  -0.021   0.000   0.009
 -0.018  -0.006   0.015   0.000   0.027  -0.017  -0.006   0.015
  0.000  -0.027  -0.008  -0.019   0.000   0.000  -0.026  -0.007
 -0.027   0.000   0.011  -0.006  -0.019  -0.026   0.000   0.010
 total augmentation occupancy for first ion, spin component:           1
  1.532  -0.032   0.004   0.016   0.025   0.077  -0.007  -0.002   0.036  -0.010   0.094  -0.032   0.012   0.002   0.002  -0.019
 -0.032   1.398   0.029   0.071   0.001  -0.006   0.072   0.011  -0.015  -0.008   0.216  -0.065   0.019   0.001   0.003  -0.007
  0.004   0.029   1.537   0.004   0.002  -0.002   0.013   0.076  -0.013   0.016  -0.050   0.018  -0.002  -0.007  -0.006   0.015
  0.016   0.071   0.004   1.334   0.044   0.034  -0.014  -0.013   0.093  -0.022  -0.084   0.021  -0.001  -0.008  -0.003   0.001
  0.025   0.001   0.002   0.044   1.440  -0.010  -0.009   0.015  -0.021   0.068  -0.097   0.031  -0.001  -0.010  -0.010   0.026
  0.077  -0.006  -0.002   0.034  -0.010   0.218   0.019  -0.002  -0.045   0.004  -0.048   0.002   0.017  -0.010   0.035  -0.004
 -0.007   0.072   0.013  -0.014  -0.009   0.019   0.264  -0.023  -0.003   0.006  -0.109   0.007  -0.001   0.052  -0.010  -0.001
 -0.002   0.011   0.076  -0.013   0.015  -0.002  -0.023   0.215   0.014  -0.019   0.027  -0.001  -0.012   0.009  -0.018   0.003
  0.036  -0.015  -0.013   0.093  -0.021  -0.045  -0.003   0.014   0.261   0.007   0.044  -0.004  -0.009   0.036   0.004   0.000
 -0.010  -0.008   0.016  -0.022   0.068   0.004   0.006  -0.019   0.007   0.260   0.048  -0.003  -0.038   0.002   0.049   0.007
  0.094   0.216  -0.050  -0.084  -0.097  -0.048  -0.109   0.027   0.044   0.048   0.945  -0.141   0.083   0.015   0.065  -0.013
 -0.032  -0.065   0.018   0.021   0.031   0.002   0.007  -0.001  -0.004  -0.003  -0.141   0.023  -0.014  -0.003  -0.010   0.003
  0.012   0.019  -0.002  -0.001  -0.001   0.017  -0.001  -0.012  -0.009  -0.038   0.083  -0.014   0.029  -0.008  -0.004  -0.003
  0.002   0.001  -0.007  -0.008  -0.010  -0.010   0.052   0.009   0.036   0.002   0.015  -0.003  -0.008   0.036   0.004   0.000
  0.002   0.003  -0.006  -0.003  -0.010   0.035  -0.010  -0.018   0.004   0.049   0.065  -0.010  -0.004   0.004   0.034  -0.000
 -0.019  -0.007   0.015   0.001   0.026  -0.004  -0.001   0.003   0.000   0.007  -0.013   0.003  -0.003   0.000  -0.000   0.001
  0.001  -0.027  -0.007  -0.018   0.001   0.001  -0.008  -0.002  -0.006  -0.000  -0.003   0.001   0.000  -0.003  -0.000   0.000
 -0.028   0.001   0.012  -0.006  -0.020  -0.006   0.001   0.003  -0.001  -0.007  -0.008   0.001  -0.000  -0.000  -0.003   0.000


------------------------ aborting loop because EDIFF is reached ----------------------------------------


    CHARGE:  cpu time   29.8447: real time   29.8466
    FORLOC:  cpu time    7.3677: real time    7.3682
    FORNL :  cpu time   77.8325: real time   77.8375
    STRESS:  cpu time  226.0663: real time  226.0805
    FORCOR:  cpu time   24.7447: real time   24.7465
    FORHAR:  cpu time   10.9432: real time   10.9439
    MIXING:  cpu time    3.9369: real time    3.9372
    OFIELD:  cpu time    0.0001: real time    0.0001

  FORCE on cell =-STRESS in cart. coord.  units (eV):
  Direction    XX          YY          ZZ          XY          YZ          ZX
  --------------------------------------------------------------------------------------
  Alpha Z    75.25432    75.25432    75.25432
  Ewald   48068.21966 46205.79732 44663.95932 -1749.31449  -315.39496   557.88737
  Hartree 62742.27568 61003.06212 59557.44917 -1595.58513  -312.82921   484.00627
  E(xc)   -2904.01425 -2904.97155 -2905.45183    -0.92202     0.29269     0.85336
  Local  ************************************  3327.73330   626.89661 -1031.03201
  n-local  -888.51187  -885.24541  -883.66214     3.13136     1.00576    -1.30098
  augment  4101.86812  4104.48444  4104.77899     1.51654    -1.13887    -2.59918
  Kinetic  7794.92831  7808.48691  7813.40301    11.35629    -0.53662    -8.95380
  Fock        0.00000     0.00000     0.00000     0.00000     0.00000     0.00000
  -------------------------------------------------------------------------------------
  Total    -112.44487  -113.02600  -114.82481    -2.08414    -1.70461    -1.13897
  in kB      -6.67247    -6.70695    -6.81369    -0.12367    -0.10115    -0.06759
  external pressure =       -6.73 kB  Pullay stress =        0.00 kB


 VOLUME and BASIS-vectors are now :
 -----------------------------------------------------------------------------
  energy-cutoff  :      400.00
  volume of cell :    27000.00
      direct lattice vectors                 reciprocal lattice vectors
    30.000000000  0.000000000  0.000000000     0.033333333  0.000000000  0.000000000
     0.000000000 30.000000000  0.000000000     0.000000000  0.033333333  0.000000000
     0.000000000  0.000000000 30.000000000     0.000000000  0.000000000  0.033333333

  length of vectors
    30.000000000 30.000000000 30.000000000     0.033333333  0.033333333  0.033333333


 FORCES acting on ions
    electron-ion (+dipol)            ewald-force                    non-local-force                 convergence-correction
 -----------------------------------------------------------------------------------------------
   0.388E+03 0.980E+03 0.417E+03   -.386E+03 -.977E+03 -.417E+03   -.152E+01 -.179E+01 -.235E+00   0.225E-03 0.941E-03 0.154E-02
   -.977E+03 -.391E+03 0.417E+03   0.975E+03 0.389E+03 -.416E+03   0.182E+01 0.151E+01 -.244E+00   -.721E-02 0.254E-05 0.381E-03
   -.399E+03 0.976E+03 0.417E+03   0.396E+03 -.973E+03 -.416E+03   0.150E+01 -.182E+01 -.227E+00   0.264E-02 0.369E-02 0.300E-02
   0.928E+03 -.236E+03 0.504E+03   -.926E+03 0.236E+03 -.502E+03   -.123E+01 0.360E+00 -.650E+00   0.106E-02 0.214E-02 -.166E-02
   -.690E+01 0.594E+03 0.968E+03   0.695E+01 -.593E+03 -.964E+03   -.363E-01 -.294E+00 -.234E+01   0.162E-02 -.317E-04 0.480E-03
   -.491E+01 0.592E+03 -.968E+03   0.494E+01 -.591E+03 0.965E+03   -.243E-01 -.317E+00 0.236E+01   0.232E-02 0.369E-02 -.233E-02
   -.390E+01 0.114E+04 -.883E+00   0.389E+01 -.113E+04 0.874E+00   0.416E-02 -.311E+01 0.627E-02   0.106E-02 0.125E-02 0.385E-03
   0.115E+04 0.713E+02 -.222E+02   -.114E+04 -.714E+02 0.222E+02   -.308E+01 0.706E-01 -.181E-01   0.628E-03 -.123E-02 0.155E-02
   -.114E+04 0.237E+01 -.761E+00   0.113E+04 -.235E+01 0.753E+00   0.312E+01 -.841E-02 0.688E-02   -.680E-02 -.784E-03 -.210E-02
   -.278E+02 -.115E+04 -.594E+01   0.278E+02 0.114E+04 0.593E+01   -.271E-02 0.313E+01 -.301E-02   0.394E-02 -.242E-02 0.313E-02
   -.583E+03 0.582E+03 0.814E+03   0.580E+03 -.580E+03 -.811E+03   0.157E+01 -.156E+01 -.220E+01   0.142E-02 0.169E-02 0.232E-02
   -.581E+03 0.581E+03 -.814E+03   0.579E+03 -.579E+03 0.811E+03   0.157E+01 -.156E+01 0.220E+01   -.301E-02 0.122E-02 -.124E-02
   0.536E+03 -.567E+03 0.870E+03   -.533E+03 0.565E+03 -.867E+03   -.159E+01 0.157E+01 -.214E+01   0.430E-04 0.327E-03 -.249E-02
   0.565E+03 -.574E+03 -.841E+03   -.563E+03 0.572E+03 0.837E+03   -.157E+01 0.157E+01 0.221E+01   0.468E-02 0.204E-02 0.868E-03
   0.572E+03 0.593E+03 0.819E+03   -.570E+03 -.590E+03 -.816E+03   -.150E+01 -.161E+01 -.220E+01   0.185E-02 -.164E-02 -.394E-03
   0.574E+03 0.587E+03 -.819E+03   -.572E+03 -.585E+03 0.816E+03   -.153E+01 -.157E+01 0.220E+01   0.237E-02 0.527E-03 -.145E-02
   -.589E+03 -.577E+03 0.816E+03   0.586E+03 0.574E+03 -.813E+03   0.157E+01 0.154E+01 -.219E+01   -.995E-03 -.203E-04 0.244E-02
   -.585E+03 -.577E+03 -.817E+03   0.583E+03 0.574E+03 0.814E+03   0.156E+01 0.156E+01 0.220E+01   -.324E-02 0.763E-03 -.126E-02
   0.389E+03 0.978E+03 -.419E+03   -.387E+03 -.975E+03 0.419E+03   -.152E+01 -.181E+01 0.230E+00   0.142E-02 0.354E-02 -.105E-02
   -.976E+03 -.392E+03 -.419E+03   0.973E+03 0.389E+03 0.418E+03   0.183E+01 0.151E+01 0.232E+00   -.573E-02 0.285E-02 -.681E-03
   -.331E+03 0.329E+03 0.454E+03   0.331E+03 -.329E+03 -.455E+03   -.381E+00 0.382E+00 0.503E+00   0.578E-02 0.190E-03 0.467E-02
   0.965E+03 0.433E+03 0.425E+03   -.962E+03 -.431E+03 -.424E+03   -.191E+01 -.153E+01 -.160E+00   0.272E-02 -.287E-02 -.392E-04
   -.415E+03 -.974E+03 0.419E+03   0.413E+03 0.971E+03 -.419E+03   0.154E+01 0.182E+01 -.205E+00   0.474E-02 -.288E-02 0.203E-02
   -.398E+03 0.975E+03 -.418E+03   0.396E+03 -.972E+03 0.418E+03   0.151E+01 -.182E+01 0.217E+00   0.213E-02 0.552E-02 -.223E-02
   0.960E+03 -.357E+03 -.474E+03   -.957E+03 0.355E+03 0.474E+03   -.180E+01 0.156E+01 0.118E+00   0.289E-02 0.558E-03 0.195E-02
   -.975E+03 0.397E+03 0.416E+03   0.972E+03 -.395E+03 -.416E+03   0.183E+01 -.151E+01 -.214E+00   -.648E-02 -.336E-02 0.924E-03
   0.332E+03 -.988E+03 0.434E+03   -.330E+03 0.985E+03 -.434E+03   -.159E+01 0.178E+01 -.177E+00   0.332E-02 -.616E-03 0.208E-03
   0.305E+03 0.342E+03 0.457E+03   -.306E+03 -.342E+03 -.458E+03   0.429E+00 0.305E+00 0.519E+00   0.302E-02 -.276E-02 0.210E-02
   -.848E+01 0.648E+03 -.186E+01   0.850E+01 -.649E+03 0.186E+01   -.274E-01 0.730E+00 0.722E-03   0.422E-02 0.265E-02 0.285E-02
   -.594E+03 0.401E+01 0.967E+03   0.593E+03 -.403E+01 -.963E+03   0.301E+00 0.212E-01 -.235E+01   0.330E-03 -.107E-02 0.302E-02
   -.591E+03 0.298E+01 -.968E+03   0.591E+03 -.299E+01 0.964E+03   0.313E+00 0.107E-01 0.236E+01   -.399E-02 -.133E-02 -.340E-03
   0.569E+03 0.276E+02 0.988E+03   -.569E+03 -.277E+02 -.985E+03   -.291E+00 0.660E-01 -.244E+01   0.926E-03 0.672E-05 -.201E-02
   0.578E+03 0.122E+02 -.982E+03   -.578E+03 -.122E+02 0.978E+03   -.279E+00 -.575E-02 0.238E+01   0.400E-02 -.695E-03 -.726E-03
   0.753E+03 0.779E+03 -.331E+01   -.751E+03 -.777E+03 0.333E+01   -.113E+01 -.120E+01 -.139E-01   0.237E-02 -.817E-03 0.218E-02
   -.772E+03 -.759E+03 -.194E+01   0.771E+03 0.757E+03 0.195E+01   0.112E+01 0.115E+01 -.385E-02   -.250E-02 0.149E-03 -.390E-03
   -.765E+03 0.764E+03 -.935E+00   0.763E+03 -.762E+03 0.903E+00   0.117E+01 -.114E+01 0.221E-01   -.149E-02 0.276E-02 -.399E-03
   0.577E+03 -.730E+03 -.101E+03   -.580E+03 0.729E+03 0.983E+02   0.221E+01 0.221E+00 0.159E+01   0.220E-02 0.112E-02 0.263E-02
   -.151E+02 0.104E+02 0.108E+04   0.150E+02 -.104E+02 -.107E+04   0.253E-01 -.452E-01 -.164E+01   0.334E-02 -.489E-03 0.153E-02
   -.890E+01 0.617E+01 -.108E+04   0.893E+01 -.619E+01 0.107E+04   -.162E-01 0.107E-01 0.160E+01   0.223E-02 -.766E-03 -.231E-02
   0.967E+03 0.418E+03 -.432E+03   -.964E+03 -.416E+03 0.431E+03   -.185E+01 -.148E+01 0.212E+00   0.354E-02 -.352E-02 0.482E-03
   -.409E+03 -.973E+03 -.424E+03   0.407E+03 0.970E+03 0.423E+03   0.151E+01 0.182E+01 0.226E+00   0.995E-05 -.158E-02 -.536E-04
   -.329E+03 0.327E+03 -.457E+03   0.329E+03 -.328E+03 0.458E+03   -.362E+00 0.359E+00 -.527E+00   -.649E-04 -.996E-03 -.234E-02
   0.269E+03 -.293E+03 0.468E+03   -.270E+03 0.293E+03 -.469E+03   0.146E+00 -.256E+00 0.608E+00   0.361E-02 -.389E-03 0.792E-03
   0.309E+03 0.335E+03 -.462E+03   -.310E+03 -.336E+03 0.463E+03   0.390E+00 0.336E+00 -.500E+00   0.440E-02 -.721E-03 -.106E-03
   -.975E+03 0.397E+03 -.418E+03   0.972E+03 -.395E+03 0.417E+03   0.183E+01 -.154E+01 0.205E+00   -.951E-02 -.234E-02 -.156E-02
   0.363E+03 -.979E+03 -.443E+03   -.361E+03 0.976E+03 0.442E+03   -.152E+01 0.194E+01 0.292E+00   0.428E-02 -.157E-02 0.317E-02
   -.340E+03 -.315E+03 0.456E+03   0.340E+03 0.315E+03 -.456E+03   -.328E+00 -.378E+00 0.515E+00   0.457E-02 0.614E-03 0.355E-02
   0.608E+03 0.510E+02 -.159E+02   -.608E+03 -.513E+02 0.160E+02   0.615E+00 0.241E+00 -.768E-01   0.497E-02 -.311E-02 0.328E-02
   -.648E+03 0.484E+01 -.152E+01   0.648E+03 -.482E+01 0.152E+01   -.725E+00 -.129E-01 -.177E-02   -.614E-02 -.280E-02 -.153E-02
   -.243E+02 -.584E+03 0.978E+03   0.243E+02 0.583E+03 -.975E+03   -.275E-01 0.326E+00 -.236E+01   0.410E-02 0.259E-03 0.333E-03
   -.128E+02 -.585E+03 -.977E+03   0.128E+02 0.584E+03 0.973E+03   0.643E-02 0.309E+00 0.236E+01   0.399E-03 0.968E-03 -.951E-03
   -.213E+02 0.146E+02 -.457E+01   0.213E+02 -.146E+02 0.457E+01   0.174E-01 -.165E-01 0.589E-03   0.584E-02 -.269E-02 0.273E-02
   0.294E+03 -.306E+03 -.477E+03   -.294E+03 0.306E+03 0.477E+03   0.388E+00 -.467E+00 -.427E+00   0.437E-02 0.417E-03 0.251E-02
   -.335E+03 -.316E+03 -.460E+03   0.335E+03 0.316E+03 0.460E+03   -.357E+00 -.364E+00 -.511E+00   0.495E-03 -.368E-03 -.119E-02
   -.374E+02 -.635E+03 -.788E+01   0.373E+02 0.635E+03 0.795E+01   0.144E+00 -.724E+00 -.540E-01   0.640E-02 0.226E-03 0.256E-02
   0.215E+03 -.177E+03 0.258E+02   -.196E+03 0.164E+03 -.216E+02   -.141E+02 0.922E+01 -.326E+01   -.448E-04 0.822E-03 -.434E-04
   0.670E+03 -.501E+03 0.117E+03   -.723E+03 0.537E+03 -.128E+03   0.492E+02 -.332E+02 0.106E+02   0.625E-04 0.102E-02 -.965E-04
 -----------------------------------------------------------------------------------------------
   -.390E+02 0.257E+02 -.862E+01   -.114E-12 0.216E-11 -.102E-11   0.389E+02 -.257E+02 0.859E+01   0.593E-01 -.189E-02 0.286E-01
 
 
 POSITION                                       TOTAL-FORCE (eV/Angst)
 -----------------------------------------------------------------------------------
     13.37281      9.84801     12.50759         0.708603      1.106035      0.301308
     20.15199     16.62719     12.50759        -1.102500     -0.704271      0.298902
     16.62719      9.84801     12.50759        -0.702498      1.105976      0.291240
      9.84801     16.62719     12.50759         1.097405      0.207225      0.968148
     15.00000     11.47521     10.20639         0.010803      0.416545      1.283078
     15.00000     11.47521     19.79360         0.008727      0.415301     -1.277673
     15.00000      8.28283     15.00000        -0.002574      1.514509     -0.002324
      8.28283     15.00000     15.00000         1.473317     -0.033102      0.005913
     21.71717     15.00000     15.00000        -1.513341      0.007149     -0.003378
     15.00000     21.71717     15.00000         0.002585     -1.512983     -0.001731
     18.35858     11.64142     10.25025        -0.758284      0.754847      1.068750
     18.35858     11.64142     19.74975        -0.760806      0.756004     -1.065483
     11.64142     18.35858     10.25025         0.754949     -0.747920      1.021131
     11.64142     18.35858     19.74975         0.754732     -0.757043     -1.067507
     11.64142     11.64142     10.25025         0.727139      0.777092      1.068121
     11.64142     11.64142     19.74975         0.740992      0.754474     -1.071123
     18.35858     18.35858     10.25025        -0.761946     -0.749247      1.060489
     18.35858     18.35858     19.74975        -0.755670     -0.751554     -1.068139
     13.37281      9.84801     17.49241         0.703414      1.106525     -0.296966
     20.15199     16.62719     17.49241        -1.103044     -0.701786     -0.295626
     16.73751     13.26249     12.54279         0.112843     -0.108938     -0.159831
      9.84801     13.37281     12.50759         1.114967      0.637420      0.268851
     16.62719     20.15199     12.50759        -0.712472     -1.104288      0.291654
     16.62719      9.84801     17.49241        -0.706495      1.103027     -0.289730
      9.84801     16.62719     17.49241         1.126592     -0.729681     -0.235312
     20.15199     13.37281     12.50759        -1.105650      0.704370      0.285772
     13.37281     20.15199     12.50759         0.766344     -1.090601      0.285378
     13.26249     13.26249     12.54279        -0.110447     -0.108662     -0.153499
     15.00000     11.52498     15.00000        -0.003136     -0.230030      0.002672
     18.52479     15.00000     10.20639        -0.416297     -0.004212      1.279600
     18.52479     15.00000     19.79360        -0.414515     -0.004497     -1.276208
     11.47521     15.00000     10.20640         0.431934     -0.048733      1.240901
     11.47521     15.00000     19.79360         0.407016      0.005811     -1.284490
     11.49535     11.49535     15.00000         0.828401      0.837262      0.003691
     18.50465     18.50465     15.00000        -0.806234     -0.831974      0.004914
     18.50465     11.49535     15.00000        -0.840953      0.825153     -0.010560
     11.49535     18.50465     15.00000        -0.818789     -0.581559     -0.908142
     15.00000     15.00000     10.04368        -0.001306      0.006975      1.182902
     15.00000     15.00000     19.95633         0.015638     -0.008661     -1.165183
      9.84801     13.37281     17.49241         1.114860      0.687074     -0.285831
     16.62719     20.15199     17.49241        -0.702878     -1.103647     -0.300924
     16.73751     13.26249     17.45721         0.105089     -0.106481      0.161305
     13.26249     16.73751     12.54279        -0.046956      0.083726     -0.215344
     13.26249     13.26249     17.45721        -0.104083     -0.109168      0.152311
     20.15199     13.37281     17.49241        -1.101826      0.710680     -0.281896
     13.37281     20.15199     17.49241         0.719248     -1.123487     -0.293155
     16.73751     16.73751     12.54279         0.111674      0.106078     -0.149057
     11.52498     15.00000     15.00000        -0.220726     -0.089661      0.025654
     18.47502     15.00000     15.00000         0.225884      0.009344     -0.001132
     15.00000     18.52480     10.20639         0.014522     -0.420680      1.274447
     15.00000     18.52480     19.79360        -0.007864     -0.418116     -1.277059
     15.00000     15.00000     15.00000        -0.000535     -0.002150     -0.001431
     13.26249     16.73751     17.45721        -0.091604      0.115926      0.176796
     16.73751     16.73751     17.45721         0.102978      0.104402      0.144950
     15.00000     18.47502     15.00000         0.015111      0.234306      0.016453
      9.63491     18.64611     13.86788         5.407962     -3.762673      0.937971
      8.71585     19.27070     13.67394        -3.930299      2.852570     -0.664568
 -----------------------------------------------------------------------------------
    total drift:                               -0.000438     -0.003139     -0.000285


--------------------------------------------------------------------------------------------------------



  FREE ENERGIE OF THE ION-ELECTRON SYSTEM (eV)
  ---------------------------------------------------
  free  energy   TOTEN  =      -175.08736991 eV

  energy  without entropy=     -175.04692368  energy(sigma->0) =     -175.07725836
 


--------------------------------------------------------------------------------------------------------


    POTLOK:  cpu time   15.9172: real time   15.9184


--------------------------------------------------------------------------------------------------------


     LOOP+:  cpu time24300.0471: real time24302.7616
    4ORBIT:  cpu time    0.0000: real time    0.0000

 total amount of memory used by VASP MPI-rank0  5486942. kBytes
=======================================================================

   base      :      30000. kBytes
   nonlr-proj:      17127. kBytes
   fftplans  :     924480. kBytes
   grid      :    1872000. kBytes
   one-center:        886. kBytes
   wavefun   :    2642449. kBytes
 
  
  
 General timing and accounting informations for this job:
 ========================================================
  
                  Total CPU time used (sec):    24404.803
                            User time (sec):    22834.280
                          System time (sec):     1570.522
                         Elapsed time (sec):    24407.565
  
                   Maximum memory used (kb):     7180964.
                   Average memory used (kb):           0.
  
                          Minor page faults:    816250822
                          Major page faults:            0
                 Voluntary context switches:          468
