<?xml version="1.0" encoding="ISO-8859-1"?>
<modeling>
 <generator>
  <i name="program" type="string">vasp </i>
  <i name="version" type="string">5.4.4.18Apr17-6-g9f103f2a35  </i>
  <i name="subversion" type="string">(build Sep 03 2018 23:53:05) complex            parallel </i>
  <i name="platform" type="string">LinuxIFC </i>
  <i name="date" type="string">2021 11 30 </i>
  <i name="time" type="string">22:05:22 </i>
 </generator>
 <incar>
  <i type="string" name="SYSTEM"> 6_Pd100_top_free_z(O)</i>
  <i type="int" name="ISTART">     0</i>
  <i type="string" name="PREC">normal   			! encut=max(enmax), ngx,y,z</i>
  <i type="string" name="ALGO"> Fast     			! Mix RMM-DIIS and Dav</i>
  <i type="logical" name="ADDGRID"> F  </i>
  <i type="int" name="ISPIN">     1</i>
  <i type="int" name="ICHARG">     2</i>
  <i type="int" name="NELM">   100</i>
  <i type="int" name="NELMIN">     6</i>
  <i type="int" name="IBRION">     2</i>
  <i name="EDIFF">      0.00010000</i>
  <i name="EDIFFG">     -0.05000000</i>
  <i type="int" name="NSW">     0</i>
  <i type="int" name="ISIF">     2</i>
  <i type="int" name="ISYM">     2</i>
  <i name="ENCUT">    400.00000000</i>
  <i type="string" name="LREAL"> Auto     			! Auto or A projection done</i>
  <i type="int" name="ISMEAR">     2</i>
  <i name="SIGMA">      0.20000000</i>
  <i type="logical" name="LWAVE"> F  </i>
  <i type="logical" name="LCHARG"> F  </i>
  <v type="int" name="KPOINT_BSE">    -1     0     0     0</v>
  <i type="int" name="MAXMEM"> 10000</i>
  <i type="int" name="NELM">   100</i>
  <i type="string" name="GGA"> RP         			! Revised PBE</i>
 </incar>
 <structure name="primitive_cell" >
  <crystal>
   <varray name="basis" >
    <v>      30.00000000       0.00000000       0.00000000 </v>
    <v>       0.00000000      30.00000000       0.00000000 </v>
    <v>       0.00000000       0.00000000      30.00000000 </v>
   </varray>
   <i name="volume">  27000.00000000 </i>
   <varray name="rec_basis" >
    <v>       0.03333333       0.00000000       0.00000000 </v>
    <v>       0.00000000       0.03333333       0.00000000 </v>
    <v>       0.00000000       0.00000000       0.03333333 </v>
   </varray>
  </crystal>
  <varray name="positions" >
   <v>       0.44576020       0.32826710       0.41691983 </v>
   <v>      -0.44576020       0.32826710       0.41691983 </v>
   <v>      -0.50000000       0.38250690       0.34021317 </v>
   <v>      -0.50000000       0.27609440      -0.50000000 </v>
   <v>       0.38804720       0.38804720       0.34167483 </v>
   <v>      -0.50000000       0.38416601      -0.50000000 </v>
   <v>       0.44208300       0.44208300       0.41809300 </v>
   <v>       0.38317830       0.38317830      -0.50000000 </v>
   <v>      -0.44208300       0.44208300       0.41809300 </v>
   <v>       0.44576020       0.32826710      -0.41691977 </v>
   <v>       0.32826705       0.44576024       0.41691983 </v>
   <v>      -0.38804720       0.38804720       0.34167483 </v>
   <v>      -0.38317830       0.38317830      -0.50000000 </v>
   <v>      -0.50000000      -0.50000000       0.33478917 </v>
   <v>      -0.50000000      -0.50000000      -0.50000000 </v>
   <v>      -0.44576020       0.32826710      -0.41691977 </v>
   <v>       0.38250685      -0.49999995       0.34021317 </v>
   <v>       0.44208300       0.44208300      -0.41809297 </v>
   <v>       0.38416599      -0.49999998      -0.50000000 </v>
   <v>      -0.44208300       0.44208300      -0.41809297 </v>
   <v>       0.44208298      -0.44208298       0.41809300 </v>
   <v>       0.32826705       0.44576024      -0.41691977 </v>
   <v>      -0.50000000       0.38250690      -0.34021320 </v>
   <v>       0.32826712      -0.44576022       0.41691983 </v>
   <v>      -0.38250685      -0.49999995       0.34021317 </v>
   <v>      -0.32826705       0.44576024       0.41691983 </v>
   <v>       0.27609443       0.49999998      -0.50000000 </v>
   <v>       0.38804720       0.38804720      -0.34167487 </v>
   <v>      -0.38416599      -0.49999998      -0.50000000 </v>
   <v>      -0.44208298      -0.44208298       0.41809300 </v>
   <v>       0.44208298      -0.44208298      -0.41809297 </v>
   <v>      -0.38804720       0.38804720      -0.34167487 </v>
   <v>       0.38804722      -0.38804722       0.34167483 </v>
   <v>       0.38250685      -0.49999995      -0.34021320 </v>
   <v>       0.32826712      -0.44576022      -0.41691977 </v>
   <v>      -0.32826705       0.44576024      -0.41691977 </v>
   <v>       0.50000000      -0.38250681       0.34021317 </v>
   <v>      -0.50000000      -0.38416596      -0.50000000 </v>
   <v>      -0.44208298      -0.44208298      -0.41809297 </v>
   <v>      -0.50000000      -0.50000000      -0.33478913 </v>
   <v>       0.38317828      -0.38317828      -0.50000000 </v>
   <v>      -0.32826712      -0.44576022       0.41691983 </v>
   <v>       0.32116360      -0.37846290       0.46226250 </v>
   <v>      -0.27609443       0.49999998      -0.50000000 </v>
   <v>      -0.38804722      -0.38804722       0.34167483 </v>
   <v>      -0.38250685      -0.49999995      -0.34021320 </v>
   <v>       0.44576027      -0.32826707       0.41691983 </v>
   <v>      -0.38317828      -0.38317828      -0.50000000 </v>
   <v>       0.29052843      -0.35764327       0.45579797 </v>
   <v>      -0.32826712      -0.44576022      -0.41691977 </v>
   <v>      -0.44576027      -0.32826707       0.41691983 </v>
   <v>       0.38804722      -0.38804722      -0.34167487 </v>
   <v>      -0.50000000      -0.38250681      -0.34021320 </v>
   <v>       0.44576027      -0.32826707      -0.41691977 </v>
   <v>      -0.44576027      -0.32826707      -0.41691977 </v>
   <v>      -0.50000000      -0.27609445       0.50000000 </v>
   <v>      -0.38804722      -0.38804722      -0.34167487 </v>
  </varray>
 </structure>
 <varray name="primitive_index" >
  <v type="int" >        1 </v>
  <v type="int" >        3 </v>
  <v type="int" >        5 </v>
  <v type="int" >        7 </v>
  <v type="int" >       15 </v>
  <v type="int" >       29 </v>
  <v type="int" >       28 </v>
  <v type="int" >       34 </v>
  <v type="int" >       21 </v>
  <v type="int" >       19 </v>
  <v type="int" >       22 </v>
  <v type="int" >       11 </v>
  <v type="int" >       36 </v>
  <v type="int" >       38 </v>
  <v type="int" >       52 </v>
  <v type="int" >       24 </v>
  <v type="int" >       32 </v>
  <v type="int" >       44 </v>
  <v type="int" >       48 </v>
  <v type="int" >       42 </v>
  <v type="int" >       43 </v>
  <v type="int" >       40 </v>
  <v type="int" >        6 </v>
  <v type="int" >        4 </v>
  <v type="int" >       30 </v>
  <v type="int" >       26 </v>
  <v type="int" >        8 </v>
  <v type="int" >       16 </v>
  <v type="int" >       49 </v>
  <v type="int" >       47 </v>
  <v type="int" >       53 </v>
  <v type="int" >       12 </v>
  <v type="int" >       13 </v>
  <v type="int" >       33 </v>
  <v type="int" >       25 </v>
  <v type="int" >       45 </v>
  <v type="int" >       50 </v>
  <v type="int" >       55 </v>
  <v type="int" >       54 </v>
  <v type="int" >       39 </v>
  <v type="int" >       37 </v>
  <v type="int" >        2 </v>
  <v type="int" >       56 </v>
  <v type="int" >        9 </v>
  <v type="int" >       17 </v>
  <v type="int" >       31 </v>
  <v type="int" >       27 </v>
  <v type="int" >       35 </v>
  <v type="int" >       57 </v>
  <v type="int" >       20 </v>
  <v type="int" >       23 </v>
  <v type="int" >       14 </v>
  <v type="int" >       51 </v>
  <v type="int" >       46 </v>
  <v type="int" >       41 </v>
  <v type="int" >       10 </v>
  <v type="int" >       18 </v>
 </varray>
 <kpoints>
  <generation param="Monkhorst-Pack">
   <v type="int" name="divisions">       1        1        1 </v>
   <v name="usershift">      0.00000000       0.00000000       0.00000000 </v>
   <v name="genvec1">      1.00000000       0.00000000       0.00000000 </v>
   <v name="genvec2">      0.00000000       1.00000000       0.00000000 </v>
   <v name="genvec3">      0.00000000       0.00000000       1.00000000 </v>
   <v name="shift">      0.00000000       0.00000000       0.00000000 </v>
  </generation>
  <varray name="kpointlist" >
   <v>       0.00000000       0.00000000       0.00000000 </v>
  </varray>
  <varray name="weights" >
   <v>       1.00000000 </v>
  </varray>
 </kpoints>
 <parameters>
  <separator name="general" >
   <i type="string" name="SYSTEM">6_Pd100_top_free_z(O)</i>
   <i type="logical" name="LCOMPAT"> F  </i>
  </separator>
  <separator name="electronic" >
   <i type="string" name="PREC">normal</i>
   <i name="ENMAX">    400.00000000</i>
   <i name="ENAUG">    644.87300000</i>
   <i name="EDIFF">      0.00010000</i>
   <i type="int" name="IALGO">    68</i>
   <i type="int" name="IWAVPR">    10</i>
   <i type="int" name="NBANDS">   336</i>
   <i name="NELECT">    560.00000000</i>
   <i type="int" name="TURBO">     0</i>
   <i type="int" name="IRESTART">     0</i>
   <i type="int" name="NREBOOT">     0</i>
   <i type="int" name="NMIN">     0</i>
   <i name="EREF">      0.00000000</i>
   <separator name="electronic smearing" >
    <i type="int" name="ISMEAR">     2</i>
    <i name="SIGMA">      0.20000000</i>
    <i name="KSPACING">      0.50000000</i>
    <i type="logical" name="KGAMMA"> T  </i>
   </separator>
   <separator name="electronic projectors" >
    <i type="logical" name="LREAL"> T  </i>
    <v name="ROPT">     -0.00050000     -0.00050000     -0.00050000</v>
    <i type="int" name="LMAXPAW">  -100</i>
    <i type="int" name="LMAXMIX">     2</i>
    <i type="logical" name="NLSPLINE"> F  </i>
   </separator>
   <separator name="electronic startup" >
    <i type="int" name="ISTART">     0</i>
    <i type="int" name="ICHARG">     2</i>
    <i type="int" name="INIWAV">     1</i>
   </separator>
   <separator name="electronic spin" >
    <i type="int" name="ISPIN">     1</i>
    <i type="logical" name="LNONCOLLINEAR"> F  </i>
    <v name="MAGMOM">      1.00000000      1.00000000      1.00000000      1.00000000      1.00000000      1.00000000      1.00000000      1.00000000      1.00000000      1.00000000      1.00000000      1.00000000      1.00000000      1.00000000      1.00000000      1.00000000      1.00000000      1.00000000      1.00000000      1.00000000
      1.00000000      1.00000000      1.00000000      1.00000000      1.00000000      1.00000000      1.00000000      1.00000000      1.00000000      1.00000000      1.00000000      1.00000000      1.00000000      1.00000000      1.00000000      1.00000000      1.00000000      1.00000000      1.00000000      1.00000000
      1.00000000      1.00000000      1.00000000      1.00000000      1.00000000      1.00000000      1.00000000      1.00000000      1.00000000      1.00000000      1.00000000      1.00000000      1.00000000      1.00000000      1.00000000      1.00000000      1.00000000</v>
    <i name="NUPDOWN">     -1.00000000</i>
    <i type="logical" name="LSORBIT"> F  </i>
    <v name="SAXIS">      0.00000000      0.00000000      1.00000000</v>
    <i type="logical" name="LSPIRAL"> F  </i>
    <v name="QSPIRAL">      0.00000000      0.00000000      0.00000000</v>
    <i type="logical" name="LZEROZ"> F  </i>
   </separator>
   <separator name="electronic exchange-correlation" >
    <i type="logical" name="LASPH"> F  </i>
    <i type="logical" name="LMETAGGA"> F  </i>
   </separator>
   <separator name="electronic convergence" >
    <i type="int" name="NELM">   100</i>
    <i type="int" name="NELMDL">    -5</i>
    <i type="int" name="NELMIN">     6</i>
    <i name="ENINI">    400.00000000</i>
    <separator name="electronic convergence detail" >
     <i type="logical" name="LDIAG"> T  </i>
     <i type="logical" name="LSUBROT"> F  </i>
     <i name="WEIMIN">      0.00000000</i>
     <i name="EBREAK">      0.00000007</i>
     <i name="DEPER">      0.30000000</i>
     <i type="int" name="NRMM">     4</i>
     <i name="TIME">      0.40000000</i>
    </separator>
   </separator>
   <separator name="electronic mixer" >
    <i name="AMIX">      0.40000000</i>
    <i name="BMIX">      1.00000000</i>
    <i name="AMIN">      0.10000000</i>
    <i name="AMIX_MAG">      1.60000000</i>
    <i name="BMIX_MAG">      1.00000000</i>
    <separator name="electronic mixer details" >
     <i type="int" name="IMIX">     4</i>
     <i type="logical" name="MIXFIRST"> F  </i>
     <i type="int" name="MAXMIX">   -45</i>
     <i name="WC">    100.00000000</i>
     <i type="int" name="INIMIX">     1</i>
     <i type="int" name="MIXPRE">     1</i>
     <i type="int" name="MREMOVE">     5</i>
    </separator>
   </separator>
   <separator name="electronic dipolcorrection" >
    <i type="logical" name="LDIPOL"> F  </i>
    <i type="logical" name="LMONO"> F  </i>
    <i type="int" name="IDIPOL">     0</i>
    <i name="EPSILON">      1.00000000</i>
    <v name="DIPOL">   -100.00000000   -100.00000000   -100.00000000</v>
    <i name="EFIELD">      0.00000000</i>
   </separator>
  </separator>
  <separator name="grids" >
   <i type="int" name="NGX">   150</i>
   <i type="int" name="NGY">   150</i>
   <i type="int" name="NGZ">   150</i>
   <i type="int" name="NGXF">   300</i>
   <i type="int" name="NGYF">   300</i>
   <i type="int" name="NGZF">   300</i>
   <i type="logical" name="ADDGRID"> F  </i>
  </separator>
  <separator name="ionic" >
   <i type="int" name="NSW">     0</i>
   <i type="int" name="IBRION">    -1</i>
   <i type="int" name="MDALGO">     0</i>
   <i type="int" name="ISIF">     2</i>
   <i name="PSTRESS">      0.00000000</i>
   <i name="EDIFFG">     -0.05000000</i>
   <i type="int" name="NFREE">     1</i>
   <i name="POTIM">      0.50000000</i>
   <i name="SMASS">     -3.00000000</i>
   <i name="SCALEE">      1.00000000</i>
  </separator>
  <separator name="ionic md" >
   <i name="TEBEG">      0.00010000</i>
   <i name="TEEND">      0.00010000</i>
   <i type="int" name="NBLOCK">     1</i>
   <i type="int" name="KBLOCK">     1</i>
   <i type="int" name="NPACO">   256</i>
   <i name="APACO">     16.00000000</i>
  </separator>
  <separator name="symmetry" >
   <i type="int" name="ISYM">     2</i>
   <i name="SYMPREC">      0.00001000</i>
  </separator>
  <separator name="dos" >
   <i type="int" name="LORBIT">     0</i>
   <v name="RWIGS">     -1.00000000     -1.00000000     -1.00000000</v>
   <i type="int" name="NEDOS">   301</i>
   <i name="EMIN">     10.00000000</i>
   <i name="EMAX">    -10.00000000</i>
   <i name="EFERMI">      0.00000000</i>
  </separator>
  <separator name="writing" >
   <i type="int" name="NWRITE">     2</i>
   <i type="logical" name="LWAVE"> F  </i>
   <i type="logical" name="LDOWNSAMPLE"> F  </i>
   <i type="logical" name="LCHARG"> F  </i>
   <i type="logical" name="LPARD"> F  </i>
   <i type="logical" name="LVTOT"> F  </i>
   <i type="logical" name="LVHAR"> F  </i>
   <i type="logical" name="LELF"> F  </i>
   <i type="logical" name="LOPTICS"> F  </i>
   <v name="STM">      0.00000000      0.00000000      0.00000000      0.00000000      0.00000000      0.00000000      0.00000000</v>
  </separator>
  <separator name="performance" >
   <i type="int" name="NPAR">     1</i>
   <i type="int" name="NSIM">     4</i>
   <i type="int" name="NBLK">    -1</i>
   <i type="logical" name="LPLANE"> T  </i>
   <i type="logical" name="LSCALAPACK"> T  </i>
   <i type="logical" name="LSCAAWARE"> F  </i>
   <i type="logical" name="LSCALU"> F  </i>
   <i type="logical" name="LASYNC"> F  </i>
   <i type="logical" name="LORBITALREAL"> F  </i>
  </separator>
  <separator name="miscellaneous" >
   <i type="int" name="IDIOT">     3</i>
   <i type="int" name="ISPECIAL">     0</i>
   <i type="logical" name="LMUSIC"> F  </i>
   <v name="POMASS">    106.42000000     12.01100000     16.00000000</v>
   <v name="DARWINR">      0.00000000      0.00000000      0.00000000</v>
   <v name="DARWINV">      1.00000000      1.00000000      1.00000000</v>
   <i type="logical" name="LCORR"> T  </i>
  </separator>
  <i type="logical" name="GGA_COMPAT"> T  </i>
  <i type="logical" name="LBERRY"> F  </i>
  <i type="int" name="ICORELEVEL">     0</i>
  <i type="logical" name="LDAU"> F  </i>
  <i type="int" name="I_CONSTRAINED_M">     0</i>
  <separator name="electronic exchange-correlation" >
   <i type="string" name="GGA">RP</i>
   <i type="int" name="VOSKOWN">     0</i>
   <i type="logical" name="LHFCALC"> F  </i>
   <i type="string" name="PRECFOCK"></i>
   <i type="logical" name="LSYMGRAD"> F  </i>
   <i type="logical" name="LHFONE"> F  </i>
   <i type="logical" name="LRHFCALC"> F  </i>
   <i type="logical" name="LTHOMAS"> F  </i>
   <i type="logical" name="LMODELHF"> F  </i>
   <i name="ENCUT4O">     -1.00000000</i>
   <i type="int" name="EXXOEP">     0</i>
   <i type="int" name="FOURORBIT">     0</i>
   <i name="AEXX">      0.00000000</i>
   <i name="HFALPHA">      0.00000000</i>
   <i name="MCALPHA">      0.00000000</i>
   <i name="ALDAX">      1.00000000</i>
   <i name="AGGAX">      1.00000000</i>
   <i name="ALDAC">      1.00000000</i>
   <i name="AGGAC">      1.00000000</i>
   <i type="int" name="NKREDX">     1</i>
   <i type="int" name="NKREDY">     1</i>
   <i type="int" name="NKREDZ">     1</i>
   <i type="logical" name="SHIFTRED"> F  </i>
   <i type="logical" name="ODDONLY"> F  </i>
   <i type="logical" name="EVENONLY"> F  </i>
   <i type="int" name="LMAXFOCK">     0</i>
   <i type="int" name="NMAXFOCKAE">     0</i>
   <i type="logical" name="LFOCKAEDFT"> F  </i>
   <i name="HFSCREEN">      0.00000000</i>
   <i name="HFSCREENC">      0.00000000</i>
   <i type="int" name="NBANDSGWLOW">     0</i>
  </separator>
  <separator name="vdW DFT" >
   <i type="logical" name="LUSE_VDW"> F  </i>
   <i name="Zab_VDW">     -0.84910000</i>
   <i name="PARAM1">      0.12340000</i>
   <i name="PARAM2">      1.00000000</i>
   <i name="PARAM3">      0.00000000</i>
  </separator>
  <separator name="model GW" >
   <i type="int" name="MODEL_GW">     0</i>
   <i name="MODEL_EPS0">    284.21052632</i>
   <i name="MODEL_ALPHA">      1.00000000</i>
  </separator>
  <separator name="linear response parameters" >
   <i type="logical" name="LEPSILON"> F  </i>
   <i type="logical" name="LRPA"> F  </i>
   <i type="logical" name="LNABLA"> F  </i>
   <i type="logical" name="LVEL"> F  </i>
   <i type="int" name="KINTER">     0</i>
   <i name="CSHIFT">      0.10000000</i>
   <i name="OMEGAMAX">     -1.00000000</i>
   <i name="DEG_THRESHOLD">      0.00200000</i>
   <i name="RTIME">     -0.10000000</i>
   <i name="WPLASMAI">      0.00000000</i>
   <v name="DFIELD">      0.00000000      0.00000000      0.00000000</v>
   <v name="WPLASMA">      0.00000000      0.00000000      0.00000000      0.00000000      0.00000000      0.00000000      0.00000000      0.00000000      0.00000000</v>
  </separator>
  <separator name="orbital magnetization" >
   <i type="logical" name="NUCIND"> F  </i>
   <v name="MAGPOS">      0.00000000      0.00000000      0.00000000</v>
   <i type="logical" name="LNICSALL"> T  </i>
   <i type="logical" name="ORBITALMAG"> F  </i>
   <i type="logical" name="LMAGBLOCH"> F  </i>
   <i type="logical" name="LCHIMAG"> F  </i>
   <i type="logical" name="LGAUGE"> T  </i>
   <i type="int" name="MAGATOM">     0</i>
   <v name="MAGDIPOL">      0.00000000      0.00000000      0.00000000</v>
   <v name="AVECCONST">      0.00000000      0.00000000      0.00000000</v>
  </separator>
  <separator name="response functions" >
   <i type="logical" name="LADDER"> F  </i>
   <i type="logical" name="LRPAFORCE"> F  </i>
   <i type="logical" name="LFXC"> F  </i>
   <i type="logical" name="LHARTREE"> T  </i>
   <i type="int" name="IBSE">     0</i>
   <v type="int" name="KPOINT">    -1     0     0     0</v>
   <i type="logical" name="LTCTE"> F  </i>
   <i type="logical" name="LTETE"> F  </i>
   <i type="logical" name="LTRIPLET"> F  </i>
   <i type="logical" name="LFXCEPS"> F  </i>
   <i type="logical" name="LFXHEG"> F  </i>
   <i type="int" name="NATURALO">     2</i>
   <i type="logical" name="L2ORDER"> F  </i>
   <i type="logical" name="LMP2LT"> F  </i>
   <i type="logical" name="LUSEW"> F  </i>
   <i name="ENCUTGW">     -2.00000000</i>
   <i name="ENCUTGWSOFT">     -2.00000000</i>
   <i name="ENCUTLF">     -1.00000000</i>
   <i type="int" name="LMAXMP2">    -1</i>
   <i name="SCISSOR">      0.00000000</i>
   <i type="int" name="NOMEGA">     0</i>
   <i type="int" name="NOMEGAR">     0</i>
   <i type="int" name="NBANDSGW">    -1</i>
   <i type="int" name="NBANDSO">    -1</i>
   <i type="int" name="NBANDSV">    -1</i>
   <i type="int" name="NELM">   100</i>
   <i type="int" name="NELMHF">     1</i>
   <i type="int" name="DIM">     3</i>
   <i type="int" name="ANTIRES">     0</i>
   <i name="OMEGAMAX">    -30.00000000</i>
   <i name="OMEGAMIN">    -30.00000000</i>
   <i name="OMEGATL">   -200.00000000</i>
   <i type="int" name="OMEGAGRID">   140</i>
   <i name="CSHIFT">     -0.10000000</i>
   <i type="logical" name="SELFENERGY"> F  </i>
   <i type="logical" name="LSPECTRAL"> F  </i>
   <i type="logical" name="LSPECTRALGW"> F  </i>
   <i type="logical" name="LSINGLES"> F  </i>
   <i type="logical" name="LFERMIGW"> F  </i>
   <i type="logical" name="ODDONLYGW"> F  </i>
   <i type="logical" name="EVENONLYGW"> F  </i>
   <i type="int" name="NKREDLFX">     1</i>
   <i type="int" name="NKREDLFY">     1</i>
   <i type="int" name="NKREDLFZ">     1</i>
   <i type="int" name="MAXMEM"> 10000</i>
   <i type="int" name="TELESCOPE">     0</i>
   <i type="int" name="TAUPAR">     1</i>
   <i type="int" name="OMEGAPAR">    -1</i>
   <i name="LAMBDA">      1.00000000</i>
  </separator>
  <separator name="External order field" >
   <i name="OFIELD_KAPPA">      0.00000000</i>
   <v name="OFIELD_K">      0.00000000      0.00000000      0.00000000</v>
   <i name="OFIELD_Q6_NEAR">      0.00000000</i>
   <i name="OFIELD_Q6_FAR">      0.00000000</i>
   <i name="OFIELD_A">      0.00000000</i>
  </separator>
 </parameters>
 <atominfo>
  <atoms>      57 </atoms>
  <types>       3 </types>
  <array name="atoms" >
   <dimension dim="1">ion</dimension>
   <field type="string">element</field>
   <field type="int">atomtype</field>
   <set>
    <rc><c>Pd</c><c>   1</c></rc>
    <rc><c>Pd</c><c>   1</c></rc>
    <rc><c>Pd</c><c>   1</c></rc>
    <rc><c>Pd</c><c>   1</c></rc>
    <rc><c>Pd</c><c>   1</c></rc>
    <rc><c>Pd</c><c>   1</c></rc>
    <rc><c>Pd</c><c>   1</c></rc>
    <rc><c>Pd</c><c>   1</c></rc>
    <rc><c>Pd</c><c>   1</c></rc>
    <rc><c>Pd</c><c>   1</c></rc>
    <rc><c>Pd</c><c>   1</c></rc>
    <rc><c>Pd</c><c>   1</c></rc>
    <rc><c>Pd</c><c>   1</c></rc>
    <rc><c>Pd</c><c>   1</c></rc>
    <rc><c>Pd</c><c>   1</c></rc>
    <rc><c>Pd</c><c>   1</c></rc>
    <rc><c>Pd</c><c>   1</c></rc>
    <rc><c>Pd</c><c>   1</c></rc>
    <rc><c>Pd</c><c>   1</c></rc>
    <rc><c>Pd</c><c>   1</c></rc>
    <rc><c>Pd</c><c>   1</c></rc>
    <rc><c>Pd</c><c>   1</c></rc>
    <rc><c>Pd</c><c>   1</c></rc>
    <rc><c>Pd</c><c>   1</c></rc>
    <rc><c>Pd</c><c>   1</c></rc>
    <rc><c>Pd</c><c>   1</c></rc>
    <rc><c>Pd</c><c>   1</c></rc>
    <rc><c>Pd</c><c>   1</c></rc>
    <rc><c>Pd</c><c>   1</c></rc>
    <rc><c>Pd</c><c>   1</c></rc>
    <rc><c>Pd</c><c>   1</c></rc>
    <rc><c>Pd</c><c>   1</c></rc>
    <rc><c>Pd</c><c>   1</c></rc>
    <rc><c>Pd</c><c>   1</c></rc>
    <rc><c>Pd</c><c>   1</c></rc>
    <rc><c>Pd</c><c>   1</c></rc>
    <rc><c>Pd</c><c>   1</c></rc>
    <rc><c>Pd</c><c>   1</c></rc>
    <rc><c>Pd</c><c>   1</c></rc>
    <rc><c>Pd</c><c>   1</c></rc>
    <rc><c>Pd</c><c>   1</c></rc>
    <rc><c>Pd</c><c>   1</c></rc>
    <rc><c>Pd</c><c>   1</c></rc>
    <rc><c>Pd</c><c>   1</c></rc>
    <rc><c>Pd</c><c>   1</c></rc>
    <rc><c>Pd</c><c>   1</c></rc>
    <rc><c>Pd</c><c>   1</c></rc>
    <rc><c>Pd</c><c>   1</c></rc>
    <rc><c>Pd</c><c>   1</c></rc>
    <rc><c>Pd</c><c>   1</c></rc>
    <rc><c>Pd</c><c>   1</c></rc>
    <rc><c>Pd</c><c>   1</c></rc>
    <rc><c>Pd</c><c>   1</c></rc>
    <rc><c>Pd</c><c>   1</c></rc>
    <rc><c>Pd</c><c>   1</c></rc>
    <rc><c>C </c><c>   2</c></rc>
    <rc><c>O </c><c>   3</c></rc>
   </set>
  </array>
  <array name="atomtypes" >
   <dimension dim="1">type</dimension>
   <field type="int">atomspertype</field>
   <field type="string">element</field>
   <field>mass</field>
   <field>valence</field>
   <field type="string">pseudopotential</field>
   <set>
    <rc><c>  55</c><c>Pd</c><c>    106.42000000</c><c>     10.00000000</c><c>  PAW_PBE Pd 04Jan2005                  </c></rc>
    <rc><c>   1</c><c>C </c><c>     12.01100000</c><c>      4.00000000</c><c>  PAW_PBE C 08Apr2002                   </c></rc>
    <rc><c>   1</c><c>O </c><c>     16.00000000</c><c>      6.00000000</c><c>  PAW_PBE O 08Apr2002                   </c></rc>
   </set>
  </array>
 </atominfo>
 <structure name="initialpos" >
  <crystal>
   <varray name="basis" >
    <v>      30.00000000       0.00000000       0.00000000 </v>
    <v>       0.00000000      30.00000000       0.00000000 </v>
    <v>       0.00000000       0.00000000      30.00000000 </v>
   </varray>
   <i name="volume">  27000.00000000 </i>
   <varray name="rec_basis" >
    <v>       0.03333333       0.00000000       0.00000000 </v>
    <v>       0.00000000       0.03333333       0.00000000 </v>
    <v>       0.00000000       0.00000000       0.03333333 </v>
   </varray>
  </crystal>
  <varray name="positions" >
   <v>       0.44576020       0.32826710       0.41691983 </v>
   <v>       0.67173288       0.55423978       0.41691983 </v>
   <v>       0.55423980       0.32826710       0.41691983 </v>
   <v>       0.32826712       0.55423978       0.41691983 </v>
   <v>       0.50000000       0.38250690       0.34021317 </v>
   <v>       0.50000000       0.38250690       0.65978680 </v>
   <v>       0.50000000       0.27609440       0.50000000 </v>
   <v>       0.27609443       0.49999998       0.50000000 </v>
   <v>       0.72390557       0.49999998       0.50000000 </v>
   <v>       0.50000000       0.72390555       0.50000000 </v>
   <v>       0.61195280       0.38804720       0.34167483 </v>
   <v>       0.61195280       0.38804720       0.65832513 </v>
   <v>       0.38804722       0.61195278       0.34167483 </v>
   <v>       0.38804722       0.61195278       0.65832513 </v>
   <v>       0.38804720       0.38804720       0.34167483 </v>
   <v>       0.38804720       0.38804720       0.65832513 </v>
   <v>       0.61195278       0.61195278       0.34167483 </v>
   <v>       0.61195278       0.61195278       0.65832513 </v>
   <v>       0.44576020       0.32826710       0.58308023 </v>
   <v>       0.67173288       0.55423978       0.58308023 </v>
   <v>       0.55791699       0.44208301       0.41809300 </v>
   <v>       0.32826705       0.44576024       0.41691983 </v>
   <v>       0.55423973       0.67173293       0.41691983 </v>
   <v>       0.55423980       0.32826710       0.58308023 </v>
   <v>       0.32826712       0.55423978       0.58308023 </v>
   <v>       0.67173295       0.44576024       0.41691983 </v>
   <v>       0.44576027       0.67173293       0.41691983 </v>
   <v>       0.44208301       0.44208301       0.41809300 </v>
   <v>       0.50000000       0.38416601       0.50000000 </v>
   <v>       0.61749315       0.50000005       0.34021317 </v>
   <v>       0.61749315       0.50000005       0.65978680 </v>
   <v>       0.38250685       0.50000005       0.34021317 </v>
   <v>       0.38250685       0.50000005       0.65978680 </v>
   <v>       0.38317830       0.38317830       0.50000000 </v>
   <v>       0.61682172       0.61682172       0.50000000 </v>
   <v>       0.61682170       0.38317830       0.50000000 </v>
   <v>       0.38317828       0.61682172       0.50000000 </v>
   <v>       0.50000000       0.50000000       0.33478917 </v>
   <v>       0.50000000       0.50000000       0.66521087 </v>
   <v>       0.32826705       0.44576024       0.58308023 </v>
   <v>       0.55423973       0.67173293       0.58308023 </v>
   <v>       0.55791699       0.44208301       0.58190703 </v>
   <v>       0.44208298       0.55791702       0.41809300 </v>
   <v>       0.44208301       0.44208301       0.58190703 </v>
   <v>       0.67173295       0.44576024       0.58308023 </v>
   <v>       0.44576027       0.67173293       0.58308023 </v>
   <v>       0.55791702       0.55791702       0.41809300 </v>
   <v>       0.38416599       0.50000002       0.50000000 </v>
   <v>       0.61583401       0.50000002       0.50000000 </v>
   <v>       0.50000000       0.61749319       0.34021317 </v>
   <v>       0.50000000       0.61749319       0.65978680 </v>
   <v>       0.50000000       0.50000000       0.50000000 </v>
   <v>       0.44208298       0.55791702       0.58190703 </v>
   <v>       0.55791702       0.55791702       0.58190703 </v>
   <v>       0.50000000       0.61583404       0.50000000 </v>
   <v>       0.32116360       0.62153710       0.46226250 </v>
   <v>       0.29052843       0.64235673       0.45579797 </v>
  </varray>
  <varray name="selective"  type="logical" >
   <v type="logical" >  F  F  F </v>
   <v type="logical" >  F  F  F </v>
   <v type="logical" >  F  F  F </v>
   <v type="logical" >  F  F  F </v>
   <v type="logical" >  F  F  F </v>
   <v type="logical" >  F  F  F </v>
   <v type="logical" >  F  F  F </v>
   <v type="logical" >  F  F  F </v>
   <v type="logical" >  F  F  F </v>
   <v type="logical" >  F  F  F </v>
   <v type="logical" >  F  F  F </v>
   <v type="logical" >  F  F  F </v>
   <v type="logical" >  F  F  F </v>
   <v type="logical" >  F  F  F </v>
   <v type="logical" >  F  F  F </v>
   <v type="logical" >  F  F  F </v>
   <v type="logical" >  F  F  F </v>
   <v type="logical" >  F  F  F </v>
   <v type="logical" >  F  F  F </v>
   <v type="logical" >  F  F  F </v>
   <v type="logical" >  F  F  F </v>
   <v type="logical" >  F  F  F </v>
   <v type="logical" >  F  F  F </v>
   <v type="logical" >  F  F  F </v>
   <v type="logical" >  F  F  F </v>
   <v type="logical" >  F  F  F </v>
   <v type="logical" >  F  F  F </v>
   <v type="logical" >  F  F  F </v>
   <v type="logical" >  F  F  F </v>
   <v type="logical" >  F  F  F </v>
   <v type="logical" >  F  F  F </v>
   <v type="logical" >  F  F  F </v>
   <v type="logical" >  F  F  F </v>
   <v type="logical" >  F  F  F </v>
   <v type="logical" >  F  F  F </v>
   <v type="logical" >  F  F  F </v>
   <v type="logical" >  F  F  F </v>
   <v type="logical" >  F  F  F </v>
   <v type="logical" >  F  F  F </v>
   <v type="logical" >  F  F  F </v>
   <v type="logical" >  F  F  F </v>
   <v type="logical" >  F  F  F </v>
   <v type="logical" >  F  F  F </v>
   <v type="logical" >  F  F  F </v>
   <v type="logical" >  F  F  F </v>
   <v type="logical" >  F  F  F </v>
   <v type="logical" >  F  F  F </v>
   <v type="logical" >  F  F  F </v>
   <v type="logical" >  F  F  F </v>
   <v type="logical" >  F  F  F </v>
   <v type="logical" >  F  F  F </v>
   <v type="logical" >  F  F  F </v>
   <v type="logical" >  F  F  F </v>
   <v type="logical" >  F  F  F </v>
   <v type="logical" >  F  F  F </v>
   <v type="logical" >  F  F  F </v>
   <v type="logical" >  F  F  F </v>
  </varray>
  <nose>
   <v>      -3.00000000       0.00000000       0.00010000       0.00010000 </v>
  </nose>
 </structure>
 <calculation>
  <scstep>
   <time name="dav">  519.73  519.95</time>
   <time name="total">  541.55  541.78</time>
   <energy>
    <i name="alphaZ">     75.25431677 </i>
    <i name="ewald"> 138938.08218643 </i>
    <i name="hartreedc">-182300.54903774 </i>
    <i name="XCdc">  -1703.05757287 </i>
    <i name="pawpsdc">  44873.02882129 </i>
    <i name="pawaedc"> -41398.84523641 </i>
    <i name="eentropy">     -0.00854567 </i>
    <i name="bandstr">    817.49082492 </i>
    <i name="atom">  45086.50549395 </i>
    <i name="e_fr_energy">   4387.90125067 </i>
    <i name="e_wo_entrp">   4387.90979635 </i>
    <i name="e_0_energy">   4387.90338709 </i>
   </energy>
  </scstep>
  <scstep>
   <time name="dav">  834.56  834.69</time>
   <time name="total">  834.56  834.69</time>
   <energy>
    <i name="e_fr_energy">   2026.61202950 </i>
    <i name="e_wo_entrp">   2026.66242484 </i>
    <i name="e_0_energy">   2026.62462834 </i>
   </energy>
  </scstep>
  <scstep>
   <time name="dav">  680.56  680.66</time>
   <time name="total">  680.56  680.66</time>
   <energy>
    <i name="e_fr_energy">    237.74691392 </i>
    <i name="e_wo_entrp">    237.74310090 </i>
    <i name="e_0_energy">    237.74596066 </i>
   </energy>
  </scstep>
  <scstep>
   <time name="dav">  641.71  641.81</time>
   <time name="total">  641.71  641.81</time>
   <energy>
    <i name="e_fr_energy">   -133.53749291 </i>
    <i name="e_wo_entrp">   -133.52793417 </i>
    <i name="e_0_energy">   -133.53510323 </i>
   </energy>
  </scstep>
  <scstep>
   <time name="dav">  700.61  700.71</time>
   <time name="total">  729.92  730.02</time>
   <energy>
    <i name="e_fr_energy">   -179.66227171 </i>
    <i name="e_wo_entrp">   -180.18656944 </i>
    <i name="e_0_energy">   -179.79334614 </i>
   </energy>
  </scstep>
  <scstep>
   <time name="diag">   93.63   93.64</time>
   <time name="diis">  254.47  254.51</time>
   <time name="orth">   26.26   26.26</time>
   <time name="total">  421.32  421.39</time>
   <energy>
    <i name="e_fr_energy">   -180.22675467 </i>
    <i name="e_wo_entrp">   -179.93155294 </i>
    <i name="e_0_energy">   -180.15295424 </i>
   </energy>
  </scstep>
  <scstep>
   <time name="diag">   97.90   97.91</time>
   <time name="diis">  303.47  303.52</time>
   <time name="orth">   26.53   26.54</time>
   <time name="total">  478.26  478.35</time>
   <energy>
    <i name="e_fr_energy">   -181.29255527 </i>
    <i name="e_wo_entrp">   -181.28691317 </i>
    <i name="e_0_energy">   -181.29114474 </i>
   </energy>
  </scstep>
  <scstep>
   <time name="diag">   91.64   91.65</time>
   <time name="diis">  234.13  234.16</time>
   <time name="orth">   25.12   25.12</time>
   <time name="total">  398.39  398.45</time>
   <energy>
    <i name="e_fr_energy">   -183.89106106 </i>
    <i name="e_wo_entrp">   -183.73848301 </i>
    <i name="e_0_energy">   -183.85291655 </i>
   </energy>
  </scstep>
  <scstep>
   <time name="diag">   91.16   91.17</time>
   <time name="diis">  225.62  225.65</time>
   <time name="orth">   25.86   25.87</time>
   <time name="total">  390.28  390.33</time>
   <energy>
    <i name="e_fr_energy">   -182.06188620 </i>
    <i name="e_wo_entrp">   -181.90663497 </i>
    <i name="e_0_energy">   -182.02307339 </i>
   </energy>
  </scstep>
  <scstep>
   <time name="diag">   97.25   97.26</time>
   <time name="diis">  221.73  221.76</time>
   <time name="orth">   25.19   25.19</time>
   <time name="total">  391.33  391.38</time>
   <energy>
    <i name="e_fr_energy">   -179.24328617 </i>
    <i name="e_wo_entrp">   -179.19109817 </i>
    <i name="e_0_energy">   -179.23023917 </i>
   </energy>
  </scstep>
  <scstep>
   <time name="diag">   95.80   95.81</time>
   <time name="diis">  248.18  248.20</time>
   <time name="orth">   26.68   26.68</time>
   <time name="total">  424.39  424.44</time>
   <energy>
    <i name="e_fr_energy">   -178.44272574 </i>
    <i name="e_wo_entrp">   -178.44320711 </i>
    <i name="e_0_energy">   -178.44284608 </i>
   </energy>
  </scstep>
  <scstep>
   <time name="diag">  102.97  102.98</time>
   <time name="diis">  278.06  278.09</time>
   <time name="orth">   27.66   27.66</time>
   <time name="total">  464.00  464.04</time>
   <energy>
    <i name="e_fr_energy">   -177.62376494 </i>
    <i name="e_wo_entrp">   -177.57649092 </i>
    <i name="e_0_energy">   -177.61194643 </i>
   </energy>
  </scstep>
  <scstep>
   <time name="diag">  108.11  108.12</time>
   <time name="diis">  270.63  270.66</time>
   <time name="orth">   25.79   25.80</time>
   <time name="total">  454.95  455.00</time>
   <energy>
    <i name="e_fr_energy">   -176.63322944 </i>
    <i name="e_wo_entrp">   -176.57059648 </i>
    <i name="e_0_energy">   -176.61757120 </i>
   </energy>
  </scstep>
  <scstep>
   <time name="diag">   94.69   94.69</time>
   <time name="diis">  221.26  221.28</time>
   <time name="orth">   25.68   25.68</time>
   <time name="total">  388.36  388.40</time>
   <energy>
    <i name="e_fr_energy">   -176.53720068 </i>
    <i name="e_wo_entrp">   -176.49895357 </i>
    <i name="e_0_energy">   -176.52763890 </i>
   </energy>
  </scstep>
  <scstep>
   <time name="diag">   96.52   96.53</time>
   <time name="diis">  228.21  228.23</time>
   <time name="orth">   26.28   26.28</time>
   <time name="total">  395.76  395.79</time>
   <energy>
    <i name="e_fr_energy">   -176.74634287 </i>
    <i name="e_wo_entrp">   -176.79787925 </i>
    <i name="e_0_energy">   -176.75922696 </i>
   </energy>
  </scstep>
  <scstep>
   <time name="diag">   95.43   95.44</time>
   <time name="diis">  228.59  228.61</time>
   <time name="orth">   25.16   25.16</time>
   <time name="total">  395.60  395.64</time>
   <energy>
    <i name="e_fr_energy">   -176.07833749 </i>
    <i name="e_wo_entrp">   -176.05109151 </i>
    <i name="e_0_energy">   -176.07152600 </i>
   </energy>
  </scstep>
  <scstep>
   <time name="diag">   95.94   95.95</time>
   <time name="diis">  221.02  221.05</time>
   <time name="orth">   26.23   26.23</time>
   <time name="total">  392.14  392.19</time>
   <energy>
    <i name="e_fr_energy">   -175.91170961 </i>
    <i name="e_wo_entrp">   -175.96316564 </i>
    <i name="e_0_energy">   -175.92457362 </i>
   </energy>
  </scstep>
  <scstep>
   <time name="diag">   93.72   93.73</time>
   <time name="diis">  227.17  227.19</time>
   <time name="orth">   27.47   27.47</time>
   <time name="total">  400.28  400.32</time>
   <energy>
    <i name="e_fr_energy">   -176.11070574 </i>
    <i name="e_wo_entrp">   -176.18461515 </i>
    <i name="e_0_energy">   -176.12918310 </i>
   </energy>
  </scstep>
  <scstep>
   <time name="diag">   94.96   94.97</time>
   <time name="diis">  249.61  249.63</time>
   <time name="orth">   27.84   27.84</time>
   <time name="total">  425.38  425.41</time>
   <energy>
    <i name="e_fr_energy">   -176.03404886 </i>
    <i name="e_wo_entrp">   -176.11847719 </i>
    <i name="e_0_energy">   -176.05515594 </i>
   </energy>
  </scstep>
  <scstep>
   <time name="diag">   96.62   96.63</time>
   <time name="diis">  244.14  244.17</time>
   <time name="orth">   26.93   26.93</time>
   <time name="total">  421.40  421.44</time>
   <energy>
    <i name="e_fr_energy">   -175.83429095 </i>
    <i name="e_wo_entrp">   -175.89339008 </i>
    <i name="e_0_energy">   -175.84906574 </i>
   </energy>
  </scstep>
  <scstep>
   <time name="diag">  108.76  108.77</time>
   <time name="diis">  235.90  235.92</time>
   <time name="orth">   25.54   25.54</time>
   <time name="total">  421.63  421.67</time>
   <energy>
    <i name="e_fr_energy">   -175.50619630 </i>
    <i name="e_wo_entrp">   -175.47881897 </i>
    <i name="e_0_energy">   -175.49935197 </i>
   </energy>
  </scstep>
  <scstep>
   <time name="diag">   91.91   91.91</time>
   <time name="diis">  204.65  204.67</time>
   <time name="orth">   25.36   25.36</time>
   <time name="total">  368.84  368.87</time>
   <energy>
    <i name="e_fr_energy">   -175.48743413 </i>
    <i name="e_wo_entrp">   -175.43064315 </i>
    <i name="e_0_energy">   -175.47323639 </i>
   </energy>
  </scstep>
  <scstep>
   <time name="diag">   96.94   96.95</time>
   <time name="diis">  220.94  220.96</time>
   <time name="orth">   24.73   24.74</time>
   <time name="total">  388.75  388.79</time>
   <energy>
    <i name="e_fr_energy">   -175.37582152 </i>
    <i name="e_wo_entrp">   -175.31227994 </i>
    <i name="e_0_energy">   -175.35993613 </i>
   </energy>
  </scstep>
  <scstep>
   <time name="diag">   93.21   93.22</time>
   <time name="diis">  223.95  223.97</time>
   <time name="orth">   25.32   25.32</time>
   <time name="total">  390.24  390.27</time>
   <energy>
    <i name="e_fr_energy">   -175.22857099 </i>
    <i name="e_wo_entrp">   -175.18135600 </i>
    <i name="e_0_energy">   -175.21676724 </i>
   </energy>
  </scstep>
  <scstep>
   <time name="diag">   96.19   96.19</time>
   <time name="diis">  224.89  224.91</time>
   <time name="orth">   25.75   25.75</time>
   <time name="total">  395.86  395.90</time>
   <energy>
    <i name="e_fr_energy">   -175.20056142 </i>
    <i name="e_wo_entrp">   -175.16705102 </i>
    <i name="e_0_energy">   -175.19218382 </i>
   </energy>
  </scstep>
  <scstep>
   <time name="diag">   95.98   95.99</time>
   <time name="diis">  225.63  225.65</time>
   <time name="orth">   25.65   25.65</time>
   <time name="total">  396.35  396.38</time>
   <energy>
    <i name="e_fr_energy">   -175.15191801 </i>
    <i name="e_wo_entrp">   -175.11082498 </i>
    <i name="e_0_energy">   -175.14164475 </i>
   </energy>
  </scstep>
  <scstep>
   <time name="diag">   95.34   95.35</time>
   <time name="diis">  226.72  226.74</time>
   <time name="orth">   25.91   25.91</time>
   <time name="total">  400.12  400.15</time>
   <energy>
    <i name="e_fr_energy">   -175.11999630 </i>
    <i name="e_wo_entrp">   -175.07997017 </i>
    <i name="e_0_energy">   -175.10998977 </i>
   </energy>
  </scstep>
  <scstep>
   <time name="diag">  100.27  100.28</time>
   <time name="diis">  251.47  251.50</time>
   <time name="orth">   26.66   26.67</time>
   <time name="total">  431.49  431.53</time>
   <energy>
    <i name="e_fr_energy">   -175.11914101 </i>
    <i name="e_wo_entrp">   -175.08198681 </i>
    <i name="e_0_energy">   -175.10985246 </i>
   </energy>
  </scstep>
  <scstep>
   <time name="diag">  105.23  105.24</time>
   <time name="diis">  262.05  262.08</time>
   <time name="orth">   26.57   26.57</time>
   <time name="total">  451.72  451.77</time>
   <energy>
    <i name="e_fr_energy">   -175.09386583 </i>
    <i name="e_wo_entrp">   -175.05819204 </i>
    <i name="e_0_energy">   -175.08494738 </i>
   </energy>
  </scstep>
  <scstep>
   <time name="diag">  103.31  103.32</time>
   <time name="diis">  277.07  277.12</time>
   <time name="orth">   27.06   27.07</time>
   <time name="total">  465.81  465.88</time>
   <energy>
    <i name="e_fr_energy">   -175.07618883 </i>
    <i name="e_wo_entrp">   -175.03438145 </i>
    <i name="e_0_energy">   -175.06573698 </i>
   </energy>
  </scstep>
  <scstep>
   <time name="diag">  104.93  104.94</time>
   <time name="diis">  217.20  217.23</time>
   <time name="orth">   25.26   25.26</time>
   <time name="total">  402.22  402.27</time>
   <energy>
    <i name="e_fr_energy">   -175.06786698 </i>
    <i name="e_wo_entrp">   -175.02725596 </i>
    <i name="e_0_energy">   -175.05771423 </i>
   </energy>
  </scstep>
  <scstep>
   <time name="diag">   92.48   92.49</time>
   <time name="diis">  204.91  204.93</time>
   <time name="orth">   24.54   24.54</time>
   <time name="total">  370.29  370.32</time>
   <energy>
    <i name="e_fr_energy">   -175.06194254 </i>
    <i name="e_wo_entrp">   -175.02608363 </i>
    <i name="e_0_energy">   -175.05297781 </i>
   </energy>
  </scstep>
  <scstep>
   <time name="diag">   91.89   91.91</time>
   <time name="diis">  221.32  221.34</time>
   <time name="orth">   24.43   24.43</time>
   <time name="total">  384.05  384.09</time>
   <energy>
    <i name="e_fr_energy">   -175.05974237 </i>
    <i name="e_wo_entrp">   -175.02196612 </i>
    <i name="e_0_energy">   -175.05029831 </i>
   </energy>
  </scstep>
  <scstep>
   <time name="diag">   90.12   90.12</time>
   <time name="diis">  205.84  205.86</time>
   <time name="orth">   25.01   25.01</time>
   <time name="total">  368.80  368.83</time>
   <energy>
    <i name="e_fr_energy">   -175.06011814 </i>
    <i name="e_wo_entrp">   -175.01463717 </i>
    <i name="e_0_energy">   -175.04874790 </i>
   </energy>
  </scstep>
  <scstep>
   <time name="diag">   95.12   95.12</time>
   <time name="diis">  212.78  212.80</time>
   <time name="orth">   24.38   24.39</time>
   <time name="total">  380.38  380.41</time>
   <energy>
    <i name="e_fr_energy">   -175.06141060 </i>
    <i name="e_wo_entrp">   -175.02114296 </i>
    <i name="e_0_energy">   -175.05134369 </i>
   </energy>
  </scstep>
  <scstep>
   <time name="diag">   93.96   93.97</time>
   <time name="diis">  222.76  222.78</time>
   <time name="orth">   25.67   25.67</time>
   <time name="total">  389.98  390.02</time>
   <energy>
    <i name="e_fr_energy">   -175.06080852 </i>
    <i name="e_wo_entrp">   -175.02140772 </i>
    <i name="e_0_energy">   -175.05095832 </i>
   </energy>
  </scstep>
  <scstep>
   <time name="diag">   95.36   95.37</time>
   <time name="diis">  221.52  221.54</time>
   <time name="orth">   25.28   25.28</time>
   <time name="total">  392.41  392.44</time>
   <energy>
    <i name="e_fr_energy">   -175.06195887 </i>
    <i name="e_wo_entrp">   -175.02207410 </i>
    <i name="e_0_energy">   -175.05198768 </i>
   </energy>
  </scstep>
  <scstep>
   <time name="diag">   94.40   94.41</time>
   <time name="diis">  220.74  220.76</time>
   <time name="orth">   24.91   24.91</time>
   <time name="total">  390.08  390.11</time>
   <energy>
    <i name="e_fr_energy">   -175.06422447 </i>
    <i name="e_wo_entrp">   -175.02507842 </i>
    <i name="e_0_energy">   -175.05443796 </i>
   </energy>
  </scstep>
  <scstep>
   <time name="diag">   94.73   94.73</time>
   <time name="diis">  229.95  229.97</time>
   <time name="orth">   26.19   26.19</time>
   <time name="total">  401.06  401.09</time>
   <energy>
    <i name="e_fr_energy">   -175.06643896 </i>
    <i name="e_wo_entrp">   -175.02498808 </i>
    <i name="e_0_energy">   -175.05607624 </i>
   </energy>
  </scstep>
  <scstep>
   <time name="diag">   96.93   96.94</time>
   <time name="diis">  168.40  168.41</time>
   <time name="orth">   26.19   26.19</time>
   <time name="total">  343.98  344.01</time>
   <energy>
    <i name="e_fr_energy">   -175.06754544 </i>
    <i name="e_wo_entrp">   -175.02562461 </i>
    <i name="e_0_energy">   -175.05706524 </i>
   </energy>
  </scstep>
  <scstep>
   <time name="diag">   98.74   98.75</time>
   <time name="diis">  160.77  160.78</time>
   <time name="orth">   26.16   26.16</time>
   <time name="total">  335.74  335.77</time>
   <energy>
    <i name="e_fr_energy">   -175.06976736 </i>
    <i name="e_wo_entrp">   -175.02935056 </i>
    <i name="e_0_energy">   -175.05966316 </i>
   </energy>
  </scstep>
  <scstep>
   <time name="diag">   97.89   97.89</time>
   <time name="diis">  150.36  150.37</time>
   <time name="orth">   26.45   26.45</time>
   <time name="total">  329.17  329.20</time>
   <energy>
    <i name="e_fr_energy">   -175.07098239 </i>
    <i name="e_wo_entrp">   -175.03046685 </i>
    <i name="e_0_energy">   -175.06085351 </i>
   </energy>
  </scstep>
  <scstep>
   <time name="diag">   98.20   98.20</time>
   <time name="diis">  161.72  161.73</time>
   <time name="orth">   26.57   26.57</time>
   <time name="total">  348.94  348.97</time>
   <energy>
    <i name="e_fr_energy">   -175.07358991 </i>
    <i name="e_wo_entrp">   -175.03339460 </i>
    <i name="e_0_energy">   -175.06354108 </i>
   </energy>
  </scstep>
  <scstep>
   <time name="diag">  125.74  125.75</time>
   <time name="diis">  193.22  193.24</time>
   <time name="orth">   28.25   28.25</time>
   <time name="total">  403.87  403.91</time>
   <energy>
    <i name="e_fr_energy">   -175.07708043 </i>
    <i name="e_wo_entrp">   -175.03755540 </i>
    <i name="e_0_energy">   -175.06719917 </i>
   </energy>
  </scstep>
  <scstep>
   <time name="diag">   96.16   96.17</time>
   <time name="diis">  148.14  148.16</time>
   <time name="orth">   27.11   27.11</time>
   <time name="total">  324.06  324.09</time>
   <energy>
    <i name="e_fr_energy">   -175.07825947 </i>
    <i name="e_wo_entrp">   -175.03777249 </i>
    <i name="e_0_energy">   -175.06813773 </i>
   </energy>
  </scstep>
  <scstep>
   <time name="diag">   95.34   95.34</time>
   <time name="diis">  139.05  139.06</time>
   <time name="orth">   25.37   25.37</time>
   <time name="total">  309.50  309.53</time>
   <energy>
    <i name="e_fr_energy">   -175.07963714 </i>
    <i name="e_wo_entrp">   -175.03934189 </i>
    <i name="e_0_energy">   -175.06956333 </i>
   </energy>
  </scstep>
  <scstep>
   <time name="diag">  102.50  102.51</time>
   <time name="diis">  166.26  166.28</time>
   <time name="orth">   24.89   24.89</time>
   <time name="total">  342.72  342.75</time>
   <energy>
    <i name="e_fr_energy">   -175.08110062 </i>
    <i name="e_wo_entrp">   -175.03980319 </i>
    <i name="e_0_energy">   -175.07077626 </i>
   </energy>
  </scstep>
  <scstep>
   <time name="diag">   92.53   92.53</time>
   <time name="diis">  139.74  139.76</time>
   <time name="orth">   26.35   26.35</time>
   <time name="total">  309.72  309.74</time>
   <energy>
    <i name="e_fr_energy">   -175.08242859 </i>
    <i name="e_wo_entrp">   -175.04120723 </i>
    <i name="e_0_energy">   -175.07212325 </i>
   </energy>
  </scstep>
  <scstep>
   <time name="diag">   96.85   96.85</time>
   <time name="diis">  143.16  143.18</time>
   <time name="orth">   26.76   26.76</time>
   <time name="total">  320.95  320.98</time>
   <energy>
    <i name="e_fr_energy">   -175.08304530 </i>
    <i name="e_wo_entrp">   -175.04234104 </i>
    <i name="e_0_energy">   -175.07286924 </i>
   </energy>
  </scstep>
  <scstep>
   <time name="diag">   96.72   96.73</time>
   <time name="diis">  136.28  136.29</time>
   <time name="orth">   28.17   28.17</time>
   <time name="total">  315.95  315.97</time>
   <energy>
    <i name="e_fr_energy">   -175.08369305 </i>
    <i name="e_wo_entrp">   -175.04339695 </i>
    <i name="e_0_energy">   -175.07361902 </i>
   </energy>
  </scstep>
  <scstep>
   <time name="diag">  104.98  104.99</time>
   <time name="diis">  146.99  147.00</time>
   <time name="orth">   25.69   25.69</time>
   <time name="total">  331.89  331.92</time>
   <energy>
    <i name="e_fr_energy">   -175.08462697 </i>
    <i name="e_wo_entrp">   -175.04398732 </i>
    <i name="e_0_energy">   -175.07446706 </i>
   </energy>
  </scstep>
  <scstep>
   <time name="diag">   96.91   96.91</time>
   <time name="diis">  137.76  137.77</time>
   <time name="orth">   25.40   25.40</time>
   <time name="total">  312.17  312.20</time>
   <energy>
    <i name="e_fr_energy">   -175.08500122 </i>
    <i name="e_wo_entrp">   -175.04445460 </i>
    <i name="e_0_energy">   -175.07486457 </i>
   </energy>
  </scstep>
  <scstep>
   <time name="diag">  103.29  103.30</time>
   <time name="diis">  152.33  152.34</time>
   <time name="orth">   26.87   26.87</time>
   <time name="total">  340.28  340.31</time>
   <energy>
    <i name="e_fr_energy">   -175.08579238 </i>
    <i name="e_wo_entrp">   -175.04539089 </i>
    <i name="e_0_energy">   -175.07569201 </i>
   </energy>
  </scstep>
  <scstep>
   <time name="diag">  108.40  108.41</time>
   <time name="diis">  134.81  134.82</time>
   <time name="orth">   25.63   25.63</time>
   <time name="total">  323.13  323.16</time>
   <energy>
    <i name="e_fr_energy">   -175.08616606 </i>
    <i name="e_wo_entrp">   -175.04570383 </i>
    <i name="e_0_energy">   -175.07605050 </i>
   </energy>
  </scstep>
  <scstep>
   <time name="diag">   96.68   96.69</time>
   <time name="diis">  108.06  108.07</time>
   <time name="orth">   25.71   25.72</time>
   <time name="total">  281.48  281.51</time>
   <energy>
    <i name="e_fr_energy">   -175.08641854 </i>
    <i name="e_wo_entrp">   -175.04605613 </i>
    <i name="e_0_energy">   -175.07632793 </i>
   </energy>
  </scstep>
  <scstep>
   <time name="diag">   95.29   95.30</time>
   <time name="diis">  105.21  105.22</time>
   <time name="orth">   26.09   26.09</time>
   <time name="total">  279.58  279.61</time>
   <energy>
    <i name="e_fr_energy">   -175.08672839 </i>
    <i name="e_wo_entrp">   -175.04618267 </i>
    <i name="e_0_energy">   -175.07659196 </i>
   </energy>
  </scstep>
  <scstep>
   <time name="diag">  101.38  101.39</time>
   <time name="diis">  112.78  112.79</time>
   <time name="orth">   28.84   28.84</time>
   <time name="total">  302.47  302.50</time>
   <energy>
    <i name="e_fr_energy">   -175.08692901 </i>
    <i name="e_wo_entrp">   -175.04644083 </i>
    <i name="e_0_energy">   -175.07680696 </i>
   </energy>
  </scstep>
  <scstep>
   <time name="diag">  102.39  102.40</time>
   <time name="diis">  105.88  105.89</time>
   <time name="orth">   27.48   27.48</time>
   <time name="total">  296.22  296.25</time>
   <energy>
    <i name="e_fr_energy">   -175.08709719 </i>
    <i name="e_wo_entrp">   -175.04670299 </i>
    <i name="e_0_energy">   -175.07699864 </i>
   </energy>
  </scstep>
  <scstep>
   <time name="diag">   96.89   96.90</time>
   <time name="diis">   96.27   96.27</time>
   <time name="orth">   24.80   24.80</time>
   <time name="total">  271.30  271.33</time>
   <energy>
    <i name="e_fr_energy">   -175.08727465 </i>
    <i name="e_wo_entrp">   -175.04681639 </i>
    <i name="e_0_energy">   -175.07716008 </i>
   </energy>
  </scstep>
  <scstep>
   <time name="diag">   91.60   91.61</time>
   <time name="diis">   87.15   87.16</time>
   <time name="orth">   24.86   24.86</time>
   <time name="total">  219.86  219.88</time>
   <energy>
    <i name="alphaZ">     75.25431677 </i>
    <i name="ewald"> 138938.08218643 </i>
    <i name="hartreedc">-183302.49548931 </i>
    <i name="XCdc">  -1692.34178833 </i>
    <i name="pawpsdc">  46114.69465792 </i>
    <i name="pawaedc"> -42584.69520916 </i>
    <i name="eentropy">     -0.04044624 </i>
    <i name="bandstr">  -2810.05109195 </i>
    <i name="atom">  45086.50549395 </i>
    <i name="e_fr_energy">   -175.08736991 </i>
    <i name="e_wo_entrp">   -175.04692368 </i>
    <i name="e_0_energy">   -175.07725836 </i>
   </energy>
  </scstep>
  <structure>
   <crystal>
    <varray name="basis" >
     <v>      30.00000000       0.00000000       0.00000000 </v>
     <v>       0.00000000      30.00000000       0.00000000 </v>
     <v>       0.00000000       0.00000000      30.00000000 </v>
    </varray>
    <i name="volume">  27000.00000000 </i>
    <varray name="rec_basis" >
     <v>       0.03333333       0.00000000       0.00000000 </v>
     <v>       0.00000000       0.03333333       0.00000000 </v>
     <v>       0.00000000       0.00000000       0.03333333 </v>
    </varray>
   </crystal>
   <varray name="positions" >
    <v>       0.44576020       0.32826710       0.41691983 </v>
    <v>       0.67173288       0.55423978       0.41691983 </v>
    <v>       0.55423980       0.32826710       0.41691983 </v>
    <v>       0.32826712       0.55423978       0.41691983 </v>
    <v>       0.50000000       0.38250690       0.34021317 </v>
    <v>       0.50000000       0.38250690       0.65978680 </v>
    <v>       0.50000000       0.27609440       0.50000000 </v>
    <v>       0.27609443       0.49999998       0.50000000 </v>
    <v>       0.72390557       0.49999998       0.50000000 </v>
    <v>       0.50000000       0.72390555       0.50000000 </v>
    <v>       0.61195280       0.38804720       0.34167483 </v>
    <v>       0.61195280       0.38804720       0.65832513 </v>
    <v>       0.38804722       0.61195278       0.34167483 </v>
    <v>       0.38804722       0.61195278       0.65832513 </v>
    <v>       0.38804720       0.38804720       0.34167483 </v>
    <v>       0.38804720       0.38804720       0.65832513 </v>
    <v>       0.61195278       0.61195278       0.34167483 </v>
    <v>       0.61195278       0.61195278       0.65832513 </v>
    <v>       0.44576020       0.32826710       0.58308023 </v>
    <v>       0.67173288       0.55423978       0.58308023 </v>
    <v>       0.55791699       0.44208301       0.41809300 </v>
    <v>       0.32826705       0.44576024       0.41691983 </v>
    <v>       0.55423973       0.67173293       0.41691983 </v>
    <v>       0.55423980       0.32826710       0.58308023 </v>
    <v>       0.32826712       0.55423978       0.58308023 </v>
    <v>       0.67173295       0.44576024       0.41691983 </v>
    <v>       0.44576027       0.67173293       0.41691983 </v>
    <v>       0.44208301       0.44208301       0.41809300 </v>
    <v>       0.50000000       0.38416601       0.50000000 </v>
    <v>       0.61749315       0.50000005       0.34021317 </v>
    <v>       0.61749315       0.50000005       0.65978680 </v>
    <v>       0.38250685       0.50000005       0.34021317 </v>
    <v>       0.38250685       0.50000005       0.65978680 </v>
    <v>       0.38317830       0.38317830       0.50000000 </v>
    <v>       0.61682172       0.61682172       0.50000000 </v>
    <v>       0.61682170       0.38317830       0.50000000 </v>
    <v>       0.38317828       0.61682172       0.50000000 </v>
    <v>       0.50000000       0.50000000       0.33478917 </v>
    <v>       0.50000000       0.50000000       0.66521087 </v>
    <v>       0.32826705       0.44576024       0.58308023 </v>
    <v>       0.55423973       0.67173293       0.58308023 </v>
    <v>       0.55791699       0.44208301       0.58190703 </v>
    <v>       0.44208298       0.55791702       0.41809300 </v>
    <v>       0.44208301       0.44208301       0.58190703 </v>
    <v>       0.67173295       0.44576024       0.58308023 </v>
    <v>       0.44576027       0.67173293       0.58308023 </v>
    <v>       0.55791702       0.55791702       0.41809300 </v>
    <v>       0.38416599       0.50000002       0.50000000 </v>
    <v>       0.61583401       0.50000002       0.50000000 </v>
    <v>       0.50000000       0.61749319       0.34021317 </v>
    <v>       0.50000000       0.61749319       0.65978680 </v>
    <v>       0.50000000       0.50000000       0.50000000 </v>
    <v>       0.44208298       0.55791702       0.58190703 </v>
    <v>       0.55791702       0.55791702       0.58190703 </v>
    <v>       0.50000000       0.61583404       0.50000000 </v>
    <v>       0.32116360       0.62153710       0.46226250 </v>
    <v>       0.29052843       0.64235673       0.45579797 </v>
   </varray>
  </structure>
  <varray name="forces" >
   <v>       0.70860252       1.10603520       0.30130792 </v>
   <v>      -1.10249987      -0.70427111       0.29890189 </v>
   <v>      -0.70249787       1.10597555       0.29124037 </v>
   <v>       1.09740494       0.20722489       0.96814754 </v>
   <v>       0.01080344       0.41654517       1.28307779 </v>
   <v>       0.00872671       0.41530063      -1.27767336 </v>
   <v>      -0.00257391       1.51450912      -0.00232395 </v>
   <v>       1.47331739      -0.03310152       0.00591344 </v>
   <v>      -1.51334135       0.00714887      -0.00337793 </v>
   <v>       0.00258469      -1.51298315      -0.00173090 </v>
   <v>      -0.75828433       0.75484720       1.06875050 </v>
   <v>      -0.76080622       0.75600409      -1.06548336 </v>
   <v>       0.75494911      -0.74792011       1.02113116 </v>
   <v>       0.75473192      -0.75704302      -1.06750658 </v>
   <v>       0.72713908       0.77709222       1.06812077 </v>
   <v>       0.74099164       0.75447391      -1.07112334 </v>
   <v>      -0.76194563      -0.74924714       1.06048860 </v>
   <v>      -0.75567011      -0.75155356      -1.06813911 </v>
   <v>       0.70341405       1.10652485      -0.29696559 </v>
   <v>      -1.10304420      -0.70178630      -0.29562561 </v>
   <v>       0.11284297      -0.10893815      -0.15983149 </v>
   <v>       1.11496689       0.63741985       0.26885075 </v>
   <v>      -0.71247196      -1.10428759       0.29165362 </v>
   <v>      -0.70649529       1.10302667      -0.28972959 </v>
   <v>       1.12659219      -0.72968136      -0.23531176 </v>
   <v>      -1.10565025       0.70436968       0.28577181 </v>
   <v>       0.76634381      -1.09060137       0.28537837 </v>
   <v>      -0.11044750      -0.10866177      -0.15349911 </v>
   <v>      -0.00313635      -0.23002987       0.00267241 </v>
   <v>      -0.41629672      -0.00421198       1.27960032 </v>
   <v>      -0.41451453      -0.00449705      -1.27620829 </v>
   <v>       0.43193363      -0.04873341       1.24090130 </v>
   <v>       0.40701582       0.00581053      -1.28449018 </v>
   <v>       0.82840136       0.83726198       0.00369099 </v>
   <v>      -0.80623378      -0.83197441       0.00491383 </v>
   <v>      -0.84095304       0.82515339      -0.01056022 </v>
   <v>      -0.81878909      -0.58155853      -0.90814237 </v>
   <v>      -0.00130593       0.00697493       1.18290202 </v>
   <v>       0.01563812      -0.00866054      -1.16518316 </v>
   <v>       1.11486016       0.68707418      -0.28583054 </v>
   <v>      -0.70287828      -1.10364749      -0.30092428 </v>
   <v>       0.10508929      -0.10648062       0.16130549 </v>
   <v>      -0.04695555       0.08372603      -0.21534404 </v>
   <v>      -0.10408259      -0.10916765       0.15231099 </v>
   <v>      -1.10182585       0.71067998      -0.28189590 </v>
   <v>       0.71924766      -1.12348661      -0.29315484 </v>
   <v>       0.11167368       0.10607803      -0.14905714 </v>
   <v>      -0.22072582      -0.08966135       0.02565431 </v>
   <v>       0.22588378       0.00934380      -0.00113231 </v>
   <v>       0.01452200      -0.42067977       1.27444668 </v>
   <v>      -0.00786392      -0.41811645      -1.27705907 </v>
   <v>      -0.00053537      -0.00214987      -0.00143145 </v>
   <v>      -0.09160351       0.11592648       0.17679614 </v>
   <v>       0.10297752       0.10440190       0.14495007 </v>
   <v>       0.01511138       0.23430590       0.01645262 </v>
   <v>       5.40796215      -3.76267340       0.93797145 </v>
   <v>      -3.93029910       2.85257011      -0.66456768 </v>
  </varray>
  <varray name="stress" >
   <v>      -6.67246765      -0.12367295      -0.06758647 </v>
   <v>      -0.12367295      -6.70695175      -0.10115151 </v>
   <v>      -0.06758645      -0.10115153      -6.81369276 </v>
  </varray>
  <energy>
   <i name="e_fr_energy">   -175.08736991 </i>
   <i name="e_wo_entrp">   -175.07725836 </i>
   <i name="e_0_energy">     -0.04044624 </i>
  </energy>
  <time name="totalsc">24300.0524302.76</time>
  <eigenvalues>
   <array>
    <dimension dim="1">band</dimension>
    <dimension dim="2">kpoint</dimension>
    <dimension dim="3">spin</dimension>
    <field>eigene</field>
    <field>occ</field>
    <set>
     <set comment="spin 1">
      <set comment="kpoint 1">
       <r>  -28.5151    1.0000 </r>
       <r>  -13.2585    1.0000 </r>
       <r>  -11.0779    1.0000 </r>
       <r>  -10.9243    1.0000 </r>
       <r>  -10.0787    1.0000 </r>
       <r>   -6.6408    1.0000 </r>
       <r>   -6.1368    1.0000 </r>
       <r>   -6.1261    1.0000 </r>
       <r>   -6.1193    1.0000 </r>
       <r>   -5.8536    1.0000 </r>
       <r>   -5.8171    1.0000 </r>
       <r>   -5.8093    1.0000 </r>
       <r>   -5.7575    1.0000 </r>
       <r>   -5.7342    1.0000 </r>
       <r>   -5.7029    1.0000 </r>
       <r>   -5.6899    1.0000 </r>
       <r>   -5.6835    1.0000 </r>
       <r>   -5.6812    1.0000 </r>
       <r>   -5.6796    1.0000 </r>
       <r>   -5.6254    1.0000 </r>
       <r>   -5.6079    1.0000 </r>
       <r>   -5.6013    1.0000 </r>
       <r>   -5.5987    1.0000 </r>
       <r>   -5.5911    1.0000 </r>
       <r>   -5.5814    1.0000 </r>
       <r>   -5.5773    1.0000 </r>
       <r>   -5.5550    1.0000 </r>
       <r>   -5.5435    1.0000 </r>
       <r>   -5.5387    1.0000 </r>
       <r>   -5.5328    1.0000 </r>
       <r>   -5.5281    1.0000 </r>
       <r>   -5.5187    1.0000 </r>
       <r>   -5.5169    1.0000 </r>
       <r>   -5.5121    1.0000 </r>
       <r>   -5.5092    1.0000 </r>
       <r>   -5.5070    1.0000 </r>
       <r>   -5.4930    1.0000 </r>
       <r>   -5.4891    1.0000 </r>
       <r>   -5.4793    1.0000 </r>
       <r>   -5.4790    1.0000 </r>
       <r>   -5.4706    1.0000 </r>
       <r>   -5.4676    1.0000 </r>
       <r>   -5.4634    1.0000 </r>
       <r>   -5.4632    1.0000 </r>
       <r>   -5.4613    1.0000 </r>
       <r>   -5.4513    1.0000 </r>
       <r>   -5.4462    1.0000 </r>
       <r>   -5.4307    1.0000 </r>
       <r>   -5.4245    1.0000 </r>
       <r>   -5.4242    1.0000 </r>
       <r>   -5.4207    1.0000 </r>
       <r>   -5.4037    1.0000 </r>
       <r>   -5.4002    1.0000 </r>
       <r>   -5.3994    1.0000 </r>
       <r>   -5.3919    1.0000 </r>
       <r>   -5.3723    1.0000 </r>
       <r>   -5.3641    1.0000 </r>
       <r>   -5.3318    1.0000 </r>
       <r>   -5.3298    1.0000 </r>
       <r>   -5.3235    1.0000 </r>
       <r>   -5.3187    1.0000 </r>
       <r>   -5.3110    1.0000 </r>
       <r>   -5.3085    1.0000 </r>
       <r>   -5.3067    1.0000 </r>
       <r>   -5.3029    1.0000 </r>
       <r>   -5.2932    1.0000 </r>
       <r>   -5.2905    1.0000 </r>
       <r>   -5.2652    1.0000 </r>
       <r>   -5.2478    1.0000 </r>
       <r>   -5.2373    1.0000 </r>
       <r>   -5.2234    1.0000 </r>
       <r>   -5.1852    1.0000 </r>
       <r>   -5.1838    1.0000 </r>
       <r>   -5.1814    1.0000 </r>
       <r>   -5.1759    1.0000 </r>
       <r>   -5.1752    1.0000 </r>
       <r>   -5.1734    1.0000 </r>
       <r>   -5.1638    1.0000 </r>
       <r>   -5.1632    1.0000 </r>
       <r>   -5.1461    1.0000 </r>
       <r>   -5.1442    1.0000 </r>
       <r>   -5.1367    1.0000 </r>
       <r>   -5.1286    1.0000 </r>
       <r>   -5.1237    1.0000 </r>
       <r>   -5.1186    1.0000 </r>
       <r>   -5.1041    1.0000 </r>
       <r>   -5.1021    1.0000 </r>
       <r>   -5.0965    1.0000 </r>
       <r>   -5.0855    1.0000 </r>
       <r>   -5.0655    1.0000 </r>
       <r>   -5.0578    1.0000 </r>
       <r>   -5.0543    1.0000 </r>
       <r>   -5.0531    1.0000 </r>
       <r>   -5.0480    1.0000 </r>
       <r>   -5.0452    1.0000 </r>
       <r>   -5.0444    1.0000 </r>
       <r>   -5.0421    1.0000 </r>
       <r>   -5.0365    1.0000 </r>
       <r>   -5.0317    1.0000 </r>
       <r>   -5.0202    1.0000 </r>
       <r>   -5.0140    1.0000 </r>
       <r>   -5.0073    1.0000 </r>
       <r>   -5.0067    1.0000 </r>
       <r>   -4.9996    1.0000 </r>
       <r>   -4.9977    1.0000 </r>
       <r>   -4.9950    1.0000 </r>
       <r>   -4.9938    1.0000 </r>
       <r>   -4.9894    1.0000 </r>
       <r>   -4.9840    1.0000 </r>
       <r>   -4.9783    1.0000 </r>
       <r>   -4.9767    1.0000 </r>
       <r>   -4.9746    1.0000 </r>
       <r>   -4.9667    1.0000 </r>
       <r>   -4.9644    1.0000 </r>
       <r>   -4.9518    1.0000 </r>
       <r>   -4.9499    1.0000 </r>
       <r>   -4.9448    1.0000 </r>
       <r>   -4.9351    1.0000 </r>
       <r>   -4.9284    1.0000 </r>
       <r>   -4.9175    1.0000 </r>
       <r>   -4.9159    1.0000 </r>
       <r>   -4.9080    1.0000 </r>
       <r>   -4.9075    1.0000 </r>
       <r>   -4.9013    1.0000 </r>
       <r>   -4.8984    1.0000 </r>
       <r>   -4.8920    1.0000 </r>
       <r>   -4.8812    1.0000 </r>
       <r>   -4.8661    1.0000 </r>
       <r>   -4.8558    1.0000 </r>
       <r>   -4.8555    1.0000 </r>
       <r>   -4.8410    1.0000 </r>
       <r>   -4.8360    1.0000 </r>
       <r>   -4.8324    1.0000 </r>
       <r>   -4.8317    1.0000 </r>
       <r>   -4.8280    1.0000 </r>
       <r>   -4.8244    1.0000 </r>
       <r>   -4.8080    0.9999 </r>
       <r>   -4.8039    0.9999 </r>
       <r>   -4.7986    0.9999 </r>
       <r>   -4.7863    0.9999 </r>
       <r>   -4.7838    0.9999 </r>
       <r>   -4.7637    0.9998 </r>
       <r>   -4.7574    0.9998 </r>
       <r>   -4.7428    0.9997 </r>
       <r>   -4.7335    0.9996 </r>
       <r>   -4.7331    0.9996 </r>
       <r>   -4.7302    0.9996 </r>
       <r>   -4.7199    0.9995 </r>
       <r>   -4.7173    0.9995 </r>
       <r>   -4.7016    0.9993 </r>
       <r>   -4.6978    0.9992 </r>
       <r>   -4.6923    0.9991 </r>
       <r>   -4.6799    0.9989 </r>
       <r>   -4.6791    0.9989 </r>
       <r>   -4.6742    0.9988 </r>
       <r>   -4.6727    0.9988 </r>
       <r>   -4.6692    0.9987 </r>
       <r>   -4.6672    0.9986 </r>
       <r>   -4.6666    0.9986 </r>
       <r>   -4.6601    0.9985 </r>
       <r>   -4.6497    0.9982 </r>
       <r>   -4.6475    0.9981 </r>
       <r>   -4.6458    0.9981 </r>
       <r>   -4.6446    0.9980 </r>
       <r>   -4.6429    0.9980 </r>
       <r>   -4.6402    0.9979 </r>
       <r>   -4.6369    0.9978 </r>
       <r>   -4.6337    0.9977 </r>
       <r>   -4.6279    0.9975 </r>
       <r>   -4.6269    0.9974 </r>
       <r>   -4.6168    0.9971 </r>
       <r>   -4.6144    0.9970 </r>
       <r>   -4.6125    0.9969 </r>
       <r>   -4.5925    0.9962 </r>
       <r>   -4.5914    0.9961 </r>
       <r>   -4.5899    0.9961 </r>
       <r>   -4.5875    0.9960 </r>
       <r>   -4.5813    0.9958 </r>
       <r>   -4.5795    0.9957 </r>
       <r>   -4.5698    0.9954 </r>
       <r>   -4.5662    0.9953 </r>
       <r>   -4.5597    0.9952 </r>
       <r>   -4.5592    0.9952 </r>
       <r>   -4.5524    0.9951 </r>
       <r>   -4.5470    0.9951 </r>
       <r>   -4.5468    0.9951 </r>
       <r>   -4.5451    0.9951 </r>
       <r>   -4.5424    0.9951 </r>
       <r>   -4.5396    0.9951 </r>
       <r>   -4.5392    0.9951 </r>
       <r>   -4.5115    0.9962 </r>
       <r>   -4.5103    0.9963 </r>
       <r>   -4.4999    0.9973 </r>
       <r>   -4.4993    0.9974 </r>
       <r>   -4.4987    0.9974 </r>
       <r>   -4.4907    0.9985 </r>
       <r>   -4.4865    0.9991 </r>
       <r>   -4.4821    0.9999 </r>
       <r>   -4.4752    1.0012 </r>
       <r>   -4.4745    1.0014 </r>
       <r>   -4.4651    1.0036 </r>
       <r>   -4.4633    1.0041 </r>
       <r>   -4.4575    1.0056 </r>
       <r>   -4.4565    1.0059 </r>
       <r>   -4.4522    1.0073 </r>
       <r>   -4.4476    1.0087 </r>
       <r>   -4.4452    1.0096 </r>
       <r>   -4.4444    1.0098 </r>
       <r>   -4.4388    1.0119 </r>
       <r>   -4.4329    1.0141 </r>
       <r>   -4.4325    1.0143 </r>
       <r>   -4.4146    1.0220 </r>
       <r>   -4.4114    1.0235 </r>
       <r>   -4.4043    1.0268 </r>
       <r>   -4.4002    1.0288 </r>
       <r>   -4.3990    1.0294 </r>
       <r>   -4.3970    1.0303 </r>
       <r>   -4.3939    1.0318 </r>
       <r>   -4.3910    1.0332 </r>
       <r>   -4.3893    1.0340 </r>
       <r>   -4.3851    1.0360 </r>
       <r>   -4.3745    1.0408 </r>
       <r>   -4.3551    1.0481 </r>
       <r>   -4.3481    1.0499 </r>
       <r>   -4.3439    1.0507 </r>
       <r>   -4.3374    1.0515 </r>
       <r>   -4.3331    1.0516 </r>
       <r>   -4.3305    1.0516 </r>
       <r>   -4.3284    1.0514 </r>
       <r>   -4.3270    1.0513 </r>
       <r>   -4.3261    1.0512 </r>
       <r>   -4.3249    1.0510 </r>
       <r>   -4.3226    1.0506 </r>
       <r>   -4.3180    1.0495 </r>
       <r>   -4.3176    1.0494 </r>
       <r>   -4.3138    1.0480 </r>
       <r>   -4.3133    1.0478 </r>
       <r>   -4.3101    1.0464 </r>
       <r>   -4.3093    1.0460 </r>
       <r>   -4.3032    1.0425 </r>
       <r>   -4.2996    1.0399 </r>
       <r>   -4.2949    1.0360 </r>
       <r>   -4.2887    1.0299 </r>
       <r>   -4.2884    1.0295 </r>
       <r>   -4.2875    1.0285 </r>
       <r>   -4.2855    1.0262 </r>
       <r>   -4.2788    1.0175 </r>
       <r>   -4.2764    1.0139 </r>
       <r>   -4.2758    1.0130 </r>
       <r>   -4.2741    1.0104 </r>
       <r>   -4.2596    0.9836 </r>
       <r>   -4.2558    0.9753 </r>
       <r>   -4.2552    0.9741 </r>
       <r>   -4.2495    0.9603 </r>
       <r>   -4.2472    0.9547 </r>
       <r>   -4.2451    0.9490 </r>
       <r>   -4.2434    0.9444 </r>
       <r>   -4.2418    0.9400 </r>
       <r>   -4.2372    0.9267 </r>
       <r>   -4.2370    0.9262 </r>
       <r>   -4.2336    0.9159 </r>
       <r>   -4.2312    0.9081 </r>
       <r>   -4.2281    0.8979 </r>
       <r>   -4.2276    0.8964 </r>
       <r>   -4.2262    0.8915 </r>
       <r>   -4.2165    0.8570 </r>
       <r>   -4.2144    0.8491 </r>
       <r>   -4.2119    0.8393 </r>
       <r>   -4.2099    0.8314 </r>
       <r>   -4.2096    0.8301 </r>
       <r>   -4.2070    0.8199 </r>
       <r>   -4.1954    0.7704 </r>
       <r>   -4.1917    0.7535 </r>
       <r>   -4.1860    0.7272 </r>
       <r>   -4.1807    0.7022 </r>
       <r>   -4.1765    0.6815 </r>
       <r>   -4.1711    0.6544 </r>
       <r>   -4.1644    0.6208 </r>
       <r>   -4.1631    0.6138 </r>
       <r>   -4.1622    0.6091 </r>
       <r>   -4.1606    0.6011 </r>
       <r>   -4.1480    0.5352 </r>
       <r>   -4.1402    0.4938 </r>
       <r>   -4.1235    0.4061 </r>
       <r>   -4.1220    0.3983 </r>
       <r>   -4.1186    0.3809 </r>
       <r>   -4.1119    0.3469 </r>
       <r>   -4.1016    0.2960 </r>
       <r>   -4.0153    0.0010 </r>
       <r>   -3.9648   -0.0495 </r>
       <r>   -3.8996   -0.0370 </r>
       <r>   -3.8178   -0.0036 </r>
       <r>   -3.8128   -0.0024 </r>
       <r>   -3.7791    0.0031 </r>
       <r>   -3.4947    0.0001 </r>
       <r>   -3.4837    0.0001 </r>
       <r>   -3.3455    0.0000 </r>
       <r>   -3.0545    0.0000 </r>
       <r>   -3.0508    0.0000 </r>
       <r>   -3.0365    0.0000 </r>
       <r>   -3.0182    0.0000 </r>
       <r>   -3.0131    0.0000 </r>
       <r>   -3.0033    0.0000 </r>
       <r>   -2.9261    0.0000 </r>
       <r>   -2.8386    0.0000 </r>
       <r>   -2.5558    0.0000 </r>
       <r>   -2.5348    0.0000 </r>
       <r>   -2.5128    0.0000 </r>
       <r>   -2.2127    0.0000 </r>
       <r>   -2.1235    0.0000 </r>
       <r>   -2.1161    0.0000 </r>
       <r>   -2.1053    0.0000 </r>
       <r>   -2.0400    0.0000 </r>
       <r>   -1.9627    0.0000 </r>
       <r>   -1.9400    0.0000 </r>
       <r>   -1.8464    0.0000 </r>
       <r>   -1.8392    0.0000 </r>
       <r>   -1.7453    0.0000 </r>
       <r>   -1.6894    0.0000 </r>
       <r>   -1.6494    0.0000 </r>
       <r>   -1.6342    0.0000 </r>
       <r>   -1.5471    0.0000 </r>
       <r>   -1.5331    0.0000 </r>
       <r>   -1.4273    0.0000 </r>
       <r>   -1.3195    0.0000 </r>
       <r>   -1.0788    0.0000 </r>
       <r>   -1.0723    0.0000 </r>
       <r>   -1.0031    0.0000 </r>
       <r>   -0.9861    0.0000 </r>
       <r>   -0.9464    0.0000 </r>
       <r>   -0.9371    0.0000 </r>
       <r>   -0.9259    0.0000 </r>
       <r>   -0.9170    0.0000 </r>
       <r>   -0.8795    0.0000 </r>
       <r>   -0.7950    0.0000 </r>
       <r>   -0.6019    0.0000 </r>
      </set>
     </set>
    </set>
   </array>
  </eigenvalues>
  <separator name="orbital magnetization" >
   <v name="MAGDIPOLOUT">      0.00000000      0.00000000      0.00000000</v>
  </separator>
  <dos>
   <i name="efermi">     -4.14135104 </i>
   <total>
    <array>
     <dimension dim="1">gridpoints</dimension>
     <dimension dim="2">spin</dimension>
     <field>energy</field>
     <field>total</field>
     <field>integrated</field>
     <set>
      <set comment="spin 1">
       <r>   -30.5151     0.0000     0.0000 </r>
       <r>   -30.4087     0.0000     0.0000 </r>
       <r>   -30.3024     0.0000     0.0000 </r>
       <r>   -30.1960     0.0000     0.0000 </r>
       <r>   -30.0896     0.0000     0.0000 </r>
       <r>   -29.9832     0.0000     0.0000 </r>
       <r>   -29.8768     0.0000     0.0000 </r>
       <r>   -29.7705     0.0000     0.0000 </r>
       <r>   -29.6641     0.0000     0.0000 </r>
       <r>   -29.5577     0.0000     0.0000 </r>
       <r>   -29.4513     0.0000     0.0000 </r>
       <r>   -29.3450     0.0000     0.0000 </r>
       <r>   -29.2386     0.0002     0.0000 </r>
       <r>   -29.1322     0.0035     0.0004 </r>
       <r>   -29.0258     0.0293     0.0035 </r>
       <r>   -28.9194     0.0598     0.0099 </r>
       <r>   -28.8131    -0.3123    -0.0233 </r>
       <r>   -28.7067    -0.7511    -0.1032 </r>
       <r>   -28.6003     2.9843     0.2142 </r>
       <r>   -28.4939     9.4738     1.2220 </r>
       <r>   -28.3876     7.3456     2.0034 </r>
       <r>   -28.2812     0.7292     2.0810 </r>
       <r>   -28.1748    -0.7620     1.9999 </r>
       <r>   -28.0684    -0.0744     1.9920 </r>
       <r>   -27.9620     0.0596     1.9984 </r>
       <r>   -27.8557     0.0141     1.9999 </r>
       <r>   -27.7493     0.0012     2.0000 </r>
       <r>   -27.6429     0.0000     2.0000 </r>
       <r>   -27.5365     0.0000     2.0000 </r>
       <r>   -27.4302     0.0000     2.0000 </r>
       <r>   -27.3238     0.0000     2.0000 </r>
       <r>   -27.2174     0.0000     2.0000 </r>
       <r>   -27.1110     0.0000     2.0000 </r>
       <r>   -27.0047     0.0000     2.0000 </r>
       <r>   -26.8983     0.0000     2.0000 </r>
       <r>   -26.7919     0.0000     2.0000 </r>
       <r>   -26.6855     0.0000     2.0000 </r>
       <r>   -26.5791     0.0000     2.0000 </r>
       <r>   -26.4728     0.0000     2.0000 </r>
       <r>   -26.3664     0.0000     2.0000 </r>
       <r>   -26.2600     0.0000     2.0000 </r>
       <r>   -26.1536     0.0000     2.0000 </r>
       <r>   -26.0473     0.0000     2.0000 </r>
       <r>   -25.9409     0.0000     2.0000 </r>
       <r>   -25.8345     0.0000     2.0000 </r>
       <r>   -25.7281     0.0000     2.0000 </r>
       <r>   -25.6217     0.0000     2.0000 </r>
       <r>   -25.5154     0.0000     2.0000 </r>
       <r>   -25.4090     0.0000     2.0000 </r>
       <r>   -25.3026     0.0000     2.0000 </r>
       <r>   -25.1962     0.0000     2.0000 </r>
       <r>   -25.0899     0.0000     2.0000 </r>
       <r>   -24.9835     0.0000     2.0000 </r>
       <r>   -24.8771     0.0000     2.0000 </r>
       <r>   -24.7707     0.0000     2.0000 </r>
       <r>   -24.6643     0.0000     2.0000 </r>
       <r>   -24.5580     0.0000     2.0000 </r>
       <r>   -24.4516     0.0000     2.0000 </r>
       <r>   -24.3452     0.0000     2.0000 </r>
       <r>   -24.2388     0.0000     2.0000 </r>
       <r>   -24.1325     0.0000     2.0000 </r>
       <r>   -24.0261     0.0000     2.0000 </r>
       <r>   -23.9197     0.0000     2.0000 </r>
       <r>   -23.8133     0.0000     2.0000 </r>
       <r>   -23.7070     0.0000     2.0000 </r>
       <r>   -23.6006     0.0000     2.0000 </r>
       <r>   -23.4942     0.0000     2.0000 </r>
       <r>   -23.3878     0.0000     2.0000 </r>
       <r>   -23.2814     0.0000     2.0000 </r>
       <r>   -23.1751     0.0000     2.0000 </r>
       <r>   -23.0687     0.0000     2.0000 </r>
       <r>   -22.9623     0.0000     2.0000 </r>
       <r>   -22.8559     0.0000     2.0000 </r>
       <r>   -22.7496     0.0000     2.0000 </r>
       <r>   -22.6432     0.0000     2.0000 </r>
       <r>   -22.5368     0.0000     2.0000 </r>
       <r>   -22.4304     0.0000     2.0000 </r>
       <r>   -22.3240     0.0000     2.0000 </r>
       <r>   -22.2177     0.0000     2.0000 </r>
       <r>   -22.1113     0.0000     2.0000 </r>
       <r>   -22.0049     0.0000     2.0000 </r>
       <r>   -21.8985     0.0000     2.0000 </r>
       <r>   -21.7922     0.0000     2.0000 </r>
       <r>   -21.6858     0.0000     2.0000 </r>
       <r>   -21.5794     0.0000     2.0000 </r>
       <r>   -21.4730     0.0000     2.0000 </r>
       <r>   -21.3667     0.0000     2.0000 </r>
       <r>   -21.2603     0.0000     2.0000 </r>
       <r>   -21.1539     0.0000     2.0000 </r>
       <r>   -21.0475     0.0000     2.0000 </r>
       <r>   -20.9411     0.0000     2.0000 </r>
       <r>   -20.8348     0.0000     2.0000 </r>
       <r>   -20.7284     0.0000     2.0000 </r>
       <r>   -20.6220     0.0000     2.0000 </r>
       <r>   -20.5156     0.0000     2.0000 </r>
       <r>   -20.4093     0.0000     2.0000 </r>
       <r>   -20.3029     0.0000     2.0000 </r>
       <r>   -20.1965     0.0000     2.0000 </r>
       <r>   -20.0901     0.0000     2.0000 </r>
       <r>   -19.9837     0.0000     2.0000 </r>
       <r>   -19.8774     0.0000     2.0000 </r>
       <r>   -19.7710     0.0000     2.0000 </r>
       <r>   -19.6646     0.0000     2.0000 </r>
       <r>   -19.5582     0.0000     2.0000 </r>
       <r>   -19.4519     0.0000     2.0000 </r>
       <r>   -19.3455     0.0000     2.0000 </r>
       <r>   -19.2391     0.0000     2.0000 </r>
       <r>   -19.1327     0.0000     2.0000 </r>
       <r>   -19.0263     0.0000     2.0000 </r>
       <r>   -18.9200     0.0000     2.0000 </r>
       <r>   -18.8136     0.0000     2.0000 </r>
       <r>   -18.7072     0.0000     2.0000 </r>
       <r>   -18.6008     0.0000     2.0000 </r>
       <r>   -18.4945     0.0000     2.0000 </r>
       <r>   -18.3881     0.0000     2.0000 </r>
       <r>   -18.2817     0.0000     2.0000 </r>
       <r>   -18.1753     0.0000     2.0000 </r>
       <r>   -18.0690     0.0000     2.0000 </r>
       <r>   -17.9626     0.0000     2.0000 </r>
       <r>   -17.8562     0.0000     2.0000 </r>
       <r>   -17.7498     0.0000     2.0000 </r>
       <r>   -17.6434     0.0000     2.0000 </r>
       <r>   -17.5371     0.0000     2.0000 </r>
       <r>   -17.4307     0.0000     2.0000 </r>
       <r>   -17.3243     0.0000     2.0000 </r>
       <r>   -17.2179     0.0000     2.0000 </r>
       <r>   -17.1116     0.0000     2.0000 </r>
       <r>   -17.0052     0.0000     2.0000 </r>
       <r>   -16.8988     0.0000     2.0000 </r>
       <r>   -16.7924     0.0000     2.0000 </r>
       <r>   -16.6860     0.0000     2.0000 </r>
       <r>   -16.5797     0.0000     2.0000 </r>
       <r>   -16.4733     0.0000     2.0000 </r>
       <r>   -16.3669     0.0000     2.0000 </r>
       <r>   -16.2605     0.0000     2.0000 </r>
       <r>   -16.1542     0.0000     2.0000 </r>
       <r>   -16.0478     0.0000     2.0000 </r>
       <r>   -15.9414     0.0000     2.0000 </r>
       <r>   -15.8350     0.0000     2.0000 </r>
       <r>   -15.7286     0.0000     2.0000 </r>
       <r>   -15.6223     0.0000     2.0000 </r>
       <r>   -15.5159     0.0000     2.0000 </r>
       <r>   -15.4095     0.0000     2.0000 </r>
       <r>   -15.3031     0.0000     2.0000 </r>
       <r>   -15.1968     0.0000     2.0000 </r>
       <r>   -15.0904     0.0000     2.0000 </r>
       <r>   -14.9840     0.0000     2.0000 </r>
       <r>   -14.8776     0.0000     2.0000 </r>
       <r>   -14.7713     0.0000     2.0000 </r>
       <r>   -14.6649     0.0000     2.0000 </r>
       <r>   -14.5585     0.0000     2.0000 </r>
       <r>   -14.4521     0.0000     2.0000 </r>
       <r>   -14.3457     0.0000     2.0000 </r>
       <r>   -14.2394     0.0000     2.0000 </r>
       <r>   -14.1330     0.0000     2.0000 </r>
       <r>   -14.0266     0.0000     2.0000 </r>
       <r>   -13.9202     0.0011     2.0001 </r>
       <r>   -13.8139     0.0135     2.0016 </r>
       <r>   -13.7075     0.0587     2.0078 </r>
       <r>   -13.6011    -0.0650     2.0009 </r>
       <r>   -13.4947    -0.7503     1.9211 </r>
       <r>   -13.3883     0.6336     1.9885 </r>
       <r>   -13.2820     7.1952     2.7539 </r>
       <r>   -13.1756     9.5492     3.7697 </r>
       <r>   -13.0692     3.1344     4.1031 </r>
       <r>   -12.9628    -0.7335     4.0251 </r>
       <r>   -12.8565    -0.3288     3.9901 </r>
       <r>   -12.7501     0.0585     3.9964 </r>
       <r>   -12.6437     0.0303     3.9996 </r>
       <r>   -12.5373     0.0037     4.0000 </r>
       <r>   -12.4310     0.0002     4.0000 </r>
       <r>   -12.3246     0.0000     4.0000 </r>
       <r>   -12.2182     0.0000     4.0000 </r>
       <r>   -12.1118     0.0000     4.0000 </r>
       <r>   -12.0054     0.0000     4.0000 </r>
       <r>   -11.8991     0.0000     4.0000 </r>
       <r>   -11.7927     0.0002     4.0000 </r>
       <r>   -11.6863     0.0044     4.0005 </r>
       <r>   -11.5799     0.0346     4.0042 </r>
       <r>   -11.4736     0.0690     4.0115 </r>
       <r>   -11.3672    -0.3141     3.9781 </r>
       <r>   -11.2608    -0.7646     3.8968 </r>
       <r>   -11.1544     2.7734     4.1918 </r>
       <r>   -11.0480    10.6198     5.3215 </r>
       <r>   -10.9417    14.3613     6.8492 </r>
       <r>   -10.8353     9.7298     7.8842 </r>
       <r>   -10.7289     2.0305     8.1002 </r>
       <r>   -10.6225    -0.7997     8.0152 </r>
       <r>   -10.5162    -0.1673     7.9974 </r>
       <r>   -10.4098    -0.0419     7.9929 </r>
       <r>   -10.3034    -0.7701     7.9110 </r>
       <r>   -10.1970     1.1398     8.0323 </r>
       <r>   -10.0906     7.9116     8.8739 </r>
       <r>    -9.9843     9.1280     9.8449 </r>
       <r>    -9.8779     2.4162    10.1019 </r>
       <r>    -9.7715    -0.7995    10.0169 </r>
       <r>    -9.6651    -0.2503     9.9903 </r>
       <r>    -9.5588     0.0633     9.9970 </r>
       <r>    -9.4524     0.0253     9.9997 </r>
       <r>    -9.3460     0.0028    10.0000 </r>
       <r>    -9.2396     0.0001    10.0000 </r>
       <r>    -9.1333     0.0000    10.0000 </r>
       <r>    -9.0269     0.0000    10.0000 </r>
       <r>    -8.9205     0.0000    10.0000 </r>
       <r>    -8.8141     0.0000    10.0000 </r>
       <r>    -8.7077     0.0000    10.0000 </r>
       <r>    -8.6014     0.0000    10.0000 </r>
       <r>    -8.4950     0.0000    10.0000 </r>
       <r>    -8.3886     0.0000    10.0000 </r>
       <r>    -8.2822     0.0000    10.0000 </r>
       <r>    -8.1759     0.0000    10.0000 </r>
       <r>    -8.0695     0.0000    10.0000 </r>
       <r>    -7.9631     0.0000    10.0000 </r>
       <r>    -7.8567     0.0000    10.0000 </r>
       <r>    -7.7503     0.0000    10.0000 </r>
       <r>    -7.6440     0.0000    10.0000 </r>
       <r>    -7.5376     0.0000    10.0000 </r>
       <r>    -7.4312     0.0000    10.0000 </r>
       <r>    -7.3248     0.0006    10.0001 </r>
       <r>    -7.2185     0.0086    10.0010 </r>
       <r>    -7.1121     0.0486    10.0061 </r>
       <r>    -7.0057     0.0054    10.0067 </r>
       <r>    -6.8993    -0.6072     9.9421 </r>
       <r>    -6.7929    -0.1060     9.9309 </r>
       <r>    -6.6866     5.7188    10.5392 </r>
       <r>    -6.5802    10.1599    11.6200 </r>
       <r>    -6.4738     4.4893    12.0976 </r>
       <r>    -6.3674    -2.5562    11.8256 </r>
       <r>    -6.2611     1.3053    11.9645 </r>
       <r>    -6.1547    20.9246    14.1904 </r>
       <r>    -6.0483    26.8177    17.0432 </r>
       <r>    -5.9419    10.5452    18.1650 </r>
       <r>    -5.8356    20.8296    20.3808 </r>
       <r>    -5.7292    63.4041    27.1255 </r>
       <r>    -5.6228   134.7590    41.4608 </r>
       <r>    -5.5164   245.0411    67.5277 </r>
       <r>    -5.4100   300.0722    99.4486 </r>
       <r>    -5.3037   243.8903   125.3930 </r>
       <r>    -5.1973   205.0531   147.2060 </r>
       <r>    -5.0909   272.9824   176.2451 </r>
       <r>    -4.9845   361.2511   214.6741 </r>
       <r>    -4.8782   345.2841   251.4045 </r>
       <r>    -4.7718   290.1420   282.2691 </r>
       <r>    -4.6654   339.3868   318.3721 </r>
       <r>    -4.5590   415.2038   362.5404 </r>
       <r>    -4.4526   421.5308   407.3818 </r>
       <r>    -4.3463   471.9629   457.5880 </r>
       <r>    -4.2399   553.4327   516.4607 </r>
       <r>    -4.1335   431.7237   562.3863 </r>
       <r>    -4.0271   158.6682   579.2650 </r>
       <r>    -3.9208    21.0843   581.5079 </r>
       <r>    -3.8144    26.5085   584.3278 </r>
       <r>    -3.7080    28.0105   587.3075 </r>
       <r>    -3.6016     9.5726   588.3258 </r>
       <r>    -3.4952    14.5947   589.8784 </r>
       <r>    -3.3889    22.9113   592.3156 </r>
       <r>    -3.2825    10.5962   593.4428 </r>
       <r>    -3.1761     3.1034   593.7729 </r>
       <r>    -3.0697    34.6955   597.4637 </r>
       <r>    -2.9634    65.3665   604.4173 </r>
       <r>    -2.8570    42.7526   608.9652 </r>
       <r>    -2.7506     8.5038   609.8698 </r>
       <r>    -2.6442     4.5624   610.3551 </r>
       <r>    -2.5379    23.9676   612.9047 </r>
       <r>    -2.4315    24.6119   615.5229 </r>
       <r>    -2.3251     4.8678   616.0407 </r>
       <r>    -2.2187    10.0969   617.1148 </r>
       <r>    -2.1123    36.6944   621.0182 </r>
       <r>    -2.0060    46.0383   625.9157 </r>
       <r>    -1.8996    38.1277   629.9716 </r>
       <r>    -1.7932    34.1773   633.6073 </r>
       <r>    -1.6868    38.9740   637.7532 </r>
       <r>    -1.5805    43.2670   642.3559 </r>
       <r>    -1.4741    34.8934   646.0677 </r>
       <r>    -1.3677    21.5879   648.3642 </r>
       <r>    -1.2613     9.7562   649.4020 </r>
       <r>    -1.1549     6.1920   650.0607 </r>
       <r>    -1.0486    32.6749   653.5366 </r>
       <r>    -0.9422    69.7653   660.9580 </r>
       <r>    -0.8358    62.8330   667.6421 </r>
       <r>    -0.7294    24.0358   670.1989 </r>
       <r>    -0.6231     7.2438   670.9695 </r>
       <r>    -0.5167     7.4909   671.7664 </r>
       <r>    -0.4103     2.8907   672.0739 </r>
       <r>    -0.3039    -0.5420   672.0162 </r>
       <r>    -0.1976    -0.2523   671.9894 </r>
       <r>    -0.0912     0.0666   671.9964 </r>
       <r>     0.0152     0.0296   671.9996 </r>
       <r>     0.1216     0.0036   672.0000 </r>
       <r>     0.2280     0.0002   672.0000 </r>
       <r>     0.3343     0.0000   672.0000 </r>
       <r>     0.4407     0.0000   672.0000 </r>
       <r>     0.5471     0.0000   672.0000 </r>
       <r>     0.6535     0.0000   672.0000 </r>
       <r>     0.7598     0.0000   672.0000 </r>
       <r>     0.8662     0.0000   672.0000 </r>
       <r>     0.9726     0.0000   672.0000 </r>
       <r>     1.0790     0.0000   672.0000 </r>
       <r>     1.1854     0.0000   672.0000 </r>
       <r>     1.2917     0.0000   672.0000 </r>
       <r>     1.3981     0.0000   672.0000 </r>
      </set>
     </set>
    </array>
   </total>
  </dos>
 </calculation>
 <structure name="finalpos" >
  <crystal>
   <varray name="basis" >
    <v>      30.00000000       0.00000000       0.00000000 </v>
    <v>       0.00000000      30.00000000       0.00000000 </v>
    <v>       0.00000000       0.00000000      30.00000000 </v>
   </varray>
   <i name="volume">  27000.00000000 </i>
   <varray name="rec_basis" >
    <v>       0.03333333       0.00000000       0.00000000 </v>
    <v>       0.00000000       0.03333333       0.00000000 </v>
    <v>       0.00000000       0.00000000       0.03333333 </v>
   </varray>
  </crystal>
  <varray name="positions" >
   <v>       0.44576020       0.32826710       0.41691983 </v>
   <v>       0.67173288       0.55423978       0.41691983 </v>
   <v>       0.55423980       0.32826710       0.41691983 </v>
   <v>       0.32826712       0.55423978       0.41691983 </v>
   <v>       0.50000000       0.38250690       0.34021317 </v>
   <v>       0.50000000       0.38250690       0.65978680 </v>
   <v>       0.50000000       0.27609440       0.50000000 </v>
   <v>       0.27609443       0.49999998       0.50000000 </v>
   <v>       0.72390557       0.49999998       0.50000000 </v>
   <v>       0.50000000       0.72390555       0.50000000 </v>
   <v>       0.61195280       0.38804720       0.34167483 </v>
   <v>       0.61195280       0.38804720       0.65832513 </v>
   <v>       0.38804722       0.61195278       0.34167483 </v>
   <v>       0.38804722       0.61195278       0.65832513 </v>
   <v>       0.38804720       0.38804720       0.34167483 </v>
   <v>       0.38804720       0.38804720       0.65832513 </v>
   <v>       0.61195278       0.61195278       0.34167483 </v>
   <v>       0.61195278       0.61195278       0.65832513 </v>
   <v>       0.44576020       0.32826710       0.58308023 </v>
   <v>       0.67173288       0.55423978       0.58308023 </v>
   <v>       0.55791699       0.44208301       0.41809300 </v>
   <v>       0.32826705       0.44576024       0.41691983 </v>
   <v>       0.55423973       0.67173293       0.41691983 </v>
   <v>       0.55423980       0.32826710       0.58308023 </v>
   <v>       0.32826712       0.55423978       0.58308023 </v>
   <v>       0.67173295       0.44576024       0.41691983 </v>
   <v>       0.44576027       0.67173293       0.41691983 </v>
   <v>       0.44208301       0.44208301       0.41809300 </v>
   <v>       0.50000000       0.38416601       0.50000000 </v>
   <v>       0.61749315       0.50000005       0.34021317 </v>
   <v>       0.61749315       0.50000005       0.65978680 </v>
   <v>       0.38250685       0.50000005       0.34021317 </v>
   <v>       0.38250685       0.50000005       0.65978680 </v>
   <v>       0.38317830       0.38317830       0.50000000 </v>
   <v>       0.61682172       0.61682172       0.50000000 </v>
   <v>       0.61682170       0.38317830       0.50000000 </v>
   <v>       0.38317828       0.61682172       0.50000000 </v>
   <v>       0.50000000       0.50000000       0.33478917 </v>
   <v>       0.50000000       0.50000000       0.66521087 </v>
   <v>       0.32826705       0.44576024       0.58308023 </v>
   <v>       0.55423973       0.67173293       0.58308023 </v>
   <v>       0.55791699       0.44208301       0.58190703 </v>
   <v>       0.44208298       0.55791702       0.41809300 </v>
   <v>       0.44208301       0.44208301       0.58190703 </v>
   <v>       0.67173295       0.44576024       0.58308023 </v>
   <v>       0.44576027       0.67173293       0.58308023 </v>
   <v>       0.55791702       0.55791702       0.41809300 </v>
   <v>       0.38416599       0.50000002       0.50000000 </v>
   <v>       0.61583401       0.50000002       0.50000000 </v>
   <v>       0.50000000       0.61749319       0.34021317 </v>
   <v>       0.50000000       0.61749319       0.65978680 </v>
   <v>       0.50000000       0.50000000       0.50000000 </v>
   <v>       0.44208298       0.55791702       0.58190703 </v>
   <v>       0.55791702       0.55791702       0.58190703 </v>
   <v>       0.50000000       0.61583404       0.50000000 </v>
   <v>       0.32116360       0.62153710       0.46226250 </v>
   <v>       0.29052843       0.64235673       0.45579797 </v>
  </varray>
  <varray name="selective"  type="logical" >
   <v type="logical" >  F  F  F </v>
   <v type="logical" >  F  F  F </v>
   <v type="logical" >  F  F  F </v>
   <v type="logical" >  F  F  F </v>
   <v type="logical" >  F  F  F </v>
   <v type="logical" >  F  F  F </v>
   <v type="logical" >  F  F  F </v>
   <v type="logical" >  F  F  F </v>
   <v type="logical" >  F  F  F </v>
   <v type="logical" >  F  F  F </v>
   <v type="logical" >  F  F  F </v>
   <v type="logical" >  F  F  F </v>
   <v type="logical" >  F  F  F </v>
   <v type="logical" >  F  F  F </v>
   <v type="logical" >  F  F  F </v>
   <v type="logical" >  F  F  F </v>
   <v type="logical" >  F  F  F </v>
   <v type="logical" >  F  F  F </v>
   <v type="logical" >  F  F  F </v>
   <v type="logical" >  F  F  F </v>
   <v type="logical" >  F  F  F </v>
   <v type="logical" >  F  F  F </v>
   <v type="logical" >  F  F  F </v>
   <v type="logical" >  F  F  F </v>
   <v type="logical" >  F  F  F </v>
   <v type="logical" >  F  F  F </v>
   <v type="logical" >  F  F  F </v>
   <v type="logical" >  F  F  F </v>
   <v type="logical" >  F  F  F </v>
   <v type="logical" >  F  F  F </v>
   <v type="logical" >  F  F  F </v>
   <v type="logical" >  F  F  F </v>
   <v type="logical" >  F  F  F </v>
   <v type="logical" >  F  F  F </v>
   <v type="logical" >  F  F  F </v>
   <v type="logical" >  F  F  F </v>
   <v type="logical" >  F  F  F </v>
   <v type="logical" >  F  F  F </v>
   <v type="logical" >  F  F  F </v>
   <v type="logical" >  F  F  F </v>
   <v type="logical" >  F  F  F </v>
   <v type="logical" >  F  F  F </v>
   <v type="logical" >  F  F  F </v>
   <v type="logical" >  F  F  F </v>
   <v type="logical" >  F  F  F </v>
   <v type="logical" >  F  F  F </v>
   <v type="logical" >  F  F  F </v>
   <v type="logical" >  F  F  F </v>
   <v type="logical" >  F  F  F </v>
   <v type="logical" >  F  F  F </v>
   <v type="logical" >  F  F  F </v>
   <v type="logical" >  F  F  F </v>
   <v type="logical" >  F  F  F </v>
   <v type="logical" >  F  F  F </v>
   <v type="logical" >  F  F  F </v>
   <v type="logical" >  F  F  F </v>
   <v type="logical" >  F  F  F </v>
  </varray>
  <nose>
   <v>      -3.00000000       0.00000000       0.00010000       0.00010000 </v>
  </nose>
 </structure>
</modeling>
