 vasp.5.4.4.18Apr17-6-g9f103f2a35 (build Sep 03 2018 23:53:05) complex          
  
 executed on             LinuxIFC date 2021.12.01  10:31:23
 running on    1 total cores
 distrk:  each k-point on    1 cores,    1 groups
 distr:  one band on NCORES_PER_BAND=   1 cores,    1 groups


--------------------------------------------------------------------------------------------------------


 INCAR:
 POTCAR:    PAW_PBE Pd 04Jan2005                  
 POTCAR:    PAW_PBE C 08Apr2002                   
 POTCAR:    PAW_PBE O 08Apr2002                   
 POTCAR:    PAW_PBE Pd 04Jan2005                  
   VRHFIN =Pd : s1 d9                                                           
   LEXCH  = PE                                                                  
   EATOM  =   809.7530 eV,   59.5152 Ry                                         
                                                                                
   TITEL  = PAW_PBE Pd 04Jan2005                                                
   LULTRA =        F    use ultrasoft PP ?                                      
   IUNSCR =        1    unscreen: 0-lin 1-nonlin 2-no                           
   RPACOR =    2.000    partial core radius                                     
   POMASS =  106.420; ZVAL   =   10.000    mass and valenz                      
   RCORE  =    2.600    outmost cutoff radius                                   
   RWIGS  =    2.710; RWIGS  =    1.434    wigner-seitz radius (au A)           
   ENMAX  =  250.925; ENMIN  =  188.194 eV                                      
   ICORE  =        3    local potential                                         
   LCOR   =        T    correct aug charges                                     
   LPAW   =        T    paw PP                                                  
   EAUG   =  416.230                                                            
   DEXC   =    0.000                                                            
   RMAX   =    2.653    core radius for proj-oper                               
   RAUG   =    1.300    factor for augmentation sphere                          
   RDEP   =    2.734    radius for radial grids                                 
   RDEPT  =    2.103    core radius for aug-charge                              
                                                                                
   Atomic configuration                                                         
   12 entries                                                                   
     n  l   j            E        occ.                                          
     1  0  0.50    -24164.6631   2.0000                                         
     2  0  0.50     -3530.9218   2.0000                                         
     2  1  1.50     -3165.6822   6.0000                                         
     3  0  0.50      -639.4577   2.0000                                         
     3  1  1.50      -519.4532   6.0000                                         
     3  2  2.50      -328.9757  10.0000                                         
     4  0  0.50       -88.7014   2.0000                                         
     4  1  1.50       -54.4540   6.0000                                         
     4  2  2.50        -6.6878   9.0000                                         
     5  0  0.50        -4.3543   1.0000                                         
     5  1  0.50        -1.3606   0.0000                                         
     4  3  2.50        -1.3606   0.0000                                         
   Description                                                                  
     l       E           TYP  RCUT    TYP  RCUT                                 
     2     -6.6878251     23  2.400                                             
     2     -8.0484077     23  2.400                                             
     0     -4.3542939     23  2.400                                             
     0      4.3406793     23  2.400                                             
     1     -4.0817478     23  2.600                                             
     1     15.8380318     23  2.600                                             
     3     -4.0817478     23  2.400                                             
  local pseudopotential read in
  partial core-charges read in
  partial kinetic energy density read in
  atomic valenz-charges read in
  non local Contribution for L=           2  read in
    real space projection operators read in
  non local Contribution for L=           2  read in
    real space projection operators read in
  non local Contribution for L=           0  read in
    real space projection operators read in
  non local Contribution for L=           0  read in
    real space projection operators read in
  non local Contribution for L=           1  read in
    real space projection operators read in
  non local Contribution for L=           1  read in
    real space projection operators read in
    PAW grid and wavefunctions read in
 
   number of l-projection  operators is LMAX  =           6
   number of lm-projection operators is LMMAX =          18
 
 POTCAR:    PAW_PBE C 08Apr2002                   
   VRHFIN =C: s2p2                                                              
   LEXCH  = PE                                                                  
   EATOM  =   147.1560 eV,   10.8157 Ry                                         
                                                                                
   TITEL  = PAW_PBE C 08Apr2002                                                 
   LULTRA =        F    use ultrasoft PP ?                                      
   IUNSCR =        1    unscreen: 0-lin 1-nonlin 2-no                           
   RPACOR =    1.200    partial core radius                                     
   POMASS =   12.011; ZVAL   =    4.000    mass and valenz                      
   RCORE  =    1.500    outmost cutoff radius                                   
   RWIGS  =    1.630; RWIGS  =    0.863    wigner-seitz radius (au A)           
   ENMAX  =  400.000; ENMIN  =  300.000 eV                                      
   ICORE  =        2    local potential                                         
   LCOR   =        T    correct aug charges                                     
   LPAW   =        T    paw PP                                                  
   EAUG   =  644.873                                                            
   DEXC   =    0.000                                                            
   RMAX   =    1.529    core radius for proj-oper                               
   RAUG   =    1.300    factor for augmentation sphere                          
   RDEP   =    1.501    radius for radial grids                                 
   RDEPT  =    1.300    core radius for aug-charge                              
                                                                                
   Atomic configuration                                                         
    4 entries                                                                   
     n  l   j            E        occ.                                          
     1  0  0.50      -273.3789   2.0000                                         
     2  0  0.50       -13.7508   2.0000                                         
     2  1  0.50        -5.2854   2.0000                                         
     3  2  1.50        -5.4423   0.0000                                         
   Description                                                                  
     l       E           TYP  RCUT    TYP  RCUT                                 
     0    -13.7508458     23  1.200                                             
     0     -8.2022199     23  1.200                                             
     1     -5.2854383     23  1.500                                             
     1     34.0145650     23  1.500                                             
     2     -5.4423304      7  1.500                                             
  local pseudopotential read in
  partial core-charges read in
  partial kinetic energy density read in
  atomic valenz-charges read in
  non local Contribution for L=           0  read in
    real space projection operators read in
  non local Contribution for L=           0  read in
    real space projection operators read in
  non local Contribution for L=           1  read in
    real space projection operators read in
  non local Contribution for L=           1  read in
    real space projection operators read in
    PAW grid and wavefunctions read in
 
   number of l-projection  operators is LMAX  =           4
   number of lm-projection operators is LMMAX =           8
 
 POTCAR:    PAW_PBE O 08Apr2002                   
   VRHFIN =O: s2p4                                                              
   LEXCH  = PE                                                                  
   EATOM  =   432.3788 eV,   31.7789 Ry                                         
                                                                                
   TITEL  = PAW_PBE O 08Apr2002                                                 
   LULTRA =        F    use ultrasoft PP ?                                      
   IUNSCR =        1    unscreen: 0-lin 1-nonlin 2-no                           
   RPACOR =    1.200    partial core radius                                     
   POMASS =   16.000; ZVAL   =    6.000    mass and valenz                      
   RCORE  =    1.520    outmost cutoff radius                                   
   RWIGS  =    1.550; RWIGS  =    0.820    wigner-seitz radius (au A)           
   ENMAX  =  400.000; ENMIN  =  300.000 eV                                      
   ICORE  =        2    local potential                                         
   LCOR   =        T    correct aug charges                                     
   LPAW   =        T    paw PP                                                  
   EAUG   =  605.392                                                            
   DEXC   =    0.000                                                            
   RMAX   =    1.553    core radius for proj-oper                               
   RAUG   =    1.300    factor for augmentation sphere                          
   RDEP   =    1.550    radius for radial grids                                 
   RDEPT  =    1.329    core radius for aug-charge                              
                                                                                
   Atomic configuration                                                         
    4 entries                                                                   
     n  l   j            E        occ.                                          
     1  0  0.50      -514.6923   2.0000                                         
     2  0  0.50       -23.9615   2.0000                                         
     2  1  0.50        -9.0305   4.0000                                         
     3  2  1.50        -9.5241   0.0000                                         
   Description                                                                  
     l       E           TYP  RCUT    TYP  RCUT                                 
     0    -23.9615318     23  1.200                                             
     0     -9.5240782     23  1.200                                             
     1     -9.0304911     23  1.520                                             
     1      8.1634956     23  1.520                                             
     2     -9.5240782      7  1.500                                             
  local pseudopotential read in
  partial core-charges read in
  partial kinetic energy density read in
  kinetic energy density of atom read in
  atomic valenz-charges read in
  non local Contribution for L=           0  read in
    real space projection operators read in
  non local Contribution for L=           0  read in
    real space projection operators read in
  non local Contribution for L=           1  read in
    real space projection operators read in
  non local Contribution for L=           1  read in
    real space projection operators read in
    PAW grid and wavefunctions read in
 
   number of l-projection  operators is LMAX  =           4
   number of lm-projection operators is LMMAX =           8
 
 Optimization of the real space projectors (new method)

 maximal supplied QI-value         = 14.36
 optimisation between [QCUT,QGAM] = [ 10.20, 20.39] = [ 29.12,116.47] Ry 
 Optimized for a Real-space Cutoff    1.51 Angstroem

   l    n(q)    QCUT    max X(q) W(low)/X(q) W(high)/X(q)  e(spline) 
   2      8    10.197    59.108    0.26E-03    0.14E-03    0.96E-07
   2      8    10.197    58.101    0.27E-03    0.14E-03    0.98E-07
   0      9    10.197   102.235    0.54E-04    0.60E-05    0.72E-07
   0      9    10.197    58.388    0.52E-04    0.60E-05    0.68E-07
   1      9    10.197    22.191    0.18E-03    0.25E-03    0.79E-07
   1      9    10.197    15.590    0.15E-03    0.21E-03    0.69E-07
 Optimization of the real space projectors (new method)

 maximal supplied QI-value         = 25.13
 optimisation between [QCUT,QGAM] = [ 10.05, 20.36] = [ 28.30,116.06] Ry 
 Optimized for a Real-space Cutoff    1.30 Angstroem

   l    n(q)    QCUT    max X(q) W(low)/X(q) W(high)/X(q)  e(spline) 
   0      8    10.053   115.676    0.49E-03    0.72E-03    0.18E-06
   0      8    10.053    87.132    0.49E-03    0.71E-03    0.18E-06
   1      7    10.053     4.429    0.32E-03    0.31E-03    0.18E-06
   1      7    10.053     2.733    0.23E-03    0.19E-03    0.20E-06
 Optimization of the real space projectors (new method)

 maximal supplied QI-value         = 24.76
 optimisation between [QCUT,QGAM] = [ 10.15, 20.30] = [ 28.85,115.39] Ry 
 Optimized for a Real-space Cutoff    1.38 Angstroem

   l    n(q)    QCUT    max X(q) W(low)/X(q) W(high)/X(q)  e(spline) 
   0      8    10.150    20.381    0.22E-03    0.32E-03    0.29E-06
   0      8    10.150    15.268    0.23E-03    0.35E-03    0.30E-06
   1      8    10.150     5.964    0.46E-03    0.53E-03    0.21E-06
   1      8    10.150     5.382    0.38E-03    0.45E-03    0.19E-06

 ----------------------------------------------------------------------------- 
|                                                                             |
|  ADVICE TO THIS USER RUNNING 'VASP/VAMP'   (HEAR YOUR MASTER'S VOICE ...):  |
|                                                                             |
|      You enforced a specific xc-type in the INCAR file,                     |
|      a different type was found on the POTCAR file                          |
|          I HOPE YOU KNOW, WHAT YOU ARE  DOING                               |
|                                                                             |
 ----------------------------------------------------------------------------- 

  PAW_PBE Pd 04Jan2005                  :
 energy of atom  1       EATOM= -809.7530
 kinetic energy error for atom=    0.0091 (will be added to EATOM!!)
  PAW_PBE C 08Apr2002                   :
 energy of atom  2       EATOM= -147.1560
 kinetic energy error for atom=    0.0288 (will be added to EATOM!!)
  PAW_PBE O 08Apr2002                   :
 energy of atom  3       EATOM= -432.3788
 kinetic energy error for atom=    0.1156 (will be added to EATOM!!)
 
 
 POSCAR: Pd55PES                                 
  positions in cartesian coordinates
  No initial velocities read in
 exchange correlation table for  LEXCH =        9
   RHO(1)=    0.500       N(1)  =     2000
   RHO(2)=  100.500       N(2)  =     4000
 


--------------------------------------------------------------------------------------------------------


 ion  position               nearest neighbor table
   1  0.446  0.328  0.417-   3 3.25   5 3.25   7 3.36  15 3.36  29 3.42  28 3.42
   2  0.672  0.554  0.417-  26 3.25  30 3.25  17 3.36   9 3.36  47 3.42  49 3.42
   3  0.554  0.328  0.417-   1 3.25   5 3.25   7 3.36  11 3.36  29 3.42  21 3.42
   4  0.328  0.554  0.417-  32 3.25  22 3.25  13 3.36   8 3.36  43 3.42  48 3.42
   5  0.500  0.383  0.340-   1 3.25   3 3.25  11 3.36  15 3.36  21 3.42  28 3.42
   6  0.500  0.383  0.660-  24 3.25  19 3.25  16 3.36  12 3.36  42 3.42  44 3.42
   7  0.500  0.276  0.500-  29 3.24   3 3.36   1 3.36  19 3.36  24 3.36
   8  0.276  0.500  0.500-  48 3.24  22 3.36  40 3.36   4 3.36  25 3.36
   9  0.724  0.500  0.500-  49 3.24  26 3.36  45 3.36   2 3.36  20 3.36
  10  0.500  0.724  0.500-  55 3.24  27 3.36  23 3.36  46 3.36  41 3.36
  11  0.612  0.388  0.342-  21 3.24   5 3.36   3 3.36  30 3.36  26 3.36
  12  0.612  0.388  0.658-  42 3.24  24 3.36  45 3.36   6 3.36  31 3.36
  13  0.388  0.612  0.342-  43 3.24  32 3.36  50 3.36   4 3.36  27 3.36
  14  0.388  0.612  0.658-  53 3.24  25 3.36  33 3.36  51 3.36  46 3.36
  15  0.388  0.388  0.342-  28 3.24   5 3.36   1 3.36  32 3.36  22 3.36
  16  0.388  0.388  0.658-  44 3.24  19 3.36  40 3.36   6 3.36  33 3.36
  17  0.612  0.612  0.342-  47 3.24  30 3.36  50 3.36   2 3.36  23 3.36
  18  0.612  0.612  0.658-  54 3.24  31 3.36  20 3.36  51 3.36  41 3.36
  19  0.446  0.328  0.583-   6 3.25  24 3.25  16 3.36   7 3.36  44 3.42  29 3.42
  20  0.672  0.554  0.583-  31 3.25  45 3.25  18 3.36   9 3.36  54 3.42  49 3.42
  21  0.558  0.442  0.418-  11 3.24   5 3.42   3 3.42  30 3.42  26 3.42
  22  0.328  0.446  0.417-   4 3.25  32 3.25   8 3.36  15 3.36  48 3.42  28 3.42
  23  0.554  0.672  0.417-  27 3.25  50 3.25  10 3.36  17 3.36  55 3.42  47 3.42
  24  0.554  0.328  0.583-   6 3.25  19 3.25  12 3.36   7 3.36  42 3.42  29 3.42
  25  0.328  0.554  0.583-  33 3.25  40 3.25  14 3.36   8 3.36  53 3.42  48 3.42
  26  0.672  0.446  0.417-   2 3.25  30 3.25   9 3.36  11 3.36  49 3.42  21 3.42
  27  0.446  0.672  0.417-  23 3.25  50 3.25  10 3.36  13 3.36  55 3.42  43 3.42
  28  0.442  0.442  0.418-  15 3.24   5 3.42   1 3.42  32 3.42  22 3.42
  29  0.500  0.384  0.500-   7 3.24   3 3.42   1 3.42  24 3.42  19 3.42
  30  0.617  0.500  0.340-   2 3.25  26 3.25  17 3.36  11 3.36  47 3.42  21 3.42
  31  0.617  0.500  0.660-  20 3.25  45 3.25  18 3.36  12 3.36  54 3.42  42 3.42
  32  0.383  0.500  0.340-   4 3.25  22 3.25  13 3.36  15 3.36  43 3.42  28 3.42
  33  0.383  0.500  0.660-  25 3.25  40 3.25  14 3.36  16 3.36  53 3.42  44 3.42
  34  0.383  0.383  0.500-
  35  0.617  0.617  0.500-
  36  0.617  0.383  0.500-
  37  0.383  0.617  0.500-
  38  0.500  0.500  0.335-  56 1.71
  39  0.500  0.500  0.665-
  40  0.328  0.446  0.583-  33 3.25  25 3.25  16 3.36   8 3.36  44 3.42  48 3.42
  41  0.554  0.672  0.583-  46 3.25  51 3.25  10 3.36  18 3.36  54 3.42  55 3.42
  42  0.558  0.442  0.582-  12 3.24   6 3.42  24 3.42  31 3.42  45 3.42
  43  0.442  0.558  0.418-  13 3.24   4 3.42  32 3.42  27 3.42  50 3.42
  44  0.442  0.442  0.582-  16 3.24   6 3.42  19 3.42  33 3.42  40 3.42
  45  0.672  0.446  0.583-  20 3.25  31 3.25   9 3.36  12 3.36  49 3.42  42 3.42
  46  0.446  0.672  0.583-  41 3.25  51 3.25  10 3.36  14 3.36  53 3.42  55 3.42
  47  0.558  0.558  0.418-  17 3.24   2 3.42  30 3.42  23 3.42  50 3.42
  48  0.384  0.500  0.500-   8 3.24   4 3.42  22 3.42  25 3.42  40 3.42
  49  0.616  0.500  0.500-   9 3.24   2 3.42  26 3.42  20 3.42  45 3.42
  50  0.500  0.617  0.340-  27 3.25  23 3.25  13 3.36  17 3.36  43 3.42  47 3.42
  51  0.500  0.617  0.660-  41 3.25  46 3.25  14 3.36  18 3.36  53 3.42  54 3.42
  52  0.500  0.500  0.500-
  53  0.442  0.558  0.582-  14 3.24  25 3.42  33 3.42  51 3.42  46 3.42
  54  0.558  0.558  0.582-  18 3.24  31 3.42  20 3.42  51 3.42  41 3.42
  55  0.500  0.616  0.500-  10 3.24  23 3.42  27 3.42  41 3.42  46 3.42
  56  0.479  0.480  0.286-  57 1.13  38 1.71
  57  0.475  0.477  0.249-  56 1.13
 
  LATTYP: Found a simple cubic cell.
 ALAT       =    30.0000000000
  
  Lattice vectors:
  
 A1 = (  30.0000000000,   0.0000000000,   0.0000000000)
 A2 = (   0.0000000000,  30.0000000000,   0.0000000000)
 A3 = (   0.0000000000,   0.0000000000,  30.0000000000)


Analysis of symmetry for initial positions (statically):
=====================================================================
 Subroutine PRICEL returns:
 Original cell was already a primitive cell.
 

 Routine SETGRP: Setting up the symmetry group for a 
 simple cubic supercell.


 Subroutine GETGRP returns: Found  1 space group operations
 (whereof  1 operations were pure point group operations)
 out of a pool of 48 trial point group operations.


The static configuration has the point symmetry C_1 .


Analysis of symmetry for dynamics (positions and initial velocities):
=====================================================================
 Subroutine PRICEL returns:
 Original cell was already a primitive cell.
 

 Routine SETGRP: Setting up the symmetry group for a 
 simple cubic supercell.


 Subroutine GETGRP returns: Found  1 space group operations
 (whereof  1 operations were pure point group operations)
 out of a pool of 48 trial point group operations.


The dynamic configuration has the point symmetry C_1 .


Analysis of constrained symmetry for selective dynamics:
=====================================================================
 Subroutine PRICEL returns:
 Original cell was already a primitive cell.
 

 Routine SETGRP: Setting up the symmetry group for a 
 simple cubic supercell.


 Subroutine GETGRP returns: Found  1 space group operations
 (whereof  1 operations were pure point group operations)
 out of a pool of 48 trial point group operations.


The constrained configuration has the point symmetry C_1 .


 Subroutine INISYM returns: Found  1 space group operations
 (whereof  1 operations are pure point group operations),
 and found     1 'primitive' translations

 
 
 KPOINTS: K-points                                

Automatic generation of k-mesh.
Space group operators:
 irot       det(A)        alpha          n_x          n_y          n_z        tau_x        tau_y        tau_z
    1     1.000000     0.000000     1.000000     0.000000     0.000000     0.000000     0.000000     0.000000
 
 Subroutine IBZKPT returns following result:
 ===========================================
 
 Found      1 irreducible k-points:
 
 Following reciprocal coordinates:
            Coordinates               Weight
  0.000000  0.000000  0.000000      1.000000
 
 Following cartesian coordinates:
            Coordinates               Weight
  0.000000  0.000000  0.000000      1.000000
 


--------------------------------------------------------------------------------------------------------




 Dimension of arrays:
   k-points           NKPTS =      1   k-points in BZ     NKDIM =      1   number of bands    NBANDS=    336
   number of dos      NEDOS =    301   number of ions     NIONS =     57
   non local maximal  LDIM  =      6   non local SUM 2l+1 LMDIM =     18
   total plane-waves  NPLWV = ******
   max r-space proj   IRMAX =   1847   max aug-charges    IRDMAX=   6262
   dimension x,y,z NGX =   150 NGY =  150 NGZ =  150
   dimension x,y,z NGXF=   300 NGYF=  300 NGZF=  300
   support grid    NGXF=   300 NGYF=  300 NGZF=  300
   ions per type =              55   1   1
   NGX,Y,Z   is equivalent  to a cutoff of   8.31,  8.31,  8.31 a.u.
   NGXF,Y,Z  is equivalent  to a cutoff of  16.62, 16.62, 16.62 a.u.

 SYSTEM =  6_Pd100_top_free_z(O)                   
 POSCAR =  Pd55PES                                 

 Startparameter for this run:
   NWRITE =      2    write-flag & timer
   PREC   = normal    normal or accurate (medium, high low for compatibility)
   ISTART =      0    job   : 0-new  1-cont  2-samecut
   ICHARG =      2    charge: 1-file 2-atom 10-const
   ISPIN  =      1    spin polarized calculation?
   LNONCOLLINEAR =      F non collinear calculations
   LSORBIT =      F    spin-orbit coupling
   INIWAV =      1    electr: 0-lowe 1-rand  2-diag
   LASPH  =      F    aspherical Exc in radial PAW
   METAGGA=      F    non-selfconsistent MetaGGA calc.

 Electronic Relaxation 1
   ENCUT  =  400.0 eV  29.40 Ry    5.42 a.u.  48.92 48.92 48.92*2*pi/ulx,y,z
   ENINI  =  400.0     initial cutoff
   ENAUG  =  644.9 eV  augmentation charge cutoff
   NELM   =    100;   NELMIN=  6; NELMDL= -5     # of ELM steps 
   EDIFF  = 0.1E-03   stopping-criterion for ELM
   LREAL  =      T    real-space projection
   NLSPLINE    = F    spline interpolate recip. space projectors
   LCOMPAT=      F    compatible to vasp.4.4
   GGA_COMPAT  = T    GGA compatible to vasp.4.4-vasp.4.6
   LMAXPAW     = -100 max onsite density
   LMAXMIX     =    2 max onsite mixed and CHGCAR
   VOSKOWN=      0    Vosko Wilk Nusair interpolation
   ROPT   =   -0.00050  -0.00050  -0.00050
 Ionic relaxation
   EDIFFG = -.5E-01   stopping-criterion for IOM
   NSW    =      0    number of steps for IOM
   NBLOCK =      1;   KBLOCK =      1    inner block; outer block 
   IBRION =     -1    ionic relax: 0-MD 1-quasi-New 2-CG
   NFREE  =      1    steps in history (QN), initial steepest desc. (CG)
   ISIF   =      2    stress and relaxation
   IWAVPR =     10    prediction:  0-non 1-charg 2-wave 3-comb
   ISYM   =      2    0-nonsym 1-usesym 2-fastsym
   LCORR  =      T    Harris-Foulkes like correction to forces

   POTIM  = 0.5000    time-step for ionic-motion
   TEIN   =    0.0    initial temperature
   TEBEG  =    0.0;   TEEND  =   0.0 temperature during run
   SMASS  =  -3.00    Nose mass-parameter (am)
   estimated Nose-frequenzy (Omega)   =  0.10E-29 period in steps =****** mass=  -0.206E-25a.u.
   SCALEE = 1.0000    scale energy and forces
   NPACO  =    256;   APACO  = 16.0  distance and # of slots for P.C.
   PSTRESS=    0.0 pullay stress

  Mass of Ions in am
   POMASS = 106.42 12.01 16.00
  Ionic Valenz
   ZVAL   =  10.00  4.00  6.00
  Atomic Wigner-Seitz radii
   RWIGS  =  -1.00 -1.00 -1.00
  virtual crystal weights 
   VCA    =   1.00  1.00  1.00
   NELECT =     560.0000    total number of electrons
   NUPDOWN=      -1.0000    fix difference up-down

 DOS related values:
   EMIN   =  10.00;   EMAX   =-10.00  energy-range for DOS
   EFERMI =   0.00
   ISMEAR =     2;   SIGMA  =   0.20  broadening in eV -4-tet -1-fermi 0-gaus

 Electronic relaxation 2 (details)
   IALGO  =     68    algorithm
   LDIAG  =      T    sub-space diagonalisation (order eigenvalues)
   LSUBROT=      F    optimize rotation matrix (better conditioning)
   TURBO    =      0    0=normal 1=particle mesh
   IRESTART =      0    0=no restart 2=restart with 2 vectors
   NREBOOT  =      0    no. of reboots
   NMIN     =      0    reboot dimension
   EREF     =   0.00    reference energy to select bands
   IMIX   =      4    mixing-type and parameters
     AMIX     =   0.40;   BMIX     =  1.00
     AMIX_MAG =   1.60;   BMIX_MAG =  1.00
     AMIN     =   0.10
     WC   =   100.;   INIMIX=   1;  MIXPRE=   1;  MAXMIX= -45

 Intra band minimization:
   WEIMIN = 0.0000     energy-eigenvalue tresh-hold
   EBREAK =  0.74E-07  absolut break condition
   DEPER  =   0.30     relativ break condition  

   TIME   =   0.40     timestep for ELM

  volume/ion in A,a.u.               =     473.68      3196.58
  Fermi-wavevector in a.u.,A,eV,Ry     =   0.449797  0.849992  2.752691  0.202317
  Thomas-Fermi vector in A             =   1.430086
 
 Write flags
   LWAVE        =      F    write WAVECAR
   LDOWNSAMPLE  =      F    k-point downsampling of WAVECAR
   LCHARG       =      F    write CHGCAR
   LVTOT        =      F    write LOCPOT, total local potential
   LVHAR        =      F    write LOCPOT, Hartree potential only
   LELF         =      F    write electronic localiz. function (ELF)
   LORBIT       =      0    0 simple, 1 ext, 2 COOP (PROOUT), +10 PAW based schemes


 Dipole corrections
   LMONO  =      F    monopole corrections only (constant potential shift)
   LDIPOL =      F    correct potential (dipole corrections)
   IDIPOL =      0    1-x, 2-y, 3-z, 4-all directions 
   EPSILON=  1.0000000 bulk dielectric constant

 Exchange correlation treatment:
   GGA     =    RP    GGA type
   LEXCH   =     9    internal setting for exchange type
   VOSKOWN=      0    Vosko Wilk Nusair interpolation
   LHFCALC =     F    Hartree Fock is set to
   LHFONE  =     F    Hartree Fock one center treatment
   AEXX    =    0.0000 exact exchange contribution

 Linear response parameters
   LEPSILON=     F    determine dielectric tensor
   LRPA    =     F    only Hartree local field effects (RPA)
   LNABLA  =     F    use nabla operator in PAW spheres
   LVEL    =     F    velocity operator in full k-point grid
   LINTERFAST=   F  fast interpolation
   KINTER  =     0    interpolate to denser k-point grid
   CSHIFT  =0.1000    complex shift for real part using Kramers Kronig
   OMEGAMAX=  -1.0    maximum frequency
   DEG_THRESHOLD= 0.2000000E-02 threshold for treating states as degnerate
   RTIME   =   -0.100 relaxation time in fs
  (WPLASMAI=    0.000 imaginary part of plasma frequency in eV, 0.658/RTIME)
   DFIELD  = 0.0000000 0.0000000 0.0000000 field for delta impulse in time
 
 Orbital magnetization related:
   ORBITALMAG=     F  switch on orbital magnetization
   LCHIMAG   =     F  perturbation theory with respect to B field
   DQ        =  0.001000  dq finite difference perturbation B field
   LLRAUG    =     F  two centre corrections for induced B field



--------------------------------------------------------------------------------------------------------


 Static calculation
 charge density and potential will be updated during run
 non-spin polarized calculation
 RMM-DIIS sequential band-by-band and
  variant of blocked Davidson during initial phase
 perform sub-space diagonalisation
    before iterative eigenvector-optimisation
 modified Broyden-mixing scheme, WC =      100.0
 initial mixing is a Kerker type mixing with AMIX =  0.4000 and BMIX =      1.0000
 Hartree-type preconditioning will be used
 using additional bands           56
 real space projection scheme for non local part
 use partial core corrections
 calculate Harris-corrections to forces 
   (improved forces if not selfconsistent)
 use gradient corrections 
 use of overlap-Matrix (Vanderbilt PP)
 Methfessel and Paxton  Order N= 2 SIGMA  =   0.20


--------------------------------------------------------------------------------------------------------


  energy-cutoff  :      400.00
  volume of cell :    27000.00
      direct lattice vectors                 reciprocal lattice vectors
    30.000000000  0.000000000  0.000000000     0.033333333  0.000000000  0.000000000
     0.000000000 30.000000000  0.000000000     0.000000000  0.033333333  0.000000000
     0.000000000  0.000000000 30.000000000     0.000000000  0.000000000  0.033333333

  length of vectors
    30.000000000 30.000000000 30.000000000     0.033333333  0.033333333  0.033333333


 
 k-points in units of 2pi/SCALE and weight: K-points                                
   0.00000000  0.00000000  0.00000000       1.000
 
 k-points in reciprocal lattice and weights: K-points                                
   0.00000000  0.00000000  0.00000000       1.000
 
 position of ions in fractional coordinates (direct lattice) 
   0.44576020  0.32826710  0.41691983
   0.67173288  0.55423978  0.41691983
   0.55423980  0.32826710  0.41691983
   0.32826712  0.55423978  0.41691983
   0.50000000  0.38250690  0.34021317
   0.50000000  0.38250690  0.65978680
   0.50000000  0.27609440  0.50000000
   0.27609443  0.49999998  0.50000000
   0.72390557  0.49999998  0.50000000
   0.50000000  0.72390555  0.50000000
   0.61195280  0.38804720  0.34167483
   0.61195280  0.38804720  0.65832513
   0.38804722  0.61195278  0.34167483
   0.38804722  0.61195278  0.65832513
   0.38804720  0.38804720  0.34167483
   0.38804720  0.38804720  0.65832513
   0.61195278  0.61195278  0.34167483
   0.61195278  0.61195278  0.65832513
   0.44576020  0.32826710  0.58308023
   0.67173288  0.55423978  0.58308023
   0.55791699  0.44208301  0.41809300
   0.32826705  0.44576024  0.41691983
   0.55423973  0.67173293  0.41691983
   0.55423980  0.32826710  0.58308023
   0.32826712  0.55423978  0.58308023
   0.67173295  0.44576024  0.41691983
   0.44576027  0.67173293  0.41691983
   0.44208301  0.44208301  0.41809300
   0.50000000  0.38416601  0.50000000
   0.61749315  0.50000005  0.34021317
   0.61749315  0.50000005  0.65978680
   0.38250685  0.50000005  0.34021317
   0.38250685  0.50000005  0.65978680
   0.38317830  0.38317830  0.50000000
   0.61682172  0.61682172  0.50000000
   0.61682170  0.38317830  0.50000000
   0.38317828  0.61682172  0.50000000
   0.50000000  0.50000000  0.33478917
   0.50000000  0.50000000  0.66521087
   0.32826705  0.44576024  0.58308023
   0.55423973  0.67173293  0.58308023
   0.55791699  0.44208301  0.58190703
   0.44208298  0.55791702  0.41809300
   0.44208301  0.44208301  0.58190703
   0.67173295  0.44576024  0.58308023
   0.44576027  0.67173293  0.58308023
   0.55791702  0.55791702  0.41809300
   0.38416599  0.50000002  0.50000000
   0.61583401  0.50000002  0.50000000
   0.50000000  0.61749319  0.34021317
   0.50000000  0.61749319  0.65978680
   0.50000000  0.50000000  0.50000000
   0.44208298  0.55791702  0.58190703
   0.55791702  0.55791702  0.58190703
   0.50000000  0.61583404  0.50000000
   0.47882307  0.48022417  0.28578657
   0.47513953  0.47678433  0.24852587
 
 position of ions in cartesian coordinates  (Angst):
  13.37280588  9.84801292 12.50759500
  20.15198637 16.62719342 12.50759500
  16.62719412  9.84801292 12.50759500
   9.84801363 16.62719342 12.50759500
  15.00000000 11.47520705 10.20639500
  15.00000000 11.47520705 19.79360400
  15.00000000  8.28283206 15.00000000
   8.28283277 14.99999929 15.00000000
  21.71716723 14.99999929 15.00000000
  15.00000000 21.71716652 14.99999999
  18.35858397 11.64141603 10.25024500
  18.35858397 11.64141603 19.74975399
  11.64141674 18.35858326 10.25024500
  11.64141674 18.35858326 19.74975400
  11.64141603 11.64141603 10.25024500
  11.64141603 11.64141603 19.74975400
  18.35858326 18.35858326 10.25024500
  18.35858326 18.35858326 19.74975400
  13.37280588  9.84801291 17.49240700
  20.15198638 16.62719341 17.49240700
  16.73750985 13.26249015 12.54279000
   9.84801151 13.37280729 12.50759500
  16.62719200 20.15198779 12.50759500
  16.62719412  9.84801292 17.49240700
   9.84801363 16.62719342 17.49240700
  20.15198849 13.37280729 12.50759500
  13.37280800 20.15198779 12.50759500
  13.26249015 13.26249015 12.54279000
  15.00000000 11.52498029 15.00000000
  18.52479437 15.00000140 10.20639500
  18.52479437 15.00000141 19.79360400
  11.47520562 15.00000141 10.20639501
  11.47520563 15.00000141 19.79360400
  11.49534898 11.49534898 15.00000000
  18.50465172 18.50465172 15.00000000
  18.50465102 11.49534898 15.00000000
  11.49534828 18.50465172 15.00000000
  15.00000000 15.00000000 10.04367500
  15.00000000 15.00000000 19.95632599
   9.84801151 13.37280729 17.49240700
  16.62719200 20.15198779 17.49240700
  16.73750985 13.26249015 17.45721100
  13.26248944 16.73751056 12.54279001
  13.26249015 13.26249015 17.45721100
  20.15198849 13.37280729 17.49240699
  13.37280800 20.15198779 17.49240700
  16.73751056 16.73751056 12.54279000
  11.52497959 15.00000071 15.00000000
  18.47502041 15.00000071 15.00000000
  14.99999999 18.52479579 10.20639500
  15.00000000 18.52479578 19.79360400
  15.00000000 15.00000000 15.00000000
  13.26248944 16.73751057 17.45721101
  16.73751056 16.73751057 17.45721100
  15.00000000 18.47502112 15.00000000
  14.36469200 14.40672500  8.57359700
  14.25418600 14.30353000  7.45577600
 


--------------------------------------------------------------------------------------------------------


 k-point  1 :   0.0000 0.0000 0.0000  plane waves:  490521

 maximum and minimum number of plane-waves per node :    490521   490521

 maximum number of plane-waves:    490521
 maximum index in each direction: 
   IXMAX=   48   IYMAX=   48   IZMAX=   48
   IXMIN=  -48   IYMIN=  -48   IZMIN=  -48


 serial   3D FFT for wavefunctions
 parallel 3D FFT for charge:
    minimum data exchange during FFTs selected (reduces bandwidth)


 total amount of memory used by VASP MPI-rank0  5486941. kBytes
=======================================================================

   base      :      30000. kBytes
   nonlr-proj:      17126. kBytes
   fftplans  :     924480. kBytes
   grid      :    1872000. kBytes
   one-center:        886. kBytes
   wavefun   :    2642449. kBytes
 
     INWAV:  cpu time    0.0001: real time    0.0004
 Broyden mixing: mesh for mixing (old mesh)
   NGX = 97   NGY = 97   NGZ = 97
  (NGX  =300   NGY  =300   NGZ  =300)
  gives a total of 912673 points

 initial charge density was supplied:
 charge density of overlapping atoms calculated
 number of electron     560.0000000 magnetization 
 keeping initial charge density in first step


--------------------------------------------------------------------------------------------------------


 Maximum index for non-local projection operator         1763
 Maximum index for augmentation-charges         5898 (set IRDMAX)


--------------------------------------------------------------------------------------------------------


 First call to EWALD:  gamma=   0.059
 Maximum number of real-space cells 3x 3x 3
 Maximum number of reciprocal cells 3x 3x 3

    FEWALD:  cpu time    0.0194: real time    0.0194


--------------------------------------- Iteration      1(   1)  ---------------------------------------


    POTLOK:  cpu time   18.9394: real time   18.9468
    SETDIJ:  cpu time    0.1396: real time    0.1396
     EDDAV:  cpu time  488.9680: real time  489.0893
       DOS:  cpu time    0.0016: real time    0.0016
    --------------------------------------------
      LOOP:  cpu time  508.0488: real time  508.1773

 eigenvalue-minimisations  :   688
 total energy-change (2. order) : 0.4398020E+04  (-0.1005079E+05)
 number of electron     560.0000000 magnetization 
 augmentation part      560.0000000 magnetization 

 Free energy of the ion-electron system (eV)
  ---------------------------------------------------
  alpha Z        PSCENC =        75.25431677
  Ewald energy   TEWEN  =    139060.38579602
  -Hartree energ DENC   =   -182413.49739750
  -exchange      EXHF   =         0.00000000
  -V(xc)+E(xc)   XCENC  =     -1702.53214907
  PAW double counting   =     44873.02882129   -41398.84523641
  entropy T*S    EENTRO =         0.01355180
  eigenvalues    EBANDS =       817.70650501
  atomic energy  EATOM  =     45086.50549395
  Solvation  Ediel_sol  =         0.00000000
  ---------------------------------------------------
  free energy    TOTEN  =      4398.01970187 eV

  energy without entropy =     4398.00615007  energy(sigma->0) =     4398.01631392


--------------------------------------------------------------------------------------------------------




--------------------------------------- Iteration      1(   2)  ---------------------------------------


     EDDAV:  cpu time  774.6410: real time  774.6561
       DOS:  cpu time    0.0016: real time    0.0016
    --------------------------------------------
      LOOP:  cpu time  774.6426: real time  774.6577

 eigenvalue-minimisations  :  1208
 total energy-change (2. order) :-0.2369589E+04  (-0.2128980E+04)
 number of electron     560.0000000 magnetization 
 augmentation part      560.0000000 magnetization 

 Free energy of the ion-electron system (eV)
  ---------------------------------------------------
  alpha Z        PSCENC =        75.25431677
  Ewald energy   TEWEN  =    139060.38579602
  -Hartree energ DENC   =   -182413.49739750
  -exchange      EXHF   =         0.00000000
  -V(xc)+E(xc)   XCENC  =     -1702.53214907
  PAW double counting   =     44873.02882129   -41398.84523641
  entropy T*S    EENTRO =        -0.06127380
  eigenvalues    EBANDS =     -1551.80720191
  atomic energy  EATOM  =     45086.50549395
  Solvation  Ediel_sol  =         0.00000000
  ---------------------------------------------------
  free energy    TOTEN  =      2028.43116935 eV

  energy without entropy =     2028.49244315  energy(sigma->0) =     2028.44648780


--------------------------------------------------------------------------------------------------------




--------------------------------------- Iteration      1(   3)  ---------------------------------------


     EDDAV:  cpu time  650.5698: real time  650.5767
       DOS:  cpu time    0.0013: real time    0.0013
    --------------------------------------------
      LOOP:  cpu time  650.5711: real time  650.5780

 eigenvalue-minimisations  :   992
 total energy-change (2. order) :-0.1786396E+04  (-0.1677856E+04)
 number of electron     560.0000000 magnetization 
 augmentation part      560.0000000 magnetization 

 Free energy of the ion-electron system (eV)
  ---------------------------------------------------
  alpha Z        PSCENC =        75.25431677
  Ewald energy   TEWEN  =    139060.38579602
  -Hartree energ DENC   =   -182413.49739750
  -exchange      EXHF   =         0.00000000
  -V(xc)+E(xc)   XCENC  =     -1702.53214907
  PAW double counting   =     44873.02882129   -41398.84523641
  entropy T*S    EENTRO =         0.02934196
  eigenvalues    EBANDS =     -3338.29338508
  atomic energy  EATOM  =     45086.50549395
  Solvation  Ediel_sol  =         0.00000000
  ---------------------------------------------------
  free energy    TOTEN  =       242.03560194 eV

  energy without entropy =      242.00625998  energy(sigma->0) =      242.02826645


--------------------------------------------------------------------------------------------------------




--------------------------------------- Iteration      1(   4)  ---------------------------------------


     EDDAV:  cpu time  551.3859: real time  551.3977
       DOS:  cpu time    0.0015: real time    0.0015
    --------------------------------------------
      LOOP:  cpu time  551.3874: real time  551.3992

 eigenvalue-minimisations  :   824
 total energy-change (2. order) :-0.3747360E+03  (-0.3160815E+03)
 number of electron     560.0000000 magnetization 
 augmentation part      560.0000000 magnetization 

 Free energy of the ion-electron system (eV)
  ---------------------------------------------------
  alpha Z        PSCENC =        75.25431677
  Ewald energy   TEWEN  =    139060.38579602
  -Hartree energ DENC   =   -182413.49739750
  -exchange      EXHF   =         0.00000000
  -V(xc)+E(xc)   XCENC  =     -1702.53214907
  PAW double counting   =     44873.02882129   -41398.84523641
  entropy T*S    EENTRO =         0.01420418
  eigenvalues    EBANDS =     -3713.01429096
  atomic energy  EATOM  =     45086.50549395
  Solvation  Ediel_sol  =         0.00000000
  ---------------------------------------------------
  free energy    TOTEN  =      -132.70044172 eV

  energy without entropy =     -132.71464590  energy(sigma->0) =     -132.70399277


--------------------------------------------------------------------------------------------------------




--------------------------------------- Iteration      1(   5)  ---------------------------------------


     EDDAV:  cpu time  670.4911: real time  670.5085
       DOS:  cpu time    0.0018: real time    0.0018
    CHARGE:  cpu time   33.7771: real time   33.7778
    MIXING:  cpu time    0.5954: real time    0.5954
    --------------------------------------------
      LOOP:  cpu time  704.8654: real time  704.8835

 eigenvalue-minimisations  :  1048
 total energy-change (2. order) :-0.4758629E+02  (-0.3955697E+02)
 number of electron     559.9999842 magnetization 
 augmentation part      244.8757386 magnetization 

 Broyden mixing:
  rms(total) = 0.19053E+01    rms(broyden)= 0.19047E+01
  rms(prec ) = 0.19985E+01
  weight for this iteration     100.00

 Free energy of the ion-electron system (eV)
  ---------------------------------------------------
  alpha Z        PSCENC =        75.25431677
  Ewald energy   TEWEN  =    139060.38579602
  -Hartree energ DENC   =   -182413.49739750
  -exchange      EXHF   =         0.00000000
  -V(xc)+E(xc)   XCENC  =     -1702.53214907
  PAW double counting   =     44873.02882129   -41398.84523641
  entropy T*S    EENTRO =         0.47795680
  eigenvalues    EBANDS =     -3761.06433423
  atomic energy  EATOM  =     45086.50549395
  Solvation  Ediel_sol  =         0.00000000
  ---------------------------------------------------
  free energy    TOTEN  =      -180.28673237 eV

  energy without entropy =     -180.76468917  energy(sigma->0) =     -180.40622157


--------------------------------------------------------------------------------------------------------




--------------------------------------- Iteration      1(   6)  ---------------------------------------


    POTLOK:  cpu time   15.5453: real time   15.5463
    SETDIJ:  cpu time    0.1437: real time    0.1437
    EDDIAG:  cpu time   92.7470: real time   92.7529
  RMM-DIIS:  cpu time  259.4568: real time  259.4649
    ORTHCH:  cpu time   18.5113: real time   18.5116
       DOS:  cpu time    0.0018: real time    0.0018
    CHARGE:  cpu time   34.0392: real time   34.0398
    MIXING:  cpu time    0.6370: real time    0.6370
    --------------------------------------------
      LOOP:  cpu time  421.0821: real time  421.0981

 eigenvalue-minimisations  :   730
 total energy-change (2. order) :-0.4631935E+00  (-0.7359165E+01)
 number of electron     559.9999882 magnetization 
 augmentation part      240.4629674 magnetization 

 Broyden mixing:
  rms(total) = 0.25071E+01    rms(broyden)= 0.25068E+01
  rms(prec ) = 0.28657E+01
  weight for this iteration     100.00

 eigenvalues of (default mixing * dielectric matrix)
  average eigenvalue GAMMA=   0.3759
  0.3759

 Free energy of the ion-electron system (eV)
  ---------------------------------------------------
  alpha Z        PSCENC =        75.25431677
  Ewald energy   TEWEN  =    139060.38579602
  -Hartree energ DENC   =   -182802.66006771
  -exchange      EXHF   =         0.00000000
  -V(xc)+E(xc)   XCENC  =     -1696.11147205
  PAW double counting   =     45691.73771085   -42191.93932833
  entropy T*S    EENTRO =        -0.07913514
  eigenvalues    EBANDS =     -3403.84324027
  atomic energy  EATOM  =     45086.50549395
  Solvation  Ediel_sol  =         0.00000000
  ---------------------------------------------------
  free energy    TOTEN  =      -180.74992591 eV

  energy without entropy =     -180.67079077  energy(sigma->0) =     -180.73014212


--------------------------------------------------------------------------------------------------------




--------------------------------------- Iteration      1(   7)  ---------------------------------------


    POTLOK:  cpu time   15.9064: real time   15.9072
    SETDIJ:  cpu time    0.1430: real time    0.1430
    EDDIAG:  cpu time   92.6499: real time   92.6525
  RMM-DIIS:  cpu time  308.7906: real time  308.8010
    ORTHCH:  cpu time   19.2247: real time   19.2250
       DOS:  cpu time    0.0018: real time    0.0018
    CHARGE:  cpu time   35.6568: real time   35.6574
    MIXING:  cpu time    0.6547: real time    0.6548
    --------------------------------------------
      LOOP:  cpu time  473.0280: real time  473.0427

 eigenvalue-minimisations  :   854
 total energy-change (2. order) :-0.3592418E+01  (-0.2396787E+01)
 number of electron     559.9999833 magnetization 
 augmentation part      240.0286047 magnetization 

 Broyden mixing:
  rms(total) = 0.27393E+01    rms(broyden)= 0.27390E+01
  rms(prec ) = 0.33308E+01
  weight for this iteration     100.00

 eigenvalues of (default mixing * dielectric matrix)
  average eigenvalue GAMMA=   0.3426
  0.5211  0.1642

 Free energy of the ion-electron system (eV)
  ---------------------------------------------------
  alpha Z        PSCENC =        75.25431677
  Ewald energy   TEWEN  =    139060.38579602
  -Hartree energ DENC   =   -182902.22468906
  -exchange      EXHF   =         0.00000000
  -V(xc)+E(xc)   XCENC  =     -1696.39459974
  PAW double counting   =     45783.87948867   -42281.48895683
  entropy T*S    EENTRO =        -0.02605297
  eigenvalues    EBANDS =     -3310.23314056
  atomic energy  EATOM  =     45086.50549395
  Solvation  Ediel_sol  =         0.00000000
  ---------------------------------------------------
  free energy    TOTEN  =      -184.34234374 eV

  energy without entropy =     -184.31629077  energy(sigma->0) =     -184.33583050


--------------------------------------------------------------------------------------------------------




--------------------------------------- Iteration      1(   8)  ---------------------------------------


    POTLOK:  cpu time   17.2808: real time   17.2816
    SETDIJ:  cpu time    0.1463: real time    0.1463
    EDDIAG:  cpu time   95.6862: real time   95.6890
  RMM-DIIS:  cpu time  303.6306: real time  303.6392
    ORTHCH:  cpu time   19.2017: real time   19.2020
       DOS:  cpu time    0.0018: real time    0.0018
    CHARGE:  cpu time   36.0978: real time   36.0984
    MIXING:  cpu time    0.7115: real time    0.7115
    --------------------------------------------
      LOOP:  cpu time  472.7567: real time  472.7697

 eigenvalue-minimisations  :   794
 total energy-change (2. order) :-0.1812368E+01  (-0.9751218E+00)
 number of electron     559.9999816 magnetization 
 augmentation part      239.7026589 magnetization 

 Broyden mixing:
  rms(total) = 0.28489E+01    rms(broyden)= 0.28486E+01
  rms(prec ) = 0.33214E+01
  weight for this iteration     100.00

 eigenvalues of (default mixing * dielectric matrix)
  average eigenvalue GAMMA=   0.3452
  0.7263  0.1641  0.1452

 Free energy of the ion-electron system (eV)
  ---------------------------------------------------
  alpha Z        PSCENC =        75.25431677
  Ewald energy   TEWEN  =    139060.38579602
  -Hartree energ DENC   =   -182941.31049333
  -exchange      EXHF   =         0.00000000
  -V(xc)+E(xc)   XCENC  =     -1696.50450048
  PAW double counting   =     45854.52715703   -42350.22137356
  entropy T*S    EENTRO =        -0.12719054
  eigenvalues    EBANDS =     -3274.66391766
  atomic energy  EATOM  =     45086.50549395
  Solvation  Ediel_sol  =         0.00000000
  ---------------------------------------------------
  free energy    TOTEN  =      -186.15471179 eV

  energy without entropy =     -186.02752124  energy(sigma->0) =     -186.12291415


--------------------------------------------------------------------------------------------------------




--------------------------------------- Iteration      1(   9)  ---------------------------------------


    POTLOK:  cpu time   16.7547: real time   16.7554
    SETDIJ:  cpu time    0.1448: real time    0.1448
    EDDIAG:  cpu time   95.5301: real time   95.5325
  RMM-DIIS:  cpu time  277.2616: real time  277.2702
    ORTHCH:  cpu time   19.2835: real time   19.2837
       DOS:  cpu time    0.0018: real time    0.0018
    CHARGE:  cpu time   35.7215: real time   35.7220
    MIXING:  cpu time    0.7596: real time    0.7596
    --------------------------------------------
      LOOP:  cpu time  445.4575: real time  445.4700

 eigenvalue-minimisations  :   729
 total energy-change (2. order) : 0.1690410E+01  (-0.9299228E+00)
 number of electron     559.9999825 magnetization 
 augmentation part      240.8525019 magnetization 

 Broyden mixing:
  rms(total) = 0.27958E+01    rms(broyden)= 0.27955E+01
  rms(prec ) = 0.32562E+01
  weight for this iteration     100.00

 eigenvalues of (default mixing * dielectric matrix)
  average eigenvalue GAMMA=   0.3285
  0.8437  0.1751  0.1751  0.1201

 Free energy of the ion-electron system (eV)
  ---------------------------------------------------
  alpha Z        PSCENC =        75.25431677
  Ewald energy   TEWEN  =    139060.38579602
  -Hartree energ DENC   =   -182947.98908272
  -exchange      EXHF   =         0.00000000
  -V(xc)+E(xc)   XCENC  =     -1696.57350663
  PAW double counting   =     45936.11672734   -42429.71720131
  entropy T*S    EENTRO =        -0.05337841
  eigenvalues    EBANDS =     -3268.39346666
  atomic energy  EATOM  =     45086.50549395
  Solvation  Ediel_sol  =         0.00000000
  ---------------------------------------------------
  free energy    TOTEN  =      -184.46430164 eV

  energy without entropy =     -184.41092324  energy(sigma->0) =     -184.45095704


--------------------------------------------------------------------------------------------------------




--------------------------------------- Iteration      1(  10)  ---------------------------------------


    POTLOK:  cpu time   17.2891: real time   17.2899
    SETDIJ:  cpu time    0.1466: real time    0.1466
    EDDIAG:  cpu time   95.6844: real time   95.6869
  RMM-DIIS:  cpu time  280.4298: real time  280.4377
    ORTHCH:  cpu time   19.3891: real time   19.3894
       DOS:  cpu time    0.0018: real time    0.0018
    CHARGE:  cpu time   35.9319: real time   35.9325
    MIXING:  cpu time    0.7598: real time    0.7598
    --------------------------------------------
      LOOP:  cpu time  449.6325: real time  449.6446

 eigenvalue-minimisations  :   740
 total energy-change (2. order) : 0.2318660E+01  (-0.5355323E+00)
 number of electron     559.9999842 magnetization 
 augmentation part      241.2399235 magnetization 

 Broyden mixing:
  rms(total) = 0.22830E+01    rms(broyden)= 0.22826E+01
  rms(prec ) = 0.26624E+01
  weight for this iteration     100.00

 eigenvalues of (default mixing * dielectric matrix)
  average eigenvalue GAMMA=   0.3271
  0.9842  0.2140  0.1706  0.1706  0.0962

 Free energy of the ion-electron system (eV)
  ---------------------------------------------------
  alpha Z        PSCENC =        75.25431677
  Ewald energy   TEWEN  =    139060.38579602
  -Hartree energ DENC   =   -182982.10391731
  -exchange      EXHF   =         0.00000000
  -V(xc)+E(xc)   XCENC  =     -1696.46284310
  PAW double counting   =     45994.11689713   -42486.12643070
  entropy T*S    EENTRO =        -0.14048836
  eigenvalues    EBANDS =     -3233.57446616
  atomic energy  EATOM  =     45086.50549395
  Solvation  Ediel_sol  =         0.00000000
  ---------------------------------------------------
  free energy    TOTEN  =      -182.14564175 eV

  energy without entropy =     -182.00515340  energy(sigma->0) =     -182.11051966


--------------------------------------------------------------------------------------------------------




--------------------------------------- Iteration      1(  11)  ---------------------------------------


    POTLOK:  cpu time   16.7572: real time   16.7580
    SETDIJ:  cpu time    0.1440: real time    0.1440
    EDDIAG:  cpu time   95.4623: real time   95.4651
  RMM-DIIS:  cpu time  273.3328: real time  273.3407
    ORTHCH:  cpu time   19.2388: real time   19.2391
       DOS:  cpu time    0.0018: real time    0.0018
    CHARGE:  cpu time   36.2408: real time   36.2415
    MIXING:  cpu time    0.8191: real time    0.8191
    --------------------------------------------
      LOOP:  cpu time  441.9969: real time  442.0094

 eigenvalue-minimisations  :   717
 total energy-change (2. order) : 0.2213896E+01  (-0.4552013E+00)
 number of electron     559.9999825 magnetization 
 augmentation part      241.4634500 magnetization 

 Broyden mixing:
  rms(total) = 0.21848E+01    rms(broyden)= 0.21845E+01
  rms(prec ) = 0.25723E+01
  weight for this iteration     100.00

 eigenvalues of (default mixing * dielectric matrix)
  average eigenvalue GAMMA=   0.3231
  1.1168  0.2323  0.2323  0.1334  0.1334  0.0908

 Free energy of the ion-electron system (eV)
  ---------------------------------------------------
  alpha Z        PSCENC =        75.25431677
  Ewald energy   TEWEN  =    139060.38579602
  -Hartree energ DENC   =   -183016.38196531
  -exchange      EXHF   =         0.00000000
  -V(xc)+E(xc)   XCENC  =     -1696.23239753
  PAW double counting   =     46060.13693761   -42550.07339057
  entropy T*S    EENTRO =        -0.04074436
  eigenvalues    EBANDS =     -3199.48579201
  atomic energy  EATOM  =     45086.50549395
  Solvation  Ediel_sol  =         0.00000000
  ---------------------------------------------------
  free energy    TOTEN  =      -179.93174542 eV

  energy without entropy =     -179.89100106  energy(sigma->0) =     -179.92155933


--------------------------------------------------------------------------------------------------------




--------------------------------------- Iteration      1(  12)  ---------------------------------------


    POTLOK:  cpu time   16.5946: real time   16.5955
    SETDIJ:  cpu time    0.1480: real time    0.1480
    EDDIAG:  cpu time   95.7000: real time   95.7029
  RMM-DIIS:  cpu time  275.8831: real time  275.8885
    ORTHCH:  cpu time   19.2758: real time   19.2759
       DOS:  cpu time    0.0018: real time    0.0018
    CHARGE:  cpu time   35.7314: real time   35.7315
    MIXING:  cpu time    0.8612: real time    0.8612
    --------------------------------------------
      LOOP:  cpu time  444.1958: real time  444.2053

 eigenvalue-minimisations  :   726
 total energy-change (2. order) : 0.1138657E+01  (-0.3012665E+00)
 number of electron     559.9999832 magnetization 
 augmentation part      241.6512416 magnetization 

 Broyden mixing:
  rms(total) = 0.18938E+01    rms(broyden)= 0.18935E+01
  rms(prec ) = 0.22246E+01
  weight for this iteration     100.00

 eigenvalues of (default mixing * dielectric matrix)
  average eigenvalue GAMMA=   0.3146
  1.2102  0.2588  0.2588  0.1383  0.1383  0.1132  0.0849

 Free energy of the ion-electron system (eV)
  ---------------------------------------------------
  alpha Z        PSCENC =        75.25431677
  Ewald energy   TEWEN  =    139060.38579602
  -Hartree energ DENC   =   -183037.66114996
  -exchange      EXHF   =         0.00000000
  -V(xc)+E(xc)   XCENC  =     -1695.95933695
  PAW double counting   =     46111.74899759   -42599.89505728
  entropy T*S    EENTRO =        -0.06915792
  eigenvalues    EBANDS =     -3179.10299055
  atomic energy  EATOM  =     45086.50549395
  Solvation  Ediel_sol  =         0.00000000
  ---------------------------------------------------
  free energy    TOTEN  =      -178.79308832 eV

  energy without entropy =     -178.72393039  energy(sigma->0) =     -178.77579884


--------------------------------------------------------------------------------------------------------




--------------------------------------- Iteration      1(  13)  ---------------------------------------


    POTLOK:  cpu time   16.7897: real time   16.7904
    SETDIJ:  cpu time    0.1483: real time    0.1483
    EDDIAG:  cpu time   95.7931: real time   95.7954
  RMM-DIIS:  cpu time  272.8879: real time  272.8936
    ORTHCH:  cpu time   19.1933: real time   19.1934
       DOS:  cpu time    0.0019: real time    0.0019
    CHARGE:  cpu time   35.7193: real time   35.7194
    MIXING:  cpu time    0.8938: real time    0.8938
    --------------------------------------------
      LOOP:  cpu time  441.4272: real time  441.4362

 eigenvalue-minimisations  :   720
 total energy-change (2. order) : 0.1036816E+01  (-0.2158740E+00)
 number of electron     559.9999831 magnetization 
 augmentation part      241.7996145 magnetization 

 Broyden mixing:
  rms(total) = 0.17935E+01    rms(broyden)= 0.17932E+01
  rms(prec ) = 0.21091E+01
  weight for this iteration     100.00

 eigenvalues of (default mixing * dielectric matrix)
  average eigenvalue GAMMA=   0.3169
  1.3362  0.2811  0.2811  0.2105  0.1207  0.1207  0.1107  0.0740

 Free energy of the ion-electron system (eV)
  ---------------------------------------------------
  alpha Z        PSCENC =        75.25431677
  Ewald energy   TEWEN  =    139060.38579602
  -Hartree energ DENC   =   -183056.53145393
  -exchange      EXHF   =         0.00000000
  -V(xc)+E(xc)   XCENC  =     -1695.62157749
  PAW double counting   =     46154.82555634   -42641.36464138
  entropy T*S    EENTRO =         0.03334201
  eigenvalues    EBANDS =     -3161.24310473
  atomic energy  EATOM  =     45086.50549395
  Solvation  Ediel_sol  =         0.00000000
  ---------------------------------------------------
  free energy    TOTEN  =      -177.75627244 eV

  energy without entropy =     -177.78961445  energy(sigma->0) =     -177.76460794


--------------------------------------------------------------------------------------------------------




--------------------------------------- Iteration      1(  14)  ---------------------------------------


    POTLOK:  cpu time   17.1329: real time   17.1335
    SETDIJ:  cpu time    0.1465: real time    0.1465
    EDDIAG:  cpu time   95.7061: real time   95.7088
  RMM-DIIS:  cpu time  270.1867: real time  270.1960
    ORTHCH:  cpu time   19.1205: real time   19.1206
       DOS:  cpu time    0.0019: real time    0.0019
    CHARGE:  cpu time   35.7369: real time   35.7372
    MIXING:  cpu time    0.9312: real time    0.9312
    --------------------------------------------
      LOOP:  cpu time  438.9627: real time  438.9756

 eigenvalue-minimisations  :   713
 total energy-change (2. order) : 0.3666036E+00  (-0.2240310E+00)
 number of electron     559.9999830 magnetization 
 augmentation part      241.5830622 magnetization 

 Broyden mixing:
  rms(total) = 0.20411E+01    rms(broyden)= 0.20408E+01
  rms(prec ) = 0.23184E+01
  weight for this iteration     100.00

 eigenvalues of (default mixing * dielectric matrix)
  average eigenvalue GAMMA=   0.3119
  1.4297  0.3343  0.3343  0.1423  0.1423  0.1235  0.1152  0.1152  0.0705

 Free energy of the ion-electron system (eV)
  ---------------------------------------------------
  alpha Z        PSCENC =        75.25431677
  Ewald energy   TEWEN  =    139060.38579602
  -Hartree energ DENC   =   -183092.95776234
  -exchange      EXHF   =         0.00000000
  -V(xc)+E(xc)   XCENC  =     -1695.12233256
  PAW double counting   =     46216.20116756   -42700.32978548
  entropy T*S    EENTRO =        -0.03035329
  eigenvalues    EBANDS =     -3127.29620949
  atomic energy  EATOM  =     45086.50549395
  Solvation  Ediel_sol  =         0.00000000
  ---------------------------------------------------
  free energy    TOTEN  =      -177.38966886 eV

  energy without entropy =     -177.35931557  energy(sigma->0) =     -177.38208053


--------------------------------------------------------------------------------------------------------




--------------------------------------- Iteration      1(  15)  ---------------------------------------


    POTLOK:  cpu time   16.8339: real time   16.8345
    SETDIJ:  cpu time    0.1477: real time    0.1477
    EDDIAG:  cpu time   95.6382: real time   95.6406
  RMM-DIIS:  cpu time  265.6914: real time  265.6963
    ORTHCH:  cpu time   18.9441: real time   18.9442
       DOS:  cpu time    0.0019: real time    0.0019
    CHARGE:  cpu time   35.6397: real time   35.6399
    MIXING:  cpu time    1.0980: real time    1.0980
    --------------------------------------------
      LOOP:  cpu time  433.9949: real time  434.0030

 eigenvalue-minimisations  :   703
 total energy-change (2. order) : 0.8384432E+00  (-0.1618648E+00)
 number of electron     559.9999865 magnetization 
 augmentation part      241.3547882 magnetization 

 Broyden mixing:
  rms(total) = 0.13363E+01    rms(broyden)= 0.13360E+01
  rms(prec ) = 0.15169E+01
  weight for this iteration     100.00

 eigenvalues of (default mixing * dielectric matrix)
  average eigenvalue GAMMA=   0.3201
  1.5749  0.3790  0.3617  0.1857  0.1857  0.1308  0.1308  0.0916  0.0916  0.0691

 Free energy of the ion-electron system (eV)
  ---------------------------------------------------
  alpha Z        PSCENC =        75.25431677
  Ewald energy   TEWEN  =    139060.38579602
  -Hartree energ DENC   =   -183123.82928731
  -exchange      EXHF   =         0.00000000
  -V(xc)+E(xc)   XCENC  =     -1694.69372637
  PAW double counting   =     46264.26545736   -42746.40489436
  entropy T*S    EENTRO =        -0.05048880
  eigenvalues    EBANDS =     -3097.98389293
  atomic energy  EATOM  =     45086.50549395
  Solvation  Ediel_sol  =         0.00000000
  ---------------------------------------------------
  free energy    TOTEN  =      -176.55122568 eV

  energy without entropy =     -176.50073687  energy(sigma->0) =     -176.53860348


--------------------------------------------------------------------------------------------------------




--------------------------------------- Iteration      1(  16)  ---------------------------------------


    POTLOK:  cpu time   17.1158: real time   17.1163
    SETDIJ:  cpu time    0.1490: real time    0.1490
    EDDIAG:  cpu time   95.5750: real time   95.5763
  RMM-DIIS:  cpu time  266.0153: real time  266.0206
    ORTHCH:  cpu time   19.1780: real time   19.1782
       DOS:  cpu time    0.0019: real time    0.0019
    CHARGE:  cpu time   35.7805: real time   35.7806
    MIXING:  cpu time    1.1341: real time    1.1341
    --------------------------------------------
      LOOP:  cpu time  434.9496: real time  434.9570

 eigenvalue-minimisations  :   704
 total energy-change (2. order) : 0.4976600E+00  (-0.1241763E+00)
 number of electron     559.9999848 magnetization 
 augmentation part      241.3818244 magnetization 

 Broyden mixing:
  rms(total) = 0.12964E+01    rms(broyden)= 0.12961E+01
  rms(prec ) = 0.15297E+01
  weight for this iteration     100.00

 eigenvalues of (default mixing * dielectric matrix)
  average eigenvalue GAMMA=   0.3132
  1.6121  0.4931  0.2406  0.2406  0.2443  0.1317  0.1317  0.0967  0.0967  0.0904
  0.0672

 Free energy of the ion-electron system (eV)
  ---------------------------------------------------
  alpha Z        PSCENC =        75.25431677
  Ewald energy   TEWEN  =    139060.38579602
  -Hartree energ DENC   =   -183148.81358090
  -exchange      EXHF   =         0.00000000
  -V(xc)+E(xc)   XCENC  =     -1694.21255776
  PAW double counting   =     46313.72670051   -42793.73562716
  entropy T*S    EENTRO =         0.01139325
  eigenvalues    EBANDS =     -3075.17550039
  atomic energy  EATOM  =     45086.50549395
  Solvation  Ediel_sol  =         0.00000000
  ---------------------------------------------------
  free energy    TOTEN  =      -176.05356571 eV

  energy without entropy =     -176.06495896  energy(sigma->0) =     -176.05641402


--------------------------------------------------------------------------------------------------------




--------------------------------------- Iteration      1(  17)  ---------------------------------------


    POTLOK:  cpu time   16.8441: real time   16.8459
    SETDIJ:  cpu time    0.1508: real time    0.1508
    EDDIAG:  cpu time   95.5091: real time   95.5105
  RMM-DIIS:  cpu time  268.9085: real time  268.9132
    ORTHCH:  cpu time   19.3983: real time   19.3984
       DOS:  cpu time    0.0019: real time    0.0019
    CHARGE:  cpu time   35.4587: real time   35.4590
    MIXING:  cpu time    1.1985: real time    1.1986
    --------------------------------------------
      LOOP:  cpu time  437.4699: real time  437.4782

 eigenvalue-minimisations  :   712
 total energy-change (2. order) :-0.1158895E+00  (-0.5442193E-01)
 number of electron     559.9999842 magnetization 
 augmentation part      241.2489128 magnetization 

 Broyden mixing:
  rms(total) = 0.15938E+01    rms(broyden)= 0.15936E+01
  rms(prec ) = 0.19384E+01
  weight for this iteration     100.00

 eigenvalues of (default mixing * dielectric matrix)
  average eigenvalue GAMMA=   0.3032
  1.6297  0.5406  0.2949  0.2949  0.1843  0.1359  0.1359  0.1028  0.1028  0.0984
  0.0665  0.0521

 Free energy of the ion-electron system (eV)
  ---------------------------------------------------
  alpha Z        PSCENC =        75.25431677
  Ewald energy   TEWEN  =    139060.38579602
  -Hartree energ DENC   =   -183164.92610135
  -exchange      EXHF   =         0.00000000
  -V(xc)+E(xc)   XCENC  =     -1693.99906534
  PAW double counting   =     46332.19946266   -42811.24170242
  entropy T*S    EENTRO =         0.08646335
  eigenvalues    EBANDS =     -3060.43411883
  atomic energy  EATOM  =     45086.50549395
  Solvation  Ediel_sol  =         0.00000000
  ---------------------------------------------------
  free energy    TOTEN  =      -176.16945519 eV

  energy without entropy =     -176.25591854  energy(sigma->0) =     -176.19107102


--------------------------------------------------------------------------------------------------------




--------------------------------------- Iteration      1(  18)  ---------------------------------------


    POTLOK:  cpu time   17.3116: real time   17.3134
    SETDIJ:  cpu time    0.1447: real time    0.1447
    EDDIAG:  cpu time   95.4963: real time   95.4977
  RMM-DIIS:  cpu time  272.7586: real time  272.7642
    ORTHCH:  cpu time   19.1396: real time   19.1396
       DOS:  cpu time    0.0019: real time    0.0019
    CHARGE:  cpu time   35.5184: real time   35.5186
    MIXING:  cpu time    1.4003: real time    1.4003
    --------------------------------------------
      LOOP:  cpu time  441.7714: real time  441.7804

 eigenvalue-minimisations  :   718
 total energy-change (2. order) : 0.3041254E+00  (-0.3278307E-01)
 number of electron     559.9999848 magnetization 
 augmentation part      241.1887224 magnetization 

 Broyden mixing:
  rms(total) = 0.12854E+01    rms(broyden)= 0.12851E+01
  rms(prec ) = 0.15216E+01
  weight for this iteration     100.00

 eigenvalues of (default mixing * dielectric matrix)
  average eigenvalue GAMMA=   0.3109
  1.6604  0.6860  0.3692  0.3692  0.1477  0.1477  0.1361  0.1361  0.0996  0.0996
  0.0771  0.0721  0.0409

 Free energy of the ion-electron system (eV)
  ---------------------------------------------------
  alpha Z        PSCENC =        75.25431677
  Ewald energy   TEWEN  =    139060.38579602
  -Hartree energ DENC   =   -183174.64784726
  -exchange      EXHF   =         0.00000000
  -V(xc)+E(xc)   XCENC  =     -1693.86901292
  PAW double counting   =     46342.29837777   -42820.74529511
  entropy T*S    EENTRO =         0.04492078
  eigenvalues    EBANDS =     -3051.09207982
  atomic energy  EATOM  =     45086.50549395
  Solvation  Ediel_sol  =         0.00000000
  ---------------------------------------------------
  free energy    TOTEN  =      -175.86532982 eV

  energy without entropy =     -175.91025060  energy(sigma->0) =     -175.87656002


--------------------------------------------------------------------------------------------------------




--------------------------------------- Iteration      1(  19)  ---------------------------------------


    POTLOK:  cpu time   17.0386: real time   17.0391
    SETDIJ:  cpu time    0.1449: real time    0.1449
    EDDIAG:  cpu time   95.4153: real time   95.4168
  RMM-DIIS:  cpu time  265.6262: real time  265.6305
    ORTHCH:  cpu time   19.0113: real time   19.0114
       DOS:  cpu time    0.0020: real time    0.0020
    CHARGE:  cpu time   35.6708: real time   35.6709
    MIXING:  cpu time    1.4296: real time    1.4297
    --------------------------------------------
      LOOP:  cpu time  434.3388: real time  434.3453

 eigenvalue-minimisations  :   701
 total energy-change (2. order) : 0.2099351E-01  (-0.4321470E-01)
 number of electron     559.9999839 magnetization 
 augmentation part      241.0752391 magnetization 

 Broyden mixing:
  rms(total) = 0.11651E+01    rms(broyden)= 0.11649E+01
  rms(prec ) = 0.13871E+01
  weight for this iteration     100.00

 eigenvalues of (default mixing * dielectric matrix)
  average eigenvalue GAMMA=   0.3123
  1.6992  0.7942  0.4047  0.4047  0.1700  0.1700  0.1292  0.1292  0.1016  0.1016
  0.0797  0.0797  0.0682  0.0394

 Free energy of the ion-electron system (eV)
  ---------------------------------------------------
  alpha Z        PSCENC =        75.25431677
  Ewald energy   TEWEN  =    139060.38579602
  -Hartree energ DENC   =   -183193.84637769
  -exchange      EXHF   =         0.00000000
  -V(xc)+E(xc)   XCENC  =     -1693.62151320
  PAW double counting   =     46359.20385280   -42836.50518205
  entropy T*S    EENTRO =         0.05842781
  eigenvalues    EBANDS =     -3033.27915073
  atomic energy  EATOM  =     45086.50549395
  Solvation  Ediel_sol  =         0.00000000
  ---------------------------------------------------
  free energy    TOTEN  =      -175.84433631 eV

  energy without entropy =     -175.90276412  energy(sigma->0) =     -175.85894326


--------------------------------------------------------------------------------------------------------




--------------------------------------- Iteration      1(  20)  ---------------------------------------


    POTLOK:  cpu time   17.1506: real time   17.1525
    SETDIJ:  cpu time    0.1557: real time    0.1557
    EDDIAG:  cpu time   95.7515: real time   95.7528
  RMM-DIIS:  cpu time  265.4978: real time  265.5050
    ORTHCH:  cpu time   19.1115: real time   19.1115
       DOS:  cpu time    0.0018: real time    0.0018
    CHARGE:  cpu time   35.6772: real time   35.6772
    MIXING:  cpu time    1.4396: real time    1.4396
    --------------------------------------------
      LOOP:  cpu time  434.7857: real time  434.7962

 eigenvalue-minimisations  :   702
 total energy-change (2. order) : 0.3006049E+00  (-0.3021727E-01)
 number of electron     559.9999856 magnetization 
 augmentation part      241.1487657 magnetization 

 Broyden mixing:
  rms(total) = 0.99721E+00    rms(broyden)= 0.99701E+00
  rms(prec ) = 0.11675E+01
  weight for this iteration     100.00

 eigenvalues of (default mixing * dielectric matrix)
  average eigenvalue GAMMA=   0.3123
  1.7037  0.9286  0.4282  0.4282  0.1901  0.1901  0.1273  0.1273  0.1062  0.1062
  0.0877  0.0877  0.0736  0.0613  0.0385

 Free energy of the ion-electron system (eV)
  ---------------------------------------------------
  alpha Z        PSCENC =        75.25431677
  Ewald energy   TEWEN  =    139060.38579602
  -Hartree energ DENC   =   -183205.03238781
  -exchange      EXHF   =         0.00000000
  -V(xc)+E(xc)   XCENC  =     -1693.43091286
  PAW double counting   =     46369.82753374   -42846.28806741
  entropy T*S    EENTRO =         0.05841781
  eigenvalues    EBANDS =     -3022.82392161
  atomic energy  EATOM  =     45086.50549395
  Solvation  Ediel_sol  =         0.00000000
  ---------------------------------------------------
  free energy    TOTEN  =      -175.54373138 eV

  energy without entropy =     -175.60214919  energy(sigma->0) =     -175.55833584


--------------------------------------------------------------------------------------------------------




--------------------------------------- Iteration      1(  21)  ---------------------------------------


    POTLOK:  cpu time   16.4799: real time   16.4822
    SETDIJ:  cpu time    0.1454: real time    0.1454
    EDDIAG:  cpu time   95.3742: real time   95.3753
  RMM-DIIS:  cpu time  264.2452: real time  264.2516
    ORTHCH:  cpu time   19.2266: real time   19.2266
       DOS:  cpu time    0.0020: real time    0.0020
    CHARGE:  cpu time   35.7008: real time   35.7016
    MIXING:  cpu time    1.5138: real time    1.5139
    --------------------------------------------
      LOOP:  cpu time  432.6879: real time  432.6986

 eigenvalue-minimisations  :   702
 total energy-change (2. order) : 0.2346858E+00  (-0.2337788E-01)
 number of electron     559.9999858 magnetization 
 augmentation part      241.1508914 magnetization 

 Broyden mixing:
  rms(total) = 0.76985E+00    rms(broyden)= 0.76968E+00
  rms(prec ) = 0.88380E+00
  weight for this iteration     100.00

 eigenvalues of (default mixing * dielectric matrix)
  average eigenvalue GAMMA=   0.3118
  1.7536  0.9463  0.4556  0.4556  0.2171  0.2171  0.1322  0.1322  0.1070  0.1070
  0.1093  0.0956  0.0956  0.0697  0.0561  0.0383

 Free energy of the ion-electron system (eV)
  ---------------------------------------------------
  alpha Z        PSCENC =        75.25431677
  Ewald energy   TEWEN  =    139060.38579602
  -Hartree energ DENC   =   -183218.38870801
  -exchange      EXHF   =         0.00000000
  -V(xc)+E(xc)   XCENC  =     -1693.27858562
  PAW double counting   =     46375.94377080   -42851.69601903
  entropy T*S    EENTRO =        -0.00079110
  eigenvalues    EBANDS =     -3010.03431938
  atomic energy  EATOM  =     45086.50549395
  Solvation  Ediel_sol  =         0.00000000
  ---------------------------------------------------
  free energy    TOTEN  =      -175.30904559 eV

  energy without entropy =     -175.30825449  energy(sigma->0) =     -175.30884781


--------------------------------------------------------------------------------------------------------




--------------------------------------- Iteration      1(  22)  ---------------------------------------


    POTLOK:  cpu time   16.4136: real time   16.4155
    SETDIJ:  cpu time    0.1462: real time    0.1461
    EDDIAG:  cpu time   95.7739: real time   95.7756
  RMM-DIIS:  cpu time  264.0215: real time  264.0261
    ORTHCH:  cpu time   19.3235: real time   19.3236
       DOS:  cpu time    0.0019: real time    0.0019
    CHARGE:  cpu time   35.7763: real time   35.7764
    MIXING:  cpu time    1.7308: real time    1.7308
    --------------------------------------------
      LOOP:  cpu time  433.1877: real time  433.1960

 eigenvalue-minimisations  :   698
 total energy-change (2. order) : 0.1583430E+00  (-0.2095968E-01)
 number of electron     559.9999851 magnetization 
 augmentation part      241.1637659 magnetization 

 Broyden mixing:
  rms(total) = 0.58523E+00    rms(broyden)= 0.58505E+00
  rms(prec ) = 0.67985E+00
  weight for this iteration     100.00

 eigenvalues of (default mixing * dielectric matrix)
  average eigenvalue GAMMA=   0.3236
  1.8184  1.1370  0.4516  0.4516  0.3043  0.1782  0.1782  0.1740  0.1355  0.1355
  0.1008  0.1008  0.0853  0.0853  0.0716  0.0557  0.0382

 Free energy of the ion-electron system (eV)
  ---------------------------------------------------
  alpha Z        PSCENC =        75.25431677
  Ewald energy   TEWEN  =    139060.38579602
  -Hartree energ DENC   =   -183229.75098589
  -exchange      EXHF   =         0.00000000
  -V(xc)+E(xc)   XCENC  =     -1693.13406312
  PAW double counting   =     46381.89033866   -42856.96538452
  entropy T*S    EENTRO =        -0.02598327
  eigenvalues    EBANDS =     -2999.31023125
  atomic energy  EATOM  =     45086.50549395
  Solvation  Ediel_sol  =         0.00000000
  ---------------------------------------------------
  free energy    TOTEN  =      -175.15070264 eV

  energy without entropy =     -175.12471937  energy(sigma->0) =     -175.14420682


--------------------------------------------------------------------------------------------------------




--------------------------------------- Iteration      1(  23)  ---------------------------------------


    POTLOK:  cpu time   16.7779: real time   16.7799
    SETDIJ:  cpu time    0.1477: real time    0.1477
    EDDIAG:  cpu time   95.6362: real time   95.6380
  RMM-DIIS:  cpu time  262.4520: real time  262.4602
    ORTHCH:  cpu time   19.8290: real time   19.8291
       DOS:  cpu time    0.0020: real time    0.0020
    CHARGE:  cpu time   35.6641: real time   35.6643
    MIXING:  cpu time    1.7629: real time    1.7630
    --------------------------------------------
      LOOP:  cpu time  432.2717: real time  432.2840

 eigenvalue-minimisations  :   696
 total energy-change (2. order) : 0.8513011E-02  (-0.2177338E-01)
 number of electron     559.9999851 magnetization 
 augmentation part      241.0740221 magnetization 

 Broyden mixing:
  rms(total) = 0.64796E+00    rms(broyden)= 0.64778E+00
  rms(prec ) = 0.76332E+00
  weight for this iteration     100.00

 eigenvalues of (default mixing * dielectric matrix)
  average eigenvalue GAMMA=   0.3364
  1.9237  1.1716  0.7021  0.3966  0.3966  0.1956  0.1956  0.1324  0.1324  0.1503
[...]
 -0.007  -0.011   0.003   0.005   0.007  -0.007  -0.011   0.003
 -0.012  -0.019   0.006   0.008   0.011  -0.011  -0.018   0.006
 -0.014  -0.005   0.012   0.000   0.022  -0.014  -0.005   0.012
  0.000  -0.022  -0.006  -0.015  -0.000   0.000  -0.022  -0.006
 -0.022   0.000   0.009  -0.005  -0.016  -0.021   0.000   0.008
 -0.017  -0.006   0.015   0.000   0.027  -0.017  -0.006   0.015
  0.000  -0.027  -0.008  -0.018   0.000   0.000  -0.026  -0.008
 -0.027   0.000   0.010  -0.006  -0.019  -0.026   0.000   0.010
 total augmentation occupancy for first ion, spin component:           1
  1.537  -0.039   0.007   0.024   0.019   0.076  -0.007  -0.003   0.033  -0.008   0.101  -0.033   0.013   0.001   0.003  -0.019
 -0.039   1.408   0.029   0.068   0.008  -0.006   0.071   0.012  -0.012  -0.010   0.192  -0.059   0.019   0.002   0.003  -0.007
  0.007   0.029   1.541  -0.003  -0.000  -0.003   0.013   0.075  -0.012   0.018  -0.051   0.017  -0.003  -0.006  -0.006   0.015
  0.024   0.068  -0.003   1.329   0.052   0.031  -0.011  -0.011   0.093  -0.023  -0.094   0.026  -0.003  -0.003  -0.002   0.001
  0.019   0.008  -0.000   0.052   1.438  -0.009  -0.010   0.016  -0.023   0.067  -0.110   0.037  -0.002  -0.012  -0.010   0.026
  0.076  -0.006  -0.003   0.031  -0.009   0.216   0.018  -0.002  -0.044   0.003  -0.049   0.002   0.016  -0.009   0.034  -0.004
 -0.007   0.071   0.013  -0.011  -0.010   0.018   0.263  -0.023  -0.004   0.007  -0.106   0.008  -0.001   0.051  -0.010  -0.001
 -0.003   0.012   0.075  -0.011   0.016  -0.002  -0.023   0.215   0.013  -0.019   0.028  -0.001  -0.012   0.009  -0.017   0.003
  0.033  -0.012  -0.012   0.093  -0.023  -0.044  -0.004   0.013   0.259   0.008   0.042  -0.003  -0.008   0.035   0.004   0.000
 -0.008  -0.010   0.018  -0.023   0.067   0.003   0.007  -0.019   0.008   0.258   0.048  -0.002  -0.038   0.003   0.049   0.007
  0.101   0.192  -0.051  -0.094  -0.110  -0.049  -0.106   0.028   0.042   0.048   0.958  -0.142   0.084   0.014   0.064  -0.013
 -0.033  -0.059   0.017   0.026   0.037   0.002   0.008  -0.001  -0.003  -0.002  -0.142   0.023  -0.014  -0.003  -0.010   0.003
  0.013   0.019  -0.003  -0.003  -0.002   0.016  -0.001  -0.012  -0.008  -0.038   0.084  -0.014   0.029  -0.008  -0.004  -0.003
  0.001   0.002  -0.006  -0.003  -0.012  -0.009   0.051   0.009   0.035   0.003   0.014  -0.003  -0.008   0.035   0.004   0.000
  0.003   0.003  -0.006  -0.002  -0.010   0.034  -0.010  -0.017   0.004   0.049   0.064  -0.010  -0.004   0.004   0.035  -0.000
 -0.019  -0.007   0.015   0.001   0.026  -0.004  -0.001   0.003   0.000   0.007  -0.013   0.003  -0.003   0.000  -0.000   0.001
  0.001  -0.028  -0.007  -0.019   0.001   0.001  -0.008  -0.002  -0.006  -0.000  -0.003   0.001   0.000  -0.003  -0.000   0.000
 -0.028   0.001   0.012  -0.006  -0.020  -0.006   0.001   0.003  -0.001  -0.007  -0.008   0.001  -0.000  -0.000  -0.003   0.000


------------------------ aborting loop because EDIFF is reached ----------------------------------------


    CHARGE:  cpu time   34.2101: real time   34.2106
    FORLOC:  cpu time    8.8053: real time    8.8054
    FORNL :  cpu time   87.2944: real time   87.2957
    STRESS:  cpu time  268.4671: real time  268.4712
    FORCOR:  cpu time   25.3503: real time   25.3507
    FORHAR:  cpu time   11.9509: real time   11.9519
    MIXING:  cpu time    4.6663: real time    4.6663
    OFIELD:  cpu time    0.0001: real time    0.0001

  FORCE on cell =-STRESS in cart. coord.  units (eV):
  Direction    XX          YY          ZZ          XY          YZ          ZX
  --------------------------------------------------------------------------------------
  Alpha Z    75.25432    75.25432    75.25432
  Ewald   44597.29734 44584.41406 49878.56854    57.33350   404.39194   432.06228
  Hartree 59514.26148 59505.73543 64391.04325    34.40079   326.02220   348.56384
  E(xc)   -2906.52477 -2906.56505 -2904.15376     0.18210     0.54364     0.57466
  Local  ************************************   -87.01533  -717.40332  -766.73196
  n-local  -877.75560  -877.82948  -879.85891     0.33450     1.61044     1.74927
  augment  4105.80688  4106.00589  4097.54336    -1.17814    -3.23660    -3.47614
  Kinetic  7820.35747  7820.89589  7781.84170    -3.23784    -9.29157    -9.90197
  Fock        0.00000     0.00000     0.00000     0.00000     0.00000     0.00000
  -------------------------------------------------------------------------------------
  Total    -112.14063  -112.23589  -102.24987     0.81958     2.63673     2.83998
  in kB      -6.65441    -6.66007    -6.06750     0.04863     0.15646     0.16852
  external pressure =       -6.46 kB  Pullay stress =        0.00 kB


 VOLUME and BASIS-vectors are now :
 -----------------------------------------------------------------------------
  energy-cutoff  :      400.00
  volume of cell :    27000.00
      direct lattice vectors                 reciprocal lattice vectors
    30.000000000  0.000000000  0.000000000     0.033333333  0.000000000  0.000000000
     0.000000000 30.000000000  0.000000000     0.000000000  0.033333333  0.000000000
     0.000000000  0.000000000 30.000000000     0.000000000  0.000000000  0.033333333

  length of vectors
    30.000000000 30.000000000 30.000000000     0.033333333  0.033333333  0.033333333


 FORCES acting on ions
    electron-ion (+dipol)            ewald-force                    non-local-force                 convergence-correction
 -----------------------------------------------------------------------------------------------
   0.398E+03 0.993E+03 0.393E+03   -.396E+03 -.990E+03 -.392E+03   -.155E+01 -.182E+01 -.256E+00   0.248E-02 0.423E-02 -.511E-02
   -.987E+03 -.400E+03 0.403E+03   0.984E+03 0.398E+03 -.402E+03   0.184E+01 0.153E+01 -.200E+00   -.223E-02 0.169E-02 0.161E-02
   -.404E+03 0.990E+03 0.396E+03   0.401E+03 -.987E+03 -.396E+03   0.156E+01 -.183E+01 -.212E+00   -.193E-02 0.132E-02 -.271E-02
   0.990E+03 -.404E+03 0.396E+03   -.987E+03 0.401E+03 -.395E+03   -.183E+01 0.156E+01 -.215E+00   0.209E-02 0.435E-03 -.325E-02
   -.190E+02 0.665E+03 0.904E+03   0.190E+02 -.664E+03 -.900E+03   -.306E-01 0.127E-01 -.231E+01   -.277E-02 -.618E-03 0.124E-02
   -.530E+00 0.588E+03 -.969E+03   0.526E+00 -.587E+03 0.965E+03   0.145E-02 -.307E+00 0.236E+01   0.668E-03 0.949E-03 -.184E-03
   -.114E+01 0.114E+04 -.110E+02   0.113E+01 -.114E+04 0.109E+02   0.316E-02 -.310E+01 0.522E-01   0.200E-02 0.134E-02 -.512E-02
   0.114E+04 -.108E+01 -.111E+02   -.114E+04 0.107E+01 0.110E+02   -.310E+01 0.313E-02 0.537E-01   -.288E-03 0.210E-02 -.441E-02
   -.114E+04 -.795E+00 -.800E+01   0.114E+04 0.786E+00 0.797E+01   0.311E+01 0.203E-02 0.205E-01   -.186E-02 0.201E-02 -.194E-02
   -.856E+00 -.114E+04 -.808E+01   0.850E+00 0.114E+04 0.805E+01   0.224E-02 0.310E+01 0.217E-01   -.972E-03 -.723E-03 -.930E-03
   -.613E+03 0.601E+03 0.791E+03   0.611E+03 -.599E+03 -.788E+03   0.154E+01 -.155E+01 -.224E+01   -.497E-02 -.309E-02 0.449E-03
   -.580E+03 0.579E+03 -.816E+03   0.578E+03 -.577E+03 0.813E+03   0.156E+01 -.155E+01 0.221E+01   -.199E-02 -.163E-02 -.939E-03
   0.602E+03 -.614E+03 0.791E+03   -.600E+03 0.612E+03 -.787E+03   -.155E+01 0.154E+01 -.224E+01   0.515E-03 -.319E-02 0.125E-02
   0.579E+03 -.580E+03 -.816E+03   -.577E+03 0.578E+03 0.813E+03   -.155E+01 0.156E+01 0.221E+01   -.233E-02 0.853E-03 -.984E-04
   0.620E+03 0.621E+03 0.775E+03   -.618E+03 -.618E+03 -.772E+03   -.150E+01 -.150E+01 -.224E+01   0.318E-02 0.181E-02 0.295E-03
   0.579E+03 0.579E+03 -.817E+03   -.577E+03 -.577E+03 0.813E+03   -.156E+01 -.156E+01 0.221E+01   -.153E-03 0.526E-04 0.179E-02
   -.601E+03 -.601E+03 0.798E+03   0.599E+03 0.599E+03 -.795E+03   0.157E+01 0.157E+01 -.223E+01   -.181E-02 -.221E-03 -.124E-03
   -.580E+03 -.580E+03 -.816E+03   0.577E+03 0.577E+03 0.812E+03   0.156E+01 0.155E+01 0.221E+01   0.168E-02 0.130E-02 -.961E-03
   0.395E+03 0.975E+03 -.425E+03   -.392E+03 -.972E+03 0.424E+03   -.149E+01 -.183E+01 0.185E+00   0.138E-02 -.100E-03 -.278E-02
   -.975E+03 -.396E+03 -.422E+03   0.972E+03 0.393E+03 0.422E+03   0.184E+01 0.150E+01 0.209E+00   -.283E-02 0.452E-02 -.282E-02
   -.344E+03 0.331E+03 0.409E+03   0.344E+03 -.331E+03 -.410E+03   -.367E+00 0.258E+00 0.468E+00   -.403E-02 -.320E-02 -.712E-03
   0.993E+03 0.399E+03 0.392E+03   -.990E+03 -.396E+03 -.392E+03   -.182E+01 -.155E+01 -.256E+00   0.343E-02 0.716E-03 -.542E-02
   -.400E+03 -.987E+03 0.402E+03   0.398E+03 0.984E+03 -.402E+03   0.153E+01 0.184E+01 -.199E+00   -.112E-03 -.340E-02 -.159E-02
   -.396E+03 0.975E+03 -.424E+03   0.394E+03 -.972E+03 0.423E+03   0.149E+01 -.184E+01 0.189E+00   0.117E-02 0.325E-03 -.403E-02
   0.975E+03 -.396E+03 -.424E+03   -.972E+03 0.394E+03 0.424E+03   -.184E+01 0.149E+01 0.188E+00   0.759E-04 0.429E-02 -.804E-03
   -.989E+03 0.397E+03 0.401E+03   0.986E+03 -.395E+03 -.400E+03   0.183E+01 -.152E+01 -.226E+00   -.252E-02 -.116E-02 0.235E-03
   0.397E+03 -.989E+03 0.401E+03   -.394E+03 0.986E+03 -.400E+03   -.152E+01 0.183E+01 -.228E+00   -.274E-02 -.426E-02 -.280E-02
   0.334E+03 0.335E+03 0.395E+03   -.335E+03 -.335E+03 -.395E+03   0.420E+00 0.424E+00 0.210E+00   -.171E-03 -.171E-02 -.628E-02
   -.216E+01 0.646E+03 -.211E+02   0.215E+01 -.647E+03 0.211E+02   0.413E-02 0.705E+00 0.707E-01   0.205E-02 0.648E-03 -.590E-02
   -.638E+03 -.802E+01 0.936E+03   0.637E+03 0.806E+01 -.932E+03   0.259E+00 -.276E-01 -.248E+01   -.247E-02 -.351E-03 -.226E-03
   -.588E+03 -.454E+00 -.968E+03   0.588E+03 0.445E+00 0.965E+03   0.289E+00 0.261E-02 0.238E+01   -.222E-02 0.383E-02 -.140E-02
   0.666E+03 -.184E+02 0.901E+03   -.666E+03 0.184E+02 -.898E+03   0.162E-01 -.275E-01 -.229E+01   0.105E-02 -.147E-02 0.150E-02
   0.588E+03 -.499E+00 -.969E+03   -.587E+03 0.493E+00 0.965E+03   -.307E+00 0.151E-02 0.236E+01   0.395E-03 0.315E-02 0.118E-02
   0.767E+03 0.767E+03 -.173E+02   -.765E+03 -.765E+03 0.172E+02   -.116E+01 -.116E+01 0.586E-01   0.119E-02 -.463E-03 -.680E-02
   -.766E+03 -.766E+03 -.113E+02   0.764E+03 0.764E+03 0.114E+02   0.113E+01 0.113E+01 -.400E-01   0.673E-03 -.223E-02 -.190E-03
   -.768E+03 0.765E+03 -.138E+02   0.766E+03 -.763E+03 0.138E+02   0.114E+01 -.114E+01 0.909E-02   -.333E-02 -.135E-02 -.350E-02
   0.765E+03 -.768E+03 -.140E+02   -.763E+03 0.766E+03 0.140E+02   -.114E+01 0.114E+01 0.127E-01   -.148E-02 -.700E-04 -.318E-02
   -.107E+03 -.100E+03 0.785E+03   0.103E+03 0.964E+02 -.792E+03   0.512E+01 0.478E+01 0.108E+02   -.443E-02 -.196E-02 0.687E-03
   -.581E+00 -.543E+00 -.107E+04   0.555E+00 0.518E+00 0.107E+04   0.174E-01 0.162E-01 0.163E+01   -.333E-03 0.288E-03 -.139E-02
   0.975E+03 0.395E+03 -.425E+03   -.972E+03 -.392E+03 0.424E+03   -.183E+01 -.149E+01 0.184E+00   -.911E-03 0.775E-03 -.119E-02
   -.396E+03 -.975E+03 -.422E+03   0.393E+03 0.972E+03 0.422E+03   0.150E+01 0.184E+01 0.209E+00   0.306E-02 -.242E-02 -.983E-03
   -.324E+03 0.322E+03 -.464E+03   0.324E+03 -.322E+03 0.465E+03   -.363E+00 0.362E+00 -.526E+00   -.204E-02 0.148E-02 -.538E-02
   0.331E+03 -.344E+03 0.409E+03   -.331E+03 0.344E+03 -.409E+03   0.267E+00 -.375E+00 0.450E+00   -.185E-02 -.101E-02 -.374E-02
   0.322E+03 0.322E+03 -.465E+03   -.322E+03 -.322E+03 0.466E+03   0.355E+00 0.355E+00 -.546E+00   0.366E-02 0.167E-02 -.235E-02
   -.975E+03 0.394E+03 -.423E+03   0.972E+03 -.392E+03 0.422E+03   0.184E+01 -.150E+01 0.200E+00   -.227E-02 0.568E-03 -.403E-02
   0.394E+03 -.975E+03 -.423E+03   -.392E+03 0.972E+03 0.422E+03   -.150E+01 0.184E+01 0.200E+00   -.362E-02 -.126E-02 -.954E-03
   -.339E+03 -.339E+03 0.418E+03   0.339E+03 0.339E+03 -.419E+03   -.145E+00 -.140E+00 0.789E+00   -.184E-02 -.469E-03 0.874E-03
   0.646E+03 -.203E+01 -.213E+02   -.647E+03 0.202E+01 0.213E+02   0.706E+00 0.384E-02 0.724E-01   0.126E-02 0.233E-02 -.655E-02
   -.648E+03 -.159E+01 -.166E+02   0.649E+03 0.159E+01 0.165E+02   -.708E+00 0.128E-02 0.268E-01   -.378E-02 0.219E-02 -.116E-02
   -.877E+01 -.639E+03 0.936E+03   0.882E+01 0.638E+03 -.932E+03   -.293E-01 0.247E+00 -.248E+01   -.289E-02 -.228E-02 -.750E-03
   -.484E+00 -.588E+03 -.968E+03   0.479E+00 0.588E+03 0.965E+03   0.255E-02 0.290E+00 0.238E+01   0.541E-05 -.947E-03 -.811E-03
   -.269E+01 -.251E+01 -.266E+02   0.269E+01 0.251E+01 0.265E+02   -.210E-03 -.152E-03 0.496E-01   0.194E-02 -.152E-03 -.270E-02
   0.322E+03 -.324E+03 -.464E+03   -.322E+03 0.324E+03 0.465E+03   0.361E+00 -.363E+00 -.528E+00   0.791E-04 0.117E-02 -.173E-02
   -.323E+03 -.323E+03 -.463E+03   0.324E+03 0.324E+03 0.464E+03   -.373E+00 -.373E+00 -.506E+00   0.142E-02 -.554E-03 -.409E-02
   -.171E+01 -.648E+03 -.167E+02   0.171E+01 0.649E+03 0.167E+02   0.153E-02 -.708E+00 0.286E-01   -.160E-03 -.394E-02 -.203E-02
   0.559E+02 0.525E+02 0.327E+03   -.550E+02 -.517E+02 -.310E+03   -.123E+01 -.114E+01 -.151E+02   -.102E-02 -.995E-03 0.122E-02
   0.753E+02 0.705E+02 0.837E+03   -.816E+02 -.763E+02 -.902E+03   0.534E+01 0.497E+01 0.601E+02   -.857E-03 -.803E-03 0.243E-02
 -----------------------------------------------------------------------------------------------
   -.969E+01 -.908E+01 -.572E+02   0.355E-12 -.909E-12 -.796E-12   0.972E+01 0.908E+01 0.573E+02   -.338E-01 0.390E-04 -.993E-01
 
 
 POSITION                                       TOTAL-FORCE (eV/Angst)
 -----------------------------------------------------------------------------------
     13.37281      9.84801     12.50759         0.703176      1.091181      0.308874
     20.15199     16.62719     12.50759        -1.107557     -0.701924      0.286694
     16.62719      9.84801     12.50759        -0.705314      1.098528      0.294703
      9.84801     16.62719     12.50759         1.097552     -0.705010      0.295918
     15.00000     11.47521     10.20639         0.007879      0.439420      1.301595
     15.00000     11.47521     19.79360        -0.001715      0.407684     -1.279371
     15.00000      8.28283     15.00000        -0.005178      1.503889     -0.020091
      8.28283     15.00000     15.00000         1.503783     -0.005064     -0.020580
     21.71717     15.00000     15.00000        -1.508741     -0.004452     -0.009325
     15.00000     21.71717     15.00000        -0.004710     -1.508540     -0.009667
     18.35858     11.64142     10.25025        -0.735320      0.737127      1.071115
     18.35858     11.64142     19.74975        -0.753860      0.749429     -1.074333
     11.64142     18.35858     10.25025         0.736052     -0.734110      1.071119
     11.64142     18.35858     19.74975         0.749755     -0.754139     -1.074478
     11.64142     11.64142     10.25025         0.715109      0.714761      1.070499
     11.64142     11.64142     19.74975         0.753315      0.753392     -1.072764
     18.35858     18.35858     10.25025        -0.750286     -0.750315      1.068014
     18.35858     18.35858     19.74975        -0.750928     -0.750821     -1.075821
     13.37281      9.84801     17.49241         0.697848      1.112039     -0.285812
     20.15199     16.62719     17.49241        -1.109470     -0.695011     -0.287396
     16.73751     13.26249     12.54279         0.170698     -0.129305     -0.110384
      9.84801     13.37281     12.50759         1.090627      0.703078      0.309218
     16.62719     20.15199     12.50759        -0.702215     -1.107409      0.286428
     16.62719      9.84801     17.49241        -0.694778      1.112969     -0.283247
      9.84801     16.62719     17.49241         1.113202     -0.695003     -0.283124
     20.15199     13.37281     12.50759        -1.104003      0.698781      0.295779
     13.37281     20.15199     12.50759         0.699145     -1.103680      0.296456
     13.26249     13.26249     12.54279        -0.166917     -0.168350     -0.079367
     15.00000     11.52498     15.00000        -0.001573     -0.217413     -0.000528
     18.52479     15.00000     10.20639        -0.382522      0.014019      1.326948
     18.52479     15.00000     19.79360        -0.400848     -0.002237     -1.280803
     11.47521     15.00000     10.20640         0.451194      0.004567      1.295377
     11.47521     15.00000     19.79360         0.407891     -0.001623     -1.279337
     11.49535     11.49535     15.00000         0.833198      0.832912     -0.010394
     18.50465     18.50465     15.00000        -0.811406     -0.811739      0.029994
     18.50465     11.49535     15.00000        -0.819581      0.824720      0.010232
     11.49535     18.50465     15.00000         0.825597     -0.820452      0.008722
     15.00000     15.00000     10.04368         1.325389      1.234115      4.582198
     15.00000     15.00000     19.95633        -0.008565     -0.008033     -1.185388
      9.84801     13.37281     17.49241         1.112282      0.697776     -0.285638
     16.62719     20.15199     17.49241        -0.694826     -1.109637     -0.287270
     16.73751     13.26249     17.45721         0.114697     -0.113293      0.150699
     13.26249     16.73751     12.54279        -0.132247      0.172815     -0.108019
     13.26249     13.26249     17.45721        -0.113254     -0.113483      0.152697
     20.15199     13.37281     17.49241        -1.108171      0.696917     -0.286919
     13.37281     20.15199     17.49241         0.697134     -1.108460     -0.286875
     16.73751     16.73751     12.54279         0.075326      0.073040     -0.196751
     11.52498     15.00000     15.00000        -0.217462     -0.001639     -0.000557
     18.47502     15.00000     15.00000         0.211370      0.000776     -0.000169
     15.00000     18.52480     10.20639         0.015164     -0.381649      1.327155
     15.00000     18.52480     19.79360        -0.002339     -0.401239     -1.280720
     15.00000     15.00000     15.00000         0.000712      0.000497     -0.009096
     13.26249     16.73751     17.45721        -0.113087      0.114683      0.151033
     16.73751     16.73751     17.45721         0.114907      0.114842      0.146856
     15.00000     18.47502     15.00000         0.000859      0.211560     -0.000106
     14.36469     14.40672      8.57360        -0.405426     -0.355863      1.621601
     14.25419     14.30353      7.45578        -0.911562     -0.855627     -5.295596
 -----------------------------------------------------------------------------------
    total drift:                               -0.001781      0.002766     -0.000271


--------------------------------------------------------------------------------------------------------



  FREE ENERGIE OF THE ION-ELECTRON SYSTEM (eV)
  ---------------------------------------------------
  free  energy   TOTEN  =      -174.87837564 eV

  energy  without entropy=     -174.84104714  energy(sigma->0) =     -174.86904351
 


--------------------------------------------------------------------------------------------------------


    POTLOK:  cpu time   16.4768: real time   16.4775


--------------------------------------------------------------------------------------------------------


     LOOP+:  cpu time25373.8388: real time25374.6338
    4ORBIT:  cpu time    0.0000: real time    0.0000

 total amount of memory used by VASP MPI-rank0  5486941. kBytes
=======================================================================

   base      :      30000. kBytes
   nonlr-proj:      17126. kBytes
   fftplans  :     924480. kBytes
   grid      :    1872000. kBytes
   one-center:        886. kBytes
   wavefun   :    2642449. kBytes
 
  
  
 General timing and accounting informations for this job:
 ========================================================
  
                  Total CPU time used (sec):    25476.932
                            User time (sec):    23634.607
                          System time (sec):     1842.324
                         Elapsed time (sec):    25477.773
  
                   Maximum memory used (kb):     7179128.
                   Average memory used (kb):           0.
  
                          Minor page faults:    816110226
                          Major page faults:            0
                 Voluntary context switches:          515
