   57   57    1    1
  0.4736842E+03  0.3000000E-08  0.3000000E-08  0.3000000E-08  0.5000000E-15
  1.000000000000000E-004
  CAR 
 6_Pd100_top_free_z(O)                   
    560      1    336
 
  0.0000000E+00  0.0000000E+00  0.0000000E+00  0.1000000E+01
    1      -29.559136   1.000000
    2      -14.450148   1.000000
    3      -13.142419   1.000000
    4      -12.516944   1.000000
    5      -11.190418   1.000000
    6       -7.858541   1.000000
    7       -6.810775   1.000000
    8       -6.666738   1.000000
    9       -6.347032   1.000000
   10       -6.252152   1.000000
   11       -6.207522   1.000000
   12       -6.105413   1.000000
   13       -6.099601   1.000000
   14       -5.951153   1.000000
   15       -5.913122   1.000000
   16       -5.849345   1.000000
   17       -5.827480   1.000000
   18       -5.817789   1.000000
   19       -5.760356   1.000000
   20       -5.750949   1.000000
   21       -5.692817   1.000000
   22       -5.659975   1.000000
   23       -5.653675   1.000000
   24       -5.644420   1.000000
   25       -5.636362   1.000000
   26       -5.599847   1.000000
   27       -5.586877   1.000000
   28       -5.564199   1.000000
   29       -5.554664   1.000000
   30       -5.541718   1.000000
   31       -5.529094   1.000000
   32       -5.519739   1.000000
   33       -5.512358   1.000000
   34       -5.510742   1.000000
   35       -5.497745   1.000000
   36       -5.495916   1.000000
   37       -5.484905   1.000000
   38       -5.480110   1.000000
   39       -5.476557   1.000000
   40       -5.469746   1.000000
   41       -5.464903   1.000000
   42       -5.463193   1.000000
   43       -5.451384   1.000000
   44       -5.439925   1.000000
   45       -5.435579   1.000000
   46       -5.433618   1.000000
   47       -5.429933   1.000000
   48       -5.425108   1.000000
   49       -5.419527   1.000000
   50       -5.399350   1.000000
   51       -5.396404   1.000000
   52       -5.392794   1.000000
   53       -5.390534   1.000000
   54       -5.382194   1.000000
   55       -5.370456   1.000000
   56       -5.366824   1.000000
   57       -5.358406   1.000000
   58       -5.342969   1.000000
   59       -5.334327   1.000000
   60       -5.327917   1.000000
   61       -5.322325   1.000000
   62       -5.307416   1.000000
   63       -5.295435   1.000000
   64       -5.288070   1.000000
   65       -5.285727   1.000000
   66       -5.280106   1.000000
   67       -5.277889   1.000000
   68       -5.274456   1.000000
   69       -5.262674   1.000000
   70       -5.256349   1.000000
   71       -5.254603   1.000000
   72       -5.219609   1.000000
   73       -5.199812   1.000000
   74       -5.192785   1.000000
   75       -5.166741   1.000000
   76       -5.165473   1.000000
   77       -5.159809   1.000000
   78       -5.155300   1.000000
   79       -5.148079   1.000000
   80       -5.142770   1.000000
   81       -5.140696   1.000000
   82       -5.136310   1.000000
   83       -5.121152   1.000000
   84       -5.116148   1.000000
   85       -5.104325   1.000000
   86       -5.093642   1.000000
   87       -5.091943   1.000000
   88       -5.084122   1.000000
   89       -5.079936   1.000000
   90       -5.071962   1.000000
   91       -5.068041   1.000000
   92       -5.061217   1.000000
   93       -5.050520   1.000000
   94       -5.041204   1.000000
   95       -5.029065   1.000000
   96       -5.021851   1.000000
   97       -5.017687   1.000000
   98       -5.017074   1.000000
   99       -5.013933   1.000000
  100       -5.004310   1.000000
  101       -4.999625   1.000000
  102       -4.993770   1.000000
  103       -4.985914   1.000000
  104       -4.979162   1.000000
  105       -4.977828   1.000000
  106       -4.976748   1.000000
  107       -4.970417   1.000000
  108       -4.963442   1.000000
  109       -4.959645   1.000000
  110       -4.957174   1.000000
  111       -4.953160   1.000000
  112       -4.947015   1.000000
  113       -4.942081   1.000000
  114       -4.939734   1.000000
  115       -4.930223   1.000000
  116       -4.921942   0.999999
  117       -4.917058   0.999999
  118       -4.915647   0.999999
  119       -4.912248   0.999999
  120       -4.895814   0.999999
  121       -4.891056   0.999998
  122       -4.890544   0.999998
  123       -4.883671   0.999998
  124       -4.881259   0.999998
  125       -4.869970   0.999996
  126       -4.868110   0.999996
  127       -4.863546   0.999996
  128       -4.842496   0.999991
  129       -4.841298   0.999991
  130       -4.839753   0.999991
  131       -4.829684   0.999987
  132       -4.821834   0.999984
  133       -4.816102   0.999981
  134       -4.811686   0.999978
  135       -4.802906   0.999971
  136       -4.797777   0.999967
  137       -4.796834   0.999966
  138       -4.785913   0.999954
  139       -4.784460   0.999952
  140       -4.773796   0.999935
  141       -4.770559   0.999929
  142       -4.744370   0.999859
  143       -4.734540   0.999820
  144       -4.717774   0.999731
  145       -4.711365   0.999688
  146       -4.707317   0.999657
  147       -4.704441   0.999634
  148       -4.701998   0.999614
  149       -4.693178   0.999531
  150       -4.679261   0.999369
  151       -4.676888   0.999337
  152       -4.672809   0.999280
  153       -4.658155   0.999039
  154       -4.657086   0.999020
  155       -4.650925   0.998900
  156       -4.648200   0.998843
  157       -4.646171   0.998799
  158       -4.641058   0.998684
  159       -4.639877   0.998657
  160       -4.631035   0.998436
  161       -4.626031   0.998301
  162       -4.622572   0.998203
  163       -4.619268   0.998106
  164       -4.618221   0.998075
  165       -4.615484   0.997991
  166       -4.613803   0.997939
  167       -4.607234   0.997727
  168       -4.606334   0.997697
  169       -4.605065   0.997655
  170       -4.595605   0.997326
  171       -4.589867   0.997118
  172       -4.588738   0.997077
  173       -4.570608   0.996398
  174       -4.570432   0.996391
  175       -4.566410   0.996242
  176       -4.562653   0.996105
  177       -4.560971   0.996044
  178       -4.559357   0.995987
  179       -4.549876   0.995668
  180       -4.549204   0.995647
  181       -4.542521   0.995451
  182       -4.539587   0.995374
  183       -4.527292   0.995134
  184       -4.523855   0.995095
  185       -4.520218   0.995071
  186       -4.518889   0.995067
  187       -4.518342   0.995066
  188       -4.516081   0.995066
  189       -4.511471   0.995093
  190       -4.501612   0.995280
  191       -4.495931   0.995481
  192       -4.485670   0.996047
  193       -4.480296   0.996461
  194       -4.476675   0.996790
  195       -4.470885   0.997406
  196       -4.464118   0.998277
  197       -4.461394   0.998675
  198       -4.458340   0.999157
  199       -4.455143   0.999700
  200       -4.449249   1.000814
  201       -4.447599   1.001152
  202       -4.444941   1.001722
  203       -4.440848   1.002659
  204       -4.434522   1.004257
  205       -4.426227   1.006627
  206       -4.424017   1.007312
  207       -4.416922   1.009659
  208       -4.414099   1.010656
  209       -4.412940   1.011075
  210       -4.408087   1.012892
  211       -4.400406   1.015963
  212       -4.389386   1.020739
  213       -4.387880   1.021421
  214       -4.382474   1.023913
  215       -4.377575   1.026223
  216       -4.376480   1.026744
  217       -4.374699   1.027595
  218       -4.367511   1.031052
  219       -4.364298   1.032597
  220       -4.361664   1.033858
  221       -4.357127   1.036009
  222       -4.351699   1.038520
  223       -4.346184   1.040971
  224       -4.330435   1.047040
  225       -4.320192   1.049867
  226       -4.316027   1.050674
  227       -4.314229   1.050952
  228       -4.311162   1.051320
  229       -4.307395   1.051579
  230       -4.304550   1.051623
  231       -4.301811   1.051533
  232       -4.297872   1.051163
  233       -4.295963   1.050876
  234       -4.293816   1.050465
  235       -4.292648   1.050201
  236       -4.291482   1.049908
  237       -4.289477   1.049336
  238       -4.283750   1.047195
  239       -4.280593   1.045677
  240       -4.277783   1.044113
  241       -4.276717   1.043465
  242       -4.270976   1.039445
  243       -4.268192   1.037160
  244       -4.265535   1.034766
  245       -4.262309   1.031572
  246       -4.257951   1.026739
  247       -4.250008   1.016333
  248       -4.248728   1.014455
  249       -4.242950   1.005266
  250       -4.240737   1.001431
  251       -4.238500   0.997373
  252       -4.237457   0.995418
  253       -4.232230   0.985013
  254       -4.223229   0.964675
  255       -4.219990   0.956595
  256       -4.215461   0.944615
  257       -4.213683   0.939696
  258       -4.211026   0.932112
  259       -4.209441   0.927459
  260       -4.206615   0.918924
  261       -4.205095   0.914206
  262       -4.202727   0.906676
  263       -4.199957   0.897600
  264       -4.198987   0.894354
  265       -4.197447   0.889123
  266       -4.194486   0.878822
  267       -4.187026   0.851437
  268       -4.184101   0.840158
  269       -4.181025   0.827974
  270       -4.180972   0.827761
  271       -4.177374   0.813096
  272       -4.173932   0.798674
  273       -4.167289   0.769787
  274       -4.156136   0.718461
  275       -4.152192   0.699552
  276       -4.147829   0.678231
  277       -4.145909   0.668729
  278       -4.138825   0.633074
  279       -4.134485   0.610836
  280       -4.132043   0.598215
  281       -4.122308   0.547323
  282       -4.120861   0.539696
  283       -4.113459   0.500590
  284       -4.096706   0.412453
  285       -4.095773   0.407600
  286       -4.084856   0.351656
  287       -4.082770   0.341171
  288       -4.076901   0.312118
  289       -3.973880  -0.020252
  290       -3.876890  -0.039376
  291       -3.847113  -0.025272
  292       -3.785497  -0.002576
  293       -3.783583  -0.002131
  294       -3.633671   0.002767
  295       -3.472666   0.000110
  296       -3.445709   0.000053
  297       -3.212456   0.000000
  298       -3.039598   0.000000
  299       -3.033883   0.000000
  300       -2.992605   0.000000
  301       -2.981153   0.000000
  302       -2.975579   0.000000
  303       -2.967865   0.000000
  304       -2.872606   0.000000
  305       -2.702699   0.000000
  306       -2.493404   0.000000
  307       -2.447522   0.000000
  308       -2.415025   0.000000
  309       -2.296970   0.000000
  310       -2.201233   0.000000
  311       -2.090919   0.000000
  312       -2.008201   0.000000
  313       -1.929944   0.000000
  314       -1.906403   0.000000
  315       -1.830776   0.000000
  316       -1.826108   0.000000
  317       -1.812183   0.000000
  318       -1.726842   0.000000
  319       -1.632355   0.000000
  320       -1.601356   0.000000
  321       -1.542850   0.000000
  322       -1.540729   0.000000
  323       -1.306322   0.000000
  324       -1.285128   0.000000
  325       -1.270293   0.000000
  326       -1.206884   0.000000
  327       -1.196088   0.000000
  328       -1.090623   0.000000
  329       -0.961240   0.000000
  330       -0.960454   0.000000
  331       -0.912429   0.000000
  332       -0.890587   0.000000
  333       -0.805886   0.000000
  334       -0.778300   0.000000
  335       -0.705283   0.000000
  336       -0.664219   0.000000
