   57   57    1    1
  0.4736842E+03  0.3000000E-08  0.3000000E-08  0.3000000E-08  0.5000000E-15
  1.000000000000000E-004
  CAR 
 6_Pd100_top_free_z(O)                   
    560      1    336
 
  0.0000000E+00  0.0000000E+00  0.0000000E+00  0.1000000E+01
    1      -28.275265   1.000000
    2      -13.418229   1.000000
    3      -11.215157   1.000000
    4      -10.871211   1.000000
    5      -10.561825   1.000000
    6       -6.668044   1.000000
    7       -6.583628   1.000000
    8       -6.476554   1.000000
    9       -6.191838   1.000000
   10       -6.140119   1.000000
   11       -6.136479   1.000000
   12       -5.925226   1.000000
   13       -5.829540   1.000000
   14       -5.819513   1.000000
   15       -5.794491   1.000000
   16       -5.759741   1.000000
   17       -5.745779   1.000000
   18       -5.705414   1.000000
   19       -5.702589   1.000000
   20       -5.689255   1.000000
   21       -5.688083   1.000000
   22       -5.664618   1.000000
   23       -5.633721   1.000000
   24       -5.613826   1.000000
   25       -5.606288   1.000000
   26       -5.604383   1.000000
   27       -5.591862   1.000000
   28       -5.583211   1.000000
   29       -5.559468   1.000000
   30       -5.558022   1.000000
   31       -5.548398   1.000000
   32       -5.537477   1.000000
   33       -5.530334   1.000000
   34       -5.529253   1.000000
   35       -5.523920   1.000000
   36       -5.522639   1.000000
   37       -5.519009   1.000000
   38       -5.514311   1.000000
   39       -5.503870   1.000000
   40       -5.492968   1.000000
   41       -5.484845   1.000000
   42       -5.482875   1.000000
   43       -5.479506   1.000000
   44       -5.477596   1.000000
   45       -5.474051   1.000000
   46       -5.465760   1.000000
   47       -5.454068   1.000000
   48       -5.442384   1.000000
   49       -5.438479   1.000000
   50       -5.436179   1.000000
   51       -5.435594   1.000000
   52       -5.431475   1.000000
   53       -5.417012   1.000000
   54       -5.416213   1.000000
   55       -5.409939   1.000000
   56       -5.407083   1.000000
   57       -5.395192   1.000000
   58       -5.372298   1.000000
   59       -5.355770   1.000000
   60       -5.344375   1.000000
   61       -5.337102   1.000000
   62       -5.330292   1.000000
   63       -5.327695   1.000000
   64       -5.325945   1.000000
   65       -5.313749   1.000000
   66       -5.310812   1.000000
   67       -5.307799   1.000000
   68       -5.303983   1.000000
   69       -5.274449   1.000000
   70       -5.260172   1.000000
   71       -5.222931   1.000000
   72       -5.221133   1.000000
   73       -5.212641   1.000000
   74       -5.205595   1.000000
   75       -5.199426   1.000000
   76       -5.191490   1.000000
   77       -5.191322   1.000000
   78       -5.184431   1.000000
   79       -5.179032   1.000000
   80       -5.175127   1.000000
   81       -5.174936   1.000000
   82       -5.155199   1.000000
   83       -5.149191   1.000000
   84       -5.138367   1.000000
   85       -5.135804   1.000000
   86       -5.124671   1.000000
   87       -5.119586   1.000000
   88       -5.113048   1.000000
   89       -5.100843   1.000000
   90       -5.085040   1.000000
   91       -5.077551   1.000000
   92       -5.068397   1.000000
   93       -5.066605   1.000000
   94       -5.064451   1.000000
   95       -5.063177   1.000000
   96       -5.060483   1.000000
   97       -5.054225   1.000000
   98       -5.050765   1.000000
   99       -5.046376   1.000000
  100       -5.039455   1.000000
  101       -5.034245   1.000000
  102       -5.033094   1.000000
  103       -5.021739   1.000000
  104       -5.017723   1.000000
  105       -5.015037   1.000000
  106       -5.013221   1.000000
  107       -5.008107   1.000000
  108       -5.003180   1.000000
  109       -4.998475   1.000000
  110       -4.990340   1.000000
  111       -4.988450   1.000000
  112       -4.984092   1.000000
  113       -4.974649   1.000000
  114       -4.972335   1.000000
  115       -4.967914   0.999999
  116       -4.966634   0.999999
  117       -4.958579   0.999999
  118       -4.949237   0.999999
  119       -4.941778   0.999999
  120       -4.938993   0.999998
  121       -4.924874   0.999997
  122       -4.921111   0.999997
  123       -4.917319   0.999997
  124       -4.913490   0.999996
  125       -4.912434   0.999996
  126       -4.909321   0.999996
  127       -4.888924   0.999992
  128       -4.883074   0.999990
  129       -4.872157   0.999986
  130       -4.862095   0.999981
  131       -4.850981   0.999973
  132       -4.849821   0.999972
  133       -4.849084   0.999972
  134       -4.847225   0.999970
  135       -4.840790   0.999964
  136       -4.837758   0.999961
  137       -4.820494   0.999937
  138       -4.811331   0.999919
  139       -4.803791   0.999902
  140       -4.796365   0.999881
  141       -4.784860   0.999840
  142       -4.782171   0.999829
  143       -4.775230   0.999797
  144       -4.765903   0.999747
  145       -4.752415   0.999653
  146       -4.748821   0.999624
  147       -4.743137   0.999573
  148       -4.737343   0.999516
  149       -4.729638   0.999429
  150       -4.715590   0.999238
  151       -4.708640   0.999126
  152       -4.703627   0.999037
  153       -4.695915   0.998887
  154       -4.692888   0.998823
  155       -4.692796   0.998821
  156       -4.687263   0.998698
  157       -4.683866   0.998618
  158       -4.682533   0.998586
  159       -4.679689   0.998515
  160       -4.677600   0.998461
  161       -4.672198   0.998316
  162       -4.664803   0.998104
  163       -4.658288   0.997904
  164       -4.657054   0.997864
  165       -4.656508   0.997847
  166       -4.654915   0.997795
  167       -4.654751   0.997790
  168       -4.653519   0.997749
  169       -4.649728   0.997623
  170       -4.640787   0.997311
  171       -4.631987   0.996990
  172       -4.626111   0.996770
  173       -4.621436   0.996594
  174       -4.612431   0.996257
  175       -4.608069   0.996098
  176       -4.606002   0.996024
  177       -4.604763   0.995980
  178       -4.601689   0.995873
  179       -4.600354   0.995828
  180       -4.589589   0.995492
  181       -4.586627   0.995411
  182       -4.578933   0.995234
  183       -4.578211   0.995220
  184       -4.571070   0.995111
  185       -4.568977   0.995091
  186       -4.568280   0.995085
  187       -4.564191   0.995066
  188       -4.559718   0.995073
  189       -4.558231   0.995083
  190       -4.554064   0.995130
  191       -4.544367   0.995372
  192       -4.531392   0.996039
  193       -4.527593   0.996321
  194       -4.521214   0.996895
  195       -4.514954   0.997590
  196       -4.513593   0.997759
  197       -4.509665   0.998285
  198       -4.501896   0.999501
  199       -4.498197   1.000165
  200       -4.492469   1.001307
  201       -4.485389   1.002916
  202       -4.478549   1.004684
  203       -4.472929   1.006296
  204       -4.470386   1.007073
  205       -4.468125   1.007789
  206       -4.464136   1.009108
  207       -4.459529   1.010719
  208       -4.456041   1.012001
  209       -4.451312   1.013819
  210       -4.450185   1.014266
  211       -4.439053   1.018934
  212       -4.435859   1.020350
  213       -4.432543   1.021851
  214       -4.428972   1.023498
  215       -4.420020   1.027732
  216       -4.417497   1.028943
  217       -4.416188   1.029573
  218       -4.414030   1.030612
  219       -4.411724   1.031723
  220       -4.408667   1.033190
  221       -4.394375   1.039838
  222       -4.377818   1.046446
  223       -4.375960   1.047067
  224       -4.370993   1.048570
  225       -4.365602   1.049910
  226       -4.355082   1.051464
  227       -4.347820   1.051554
  228       -4.346645   1.051483
  229       -4.344719   1.051311
  230       -4.343583   1.051176
  231       -4.343185   1.051123
  232       -4.342036   1.050953
  233       -4.337910   1.050118
  234       -4.335659   1.049510
  235       -4.334303   1.049089
  236       -4.331386   1.048042
  237       -4.331087   1.047924
  238       -4.328711   1.046905
  239       -4.326789   1.045980
  240       -4.324095   1.044525
  241       -4.318269   1.040721
  242       -4.310433   1.034092
  243       -4.306348   1.029903
  244       -4.299739   1.021999
  245       -4.297587   1.019115
  246       -4.295755   1.016534
  247       -4.293912   1.013822
  248       -4.291276   1.009738
  249       -4.288547   1.005250
  250       -4.280463   0.990370
  251       -4.276113   0.981359
  252       -4.273386   0.975345
  253       -4.269627   0.966587
  254       -4.268418   0.963656
  255       -4.263731   0.951758
  256       -4.262334   0.948045
  257       -4.260288   0.942472
  258       -4.257048   0.933318
  259       -4.254878   0.926956
  260       -4.253196   0.921902
  261       -4.251389   0.916351
  262       -4.249551   0.910576
  263       -4.247964   0.905483
  264       -4.246261   0.899915
  265       -4.244890   0.895349
  266       -4.236609   0.866286
  267       -4.234796   0.859588
  268       -4.231258   0.846174
  269       -4.230187   0.842026
  270       -4.227754   0.832458
  271       -4.225364   0.822859
  272       -4.217114   0.788287
  273       -4.213582   0.772832
  274       -4.204612   0.731981
  275       -4.194740   0.684650
  276       -4.192136   0.671809
  277       -4.185242   0.637192
  278       -4.183481   0.628223
  279       -4.182577   0.623606
  280       -4.179721   0.608929
  281       -4.169549   0.555917
  282       -4.165519   0.534694
  283       -4.147264   0.438332
  284       -4.138480   0.392584
  285       -4.137028   0.385104
  286       -4.136348   0.381612
  287       -4.126108   0.329859
  288       -4.120157   0.300678
  289       -4.083998   0.143731
  290       -3.972623  -0.051369
  291       -3.902616  -0.030004
  292       -3.839021  -0.004592
  293       -3.823493  -0.000903
  294       -3.727408   0.004482
  295       -3.512564   0.000094
  296       -3.498566   0.000065
  297       -3.400802   0.000003
  298       -3.074173   0.000000
  299       -3.072023   0.000000
  300       -3.050442   0.000000
  301       -3.046300   0.000000
  302       -3.030737   0.000000
  303       -2.962273   0.000000
  304       -2.950770   0.000000
  305       -2.861663   0.000000
  306       -2.535959   0.000000
  307       -2.533186   0.000000
  308       -2.374610   0.000000
  309       -2.355600   0.000000
  310       -2.139322   0.000000
  311       -2.126888   0.000000
  312       -2.116393   0.000000
  313       -2.025535   0.000000
  314       -1.975388   0.000000
  315       -1.945500   0.000000
  316       -1.875067   0.000000
  317       -1.821299   0.000000
  318       -1.742895   0.000000
  319       -1.703131   0.000000
  320       -1.649139   0.000000
  321       -1.615915   0.000000
  322       -1.566295   0.000000
  323       -1.441963   0.000000
  324       -1.333053   0.000000
  325       -1.264005   0.000000
  326       -1.171053   0.000000
  327       -1.124029   0.000000
  328       -1.012378   0.000000
  329       -1.000269   0.000000
  330       -0.989764   0.000000
  331       -0.961636   0.000000
  332       -0.945976   0.000000
  333       -0.909041   0.000000
  334       -0.869051   0.000000
  335       -0.836755   0.000000
  336       -0.787590   0.000000
