       N       E                     dE             d eps       ncg     rms          rms(c)
DAV:   1     0.438680468720E+04    0.43868E+04   -0.10048E+05   688   0.815E+02
DAV:   2     0.201155551604E+04   -0.23752E+04   -0.21354E+04  1224   0.105E+02
DAV:   3     0.236753991046E+03   -0.17748E+04   -0.16692E+04   976   0.919E+01
DAV:   4    -0.135797578603E+03   -0.37255E+03   -0.31670E+03   832   0.438E+01
DAV:   5    -0.179820845376E+03   -0.44023E+02   -0.36551E+02  1056   0.144E+01    0.146E+01
RMM:   6    -0.180383498223E+03   -0.56265E+00   -0.56436E+01   727   0.891E+00    0.268E+01
RMM:   7    -0.182404639526E+03   -0.20211E+01   -0.18633E+01   884   0.420E+00    0.218E+01
RMM:   8    -0.183616594859E+03   -0.12120E+01   -0.69110E+00   773   0.340E+00    0.242E+01
RMM:   9    -0.182116123074E+03    0.15005E+01   -0.49798E+00   733   0.316E+00    0.267E+01
RMM:  10    -0.181166697660E+03    0.94943E+00   -0.27820E+00   741   0.235E+00    0.250E+01
RMM:  11    -0.179176763692E+03    0.19899E+01   -0.21396E+00   738   0.212E+00    0.178E+01
RMM:  12    -0.177354703433E+03    0.18221E+01   -0.22052E+00   717   0.225E+00    0.165E+01
RMM:  13    -0.176559642895E+03    0.79506E+00   -0.13298E+00   713   0.171E+00    0.124E+01
RMM:  14    -0.176637960141E+03   -0.78317E-01   -0.12416E+00   707   0.162E+00    0.194E+01
RMM:  15    -0.176274100624E+03    0.36386E+00   -0.14063E+00   705   0.174E+00    0.181E+01
RMM:  16    -0.176117048971E+03    0.15705E+00   -0.59707E-01   723   0.115E+00    0.129E+01
RMM:  17    -0.175843803833E+03    0.27325E+00   -0.43816E-01   726   0.992E-01    0.142E+01
RMM:  18    -0.175377417492E+03    0.46639E+00   -0.30282E-01   708   0.830E-01    0.950E+00
RMM:  19    -0.175349850092E+03    0.27567E-01   -0.32398E-01   702   0.866E-01    0.105E+01
RMM:  20    -0.175129556404E+03    0.22029E+00   -0.18896E-01   704   0.675E-01    0.701E+00
RMM:  21    -0.175137423731E+03   -0.78673E-02   -0.19167E-01   701   0.689E-01    0.824E+00
RMM:  22    -0.175063809624E+03    0.73614E-01   -0.17720E-01   704   0.660E-01    0.705E+00
RMM:  23    -0.175049873537E+03    0.13936E-01   -0.21201E-01   701   0.690E-01    0.670E+00
RMM:  24    -0.174951629243E+03    0.98244E-01   -0.15609E-01   700   0.612E-01    0.569E+00
RMM:  25    -0.174929600257E+03    0.22029E-01   -0.11266E-01   700   0.519E-01    0.581E+00
RMM:  26    -0.174846658880E+03    0.82941E-01   -0.74845E-02   698   0.433E-01    0.401E+00
RMM:  27    -0.174799373656E+03    0.47285E-01   -0.54529E-02   702   0.375E-01    0.336E+00
RMM:  28    -0.174770244645E+03    0.29129E-01   -0.36551E-02   699   0.294E-01    0.267E+00
RMM:  29    -0.174746387960E+03    0.23857E-01   -0.27624E-02   699   0.264E-01    0.213E+00
RMM:  30    -0.174731516301E+03    0.14872E-01   -0.18968E-02   698   0.223E-01    0.160E+00
RMM:  31    -0.174724135826E+03    0.73805E-02   -0.10523E-02   698   0.164E-01    0.127E+00
RMM:  32    -0.174716595631E+03    0.75402E-02   -0.63246E-03   704   0.129E-01    0.105E+00
RMM:  33    -0.174714928522E+03    0.16671E-02   -0.47052E-03   697   0.108E-01    0.927E-01
RMM:  34    -0.174712202886E+03    0.27256E-02   -0.40391E-03   697   0.988E-02    0.661E-01
RMM:  35    -0.174712439329E+03   -0.23644E-03   -0.35020E-03   697   0.919E-02    0.710E-01
RMM:  36    -0.174713720644E+03   -0.12813E-02   -0.26966E-03   693   0.814E-02    0.720E-01
RMM:  37    -0.174712470115E+03    0.12505E-02   -0.18224E-03   693   0.708E-02    0.359E-01
RMM:  38    -0.174713808800E+03   -0.13387E-02   -0.10896E-03   693   0.534E-02    0.422E-01
RMM:  39    -0.174716653629E+03   -0.28448E-02   -0.10667E-03   692   0.513E-02    0.306E-01
RMM:  40    -0.174717779454E+03   -0.11258E-02   -0.54551E-04   591   0.371E-02    0.235E-01
RMM:  41    -0.174721239035E+03   -0.34596E-02   -0.76662E-04   667   0.397E-02    0.302E-01
RMM:  42    -0.174723200414E+03   -0.19614E-02   -0.49996E-04   548   0.335E-02    0.155E-01
RMM:  43    -0.174724495626E+03   -0.12952E-02   -0.24451E-04   428   0.249E-02    0.153E-01
RMM:  44    -0.174727937652E+03   -0.34420E-02   -0.48130E-04   527   0.298E-02    0.186E-01
RMM:  45    -0.174729478684E+03   -0.15410E-02   -0.26235E-04   434   0.222E-02    0.116E-01
RMM:  46    -0.174731241808E+03   -0.17631E-02   -0.22648E-04   428   0.197E-02    0.127E-01
RMM:  47    -0.174733172187E+03   -0.19304E-02   -0.25532E-04   438   0.195E-02    0.114E-01
RMM:  48    -0.174734052221E+03   -0.88003E-03   -0.11967E-04   417   0.142E-02    0.869E-02
RMM:  49    -0.174735582337E+03   -0.15301E-02   -0.14966E-04   419   0.142E-02    0.666E-02
RMM:  50    -0.174736054332E+03   -0.47200E-03   -0.69596E-05   411   0.102E-02    0.618E-02
RMM:  51    -0.174736680179E+03   -0.62585E-03   -0.54207E-05   407   0.878E-03    0.432E-02
RMM:  52    -0.174737065446E+03   -0.38527E-03   -0.31657E-05   397   0.683E-03    0.228E-02
RMM:  53    -0.174737465667E+03   -0.40022E-03   -0.15693E-05   289   0.521E-03    0.234E-02
RMM:  54    -0.174738079768E+03   -0.61410E-03   -0.15725E-05   316   0.508E-03    0.214E-02
RMM:  55    -0.174738373684E+03   -0.29392E-03   -0.54742E-06   185   0.413E-03    0.210E-02
RMM:  56    -0.174738565238E+03   -0.19155E-03   -0.34770E-06   149   0.383E-03    0.176E-02
RMM:  57    -0.174739002221E+03   -0.43698E-03   -0.16273E-05   270   0.487E-03    0.161E-02
RMM:  58    -0.174739189010E+03   -0.18679E-03   -0.43124E-06   151   0.376E-03    0.767E-03
RMM:  59    -0.174739308197E+03   -0.11919E-03   -0.38044E-06   136   0.369E-03    0.861E-03
RMM:  60    -0.174739453130E+03   -0.14493E-03   -0.64511E-06   162   0.374E-03    0.562E-03
RMM:  61    -0.174739511317E+03   -0.58187E-04   -0.33034E-06   110   0.341E-03
   1 F= -.17473951E+03 E0= -.17472430E+03  d E =-.608514E-01
