       N       E                     dE             d eps       ncg     rms          rms(c)
DAV:   1     0.439202867446E+04    0.43920E+04   -0.10051E+05   688   0.815E+02
DAV:   2     0.201056427857E+04   -0.23815E+04   -0.21427E+04  1224   0.105E+02
DAV:   3     0.228575779230E+03   -0.17820E+04   -0.16764E+04  1016   0.920E+01
DAV:   4    -0.135278432205E+03   -0.36385E+03   -0.30589E+03   824   0.434E+01
DAV:   5    -0.179915764022E+03   -0.44637E+02   -0.37085E+02  1056   0.146E+01    0.152E+01
RMM:   6    -0.181049067874E+03   -0.11333E+01   -0.62334E+01   734   0.922E+00    0.281E+01
RMM:   7    -0.182907776171E+03   -0.18587E+01   -0.19746E+01   859   0.426E+00    0.254E+01
RMM:   8    -0.183406358735E+03   -0.49858E+00   -0.78064E+00   782   0.351E+00    0.226E+01
RMM:   9    -0.182466327726E+03    0.94003E+00   -0.62514E+00   728   0.353E+00    0.249E+01
RMM:  10    -0.181008857497E+03    0.14575E+01   -0.37682E+00   729   0.275E+00    0.220E+01
RMM:  11    -0.179371476992E+03    0.16374E+01   -0.19891E+00   737   0.207E+00    0.183E+01
RMM:  12    -0.177627556018E+03    0.17439E+01   -0.15576E+00   720   0.187E+00    0.148E+01
RMM:  13    -0.177260059705E+03    0.36750E+00   -0.14178E+00   722   0.177E+00    0.150E+01
RMM:  14    -0.177289059667E+03   -0.29000E-01   -0.15061E+00   708   0.179E+00    0.169E+01
RMM:  15    -0.177124674405E+03    0.16439E+00   -0.88843E-01   721   0.139E+00    0.166E+01
RMM:  16    -0.177062918530E+03    0.61756E-01   -0.83137E-01   724   0.135E+00    0.171E+01
RMM:  17    -0.176089976895E+03    0.97294E+00   -0.70346E-01   705   0.126E+00    0.112E+01
RMM:  18    -0.175876614578E+03    0.21336E+00   -0.51004E-01   702   0.107E+00    0.127E+01
RMM:  19    -0.175694681312E+03    0.18193E+00   -0.26265E-01   708   0.768E-01    0.116E+01
RMM:  20    -0.175618270014E+03    0.76411E-01   -0.32427E-01   706   0.858E-01    0.118E+01
RMM:  21    -0.175351406729E+03    0.26686E+00   -0.27501E-01   697   0.800E-01    0.775E+00
RMM:  22    -0.175267631275E+03    0.83775E-01   -0.19446E-01   702   0.676E-01    0.667E+00
RMM:  23    -0.175292599572E+03   -0.24968E-01   -0.20110E-01   700   0.680E-01    0.640E+00
RMM:  24    -0.175221451941E+03    0.71148E-01   -0.18229E-01   696   0.656E-01    0.654E+00
RMM:  25    -0.175151831979E+03    0.69620E-01   -0.12802E-01   695   0.569E-01    0.521E+00
RMM:  26    -0.175115849544E+03    0.35982E-01   -0.10566E-01   696   0.512E-01    0.465E+00
RMM:  27    -0.175054721080E+03    0.61128E-01   -0.62886E-02   694   0.407E-01    0.410E+00
RMM:  28    -0.175009625755E+03    0.45095E-01   -0.35415E-02   696   0.314E-01    0.283E+00
RMM:  29    -0.174982619710E+03    0.27006E-01   -0.26224E-02   695   0.259E-01    0.208E+00
RMM:  30    -0.174974213797E+03    0.84059E-02   -0.19387E-02   696   0.219E-01    0.187E+00
RMM:  31    -0.174964540081E+03    0.96737E-02   -0.12194E-02   695   0.180E-01    0.147E+00
RMM:  32    -0.174956527152E+03    0.80129E-02   -0.73724E-03   692   0.140E-01    0.113E+00
RMM:  33    -0.174953847045E+03    0.26801E-02   -0.45912E-03   692   0.108E-01    0.888E-01
RMM:  34    -0.174951529066E+03    0.23180E-02   -0.38777E-03   692   0.101E-01    0.669E-01
RMM:  35    -0.174951575845E+03   -0.46779E-04   -0.30644E-03   691   0.878E-02    0.701E-01
RMM:  36    -0.174951244679E+03    0.33117E-03   -0.22942E-03   690   0.778E-02    0.573E-01
RMM:  37    -0.174951963361E+03   -0.71868E-03   -0.16859E-03   689   0.649E-02    0.468E-01
RMM:  38    -0.174954046501E+03   -0.20831E-02   -0.15232E-03   689   0.601E-02    0.418E-01
RMM:  39    -0.174956234254E+03   -0.21878E-02   -0.11127E-03   689   0.522E-02    0.466E-01
RMM:  40    -0.174958679558E+03   -0.24453E-02   -0.81227E-04   687   0.438E-02    0.499E-01
RMM:  41    -0.174959767243E+03   -0.10877E-02   -0.50367E-04   580   0.360E-02    0.285E-01
RMM:  42    -0.174960777552E+03   -0.10103E-02   -0.28166E-04   418   0.286E-02    0.225E-01
RMM:  43    -0.174962780230E+03   -0.20027E-02   -0.33957E-04   451   0.281E-02    0.195E-01
RMM:  44    -0.174964738739E+03   -0.19585E-02   -0.28071E-04   425   0.259E-02    0.137E-01
RMM:  45    -0.174966285877E+03   -0.15471E-02   -0.22255E-04   413   0.218E-02    0.138E-01
RMM:  46    -0.174969418052E+03   -0.31322E-02   -0.42996E-04   504   0.250E-02    0.126E-01
RMM:  47    -0.174970420253E+03   -0.10022E-02   -0.16113E-04   418   0.172E-02    0.842E-02
RMM:  48    -0.174972677374E+03   -0.22571E-02   -0.24463E-04   428   0.181E-02    0.105E-01
RMM:  49    -0.174973716823E+03   -0.10394E-02   -0.14922E-04   413   0.152E-02    0.610E-02
RMM:  50    -0.174974575622E+03   -0.85880E-03   -0.10752E-04   413   0.120E-02    0.621E-02
RMM:  51    -0.174975109375E+03   -0.53375E-03   -0.68777E-05   409   0.969E-03    0.402E-02
RMM:  52    -0.174975561137E+03   -0.45176E-03   -0.40243E-05   402   0.734E-03    0.357E-02
RMM:  53    -0.174976146622E+03   -0.58549E-03   -0.28223E-05   374   0.626E-03    0.228E-02
RMM:  54    -0.174976585607E+03   -0.43899E-03   -0.16954E-05   304   0.514E-03    0.258E-02
RMM:  55    -0.174977262058E+03   -0.67645E-03   -0.21936E-05   358   0.544E-03    0.212E-02
RMM:  56    -0.174977464367E+03   -0.20231E-03   -0.40028E-06   151   0.392E-03    0.131E-02
RMM:  57    -0.174977828116E+03   -0.36375E-03   -0.12634E-05   260   0.457E-03    0.157E-02
RMM:  58    -0.174978044686E+03   -0.21657E-03   -0.44108E-06   153   0.388E-03    0.843E-03
RMM:  59    -0.174978209235E+03   -0.16455E-03   -0.75025E-06   190   0.402E-03    0.870E-03
RMM:  60    -0.174978390831E+03   -0.18160E-03   -0.91827E-06   199   0.379E-03    0.715E-03
RMM:  61    -0.174978488466E+03   -0.97636E-04   -0.15256E-06   109   0.322E-03
   1 F= -.17497849E+03 E0= -.17496933E+03  d E =-.366180E-01
