 vasp.5.4.4.18Apr17-6-g9f103f2a35 (build Sep 03 2018 23:53:05) complex          
  
 executed on             LinuxIFC date 2021.11.27  04:51:16
 running on    1 total cores
 distrk:  each k-point on    1 cores,    1 groups
 distr:  one band on NCORES_PER_BAND=   1 cores,    1 groups


--------------------------------------------------------------------------------------------------------


 INCAR:
 POTCAR:    PAW_PBE Pd 04Jan2005                  
 POTCAR:    PAW_PBE C 08Apr2002                   
 POTCAR:    PAW_PBE O 08Apr2002                   
 POTCAR:    PAW_PBE Pd 04Jan2005                  
   VRHFIN =Pd : s1 d9                                                           
   LEXCH  = PE                                                                  
   EATOM  =   809.7530 eV,   59.5152 Ry                                         
                                                                                
   TITEL  = PAW_PBE Pd 04Jan2005                                                
   LULTRA =        F    use ultrasoft PP ?                                      
   IUNSCR =        1    unscreen: 0-lin 1-nonlin 2-no                           
   RPACOR =    2.000    partial core radius                                     
   POMASS =  106.420; ZVAL   =   10.000    mass and valenz                      
   RCORE  =    2.600    outmost cutoff radius                                   
   RWIGS  =    2.710; RWIGS  =    1.434    wigner-seitz radius (au A)           
   ENMAX  =  250.925; ENMIN  =  188.194 eV                                      
   ICORE  =        3    local potential                                         
   LCOR   =        T    correct aug charges                                     
   LPAW   =        T    paw PP                                                  
   EAUG   =  416.230                                                            
   DEXC   =    0.000                                                            
   RMAX   =    2.653    core radius for proj-oper                               
   RAUG   =    1.300    factor for augmentation sphere                          
   RDEP   =    2.734    radius for radial grids                                 
   RDEPT  =    2.103    core radius for aug-charge                              
                                                                                
   Atomic configuration                                                         
   12 entries                                                                   
     n  l   j            E        occ.                                          
     1  0  0.50    -24164.6631   2.0000                                         
     2  0  0.50     -3530.9218   2.0000                                         
     2  1  1.50     -3165.6822   6.0000                                         
     3  0  0.50      -639.4577   2.0000                                         
     3  1  1.50      -519.4532   6.0000                                         
     3  2  2.50      -328.9757  10.0000                                         
     4  0  0.50       -88.7014   2.0000                                         
     4  1  1.50       -54.4540   6.0000                                         
     4  2  2.50        -6.6878   9.0000                                         
     5  0  0.50        -4.3543   1.0000                                         
     5  1  0.50        -1.3606   0.0000                                         
     4  3  2.50        -1.3606   0.0000                                         
   Description                                                                  
     l       E           TYP  RCUT    TYP  RCUT                                 
     2     -6.6878251     23  2.400                                             
     2     -8.0484077     23  2.400                                             
     0     -4.3542939     23  2.400                                             
     0      4.3406793     23  2.400                                             
     1     -4.0817478     23  2.600                                             
     1     15.8380318     23  2.600                                             
     3     -4.0817478     23  2.400                                             
  local pseudopotential read in
  partial core-charges read in
  partial kinetic energy density read in
  atomic valenz-charges read in
  non local Contribution for L=           2  read in
    real space projection operators read in
  non local Contribution for L=           2  read in
    real space projection operators read in
  non local Contribution for L=           0  read in
    real space projection operators read in
  non local Contribution for L=           0  read in
    real space projection operators read in
  non local Contribution for L=           1  read in
    real space projection operators read in
  non local Contribution for L=           1  read in
    real space projection operators read in
    PAW grid and wavefunctions read in
 
   number of l-projection  operators is LMAX  =           6
   number of lm-projection operators is LMMAX =          18
 
 POTCAR:    PAW_PBE C 08Apr2002                   
   VRHFIN =C: s2p2                                                              
   LEXCH  = PE                                                                  
   EATOM  =   147.1560 eV,   10.8157 Ry                                         
                                                                                
   TITEL  = PAW_PBE C 08Apr2002                                                 
   LULTRA =        F    use ultrasoft PP ?                                      
   IUNSCR =        1    unscreen: 0-lin 1-nonlin 2-no                           
   RPACOR =    1.200    partial core radius                                     
   POMASS =   12.011; ZVAL   =    4.000    mass and valenz                      
   RCORE  =    1.500    outmost cutoff radius                                   
   RWIGS  =    1.630; RWIGS  =    0.863    wigner-seitz radius (au A)           
   ENMAX  =  400.000; ENMIN  =  300.000 eV                                      
   ICORE  =        2    local potential                                         
   LCOR   =        T    correct aug charges                                     
   LPAW   =        T    paw PP                                                  
   EAUG   =  644.873                                                            
   DEXC   =    0.000                                                            
   RMAX   =    1.529    core radius for proj-oper                               
   RAUG   =    1.300    factor for augmentation sphere                          
   RDEP   =    1.501    radius for radial grids                                 
   RDEPT  =    1.300    core radius for aug-charge                              
                                                                                
   Atomic configuration                                                         
    4 entries                                                                   
     n  l   j            E        occ.                                          
     1  0  0.50      -273.3789   2.0000                                         
     2  0  0.50       -13.7508   2.0000                                         
     2  1  0.50        -5.2854   2.0000                                         
     3  2  1.50        -5.4423   0.0000                                         
   Description                                                                  
     l       E           TYP  RCUT    TYP  RCUT                                 
     0    -13.7508458     23  1.200                                             
     0     -8.2022199     23  1.200                                             
     1     -5.2854383     23  1.500                                             
     1     34.0145650     23  1.500                                             
     2     -5.4423304      7  1.500                                             
  local pseudopotential read in
  partial core-charges read in
  partial kinetic energy density read in
  atomic valenz-charges read in
  non local Contribution for L=           0  read in
    real space projection operators read in
  non local Contribution for L=           0  read in
    real space projection operators read in
  non local Contribution for L=           1  read in
    real space projection operators read in
  non local Contribution for L=           1  read in
    real space projection operators read in
    PAW grid and wavefunctions read in
 
   number of l-projection  operators is LMAX  =           4
   number of lm-projection operators is LMMAX =           8
 
 POTCAR:    PAW_PBE O 08Apr2002                   
   VRHFIN =O: s2p4                                                              
   LEXCH  = PE                                                                  
   EATOM  =   432.3788 eV,   31.7789 Ry                                         
                                                                                
   TITEL  = PAW_PBE O 08Apr2002                                                 
   LULTRA =        F    use ultrasoft PP ?                                      
   IUNSCR =        1    unscreen: 0-lin 1-nonlin 2-no                           
   RPACOR =    1.200    partial core radius                                     
   POMASS =   16.000; ZVAL   =    6.000    mass and valenz                      
   RCORE  =    1.520    outmost cutoff radius                                   
   RWIGS  =    1.550; RWIGS  =    0.820    wigner-seitz radius (au A)           
   ENMAX  =  400.000; ENMIN  =  300.000 eV                                      
   ICORE  =        2    local potential                                         
   LCOR   =        T    correct aug charges                                     
   LPAW   =        T    paw PP                                                  
   EAUG   =  605.392                                                            
   DEXC   =    0.000                                                            
   RMAX   =    1.553    core radius for proj-oper                               
   RAUG   =    1.300    factor for augmentation sphere                          
   RDEP   =    1.550    radius for radial grids                                 
   RDEPT  =    1.329    core radius for aug-charge                              
                                                                                
   Atomic configuration                                                         
    4 entries                                                                   
     n  l   j            E        occ.                                          
     1  0  0.50      -514.6923   2.0000                                         
     2  0  0.50       -23.9615   2.0000                                         
     2  1  0.50        -9.0305   4.0000                                         
     3  2  1.50        -9.5241   0.0000                                         
   Description                                                                  
     l       E           TYP  RCUT    TYP  RCUT                                 
     0    -23.9615318     23  1.200                                             
     0     -9.5240782     23  1.200                                             
     1     -9.0304911     23  1.520                                             
     1      8.1634956     23  1.520                                             
     2     -9.5240782      7  1.500                                             
  local pseudopotential read in
  partial core-charges read in
  partial kinetic energy density read in
  kinetic energy density of atom read in
  atomic valenz-charges read in
  non local Contribution for L=           0  read in
    real space projection operators read in
  non local Contribution for L=           0  read in
    real space projection operators read in
  non local Contribution for L=           1  read in
    real space projection operators read in
  non local Contribution for L=           1  read in
    real space projection operators read in
    PAW grid and wavefunctions read in
 
   number of l-projection  operators is LMAX  =           4
   number of lm-projection operators is LMMAX =           8
 
 Optimization of the real space projectors (new method)

 maximal supplied QI-value         = 14.36
 optimisation between [QCUT,QGAM] = [ 10.20, 20.39] = [ 29.12,116.47] Ry 
 Optimized for a Real-space Cutoff    1.51 Angstroem

   l    n(q)    QCUT    max X(q) W(low)/X(q) W(high)/X(q)  e(spline) 
   2      8    10.197    59.108    0.26E-03    0.14E-03    0.96E-07
   2      8    10.197    58.101    0.27E-03    0.14E-03    0.98E-07
   0      9    10.197   102.235    0.54E-04    0.60E-05    0.72E-07
   0      9    10.197    58.388    0.52E-04    0.60E-05    0.68E-07
   1      9    10.197    22.191    0.18E-03    0.25E-03    0.79E-07
   1      9    10.197    15.590    0.15E-03    0.21E-03    0.69E-07
 Optimization of the real space projectors (new method)

 maximal supplied QI-value         = 25.13
 optimisation between [QCUT,QGAM] = [ 10.05, 20.36] = [ 28.30,116.06] Ry 
 Optimized for a Real-space Cutoff    1.30 Angstroem

   l    n(q)    QCUT    max X(q) W(low)/X(q) W(high)/X(q)  e(spline) 
   0      8    10.053   115.676    0.49E-03    0.72E-03    0.18E-06
   0      8    10.053    87.132    0.49E-03    0.71E-03    0.18E-06
   1      7    10.053     4.429    0.32E-03    0.31E-03    0.18E-06
   1      7    10.053     2.733    0.23E-03    0.19E-03    0.20E-06
 Optimization of the real space projectors (new method)

 maximal supplied QI-value         = 24.76
 optimisation between [QCUT,QGAM] = [ 10.15, 20.30] = [ 28.85,115.39] Ry 
 Optimized for a Real-space Cutoff    1.38 Angstroem

   l    n(q)    QCUT    max X(q) W(low)/X(q) W(high)/X(q)  e(spline) 
   0      8    10.150    20.381    0.22E-03    0.32E-03    0.29E-06
   0      8    10.150    15.268    0.23E-03    0.35E-03    0.30E-06
   1      8    10.150     5.964    0.46E-03    0.53E-03    0.21E-06
   1      8    10.150     5.382    0.38E-03    0.45E-03    0.19E-06

 ----------------------------------------------------------------------------- 
|                                                                             |
|  ADVICE TO THIS USER RUNNING 'VASP/VAMP'   (HEAR YOUR MASTER'S VOICE ...):  |
|                                                                             |
|      You enforced a specific xc-type in the INCAR file,                     |
|      a different type was found on the POTCAR file                          |
|          I HOPE YOU KNOW, WHAT YOU ARE  DOING                               |
|                                                                             |
 ----------------------------------------------------------------------------- 

  PAW_PBE Pd 04Jan2005                  :
 energy of atom  1       EATOM= -809.7530
 kinetic energy error for atom=    0.0091 (will be added to EATOM!!)
  PAW_PBE C 08Apr2002                   :
 energy of atom  2       EATOM= -147.1560
 kinetic energy error for atom=    0.0288 (will be added to EATOM!!)
  PAW_PBE O 08Apr2002                   :
 energy of atom  3       EATOM= -432.3788
 kinetic energy error for atom=    0.1156 (will be added to EATOM!!)
 
 
 POSCAR: Pd55PES                                 
  positions in cartesian coordinates
  No initial velocities read in
 exchange correlation table for  LEXCH =        9
   RHO(1)=    0.500       N(1)  =     2000
   RHO(2)=  100.500       N(2)  =     4000
 


--------------------------------------------------------------------------------------------------------


 ion  position               nearest neighbor table
   1  0.446  0.328  0.417-   3 3.25   5 3.25   7 3.36  15 3.36  29 3.42  28 3.42
   2  0.672  0.554  0.417-  26 3.25  30 3.25  17 3.36   9 3.36  47 3.42  49 3.42
   3  0.554  0.328  0.417-   1 3.25   5 3.25   7 3.36  11 3.36  29 3.42  21 3.42
   4  0.328  0.554  0.417-  32 3.25  22 3.25  13 3.36   8 3.36  43 3.42  48 3.42
   5  0.500  0.383  0.340-   1 3.25   3 3.25  11 3.36  15 3.36  21 3.42  28 3.42
   6  0.500  0.383  0.660-  24 3.25  19 3.25  16 3.36  12 3.36  42 3.42  44 3.42
   7  0.500  0.276  0.500-  29 3.24   3 3.36   1 3.36  19 3.36  24 3.36
   8  0.276  0.500  0.500-  48 3.24  22 3.36  40 3.36   4 3.36  25 3.36
   9  0.724  0.500  0.500-  49 3.24  26 3.36  45 3.36   2 3.36  20 3.36
  10  0.500  0.724  0.500-  55 3.24  27 3.36  23 3.36  46 3.36  41 3.36
  11  0.612  0.388  0.342-  21 3.24   5 3.36   3 3.36  30 3.36  26 3.36
  12  0.612  0.388  0.658-  42 3.24  24 3.36  45 3.36   6 3.36  31 3.36
  13  0.388  0.612  0.342-  43 3.24  32 3.36  50 3.36   4 3.36  27 3.36
  14  0.388  0.612  0.658-  53 3.24  25 3.36  33 3.36  51 3.36  46 3.36
  15  0.388  0.388  0.342-  28 3.24   5 3.36   1 3.36  32 3.36  22 3.36
  16  0.388  0.388  0.658-  44 3.24  19 3.36  40 3.36   6 3.36  33 3.36
  17  0.612  0.612  0.342-  47 3.24  30 3.36  50 3.36   2 3.36  23 3.36
  18  0.612  0.612  0.658-  54 3.24  31 3.36  20 3.36  51 3.36  41 3.36
  19  0.446  0.328  0.583-   6 3.25  24 3.25  16 3.36   7 3.36  44 3.42  29 3.42
  20  0.672  0.554  0.583-  31 3.25  45 3.25  18 3.36   9 3.36  54 3.42  49 3.42
  21  0.558  0.442  0.418-  11 3.24   5 3.42   3 3.42  30 3.42  26 3.42
  22  0.328  0.446  0.417-   4 3.25  32 3.25   8 3.36  15 3.36  48 3.42  28 3.42
  23  0.554  0.672  0.417-  27 3.25  50 3.25  10 3.36  17 3.36  55 3.42  47 3.42
  24  0.554  0.328  0.583-   6 3.25  19 3.25  12 3.36   7 3.36  42 3.42  29 3.42
  25  0.328  0.554  0.583-  33 3.25  40 3.25  14 3.36   8 3.36  53 3.42  48 3.42
  26  0.672  0.446  0.417-   2 3.25  30 3.25   9 3.36  11 3.36  49 3.42  21 3.42
  27  0.446  0.672  0.417-  23 3.25  50 3.25  10 3.36  13 3.36  55 3.42  43 3.42
  28  0.442  0.442  0.418-  15 3.24   5 3.42   1 3.42  32 3.42  22 3.42
  29  0.500  0.384  0.500-   7 3.24   3 3.42   1 3.42  24 3.42  19 3.42
  30  0.617  0.500  0.340-   2 3.25  26 3.25  17 3.36  11 3.36  47 3.42  21 3.42
  31  0.617  0.500  0.660-  20 3.25  45 3.25  18 3.36  12 3.36  54 3.42  42 3.42
  32  0.383  0.500  0.340-  56 1.95  57 2.68   4 3.25  22 3.25  13 3.36  15 3.36  43 3.42  28 3.42

  33  0.383  0.500  0.660-  25 3.25  40 3.25  14 3.36  16 3.36  53 3.42  44 3.42
  34  0.383  0.383  0.500-
  35  0.617  0.617  0.500-
  36  0.617  0.383  0.500-
  37  0.383  0.617  0.500-
  38  0.500  0.500  0.335-  56 2.59
  39  0.500  0.500  0.665-
  40  0.328  0.446  0.583-  33 3.25  25 3.25  16 3.36   8 3.36  44 3.42  48 3.42
  41  0.554  0.672  0.583-  46 3.25  51 3.25  10 3.36  18 3.36  54 3.42  55 3.42
  42  0.558  0.442  0.582-  12 3.24   6 3.42  24 3.42  31 3.42  45 3.42
  43  0.442  0.558  0.418-  13 3.24   4 3.42  32 3.42  27 3.42  50 3.42
  44  0.442  0.442  0.582-  16 3.24   6 3.42  19 3.42  33 3.42  40 3.42
  45  0.672  0.446  0.583-  20 3.25  31 3.25   9 3.36  12 3.36  49 3.42  42 3.42
  46  0.446  0.672  0.583-  41 3.25  51 3.25  10 3.36  14 3.36  53 3.42  55 3.42
  47  0.558  0.558  0.418-  17 3.24   2 3.42  30 3.42  23 3.42  50 3.42
  48  0.384  0.500  0.500-   8 3.24   4 3.42  22 3.42  25 3.42  40 3.42
  49  0.616  0.500  0.500-   9 3.24   2 3.42  26 3.42  20 3.42  45 3.42
  50  0.500  0.617  0.340-  27 3.25  23 3.25  13 3.36  17 3.36  43 3.42  47 3.42
  51  0.500  0.617  0.660-  41 3.25  46 3.25  14 3.36  18 3.36  53 3.42  54 3.42
  52  0.500  0.500  0.500-
  53  0.442  0.558  0.582-  14 3.24  25 3.42  33 3.42  51 3.42  46 3.42
  54  0.558  0.558  0.582-  18 3.24  31 3.42  20 3.42  51 3.42  41 3.42
  55  0.500  0.616  0.500-  10 3.24  23 3.42  27 3.42  41 3.42  46 3.42
  56  0.426  0.490  0.292-  57 1.13  32 1.95  38 2.59
  57  0.413  0.488  0.257-  56 1.13  32 2.68
 
  LATTYP: Found a simple cubic cell.
 ALAT       =    30.0000000000
  
  Lattice vectors:
  
 A1 = (  30.0000000000,   0.0000000000,   0.0000000000)
 A2 = (   0.0000000000,  30.0000000000,   0.0000000000)
 A3 = (   0.0000000000,   0.0000000000,  30.0000000000)


Analysis of symmetry for initial positions (statically):
=====================================================================
 Subroutine PRICEL returns:
 Original cell was already a primitive cell.
 

 Routine SETGRP: Setting up the symmetry group for a 
 simple cubic supercell.


 Subroutine GETGRP returns: Found  1 space group operations
 (whereof  1 operations were pure point group operations)
 out of a pool of 48 trial point group operations.


The static configuration has the point symmetry C_1 .


Analysis of symmetry for dynamics (positions and initial velocities):
=====================================================================
 Subroutine PRICEL returns:
 Original cell was already a primitive cell.
 

 Routine SETGRP: Setting up the symmetry group for a 
 simple cubic supercell.


 Subroutine GETGRP returns: Found  1 space group operations
 (whereof  1 operations were pure point group operations)
 out of a pool of 48 trial point group operations.


The dynamic configuration has the point symmetry C_1 .


Analysis of constrained symmetry for selective dynamics:
=====================================================================
 Subroutine PRICEL returns:
 Original cell was already a primitive cell.
 

 Routine SETGRP: Setting up the symmetry group for a 
 simple cubic supercell.


 Subroutine GETGRP returns: Found  1 space group operations
 (whereof  1 operations were pure point group operations)
 out of a pool of 48 trial point group operations.


The constrained configuration has the point symmetry C_1 .


 Subroutine INISYM returns: Found  1 space group operations
 (whereof  1 operations are pure point group operations),
 and found     1 'primitive' translations

 
 
 KPOINTS: K-points                                

Automatic generation of k-mesh.
Space group operators:
 irot       det(A)        alpha          n_x          n_y          n_z        tau_x        tau_y        tau_z
    1     1.000000     0.000000     1.000000     0.000000     0.000000     0.000000     0.000000     0.000000
 
 Subroutine IBZKPT returns following result:
 ===========================================
 
 Found      1 irreducible k-points:
 
 Following reciprocal coordinates:
            Coordinates               Weight
  0.000000  0.000000  0.000000      1.000000
 
 Following cartesian coordinates:
            Coordinates               Weight
  0.000000  0.000000  0.000000      1.000000
 


--------------------------------------------------------------------------------------------------------




 Dimension of arrays:
   k-points           NKPTS =      1   k-points in BZ     NKDIM =      1   number of bands    NBANDS=    336
   number of dos      NEDOS =    301   number of ions     NIONS =     57
   non local maximal  LDIM  =      6   non local SUM 2l+1 LMDIM =     18
   total plane-waves  NPLWV = ******
   max r-space proj   IRMAX =   1847   max aug-charges    IRDMAX=   6262
   dimension x,y,z NGX =   150 NGY =  150 NGZ =  150
   dimension x,y,z NGXF=   300 NGYF=  300 NGZF=  300
   support grid    NGXF=   300 NGYF=  300 NGZF=  300
   ions per type =              55   1   1
   NGX,Y,Z   is equivalent  to a cutoff of   8.31,  8.31,  8.31 a.u.
   NGXF,Y,Z  is equivalent  to a cutoff of  16.62, 16.62, 16.62 a.u.

 SYSTEM =  6_Pd100_top_free_z(O)                   
 POSCAR =  Pd55PES                                 

 Startparameter for this run:
   NWRITE =      2    write-flag & timer
   PREC   = normal    normal or accurate (medium, high low for compatibility)
   ISTART =      0    job   : 0-new  1-cont  2-samecut
   ICHARG =      2    charge: 1-file 2-atom 10-const
   ISPIN  =      1    spin polarized calculation?
   LNONCOLLINEAR =      F non collinear calculations
   LSORBIT =      F    spin-orbit coupling
   INIWAV =      1    electr: 0-lowe 1-rand  2-diag
   LASPH  =      F    aspherical Exc in radial PAW
   METAGGA=      F    non-selfconsistent MetaGGA calc.

 Electronic Relaxation 1
   ENCUT  =  400.0 eV  29.40 Ry    5.42 a.u.  48.92 48.92 48.92*2*pi/ulx,y,z
   ENINI  =  400.0     initial cutoff
   ENAUG  =  644.9 eV  augmentation charge cutoff
   NELM   =    100;   NELMIN=  6; NELMDL= -5     # of ELM steps 
   EDIFF  = 0.1E-03   stopping-criterion for ELM
   LREAL  =      T    real-space projection
   NLSPLINE    = F    spline interpolate recip. space projectors
   LCOMPAT=      F    compatible to vasp.4.4
   GGA_COMPAT  = T    GGA compatible to vasp.4.4-vasp.4.6
   LMAXPAW     = -100 max onsite density
   LMAXMIX     =    2 max onsite mixed and CHGCAR
   VOSKOWN=      0    Vosko Wilk Nusair interpolation
   ROPT   =   -0.00050  -0.00050  -0.00050
 Ionic relaxation
   EDIFFG = -.5E-01   stopping-criterion for IOM
   NSW    =      0    number of steps for IOM
   NBLOCK =      1;   KBLOCK =      1    inner block; outer block 
   IBRION =     -1    ionic relax: 0-MD 1-quasi-New 2-CG
   NFREE  =      1    steps in history (QN), initial steepest desc. (CG)
   ISIF   =      2    stress and relaxation
   IWAVPR =     10    prediction:  0-non 1-charg 2-wave 3-comb
   ISYM   =      2    0-nonsym 1-usesym 2-fastsym
   LCORR  =      T    Harris-Foulkes like correction to forces

   POTIM  = 0.5000    time-step for ionic-motion
   TEIN   =    0.0    initial temperature
   TEBEG  =    0.0;   TEEND  =   0.0 temperature during run
   SMASS  =  -3.00    Nose mass-parameter (am)
   estimated Nose-frequenzy (Omega)   =  0.10E-29 period in steps =****** mass=  -0.206E-25a.u.
   SCALEE = 1.0000    scale energy and forces
   NPACO  =    256;   APACO  = 16.0  distance and # of slots for P.C.
   PSTRESS=    0.0 pullay stress

  Mass of Ions in am
   POMASS = 106.42 12.01 16.00
  Ionic Valenz
   ZVAL   =  10.00  4.00  6.00
  Atomic Wigner-Seitz radii
   RWIGS  =  -1.00 -1.00 -1.00
  virtual crystal weights 
   VCA    =   1.00  1.00  1.00
   NELECT =     560.0000    total number of electrons
   NUPDOWN=      -1.0000    fix difference up-down

 DOS related values:
   EMIN   =  10.00;   EMAX   =-10.00  energy-range for DOS
   EFERMI =   0.00
   ISMEAR =     2;   SIGMA  =   0.20  broadening in eV -4-tet -1-fermi 0-gaus

 Electronic relaxation 2 (details)
   IALGO  =     68    algorithm
   LDIAG  =      T    sub-space diagonalisation (order eigenvalues)
   LSUBROT=      F    optimize rotation matrix (better conditioning)
   TURBO    =      0    0=normal 1=particle mesh
   IRESTART =      0    0=no restart 2=restart with 2 vectors
   NREBOOT  =      0    no. of reboots
   NMIN     =      0    reboot dimension
   EREF     =   0.00    reference energy to select bands
   IMIX   =      4    mixing-type and parameters
     AMIX     =   0.40;   BMIX     =  1.00
     AMIX_MAG =   1.60;   BMIX_MAG =  1.00
     AMIN     =   0.10
     WC   =   100.;   INIMIX=   1;  MIXPRE=   1;  MAXMIX= -45

 Intra band minimization:
   WEIMIN = 0.0000     energy-eigenvalue tresh-hold
   EBREAK =  0.74E-07  absolut break condition
   DEPER  =   0.30     relativ break condition  

   TIME   =   0.40     timestep for ELM

  volume/ion in A,a.u.               =     473.68      3196.58
  Fermi-wavevector in a.u.,A,eV,Ry     =   0.449797  0.849992  2.752691  0.202317
  Thomas-Fermi vector in A             =   1.430086
 
 Write flags
   LWAVE        =      F    write WAVECAR
   LDOWNSAMPLE  =      F    k-point downsampling of WAVECAR
   LCHARG       =      F    write CHGCAR
   LVTOT        =      F    write LOCPOT, total local potential
   LVHAR        =      F    write LOCPOT, Hartree potential only
   LELF         =      F    write electronic localiz. function (ELF)
   LORBIT       =      0    0 simple, 1 ext, 2 COOP (PROOUT), +10 PAW based schemes


 Dipole corrections
   LMONO  =      F    monopole corrections only (constant potential shift)
   LDIPOL =      F    correct potential (dipole corrections)
   IDIPOL =      0    1-x, 2-y, 3-z, 4-all directions 
   EPSILON=  1.0000000 bulk dielectric constant

 Exchange correlation treatment:
   GGA     =    RP    GGA type
   LEXCH   =     9    internal setting for exchange type
   VOSKOWN=      0    Vosko Wilk Nusair interpolation
   LHFCALC =     F    Hartree Fock is set to
   LHFONE  =     F    Hartree Fock one center treatment
   AEXX    =    0.0000 exact exchange contribution

 Linear response parameters
   LEPSILON=     F    determine dielectric tensor
   LRPA    =     F    only Hartree local field effects (RPA)
   LNABLA  =     F    use nabla operator in PAW spheres
   LVEL    =     F    velocity operator in full k-point grid
   LINTERFAST=   F  fast interpolation
   KINTER  =     0    interpolate to denser k-point grid
   CSHIFT  =0.1000    complex shift for real part using Kramers Kronig
   OMEGAMAX=  -1.0    maximum frequency
   DEG_THRESHOLD= 0.2000000E-02 threshold for treating states as degnerate
   RTIME   =   -0.100 relaxation time in fs
  (WPLASMAI=    0.000 imaginary part of plasma frequency in eV, 0.658/RTIME)
   DFIELD  = 0.0000000 0.0000000 0.0000000 field for delta impulse in time
 
 Orbital magnetization related:
   ORBITALMAG=     F  switch on orbital magnetization
   LCHIMAG   =     F  perturbation theory with respect to B field
   DQ        =  0.001000  dq finite difference perturbation B field
   LLRAUG    =     F  two centre corrections for induced B field



--------------------------------------------------------------------------------------------------------


 Static calculation
 charge density and potential will be updated during run
 non-spin polarized calculation
 RMM-DIIS sequential band-by-band and
  variant of blocked Davidson during initial phase
 perform sub-space diagonalisation
    before iterative eigenvector-optimisation
 modified Broyden-mixing scheme, WC =      100.0
 initial mixing is a Kerker type mixing with AMIX =  0.4000 and BMIX =      1.0000
 Hartree-type preconditioning will be used
 using additional bands           56
 real space projection scheme for non local part
 use partial core corrections
 calculate Harris-corrections to forces 
   (improved forces if not selfconsistent)
 use gradient corrections 
 use of overlap-Matrix (Vanderbilt PP)
 Methfessel and Paxton  Order N= 2 SIGMA  =   0.20


--------------------------------------------------------------------------------------------------------


  energy-cutoff  :      400.00
  volume of cell :    27000.00
      direct lattice vectors                 reciprocal lattice vectors
    30.000000000  0.000000000  0.000000000     0.033333333  0.000000000  0.000000000
     0.000000000 30.000000000  0.000000000     0.000000000  0.033333333  0.000000000
     0.000000000  0.000000000 30.000000000     0.000000000  0.000000000  0.033333333

  length of vectors
    30.000000000 30.000000000 30.000000000     0.033333333  0.033333333  0.033333333


 
 k-points in units of 2pi/SCALE and weight: K-points                                
   0.00000000  0.00000000  0.00000000       1.000
 
 k-points in reciprocal lattice and weights: K-points                                
   0.00000000  0.00000000  0.00000000       1.000
 
 position of ions in fractional coordinates (direct lattice) 
   0.44576020  0.32826710  0.41691983
   0.67173288  0.55423978  0.41691983
   0.55423980  0.32826710  0.41691983
   0.32826712  0.55423978  0.41691983
   0.50000000  0.38250690  0.34021317
   0.50000000  0.38250690  0.65978680
   0.50000000  0.27609440  0.50000000
   0.27609443  0.49999998  0.50000000
   0.72390557  0.49999998  0.50000000
   0.50000000  0.72390555  0.50000000
   0.61195280  0.38804720  0.34167483
   0.61195280  0.38804720  0.65832513
   0.38804722  0.61195278  0.34167483
   0.38804722  0.61195278  0.65832513
   0.38804720  0.38804720  0.34167483
   0.38804720  0.38804720  0.65832513
   0.61195278  0.61195278  0.34167483
   0.61195278  0.61195278  0.65832513
   0.44576020  0.32826710  0.58308023
   0.67173288  0.55423978  0.58308023
   0.55791699  0.44208301  0.41809300
   0.32826705  0.44576024  0.41691983
   0.55423973  0.67173293  0.41691983
   0.55423980  0.32826710  0.58308023
   0.32826712  0.55423978  0.58308023
   0.67173295  0.44576024  0.41691983
   0.44576027  0.67173293  0.41691983
   0.44208301  0.44208301  0.41809300
   0.50000000  0.38416601  0.50000000
   0.61749315  0.50000005  0.34021317
   0.61749315  0.50000005  0.65978680
   0.38250685  0.50000005  0.34021317
   0.38250685  0.50000005  0.65978680
   0.38317830  0.38317830  0.50000000
   0.61682172  0.61682172  0.50000000
   0.61682170  0.38317830  0.50000000
   0.38317828  0.61682172  0.50000000
   0.50000000  0.50000000  0.33478917
   0.50000000  0.50000000  0.66521087
   0.32826705  0.44576024  0.58308023
   0.55423973  0.67173293  0.58308023
   0.55791699  0.44208301  0.58190703
   0.44208298  0.55791702  0.41809300
   0.44208301  0.44208301  0.58190703
   0.67173295  0.44576024  0.58308023
   0.44576027  0.67173293  0.58308023
   0.55791702  0.55791702  0.41809300
   0.38416599  0.50000002  0.50000000
   0.61583401  0.50000002  0.50000000
   0.50000000  0.61749319  0.34021317
   0.50000000  0.61749319  0.65978680
   0.50000000  0.50000000  0.50000000
   0.44208298  0.55791702  0.58190703
   0.55791702  0.55791702  0.58190703
   0.50000000  0.61583404  0.50000000
   0.42561443  0.48956787  0.29249407
   0.41294057  0.48779043  0.25713910
 
 position of ions in cartesian coordinates  (Angst):
  13.37280588  9.84801292 12.50759500
  20.15198637 16.62719342 12.50759500
  16.62719412  9.84801292 12.50759500
   9.84801363 16.62719342 12.50759500
  15.00000000 11.47520705 10.20639500
  15.00000000 11.47520705 19.79360400
  15.00000000  8.28283206 15.00000000
   8.28283277 14.99999929 15.00000000
  21.71716723 14.99999929 15.00000000
  15.00000000 21.71716652 14.99999999
  18.35858397 11.64141603 10.25024500
  18.35858397 11.64141603 19.74975399
  11.64141674 18.35858326 10.25024500
  11.64141674 18.35858326 19.74975400
  11.64141603 11.64141603 10.25024500
  11.64141603 11.64141603 19.74975400
  18.35858326 18.35858326 10.25024500
  18.35858326 18.35858326 19.74975400
  13.37280588  9.84801291 17.49240700
  20.15198638 16.62719341 17.49240700
  16.73750985 13.26249015 12.54279000
   9.84801151 13.37280729 12.50759500
  16.62719200 20.15198779 12.50759500
  16.62719412  9.84801292 17.49240700
   9.84801363 16.62719342 17.49240700
  20.15198849 13.37280729 12.50759500
  13.37280800 20.15198779 12.50759500
  13.26249015 13.26249015 12.54279000
  15.00000000 11.52498029 15.00000000
  18.52479437 15.00000140 10.20639500
  18.52479437 15.00000141 19.79360400
  11.47520562 15.00000141 10.20639501
  11.47520563 15.00000141 19.79360400
  11.49534898 11.49534898 15.00000000
  18.50465172 18.50465172 15.00000000
  18.50465102 11.49534898 15.00000000
  11.49534828 18.50465172 15.00000000
  15.00000000 15.00000000 10.04367500
  15.00000000 15.00000000 19.95632599
   9.84801151 13.37280729 17.49240700
  16.62719200 20.15198779 17.49240700
  16.73750985 13.26249015 17.45721100
  13.26248944 16.73751056 12.54279001
  13.26249015 13.26249015 17.45721100
  20.15198849 13.37280729 17.49240699
  13.37280800 20.15198779 17.49240700
  16.73751056 16.73751056 12.54279000
  11.52497959 15.00000071 15.00000000
  18.47502041 15.00000071 15.00000000
  14.99999999 18.52479579 10.20639500
  15.00000000 18.52479578 19.79360400
  15.00000000 15.00000000 15.00000000
  13.26248944 16.73751057 17.45721101
  16.73751056 16.73751057 17.45721100
  15.00000000 18.47502112 15.00000000
  12.76843300 14.68703600  8.77482200
  12.38821700 14.63371300  7.71417300
 


--------------------------------------------------------------------------------------------------------


 k-point  1 :   0.0000 0.0000 0.0000  plane waves:  490521

 maximum and minimum number of plane-waves per node :    490521   490521

 maximum number of plane-waves:    490521
 maximum index in each direction: 
   IXMAX=   48   IYMAX=   48   IZMAX=   48
   IXMIN=  -48   IYMIN=  -48   IZMIN=  -48


 serial   3D FFT for wavefunctions
 parallel 3D FFT for charge:
    minimum data exchange during FFTs selected (reduces bandwidth)


 total amount of memory used by VASP MPI-rank0  5486942. kBytes
=======================================================================

   base      :      30000. kBytes
   nonlr-proj:      17127. kBytes
   fftplans  :     924480. kBytes
   grid      :    1872000. kBytes
   one-center:        886. kBytes
   wavefun   :    2642449. kBytes
 
     INWAV:  cpu time    0.0001: real time    0.0004
 Broyden mixing: mesh for mixing (old mesh)
   NGX = 97   NGY = 97   NGZ = 97
  (NGX  =300   NGY  =300   NGZ  =300)
  gives a total of 912673 points

 initial charge density was supplied:
 charge density of overlapping atoms calculated
 number of electron     560.0000000 magnetization 
 keeping initial charge density in first step


--------------------------------------------------------------------------------------------------------


 Maximum index for non-local projection operator         1763
 Maximum index for augmentation-charges         5898 (set IRDMAX)


--------------------------------------------------------------------------------------------------------


 First call to EWALD:  gamma=   0.059
 Maximum number of real-space cells 3x 3x 3
 Maximum number of reciprocal cells 3x 3x 3

    FEWALD:  cpu time    0.0148: real time    0.0148


--------------------------------------- Iteration      1(   1)  ---------------------------------------


    POTLOK:  cpu time   14.5149: real time   14.5189
    SETDIJ:  cpu time    0.1182: real time    0.1182
     EDDAV:  cpu time  370.7983: real time  370.8807
       DOS:  cpu time    0.0013: real time    0.0013
    --------------------------------------------
      LOOP:  cpu time  385.4328: real time  385.5191

 eigenvalue-minimisations  :   688
 total energy-change (2. order) : 0.4392029E+04  (-0.1005056E+05)
 number of electron     560.0000000 magnetization 
 augmentation part      560.0000000 magnetization 

 Free energy of the ion-electron system (eV)
  ---------------------------------------------------
  alpha Z        PSCENC =        75.25431677
  Ewald energy   TEWEN  =    138995.29021019
  -Hartree energ DENC   =   -182354.34231451
  -exchange      EXHF   =         0.00000000
  -V(xc)+E(xc)   XCENC  =     -1702.74929817
  PAW double counting   =     44873.02882129   -41398.84523641
  entropy T*S    EENTRO =         0.01535413
  eigenvalues    EBANDS =       817.87132722
  atomic energy  EATOM  =     45086.50549395
  Solvation  Ediel_sol  =         0.00000000
  ---------------------------------------------------
  free energy    TOTEN  =      4392.02867446 eV

  energy without entropy =     4392.01332033  energy(sigma->0) =     4392.02483593


--------------------------------------------------------------------------------------------------------




--------------------------------------- Iteration      1(   2)  ---------------------------------------


     EDDAV:  cpu time  590.0029: real time  590.0136
       DOS:  cpu time    0.0013: real time    0.0013
    --------------------------------------------
      LOOP:  cpu time  590.0041: real time  590.0149

 eigenvalue-minimisations  :  1224
 total energy-change (2. order) :-0.2381464E+04  (-0.2142658E+04)
 number of electron     560.0000000 magnetization 
 augmentation part      560.0000000 magnetization 

 Free energy of the ion-electron system (eV)
  ---------------------------------------------------
  alpha Z        PSCENC =        75.25431677
  Ewald energy   TEWEN  =    138995.29021019
  -Hartree energ DENC   =   -182354.34231451
  -exchange      EXHF   =         0.00000000
  -V(xc)+E(xc)   XCENC  =     -1702.74929817
  PAW double counting   =     44873.02882129   -41398.84523641
  entropy T*S    EENTRO =         0.00249257
  eigenvalues    EBANDS =     -1563.58020712
  atomic energy  EATOM  =     45086.50549395
  Solvation  Ediel_sol  =         0.00000000
  ---------------------------------------------------
  free energy    TOTEN  =      2010.56427857 eV

  energy without entropy =     2010.56178600  energy(sigma->0) =     2010.56365543


--------------------------------------------------------------------------------------------------------




--------------------------------------- Iteration      1(   3)  ---------------------------------------


     EDDAV:  cpu time  505.8019: real time  505.8151
       DOS:  cpu time    0.0011: real time    0.0011
    --------------------------------------------
      LOOP:  cpu time  505.8030: real time  505.8162

 eigenvalue-minimisations  :  1016
 total energy-change (2. order) :-0.1781988E+04  (-0.1676427E+04)
 number of electron     560.0000000 magnetization 
 augmentation part      560.0000000 magnetization 

 Free energy of the ion-electron system (eV)
  ---------------------------------------------------
  alpha Z        PSCENC =        75.25431677
  Ewald energy   TEWEN  =    138995.29021019
  -Hartree energ DENC   =   -182354.34231451
  -exchange      EXHF   =         0.00000000
  -V(xc)+E(xc)   XCENC  =     -1702.74929817
  PAW double counting   =     44873.02882129   -41398.84523641
  entropy T*S    EENTRO =         0.01160237
  eigenvalues    EBANDS =     -3345.57781625
  atomic energy  EATOM  =     45086.50549395
  Solvation  Ediel_sol  =         0.00000000
  ---------------------------------------------------
  free energy    TOTEN  =       228.57577923 eV

  energy without entropy =      228.56417686  energy(sigma->0) =      228.57287864


--------------------------------------------------------------------------------------------------------




--------------------------------------- Iteration      1(   4)  ---------------------------------------


     EDDAV:  cpu time  424.1090: real time  424.1173
       DOS:  cpu time    0.0012: real time    0.0012
    --------------------------------------------
      LOOP:  cpu time  424.1102: real time  424.1185

 eigenvalue-minimisations  :   824
 total energy-change (2. order) :-0.3638542E+03  (-0.3058871E+03)
 number of electron     560.0000000 magnetization 
 augmentation part      560.0000000 magnetization 

 Free energy of the ion-electron system (eV)
  ---------------------------------------------------
  alpha Z        PSCENC =        75.25431677
  Ewald energy   TEWEN  =    138995.29021019
  -Hartree energ DENC   =   -182354.34231451
  -exchange      EXHF   =         0.00000000
  -V(xc)+E(xc)   XCENC  =     -1702.74929817
  PAW double counting   =     44873.02882129   -41398.84523641
  entropy T*S    EENTRO =        -0.03291743
  eigenvalues    EBANDS =     -3709.38750790
  atomic energy  EATOM  =     45086.50549395
  Solvation  Ediel_sol  =         0.00000000
  ---------------------------------------------------
  free energy    TOTEN  =      -135.27843221 eV

  energy without entropy =     -135.24551478  energy(sigma->0) =     -135.27020285


--------------------------------------------------------------------------------------------------------




--------------------------------------- Iteration      1(   5)  ---------------------------------------


     EDDAV:  cpu time  520.2479: real time  520.2603
       DOS:  cpu time    0.0014: real time    0.0014
    CHARGE:  cpu time   25.8880: real time   25.8879
    MIXING:  cpu time    0.4517: real time    0.4517
    --------------------------------------------
      LOOP:  cpu time  546.5891: real time  546.6014

 eigenvalue-minimisations  :  1056
 total energy-change (2. order) :-0.4463733E+02  (-0.3708543E+02)
 number of electron     559.9999901 magnetization 
 augmentation part      245.0236961 magnetization 

 Broyden mixing:
  rms(total) = 0.15238E+01    rms(broyden)= 0.15230E+01
  rms(prec ) = 0.16273E+01
  weight for this iteration     100.00

 Free energy of the ion-electron system (eV)
  ---------------------------------------------------
  alpha Z        PSCENC =        75.25431677
  Ewald energy   TEWEN  =    138995.29021019
  -Hartree energ DENC   =   -182354.34231451
  -exchange      EXHF   =         0.00000000
  -V(xc)+E(xc)   XCENC  =     -1702.74929817
  PAW double counting   =     44873.02882129   -41398.84523641
  entropy T*S    EENTRO =         0.47944070
  eigenvalues    EBANDS =     -3754.53719784
  atomic energy  EATOM  =     45086.50549395
  Solvation  Ediel_sol  =         0.00000000
  ---------------------------------------------------
  free energy    TOTEN  =      -179.91576402 eV

  energy without entropy =     -180.39520472  energy(sigma->0) =     -180.03562420


--------------------------------------------------------------------------------------------------------




--------------------------------------- Iteration      1(   6)  ---------------------------------------


    POTLOK:  cpu time   13.4045: real time   13.4054
    SETDIJ:  cpu time    0.1246: real time    0.1246
    EDDIAG:  cpu time   69.1854: real time   69.1889
  RMM-DIIS:  cpu time  192.9803: real time  192.9857
    ORTHCH:  cpu time   13.5405: real time   13.5406
       DOS:  cpu time    0.0014: real time    0.0014
    CHARGE:  cpu time   25.4358: real time   25.4358
    MIXING:  cpu time    0.4726: real time    0.4726
    --------------------------------------------
      LOOP:  cpu time  315.1452: real time  315.1549

 eigenvalue-minimisations  :   734
 total energy-change (2. order) :-0.1133304E+01  (-0.6233387E+01)
 number of electron     559.9999928 magnetization 
 augmentation part      240.5359257 magnetization 

 Broyden mixing:
  rms(total) = 0.28071E+01    rms(broyden)= 0.28069E+01
  rms(prec ) = 0.32994E+01
  weight for this iteration     100.00

 eigenvalues of (default mixing * dielectric matrix)
  average eigenvalue GAMMA=   0.2688
  0.2688

 Free energy of the ion-electron system (eV)
  ---------------------------------------------------
  alpha Z        PSCENC =        75.25431677
  Ewald energy   TEWEN  =    138995.29021019
  -Hartree energ DENC   =   -182752.59249378
  -exchange      EXHF   =         0.00000000
  -V(xc)+E(xc)   XCENC  =     -1696.38612648
  PAW double counting   =     45643.35070312   -42142.78883207
  entropy T*S    EENTRO =         0.01004628
  eigenvalues    EBANDS =     -3389.69238587
  atomic energy  EATOM  =     45086.50549395
  Solvation  Ediel_sol  =         0.00000000
  ---------------------------------------------------
  free energy    TOTEN  =      -181.04906787 eV

  energy without entropy =     -181.05911416  energy(sigma->0) =     -181.05157944


--------------------------------------------------------------------------------------------------------




--------------------------------------- Iteration      1(   7)  ---------------------------------------


    POTLOK:  cpu time   13.4676: real time   13.4717
    SETDIJ:  cpu time    0.1216: real time    0.1216
    EDDIAG:  cpu time   69.0127: real time   69.0157
  RMM-DIIS:  cpu time  225.0101: real time  225.0207
    ORTHCH:  cpu time   13.6307: real time   13.6307
       DOS:  cpu time    0.0015: real time    0.0015
    CHARGE:  cpu time   25.7796: real time   25.7796
    MIXING:  cpu time    0.4952: real time    0.4952
    --------------------------------------------
      LOOP:  cpu time  347.5190: real time  347.5366

 eigenvalue-minimisations  :   859
 total energy-change (2. order) :-0.1858708E+01  (-0.1974615E+01)
 number of electron     559.9999904 magnetization 
 augmentation part      240.4651480 magnetization 

 Broyden mixing:
  rms(total) = 0.25382E+01    rms(broyden)= 0.25379E+01
  rms(prec ) = 0.30602E+01
  weight for this iteration     100.00

 eigenvalues of (default mixing * dielectric matrix)
  average eigenvalue GAMMA=   0.2608
  0.3880  0.1336

 Free energy of the ion-electron system (eV)
  ---------------------------------------------------
  alpha Z        PSCENC =        75.25431677
  Ewald energy   TEWEN  =    138995.29021019
  -Hartree energ DENC   =   -182822.17825616
  -exchange      EXHF   =         0.00000000
  -V(xc)+E(xc)   XCENC  =     -1696.56544646
  PAW double counting   =     45698.04484386   -42195.55614140
  entropy T*S    EENTRO =         0.09453913
  eigenvalues    EBANDS =     -3323.79733605
  atomic energy  EATOM  =     45086.50549395
  Solvation  Ediel_sol  =         0.00000000
  ---------------------------------------------------
  free energy    TOTEN  =      -182.90777617 eV

  energy without entropy =     -183.00231530  energy(sigma->0) =     -182.93141095


--------------------------------------------------------------------------------------------------------




--------------------------------------- Iteration      1(   8)  ---------------------------------------


    POTLOK:  cpu time   13.6870: real time   13.6907
    SETDIJ:  cpu time    0.1270: real time    0.1270
    EDDIAG:  cpu time   70.1692: real time   70.1696
  RMM-DIIS:  cpu time  204.4595: real time  204.4635
    ORTHCH:  cpu time   13.8288: real time   13.8288
       DOS:  cpu time    0.0015: real time    0.0015
    CHARGE:  cpu time   26.0002: real time   26.0001
    MIXING:  cpu time    0.5271: real time    0.5271
    --------------------------------------------
      LOOP:  cpu time  328.8002: real time  328.8082

 eigenvalue-minimisations  :   782
 total energy-change (2. order) :-0.4985826E+00  (-0.7806411E+00)
 number of electron     559.9999862 magnetization 
 augmentation part      240.2297000 magnetization 

 Broyden mixing:
  rms(total) = 0.22646E+01    rms(broyden)= 0.22643E+01
  rms(prec ) = 0.26105E+01
  weight for this iteration     100.00

 eigenvalues of (default mixing * dielectric matrix)
  average eigenvalue GAMMA=   0.2888
  0.5917  0.1373  0.1373

 Free energy of the ion-electron system (eV)
  ---------------------------------------------------
  alpha Z        PSCENC =        75.25431677
  Ewald energy   TEWEN  =    138995.29021019
  -Hartree energ DENC   =   -182871.31720284
  -exchange      EXHF   =         0.00000000
  -V(xc)+E(xc)   XCENC  =     -1696.64852341
  PAW double counting   =     45751.97560410   -42247.52364467
  entropy T*S    EENTRO =        -0.18471188
  eigenvalues    EBANDS =     -3276.75790096
  atomic energy  EATOM  =     45086.50549395
  Solvation  Ediel_sol  =         0.00000000
  ---------------------------------------------------
  free energy    TOTEN  =      -183.40635874 eV

  energy without entropy =     -183.22164686  energy(sigma->0) =     -183.36018077


--------------------------------------------------------------------------------------------------------




--------------------------------------- Iteration      1(   9)  ---------------------------------------


    POTLOK:  cpu time   13.6423: real time   13.6463
    SETDIJ:  cpu time    0.1296: real time    0.1296
    EDDIAG:  cpu time   68.5647: real time   68.5657
  RMM-DIIS:  cpu time  190.5210: real time  190.5240
    ORTHCH:  cpu time   13.6311: real time   13.6311
       DOS:  cpu time    0.0014: real time    0.0014
    CHARGE:  cpu time   25.5363: real time   25.5365
    MIXING:  cpu time    0.5532: real time    0.5532
    --------------------------------------------
      LOOP:  cpu time  312.5795: real time  312.5877

 eigenvalue-minimisations  :   728
 total energy-change (2. order) : 0.9400310E+00  (-0.6251353E+00)
 number of electron     559.9999873 magnetization 
 augmentation part      240.9778663 magnetization 

 Broyden mixing:
  rms(total) = 0.24935E+01    rms(broyden)= 0.24931E+01
  rms(prec ) = 0.29026E+01
  weight for this iteration     100.00

 eigenvalues of (default mixing * dielectric matrix)
  average eigenvalue GAMMA=   0.2985
  0.7653  0.1640  0.1640  0.1005

 Free energy of the ion-electron system (eV)
  ---------------------------------------------------
  alpha Z        PSCENC =        75.25431677
  Ewald energy   TEWEN  =    138995.29021019
  -Hartree energ DENC   =   -182894.22940526
  -exchange      EXHF   =         0.00000000
  -V(xc)+E(xc)   XCENC  =     -1696.65678713
  PAW double counting   =     45826.77896980   -42319.52524155
  entropy T*S    EENTRO =         0.07319870
  eigenvalues    EBANDS =     -3255.95708320
  atomic energy  EATOM  =     45086.50549395
  Solvation  Ediel_sol  =         0.00000000
  ---------------------------------------------------
  free energy    TOTEN  =      -182.46632773 eV

  energy without entropy =     -182.53952642  energy(sigma->0) =     -182.48462740


--------------------------------------------------------------------------------------------------------




--------------------------------------- Iteration      1(  10)  ---------------------------------------


    POTLOK:  cpu time   13.3820: real time   13.3837
    SETDIJ:  cpu time    0.1175: real time    0.1175
    EDDIAG:  cpu time   68.7440: real time   68.7457
  RMM-DIIS:  cpu time  191.7271: real time  191.7319
    ORTHCH:  cpu time   13.8155: real time   13.8156
       DOS:  cpu time    0.0015: real time    0.0015
    CHARGE:  cpu time   25.5796: real time   25.5799
    MIXING:  cpu time    0.5918: real time    0.5918
    --------------------------------------------
      LOOP:  cpu time  313.9590: real time  313.9677

 eigenvalue-minimisations  :   729
 total energy-change (2. order) : 0.1457470E+01  (-0.3768221E+00)
 number of electron     559.9999900 magnetization 
 augmentation part      241.3180741 magnetization 

 Broyden mixing:
  rms(total) = 0.21956E+01    rms(broyden)= 0.21953E+01
  rms(prec ) = 0.26030E+01
  weight for this iteration     100.00

 eigenvalues of (default mixing * dielectric matrix)
  average eigenvalue GAMMA=   0.2760
  0.8197  0.1714  0.1714  0.1306  0.0866

 Free energy of the ion-electron system (eV)
  ---------------------------------------------------
  alpha Z        PSCENC =        75.25431677
  Ewald energy   TEWEN  =    138995.29021019
  -Hartree energ DENC   =   -182925.29831548
  -exchange      EXHF   =         0.00000000
  -V(xc)+E(xc)   XCENC  =     -1696.50029787
  PAW double counting   =     45892.19833092   -42382.52351617
  entropy T*S    EENTRO =        -0.05876732
  eigenvalues    EBANDS =     -3225.87631248
  atomic energy  EATOM  =     45086.50549395
  Solvation  Ediel_sol  =         0.00000000
  ---------------------------------------------------
  free energy    TOTEN  =      -181.00885750 eV

  energy without entropy =     -180.95009017  energy(sigma->0) =     -180.99416567


--------------------------------------------------------------------------------------------------------




--------------------------------------- Iteration      1(  11)  ---------------------------------------


    POTLOK:  cpu time   13.4431: real time   13.4440
    SETDIJ:  cpu time    0.1295: real time    0.1295
    EDDIAG:  cpu time   68.9771: real time   68.9799
  RMM-DIIS:  cpu time  195.7122: real time  195.7185
    ORTHCH:  cpu time   13.8307: real time   13.8309
       DOS:  cpu time    0.0015: real time    0.0014
    CHARGE:  cpu time   26.3431: real time   26.3433
    MIXING:  cpu time    0.6052: real time    0.6052
    --------------------------------------------
      LOOP:  cpu time  319.0424: real time  319.0526

 eigenvalue-minimisations  :   737
 total energy-change (2. order) : 0.1637381E+01  (-0.1989092E+00)
 number of electron     559.9999897 magnetization 
 augmentation part      241.5270248 magnetization 

 Broyden mixing:
  rms(total) = 0.18349E+01    rms(broyden)= 0.18346E+01
  rms(prec ) = 0.21215E+01
  weight for this iteration     100.00

 eigenvalues of (default mixing * dielectric matrix)
  average eigenvalue GAMMA=   0.2631
  0.8756  0.1960  0.1960  0.1122  0.1122  0.0863

 Free energy of the ion-electron system (eV)
  ---------------------------------------------------
  alpha Z        PSCENC =        75.25431677
  Ewald energy   TEWEN  =    138995.29021019
  -Hartree energ DENC   =   -182947.88261528
  -exchange      EXHF   =         0.00000000
  -V(xc)+E(xc)   XCENC  =     -1696.33397617
  PAW double counting   =     45926.84465739   -42415.80272921
  entropy T*S    EENTRO =        -0.10719901
  eigenvalues    EBANDS =     -3203.13963563
  atomic energy  EATOM  =     45086.50549395
  Solvation  Ediel_sol  =         0.00000000
  ---------------------------------------------------
  free energy    TOTEN  =      -179.37147699 eV

  energy without entropy =     -179.26427798  energy(sigma->0) =     -179.34467724


--------------------------------------------------------------------------------------------------------




--------------------------------------- Iteration      1(  12)  ---------------------------------------


    POTLOK:  cpu time   13.7025: real time   13.7043
    SETDIJ:  cpu time    0.1296: real time    0.1296
    EDDIAG:  cpu time   68.4138: real time   68.4187
  RMM-DIIS:  cpu time  189.4292: real time  189.4372
    ORTHCH:  cpu time   13.9315: real time   13.9319
       DOS:  cpu time    0.0015: real time    0.0015
    CHARGE:  cpu time   26.5433: real time   26.5439
    MIXING:  cpu time    0.6556: real time    0.6556
    --------------------------------------------
      LOOP:  cpu time  312.8070: real time  312.8227

 eigenvalue-minimisations  :   720
 total energy-change (2. order) : 0.1743921E+01  (-0.1557594E+00)
 number of electron     559.9999878 magnetization 
 augmentation part      241.5886659 magnetization 

 Broyden mixing:
  rms(total) = 0.14767E+01    rms(broyden)= 0.14764E+01
  rms(prec ) = 0.17280E+01
  weight for this iteration     100.00

 eigenvalues of (default mixing * dielectric matrix)
  average eigenvalue GAMMA=   0.2713
  0.9754  0.2512  0.2512  0.1282  0.1282  0.0953  0.0700

 Free energy of the ion-electron system (eV)
  ---------------------------------------------------
  alpha Z        PSCENC =        75.25431677
  Ewald energy   TEWEN  =    138995.29021019
  -Hartree energ DENC   =   -182971.02096271
  -exchange      EXHF   =         0.00000000
  -V(xc)+E(xc)   XCENC  =     -1696.14248304
  PAW double counting   =     45960.71197759   -42448.24433032
  entropy T*S    EENTRO =        -0.04140918
  eigenvalues    EBANDS =     -3179.94036928
  atomic energy  EATOM  =     45086.50549395
  Solvation  Ediel_sol  =         0.00000000
  ---------------------------------------------------
  free energy    TOTEN  =      -177.62755602 eV

  energy without entropy =     -177.58614684  energy(sigma->0) =     -177.61720372


--------------------------------------------------------------------------------------------------------




--------------------------------------- Iteration      1(  13)  ---------------------------------------


    POTLOK:  cpu time   13.7883: real time   13.7933
    SETDIJ:  cpu time    0.1244: real time    0.1244
    EDDIAG:  cpu time   69.1083: real time   69.1111
  RMM-DIIS:  cpu time  190.9423: real time  190.9497
    ORTHCH:  cpu time   13.7598: real time   13.7602
       DOS:  cpu time    0.0015: real time    0.0015
    CHARGE:  cpu time   26.0297: real time   26.0305
    MIXING:  cpu time    0.7432: real time    0.7432
    --------------------------------------------
      LOOP:  cpu time  314.4975: real time  314.5140

 eigenvalue-minimisations  :   722
 total energy-change (2. order) : 0.3674963E+00  (-0.1417836E+00)
 number of electron     559.9999876 magnetization 
 augmentation part      241.7231256 magnetization 

 Broyden mixing:
  rms(total) = 0.14962E+01    rms(broyden)= 0.14959E+01
  rms(prec ) = 0.17460E+01
  weight for this iteration     100.00

 eigenvalues of (default mixing * dielectric matrix)
  average eigenvalue GAMMA=   0.2844
  1.1042  0.3130  0.3130  0.1300  0.1300  0.1277  0.0935  0.0639

 Free energy of the ion-electron system (eV)
  ---------------------------------------------------
  alpha Z        PSCENC =        75.25431677
  Ewald energy   TEWEN  =    138995.29021019
  -Hartree energ DENC   =   -182988.12417813
  -exchange      EXHF   =         0.00000000
  -V(xc)+E(xc)   XCENC  =     -1695.83192901
  PAW double counting   =     46002.09041725   -42487.75177421
  entropy T*S    EENTRO =        -0.06882317
  eigenvalues    EBANDS =     -3164.62379336
  atomic energy  EATOM  =     45086.50549395
  Solvation  Ediel_sol  =         0.00000000
  ---------------------------------------------------
  free energy    TOTEN  =      -177.26005970 eV

  energy without entropy =     -177.19123654  energy(sigma->0) =     -177.24285391


--------------------------------------------------------------------------------------------------------




--------------------------------------- Iteration      1(  14)  ---------------------------------------


    POTLOK:  cpu time   13.3077: real time   13.3088
    SETDIJ:  cpu time    0.1235: real time    0.1235
    EDDIAG:  cpu time   68.0251: real time   68.0301
  RMM-DIIS:  cpu time  188.3886: real time  188.4050
    ORTHCH:  cpu time   13.6471: real time   13.6473
       DOS:  cpu time    0.0015: real time    0.0015
    CHARGE:  cpu time   25.4966: real time   25.4969
    MIXING:  cpu time    0.7314: real time    0.7314
    --------------------------------------------
      LOOP:  cpu time  309.7214: real time  309.7445

 eigenvalue-minimisations  :   708
 total energy-change (2. order) :-0.2899996E-01  (-0.1506117E+00)
 number of electron     559.9999882 magnetization 
 augmentation part      241.4501449 magnetization 

 Broyden mixing:
  rms(total) = 0.16870E+01    rms(broyden)= 0.16867E+01
  rms(prec ) = 0.19896E+01
  weight for this iteration     100.00

 eigenvalues of (default mixing * dielectric matrix)
  average eigenvalue GAMMA=   0.2820
  1.1812  0.4158  0.2788  0.1451  0.1451  0.1288  0.0905  0.0905  0.0620

 Free energy of the ion-electron system (eV)
  ---------------------------------------------------
  alpha Z        PSCENC =        75.25431677
  Ewald energy   TEWEN  =    138995.29021019
  -Hartree energ DENC   =   -183028.93595932
  -exchange      EXHF   =         0.00000000
  -V(xc)+E(xc)   XCENC  =     -1695.27425181
  PAW double counting   =     46065.42423757   -42548.11796178
  entropy T*S    EENTRO =        -0.06429892
  eigenvalues    EBANDS =     -3127.37084632
  atomic energy  EATOM  =     45086.50549395
  Solvation  Ediel_sol  =         0.00000000
  ---------------------------------------------------
  free energy    TOTEN  =      -177.28905967 eV

  energy without entropy =     -177.22476075  energy(sigma->0) =     -177.27298494


--------------------------------------------------------------------------------------------------------




--------------------------------------- Iteration      1(  15)  ---------------------------------------


    POTLOK:  cpu time   13.3279: real time   13.3298
    SETDIJ:  cpu time    0.1225: real time    0.1225
    EDDIAG:  cpu time   68.7412: real time   68.7455
  RMM-DIIS:  cpu time  189.1133: real time  189.1335
    ORTHCH:  cpu time   13.6865: real time   13.6887
       DOS:  cpu time    0.0015: real time    0.0015
    CHARGE:  cpu time   26.4972: real time   26.5056
    MIXING:  cpu time    0.8232: real time    0.8233
    --------------------------------------------
      LOOP:  cpu time  312.3134: real time  312.3503

 eigenvalue-minimisations  :   721
 total energy-change (2. order) : 0.1643853E+00  (-0.8884252E-01)
 number of electron     559.9999890 magnetization 
 augmentation part      241.2337766 magnetization 

 Broyden mixing:
  rms(total) = 0.16594E+01    rms(broyden)= 0.16592E+01
  rms(prec ) = 0.19572E+01
  weight for this iteration     100.00

 eigenvalues of (default mixing * dielectric matrix)
  average eigenvalue GAMMA=   0.2876
  1.3130  0.5510  0.2296  0.1671  0.1671  0.1066  0.1066  0.0929  0.0823  0.0592

 Free energy of the ion-electron system (eV)
  ---------------------------------------------------
  alpha Z        PSCENC =        75.25431677
  Ewald energy   TEWEN  =    138995.29021019
  -Hartree energ DENC   =   -183057.85874938
  -exchange      EXHF   =         0.00000000
  -V(xc)+E(xc)   XCENC  =     -1694.92093538
  PAW double counting   =     46102.82256689   -42583.72925872
  entropy T*S    EENTRO =        -0.03602538
  eigenvalues    EBANDS =     -3100.45229335
  atomic energy  EATOM  =     45086.50549395
  Solvation  Ediel_sol  =         0.00000000
  ---------------------------------------------------
  free energy    TOTEN  =      -177.12467440 eV

  energy without entropy =     -177.08864903  energy(sigma->0) =     -177.11566806


--------------------------------------------------------------------------------------------------------




--------------------------------------- Iteration      1(  16)  ---------------------------------------


    POTLOK:  cpu time   13.3618: real time   13.3658
    SETDIJ:  cpu time    0.1237: real time    0.1237
    EDDIAG:  cpu time   69.3252: real time   69.3328
  RMM-DIIS:  cpu time  188.6771: real time  188.6888
    ORTHCH:  cpu time   13.9562: real time   13.9563
       DOS:  cpu time    0.0015: real time    0.0015
    CHARGE:  cpu time   26.0505: real time   26.0518
    MIXING:  cpu time    0.8475: real time    0.8475
    --------------------------------------------
      LOOP:  cpu time  312.3435: real time  312.3681

 eigenvalue-minimisations  :   724
 total energy-change (2. order) : 0.6175587E-01  (-0.8313678E-01)
 number of electron     559.9999904 magnetization 
 augmentation part      241.1219733 magnetization 

 Broyden mixing:
  rms(total) = 0.17143E+01    rms(broyden)= 0.17141E+01
  rms(prec ) = 0.20284E+01
  weight for this iteration     100.00

 eigenvalues of (default mixing * dielectric matrix)
  average eigenvalue GAMMA=   0.2897
  1.4301  0.6093  0.2220  0.1978  0.1978  0.1159  0.1159  0.0898  0.0898  0.0590
  0.0590

 Free energy of the ion-electron system (eV)
  ---------------------------------------------------
  alpha Z        PSCENC =        75.25431677
  Ewald energy   TEWEN  =    138995.29021019
  -Hartree energ DENC   =   -183083.48130731
  -exchange      EXHF   =         0.00000000
  -V(xc)+E(xc)   XCENC  =     -1694.53846061
  PAW double counting   =     46141.64890270   -42620.63005216
  entropy T*S    EENTRO =        -0.00656302
  eigenvalues    EBANDS =     -3077.10545905
  atomic energy  EATOM  =     45086.50549395
  Solvation  Ediel_sol  =         0.00000000
  ---------------------------------------------------
  free energy    TOTEN  =      -177.06291853 eV

  energy without entropy =     -177.05635551  energy(sigma->0) =     -177.06127778


--------------------------------------------------------------------------------------------------------




--------------------------------------- Iteration      1(  17)  ---------------------------------------


    POTLOK:  cpu time   13.3249: real time   13.3275
    SETDIJ:  cpu time    0.1237: real time    0.1237
    EDDIAG:  cpu time   67.8302: real time   67.8351
  RMM-DIIS:  cpu time  185.0956: real time  185.1096
    ORTHCH:  cpu time   13.6639: real time   13.6643
       DOS:  cpu time    0.0015: real time    0.0015
    CHARGE:  cpu time   26.0393: real time   26.0408
    MIXING:  cpu time    0.8831: real time    0.8831
    --------------------------------------------
      LOOP:  cpu time  306.9622: real time  306.9856

 eigenvalue-minimisations  :   705
 total energy-change (2. order) : 0.9729416E+00  (-0.7034594E-01)
 number of electron     559.9999915 magnetization 
 augmentation part      241.1883921 magnetization 

 Broyden mixing:
  rms(total) = 0.11192E+01    rms(broyden)= 0.11189E+01
  rms(prec ) = 0.12891E+01
  weight for this iteration     100.00

 eigenvalues of (default mixing * dielectric matrix)
  average eigenvalue GAMMA=   0.2982
  1.5097  0.7240  0.2461  0.2461  0.2027  0.1305  0.1305  0.0951  0.0951  0.0833
  0.0576  0.0576

 Free energy of the ion-electron system (eV)
  ---------------------------------------------------
  alpha Z        PSCENC =        75.25431677
  Ewald energy   TEWEN  =    138995.29021019
  -Hartree energ DENC   =   -183102.36164484
  -exchange      EXHF   =         0.00000000
  -V(xc)+E(xc)   XCENC  =     -1694.22001322
  PAW double counting   =     46171.69771427   -42649.11953815
  entropy T*S    EENTRO =         0.04350529
  eigenvalues    EBANDS =     -3059.18002116
  atomic energy  EATOM  =     45086.50549395
  Solvation  Ediel_sol  =         0.00000000
  ---------------------------------------------------
  free energy    TOTEN  =      -176.08997690 eV

  energy without entropy =     -176.13348218  energy(sigma->0) =     -176.10085322


--------------------------------------------------------------------------------------------------------




--------------------------------------- Iteration      1(  18)  ---------------------------------------


    POTLOK:  cpu time   13.1035: real time   13.1047
    SETDIJ:  cpu time    0.1221: real time    0.1221
    EDDIAG:  cpu time   68.1150: real time   68.1191
  RMM-DIIS:  cpu time  184.7604: real time  184.7685
    ORTHCH:  cpu time   13.5242: real time   13.5256
       DOS:  cpu time    0.0015: real time    0.0015
    CHARGE:  cpu time   25.4329: real time   25.4346
    MIXING:  cpu time    0.9175: real time    0.9175
    --------------------------------------------
      LOOP:  cpu time  305.9770: real time  305.9936

 eigenvalue-minimisations  :   702
 total energy-change (2. order) : 0.2133623E+00  (-0.5100353E-01)
 number of electron     559.9999901 magnetization 
 augmentation part      241.2248622 magnetization 

 Broyden mixing:
  rms(total) = 0.12657E+01    rms(broyden)= 0.12655E+01
  rms(prec ) = 0.14650E+01
  weight for this iteration     100.00

 eigenvalues of (default mixing * dielectric matrix)
  average eigenvalue GAMMA=   0.2927
  1.5297  0.7532  0.2965  0.2965  0.1738  0.1416  0.1416  0.0993  0.0993  0.0902
  0.0695  0.0572  0.0572

 Free energy of the ion-electron system (eV)
  ---------------------------------------------------
  alpha Z        PSCENC =        75.25431677
  Ewald energy   TEWEN  =    138995.29021019
  -Hartree energ DENC   =   -183123.39527532
  -exchange      EXHF   =         0.00000000
  -V(xc)+E(xc)   XCENC  =     -1693.94215534
  PAW double counting   =     46193.73975729   -42669.74687009
  entropy T*S    EENTRO =         0.01792196
  eigenvalues    EBANDS =     -3039.60001400
  atomic energy  EATOM  =     45086.50549395
  Solvation  Ediel_sol  =         0.00000000
  ---------------------------------------------------
  free energy    TOTEN  =      -175.87661458 eV

  energy without entropy =     -175.89453654  energy(sigma->0) =     -175.88109507


--------------------------------------------------------------------------------------------------------




--------------------------------------- Iteration      1(  19)  ---------------------------------------


    POTLOK:  cpu time   13.0964: real time   13.1014
    SETDIJ:  cpu time    0.1228: real time    0.1228
    EDDIAG:  cpu time   68.9560: real time   68.9594
  RMM-DIIS:  cpu time  185.5847: real time  185.6003
    ORTHCH:  cpu time   13.8279: real time   13.8282
       DOS:  cpu time    0.0015: real time    0.0015
    CHARGE:  cpu time   26.2921: real time   26.2949
    MIXING:  cpu time    0.9485: real time    0.9486
    --------------------------------------------
      LOOP:  cpu time  308.8299: real time  308.8569

 eigenvalue-minimisations  :   708
 total energy-change (2. order) : 0.1819333E+00  (-0.2626468E-01)
 number of electron     559.9999898 magnetization 
 augmentation part      241.2385802 magnetization 

 Broyden mixing:
  rms(total) = 0.11613E+01    rms(broyden)= 0.11612E+01
  rms(prec ) = 0.13714E+01
  weight for this iteration     100.00

 eigenvalues of (default mixing * dielectric matrix)
  average eigenvalue GAMMA=   0.2987
  1.5558  0.8931  0.3446  0.3446  0.1624  0.1624  0.1120  0.1120  0.1370  0.1124
  0.0782  0.0605  0.0531  0.0531

 Free energy of the ion-electron system (eV)
  ---------------------------------------------------
  alpha Z        PSCENC =        75.25431677
  Ewald energy   TEWEN  =    138995.29021019
  -Hartree energ DENC   =   -183130.61490210
  -exchange      EXHF   =         0.00000000
  -V(xc)+E(xc)   XCENC  =     -1693.84953187
  PAW double counting   =     46198.48819831   -42673.99042797
  entropy T*S    EENTRO =         0.03709167
  eigenvalues    EBANDS =     -3032.81513026
  atomic energy  EATOM  =     45086.50549395
  Solvation  Ediel_sol  =         0.00000000
  ---------------------------------------------------
  free energy    TOTEN  =      -175.69468131 eV

  energy without entropy =     -175.73177298  energy(sigma->0) =     -175.70395423


--------------------------------------------------------------------------------------------------------




--------------------------------------- Iteration      1(  20)  ---------------------------------------


    POTLOK:  cpu time   13.2336: real time   13.2379
    SETDIJ:  cpu time    0.1255: real time    0.1255
    EDDIAG:  cpu time   68.9215: real time   68.9242
  RMM-DIIS:  cpu time  184.2524: real time  184.2676
    ORTHCH:  cpu time   13.6783: real time   13.6796
       DOS:  cpu time    0.0015: real time    0.0015
    CHARGE:  cpu time   25.5120: real time   25.5126
    MIXING:  cpu time    1.0071: real time    1.0071
    --------------------------------------------
      LOOP:  cpu time  306.7319: real time  306.7560

 eigenvalue-minimisations  :   706
 total energy-change (2. order) : 0.7641130E-01  (-0.3242660E-01)
 number of electron     559.9999908 magnetization 
 augmentation part      241.1645376 magnetization 

 Broyden mixing:
  rms(total) = 0.11780E+01    rms(broyden)= 0.11778E+01
  rms(prec ) = 0.13690E+01
  weight for this iteration     100.00

 eigenvalues of (default mixing * dielectric matrix)
  average eigenvalue GAMMA=   0.3065
  1.6269  1.0193  0.3810  0.3810  0.1970  0.1970  0.1232  0.1232  0.1087  0.1087
  0.0863  0.0863  0.0569  0.0569  0.0457

 Free energy of the ion-electron system (eV)
  ---------------------------------------------------
  alpha Z        PSCENC =        75.25431677
  Ewald energy   TEWEN  =    138995.29021019
  -Hartree energ DENC   =   -183150.48719063
  -exchange      EXHF   =         0.00000000
  -V(xc)+E(xc)   XCENC  =     -1693.62391248
  PAW double counting   =     46209.65751823   -42684.05230237
  entropy T*S    EENTRO =         0.04870577
  eigenvalues    EBANDS =     -3014.21110945
  atomic energy  EATOM  =     45086.50549395
  Solvation  Ediel_sol  =         0.00000000
  ---------------------------------------------------
  free energy    TOTEN  =      -175.61827001 eV

  energy without entropy =     -175.66697579  energy(sigma->0) =     -175.63044646


--------------------------------------------------------------------------------------------------------




--------------------------------------- Iteration      1(  21)  ---------------------------------------


    POTLOK:  cpu time   13.1993: real time   13.2029
    SETDIJ:  cpu time    0.1216: real time    0.1216
    EDDIAG:  cpu time   67.7413: real time   67.7444
  RMM-DIIS:  cpu time  182.6388: real time  182.6439
    ORTHCH:  cpu time   13.6179: real time   13.6182
       DOS:  cpu time    0.0015: real time    0.0014
    CHARGE:  cpu time   25.5409: real time   25.5416
    MIXING:  cpu time    1.0819: real time    1.0820
    --------------------------------------------
      LOOP:  cpu time  303.9432: real time  303.9561

 eigenvalue-minimisations  :   697
 total energy-change (2. order) : 0.2668633E+00  (-0.2750084E-01)
 number of electron     559.9999904 magnetization 
 augmentation part      241.1319813 magnetization 

 Broyden mixing:
  rms(total) = 0.77468E+00    rms(broyden)= 0.77450E+00
  rms(prec ) = 0.88773E+00
  weight for this iteration     100.00

 eigenvalues of (default mixing * dielectric matrix)
  average eigenvalue GAMMA=   0.3128
  1.6895  1.0514  0.4551  0.4551  0.2181  0.2181  0.1333  0.1333  0.1085  0.1085
  0.1070  0.0838  0.0838  0.0571  0.0571  0.0453

 Free energy of the ion-electron system (eV)
  ---------------------------------------------------
  alpha Z        PSCENC =        75.25431677
  Ewald energy   TEWEN  =    138995.29021019
  -Hartree energ DENC   =   -183169.08259277
  -exchange      EXHF   =         0.00000000
  -V(xc)+E(xc)   XCENC  =     -1693.40520451
  PAW double counting   =     46219.10235766   -42692.43790566
  entropy T*S    EENTRO =         0.01506520
  eigenvalues    EBANDS =     -2996.59314756
  atomic energy  EATOM  =     45086.50549395
  Solvation  Ediel_sol  =         0.00000000
  ---------------------------------------------------
  free energy    TOTEN  =      -175.35140673 eV

  energy without entropy =     -175.36647193  energy(sigma->0) =     -175.35517303


--------------------------------------------------------------------------------------------------------




--------------------------------------- Iteration      1(  22)  ---------------------------------------


    POTLOK:  cpu time   13.3793: real time   13.3826
    SETDIJ:  cpu time    0.1235: real time    0.1235
    EDDIAG:  cpu time   67.9491: real time   67.9513
  RMM-DIIS:  cpu time  183.9413: real time  183.9475
    ORTHCH:  cpu time   13.5897: real time   13.5898
       DOS:  cpu time    0.0015: real time    0.0015
    CHARGE:  cpu time   25.4748: real time   25.4750
    MIXING:  cpu time    1.1894: real time    1.1894
    --------------------------------------------
      LOOP:  cpu time  305.6487: real time  305.6608

 eigenvalue-minimisations  :   702
 total energy-change (2. order) : 0.8377545E-01  (-0.1944646E-01)
 number of electron     559.9999893 magnetization 
 augmentation part      241.1460652 magnetization 

 Broyden mixing:
  rms(total) = 0.66694E+00    rms(broyden)= 0.66677E+00
  rms(prec ) = 0.77382E+00
  weight for this iteration     100.00

 eigenvalues of (default mixing * dielectric matrix)
  average eigenvalue GAMMA=   0.3252
  1.6352  1.2836  0.5408  0.5408  0.2280  0.2280  0.1618  0.1263  0.1263  0.1209
  0.1209  0.0900  0.0900  0.0756  0.0572  0.0572  0.0456

 Free energy of the ion-electron system (eV)
  ---------------------------------------------------
  alpha Z        PSCENC =        75.25431677
  Ewald energy   TEWEN  =    138995.29021019
  -Hartree energ DENC   =   -183181.67024510
  -exchange      EXHF   =         0.00000000
  -V(xc)+E(xc)   XCENC  =     -1693.28829729
  PAW double counting   =     46220.95394764   -42693.69058336
  entropy T*S    EENTRO =         0.01909708
  eigenvalues    EBANDS =     -2984.64157117
  atomic energy  EATOM  =     45086.50549395
  Solvation  Ediel_sol  =         0.00000000
  ---------------------------------------------------
  free energy    TOTEN  =      -175.26763127 eV

  energy without entropy =     -175.28672835  energy(sigma->0) =     -175.27240554


--------------------------------------------------------------------------------------------------------




--------------------------------------- Iteration      1(  23)  ---------------------------------------


    POTLOK:  cpu time   13.4092: real time   13.4107
    SETDIJ:  cpu time    0.1283: real time    0.1283
    EDDIAG:  cpu time   67.7389: real time   67.7400
  RMM-DIIS:  cpu time  183.0907: real time  183.0940
    ORTHCH:  cpu time   13.6664: real time   13.6666
       DOS:  cpu time    0.0015: real time    0.0015
    CHARGE:  cpu time   25.3215: real time   25.3217
    MIXING:  cpu time    1.2737: real time    1.2737
    --------------------------------------------
      LOOP:  cpu time  304.6302: real time  304.6365

 eigenvalue-minimisations  :   700
 total energy-change (2. order) :-0.2496830E-01  (-0.2010959E-01)
 number of electron     559.9999896 magnetization 
 augmentation part      241.0776497 magnetization 

 Broyden mixing:
  rms(total) = 0.63991E+00    rms(broyden)= 0.63978E+00
  rms(prec ) = 0.73055E+00
  weight for this iteration     100.00

 eigenvalues of (default mixing * dielectric matrix)
  average eigenvalue GAMMA=   0.3282
[...]
 -0.007  -0.012   0.003   0.004   0.006  -0.006  -0.012   0.003
 -0.011  -0.021   0.005   0.007   0.010  -0.011  -0.020   0.005
 -0.015  -0.005   0.012   0.000   0.022  -0.014  -0.005   0.012
  0.000  -0.023  -0.006  -0.015  -0.000   0.000  -0.022  -0.006
 -0.022   0.000   0.009  -0.005  -0.016  -0.021   0.000   0.008
 -0.018  -0.006   0.015   0.000   0.027  -0.017  -0.006   0.015
  0.000  -0.027  -0.008  -0.018   0.000   0.000  -0.026  -0.008
 -0.027   0.000   0.010  -0.006  -0.019  -0.026   0.000   0.010
 total augmentation occupancy for first ion, spin component:           1
  1.527  -0.032   0.003   0.022   0.024   0.079  -0.006  -0.001   0.035  -0.009   0.088  -0.031   0.011   0.003   0.004  -0.019
 -0.032   1.407   0.026   0.068   0.004  -0.005   0.070   0.012  -0.013  -0.009   0.206  -0.065   0.019   0.001   0.003  -0.007
  0.003   0.026   1.535   0.001   0.002  -0.002   0.014   0.076  -0.013   0.017  -0.049   0.015  -0.003  -0.005  -0.005   0.016
  0.022   0.068   0.001   1.341   0.046   0.034  -0.012  -0.013   0.088  -0.024  -0.081   0.021  -0.001  -0.006  -0.002   0.001
  0.024   0.004   0.002   0.046   1.439  -0.010  -0.010   0.016  -0.023   0.067  -0.103   0.034  -0.002  -0.010  -0.010   0.026
  0.079  -0.005  -0.002   0.034  -0.010   0.217   0.019  -0.002  -0.045   0.003  -0.048   0.002   0.017  -0.010   0.034  -0.004
 -0.006   0.070   0.014  -0.012  -0.010   0.019   0.265  -0.024  -0.004   0.006  -0.106   0.007  -0.001   0.051  -0.010  -0.001
 -0.001   0.012   0.076  -0.013   0.016  -0.002  -0.024   0.216   0.014  -0.019   0.028  -0.001  -0.012   0.009  -0.018   0.003
  0.035  -0.013  -0.013   0.088  -0.023  -0.045  -0.004   0.014   0.263   0.008   0.044  -0.004  -0.009   0.036   0.004   0.000
 -0.009  -0.009   0.017  -0.024   0.067   0.003   0.006  -0.019   0.008   0.259   0.047  -0.002  -0.038   0.002   0.049   0.007
  0.088   0.206  -0.049  -0.081  -0.103  -0.048  -0.106   0.028   0.044   0.047   0.953  -0.141   0.084   0.015   0.064  -0.013
 -0.031  -0.065   0.015   0.021   0.034   0.002   0.007  -0.001  -0.004  -0.002  -0.141   0.023  -0.014  -0.003  -0.010   0.003
  0.011   0.019  -0.003  -0.001  -0.002   0.017  -0.001  -0.012  -0.009  -0.038   0.084  -0.014   0.029  -0.008  -0.004  -0.003
  0.003   0.001  -0.005  -0.006  -0.010  -0.010   0.051   0.009   0.036   0.002   0.015  -0.003  -0.008   0.035   0.004   0.000
  0.004   0.003  -0.005  -0.002  -0.010   0.034  -0.010  -0.018   0.004   0.049   0.064  -0.010  -0.004   0.004   0.034  -0.000
 -0.019  -0.007   0.016   0.001   0.026  -0.004  -0.001   0.003   0.000   0.007  -0.013   0.003  -0.003   0.000  -0.000   0.001
  0.001  -0.028  -0.007  -0.018   0.001   0.001  -0.008  -0.002  -0.006  -0.000  -0.003   0.001   0.000  -0.003  -0.000   0.000
 -0.028   0.001   0.012  -0.006  -0.020  -0.006   0.001   0.003  -0.001  -0.007  -0.008   0.001  -0.000  -0.000  -0.003   0.000


------------------------ aborting loop because EDIFF is reached ----------------------------------------


    CHARGE:  cpu time   25.7072: real time   25.7072
    FORLOC:  cpu time    6.8034: real time    6.8034
    FORNL :  cpu time   67.9539: real time   67.9540
    STRESS:  cpu time  200.9455: real time  200.9475
    FORCOR:  cpu time   22.1734: real time   22.1747
    FORHAR:  cpu time    9.7836: real time    9.7836
    MIXING:  cpu time    3.7352: real time    3.7352
    OFIELD:  cpu time    0.0000: real time    0.0000

  FORCE on cell =-STRESS in cart. coord.  units (eV):
  Direction    XX          YY          ZZ          XY          YZ          ZX
  --------------------------------------------------------------------------------------
  Alpha Z    75.25432    75.25432    75.25432
  Ewald   45107.65571 44498.36234 49389.16638    35.01176   198.51738  1078.47019
  Hartree 59946.92756 59437.82097 63972.10513    38.94634   168.08008  1034.72443
  E(xc)   -2905.00503 -2906.58551 -2904.13176    -0.01159     0.28964     0.16889
  Local  ************************************   -74.39909  -362.88453 -2105.70117
  n-local  -883.24281  -883.98117  -887.46115    -0.64553     0.51802    -6.13874
  augment  4101.43637  4107.73909  4101.58717     0.36226    -1.16958     1.77780
  Kinetic  7806.16463  7821.97085  7794.07954     0.61200    -3.18947    -2.77043
  Fock        0.00000     0.00000     0.00000     0.00000     0.00000     0.00000
  -------------------------------------------------------------------------------------
  Total    -115.34417  -112.74517  -107.09164    -0.12384     0.16153     0.53096
  in kB      -6.84451    -6.69029    -6.35481    -0.00735     0.00959     0.03151
  external pressure =       -6.63 kB  Pullay stress =        0.00 kB


 VOLUME and BASIS-vectors are now :
 -----------------------------------------------------------------------------
  energy-cutoff  :      400.00
  volume of cell :    27000.00
      direct lattice vectors                 reciprocal lattice vectors
    30.000000000  0.000000000  0.000000000     0.033333333  0.000000000  0.000000000
     0.000000000 30.000000000  0.000000000     0.000000000  0.033333333  0.000000000
     0.000000000  0.000000000 30.000000000     0.000000000  0.000000000  0.033333333

  length of vectors
    30.000000000 30.000000000 30.000000000     0.033333333  0.033333333  0.033333333


 FORCES acting on ions
    electron-ion (+dipol)            ewald-force                    non-local-force                 convergence-correction
 -----------------------------------------------------------------------------------------------
   0.390E+03 0.994E+03 0.394E+03   -.387E+03 -.991E+03 -.394E+03   -.151E+01 -.183E+01 -.261E+00   -.245E-02 -.165E-02 0.254E-02
   -.983E+03 -.397E+03 0.408E+03   0.980E+03 0.395E+03 -.407E+03   0.183E+01 0.150E+01 -.215E+00   -.353E-02 -.131E-02 0.128E-01
   -.406E+03 0.985E+03 0.403E+03   0.404E+03 -.982E+03 -.402E+03   0.153E+01 -.183E+01 -.188E+00   0.453E-03 -.372E-02 0.578E-02
   0.993E+03 -.411E+03 0.379E+03   -.990E+03 0.408E+03 -.379E+03   -.190E+01 0.169E+01 -.189E+00   0.534E-02 0.798E-02 -.201E-02
   -.376E+02 0.635E+03 0.933E+03   0.377E+02 -.634E+03 -.929E+03   -.593E-01 -.215E+00 -.237E+01   -.465E-02 -.853E-03 -.105E-02
   -.178E+01 0.588E+03 -.969E+03   0.177E+01 -.587E+03 0.965E+03   0.915E-03 -.304E+00 0.236E+01   0.936E-02 -.130E-03 -.298E-02
   -.357E+01 0.114E+04 -.948E+01   0.355E+01 -.114E+04 0.945E+01   0.698E-02 -.310E+01 0.189E-01   0.185E-02 0.180E-02 0.365E-02
   0.114E+04 -.908E+00 -.171E+02   -.114E+04 0.884E+00 0.170E+02   -.311E+01 0.129E-01 0.723E-01   -.161E-03 0.192E-02 0.304E-02
   -.114E+04 -.301E+00 -.546E+01   0.113E+04 0.296E+00 0.545E+01   0.311E+01 0.173E-02 -.832E-03   -.117E-01 0.178E-02 0.671E-02
   -.307E+01 -.114E+04 -.811E+01   0.306E+01 0.114E+04 0.810E+01   0.555E-02 0.310E+01 0.119E-01   -.184E-02 -.322E-02 -.607E-02
   -.602E+03 0.590E+03 0.803E+03   0.599E+03 -.588E+03 -.800E+03   0.156E+01 -.156E+01 -.222E+01   0.537E-02 0.755E-03 0.788E-03
   -.580E+03 0.579E+03 -.815E+03   0.578E+03 -.577E+03 0.812E+03   0.156E+01 -.155E+01 0.221E+01   -.116E-03 0.395E-02 -.717E-02
   0.593E+03 -.641E+03 0.777E+03   -.591E+03 0.638E+03 -.773E+03   -.152E+01 0.149E+01 -.228E+01   0.626E-02 0.202E-02 0.515E-02
   0.578E+03 -.580E+03 -.817E+03   -.576E+03 0.578E+03 0.814E+03   -.155E+01 0.156E+01 0.221E+01   0.332E-02 0.136E-02 -.285E-03
   0.602E+03 0.656E+03 0.759E+03   -.599E+03 -.654E+03 -.756E+03   -.149E+01 -.141E+01 -.225E+01   0.157E-02 -.272E-02 -.237E-02
   0.578E+03 0.580E+03 -.817E+03   -.576E+03 -.577E+03 0.814E+03   -.156E+01 -.156E+01 0.221E+01   0.436E-02 -.201E-02 -.261E-03
   -.598E+03 -.591E+03 0.804E+03   0.596E+03 0.589E+03 -.801E+03   0.156E+01 0.156E+01 -.221E+01   -.101E-02 -.173E-02 0.624E-02
   -.580E+03 -.579E+03 -.815E+03   0.578E+03 0.577E+03 0.812E+03   0.156E+01 0.155E+01 0.221E+01   0.438E-02 -.874E-02 -.567E-02
   0.393E+03 0.975E+03 -.425E+03   -.390E+03 -.972E+03 0.424E+03   -.149E+01 -.182E+01 0.202E+00   0.574E-02 0.305E-02 0.181E-02
   -.975E+03 -.395E+03 -.421E+03   0.972E+03 0.393E+03 0.420E+03   0.184E+01 0.150E+01 0.223E+00   -.430E-02 -.766E-02 -.733E-02
   -.345E+03 0.329E+03 0.427E+03   0.345E+03 -.329E+03 -.428E+03   -.367E+00 0.306E+00 0.554E+00   0.598E-02 0.102E-01 0.101E-01
   0.996E+03 0.406E+03 0.375E+03   -.993E+03 -.404E+03 -.374E+03   -.184E+01 -.165E+01 -.291E+00   0.468E-02 -.843E-03 -.127E-02
   -.404E+03 -.984E+03 0.405E+03   0.402E+03 0.981E+03 -.404E+03   0.152E+01 0.184E+01 -.192E+00   -.223E-02 -.732E-02 0.235E-02
   -.397E+03 0.974E+03 -.423E+03   0.395E+03 -.971E+03 0.422E+03   0.149E+01 -.184E+01 0.212E+00   0.493E-02 0.726E-02 0.524E-02
   0.974E+03 -.396E+03 -.427E+03   -.971E+03 0.394E+03 0.426E+03   -.182E+01 0.148E+01 0.189E+00   0.231E-02 0.166E-02 -.178E-03
   -.984E+03 0.396E+03 0.407E+03   0.981E+03 -.394E+03 -.407E+03   0.183E+01 -.150E+01 -.219E+00   0.463E-02 0.874E-02 0.130E-01
   0.390E+03 -.991E+03 0.399E+03   -.388E+03 0.989E+03 -.398E+03   -.150E+01 0.183E+01 -.247E+00   0.161E-02 -.234E-02 0.349E-03
   0.311E+03 0.341E+03 0.390E+03   -.311E+03 -.342E+03 -.390E+03   0.364E+00 0.516E+00 0.219E+00   0.143E-02 0.224E-02 0.139E-02
   -.677E+01 0.646E+03 -.183E+02   0.675E+01 -.647E+03 0.183E+02   0.173E-01 0.710E+00 0.415E-01   0.334E-02 0.361E-03 0.935E-02
   -.618E+03 -.188E+01 0.953E+03   0.617E+03 0.188E+01 -.949E+03   0.395E+00 -.317E-02 -.242E+01   0.279E-02 0.823E-02 0.611E-02
   -.589E+03 -.209E+00 -.968E+03   0.588E+03 0.207E+00 0.964E+03   0.286E+00 0.297E-02 0.238E+01   0.436E-02 -.263E-02 -.130E-01
   0.730E+03 -.413E+02 0.737E+03   -.725E+03 0.405E+02 -.738E+03   -.341E+01 0.764E+00 0.200E+01   0.490E-02 0.426E-02 -.218E-02
   0.586E+03 -.292E+00 -.970E+03   -.586E+03 0.295E+00 0.966E+03   -.321E+00 -.203E-03 0.235E+01   0.265E-02 -.235E-02 -.626E-03
   0.763E+03 0.769E+03 -.207E+02   -.761E+03 -.767E+03 0.207E+02   -.118E+01 -.115E+01 0.533E-01   0.341E-02 -.400E-02 0.366E-02
   -.767E+03 -.765E+03 -.886E+01   0.765E+03 0.763E+03 0.889E+01   0.113E+01 0.114E+01 -.250E-01   0.390E-02 -.135E-01 0.115E-02
   -.768E+03 0.764E+03 -.967E+01   0.766E+03 -.762E+03 0.968E+01   0.113E+01 -.114E+01 -.144E-01   0.493E-02 0.921E-02 0.126E-01
   0.762E+03 -.770E+03 -.182E+02   -.760E+03 0.768E+03 0.182E+02   -.118E+01 0.115E+01 0.497E-01   0.642E-02 0.283E-02 -.519E-02
   -.127E+03 -.179E+02 0.978E+03   0.126E+03 0.176E+02 -.977E+03   0.639E+00 0.119E+00 -.611E+00   -.521E-03 0.893E-02 0.213E-02
   -.197E+01 -.273E+00 -.107E+04   0.191E+01 0.270E+00 0.107E+04   0.347E-01 0.362E-02 0.163E+01   0.972E-02 -.273E-02 -.573E-02
   0.974E+03 0.395E+03 -.427E+03   -.971E+03 -.393E+03 0.427E+03   -.182E+01 -.148E+01 0.192E+00   0.267E-02 -.431E-02 0.141E-02
   -.397E+03 -.974E+03 -.422E+03   0.395E+03 0.972E+03 0.422E+03   0.149E+01 0.184E+01 0.221E+00   0.447E-02 -.942E-02 -.317E-02
   -.325E+03 0.322E+03 -.462E+03   0.326E+03 -.323E+03 0.463E+03   -.376E+00 0.370E+00 -.514E+00   0.123E-01 0.216E-02 0.123E-02
   0.312E+03 -.346E+03 0.399E+03   -.312E+03 0.347E+03 -.400E+03   0.386E+00 -.508E+00 0.317E+00   0.680E-02 0.757E-02 0.255E-03
   0.319E+03 0.323E+03 -.466E+03   -.320E+03 -.323E+03 0.466E+03   0.356E+00 0.353E+00 -.542E+00   0.788E-02 -.257E-02 0.611E-03
   -.975E+03 0.394E+03 -.421E+03   0.972E+03 -.392E+03 0.421E+03   0.184E+01 -.150E+01 0.219E+00   -.503E-02 0.761E-02 -.324E-02
   0.393E+03 -.975E+03 -.424E+03   -.391E+03 0.973E+03 0.423E+03   -.150E+01 0.183E+01 0.203E+00   0.560E-03 -.216E-02 -.334E-02
   -.343E+03 -.332E+03 0.429E+03   0.343E+03 0.332E+03 -.430E+03   -.351E+00 -.294E+00 0.591E+00   0.454E-02 0.432E-02 0.833E-02
   0.642E+03 -.145E+01 -.282E+02   -.643E+03 0.144E+01 0.281E+02   0.735E+00 0.401E-02 0.892E-01   0.788E-02 0.287E-02 0.194E-02
   -.648E+03 -.624E+00 -.118E+02   0.649E+03 0.619E+00 0.118E+02   -.720E+00 0.107E-03 -.410E-03   0.803E-02 0.683E-02 0.108E-01
   -.272E+02 -.629E+03 0.941E+03   0.272E+02 0.628E+03 -.938E+03   -.259E-01 0.261E+00 -.238E+01   0.324E-04 -.118E-03 0.676E-02
   -.170E+01 -.588E+03 -.968E+03   0.168E+01 0.587E+03 0.965E+03   0.373E-02 0.300E+00 0.236E+01   0.538E-02 -.401E-02 -.552E-03
   -.888E+01 -.125E+01 -.242E+02   0.885E+01 0.125E+01 0.242E+02   0.544E-02 0.607E-03 0.193E-01   0.118E-01 0.648E-02 0.487E-02
   0.319E+03 -.324E+03 -.465E+03   -.320E+03 0.324E+03 0.466E+03   0.355E+00 -.356E+00 -.540E+00   0.874E-02 0.494E-03 -.314E-02
   -.325E+03 -.323E+03 -.462E+03   0.326E+03 0.323E+03 0.463E+03   -.375E+00 -.372E+00 -.506E+00   0.129E-01 -.728E-02 -.594E-02
   -.602E+01 -.647E+03 -.163E+02   0.600E+01 0.648E+03 0.162E+02   0.120E-01 -.714E+00 0.257E-01   0.491E-02 -.466E-02 -.573E-02
   -.407E+01 0.207E+02 0.289E+03   0.123E+02 -.193E+02 -.267E+03   -.657E+01 -.671E+00 -.153E+02   0.296E-03 0.114E-02 0.519E-03
   0.226E+03 0.381E+02 0.821E+03   -.248E+03 -.412E+02 -.883E+03   0.207E+02 0.258E+01 0.556E+02   0.497E-03 0.974E-03 0.719E-03
 -----------------------------------------------------------------------------------------------
   -.120E+02 -.303E+01 -.454E+02   0.313E-12 -.711E-13 -.682E-12   0.118E+02 0.300E+01 0.453E+02   0.182E+00 0.250E-01 0.650E-01
 
 
 POSITION                                       TOTAL-FORCE (eV/Angst)
 -----------------------------------------------------------------------------------
     13.37281      9.84801     12.50759         0.708062      1.095253      0.311334
     20.15199     16.62719     12.50759        -1.113916     -0.695478      0.288588
     16.62719      9.84801     12.50759        -0.709050      1.112045      0.277509
      9.84801     16.62719     12.50759         1.054672     -0.688692      0.341281
     15.00000     11.47521     10.20639         0.050858      0.372503      1.307592
     15.00000     11.47521     19.79360        -0.002466      0.409363     -1.278765
     15.00000      8.28283     15.00000        -0.008182      1.506981     -0.005839
      8.28283     15.00000     15.00000         1.509791     -0.008975     -0.039948
     21.71717     15.00000     15.00000        -1.511751     -0.001353     -0.000594
     15.00000     21.71717     15.00000        -0.007297     -1.508596     -0.003676
     18.35858     11.64142     10.25025        -0.756444      0.753104      1.073374
     18.35858     11.64142     19.74975        -0.754720      0.748803     -1.075238
     11.64142     18.35858     10.25025         0.722645     -0.693342      1.064338
     11.64142     18.35858     19.74975         0.752584     -0.755095     -1.072303
     11.64142     11.64142     10.25025         0.716292      0.692411      1.051111
     11.64142     11.64142     19.74975         0.753699      0.755559     -1.072004
     18.35858     18.35858     10.25025        -0.757170     -0.753807      1.072684
     18.35858     18.35858     19.74975        -0.753671     -0.747712     -1.075747
     13.37281      9.84801     17.49241         0.700927      1.112155     -0.292516
     20.15199     16.62719     17.49241        -1.106764     -0.698664     -0.291623
     16.73751     13.26249     12.54279         0.139542     -0.125011     -0.137656
      9.84801     13.37281     12.50759         1.031831      0.689513      0.382444
     16.62719     20.15199     12.50759        -0.705393     -1.111788      0.281155
     16.62719      9.84801     17.49241        -0.698405      1.110466     -0.286464
      9.84801     16.62719     17.49241         1.118191     -0.699045     -0.286136
     20.15199     13.37281     12.50759        -1.110493      0.696850      0.289315
     13.37281     20.15199     12.50759         0.702351     -1.102569      0.301649
     13.26249     13.26249     12.54279        -0.101301     -0.161553     -0.055306
     15.00000     11.52498     15.00000        -0.000180     -0.222703      0.005893
     18.52479     15.00000     10.20639        -0.419080      0.003475      1.287938
     18.52479     15.00000     19.79360        -0.399992     -0.001954     -1.281420
     11.47521     15.00000     10.20640         0.853145     -0.037051      1.500794
     11.47521     15.00000     19.79360         0.414348      0.000151     -1.278579
     11.49535     11.49535     15.00000         0.836644      0.830673     -0.003385
     18.50465     18.50465     15.00000        -0.817010     -0.825185      0.014548
     18.50465     11.49535     15.00000        -0.820005      0.828590      0.010074
     11.49535     18.50465     15.00000         0.836130     -0.828620     -0.004376
     15.00000     15.00000     10.04368        -0.933092     -0.171369      0.462943
     15.00000     15.00000     19.95633        -0.016506     -0.001717     -1.182932
      9.84801     13.37281     17.49241         1.117072      0.698979     -0.290244
     16.62719     20.15199     17.49241        -0.697974     -1.108906     -0.290717
     16.73751     13.26249     17.45721         0.113280     -0.115597      0.149267
     13.26249     16.73751     12.54279        -0.110640      0.165189     -0.082258
     13.26249     13.26249     17.45721        -0.111965     -0.115588      0.155942
     20.15199     13.37281     17.49241        -1.106246      0.699099     -0.289706
     13.37281     20.15199     17.49241         0.701488     -1.110167     -0.291303
     16.73751     16.73751     12.54279         0.126803      0.115773     -0.148563
     11.52498     15.00000     15.00000        -0.224680     -0.000020     -0.005817
     18.47502     15.00000     15.00000         0.212642      0.002655     -0.001072
     15.00000     18.52480     10.20639         0.037624     -0.376214      1.305450
     15.00000     18.52480     19.79360        -0.003982     -0.408087     -1.279103
     15.00000     15.00000     15.00000        -0.005277     -0.002283      0.003080
     13.26249     16.73751     17.45721        -0.111241      0.115320      0.157605
     16.73751     16.73751     17.45721         0.113453      0.116475      0.147919
     15.00000     18.47502     15.00000         0.004847      0.224520      0.009069
     12.76843     14.68704      8.77482         1.661896      0.708381      6.130156
     12.38822     14.63371      7.71417        -1.115924     -0.487150     -5.979762
 -----------------------------------------------------------------------------------
    total drift:                               -0.000724     -0.006173     -0.004655


--------------------------------------------------------------------------------------------------------



  FREE ENERGIE OF THE ION-ELECTRON SYSTEM (eV)
  ---------------------------------------------------
  free  energy   TOTEN  =      -174.97848847 eV

  energy  without entropy=     -174.94187045  energy(sigma->0) =     -174.96933396
 


--------------------------------------------------------------------------------------------------------


    POTLOK:  cpu time   14.3861: real time   14.3862


--------------------------------------------------------------------------------------------------------


     LOOP+:  cpu time18586.8836: real time18587.7303
    4ORBIT:  cpu time    0.0000: real time    0.0000

 total amount of memory used by VASP MPI-rank0  5486942. kBytes
=======================================================================

   base      :      30000. kBytes
   nonlr-proj:      17127. kBytes
   fftplans  :     924480. kBytes
   grid      :    1872000. kBytes
   one-center:        886. kBytes
   wavefun   :    2642449. kBytes
 
  
  
 General timing and accounting informations for this job:
 ========================================================
  
                  Total CPU time used (sec):    18662.762
                            User time (sec):    17605.378
                          System time (sec):     1057.384
                         Elapsed time (sec):    18663.701
  
                   Maximum memory used (kb):     7178528.
                   Average memory used (kb):           0.
  
                          Minor page faults:    827619678
                          Major page faults:            0
                 Voluntary context switches:          573
