 vasp.5.4.4.18Apr17-6-g9f103f2a35 (build Sep 03 2018 23:53:05) complex          
  
 executed on             LinuxIFC date 2021.11.27  16:43:17
 running on    1 total cores
 distrk:  each k-point on    1 cores,    1 groups
 distr:  one band on NCORES_PER_BAND=   1 cores,    1 groups


--------------------------------------------------------------------------------------------------------


 INCAR:
 POTCAR:    PAW_PBE Pd 04Jan2005                  
 POTCAR:    PAW_PBE C 08Apr2002                   
 POTCAR:    PAW_PBE O 08Apr2002                   
 POTCAR:    PAW_PBE Pd 04Jan2005                  
   VRHFIN =Pd : s1 d9                                                           
   LEXCH  = PE                                                                  
   EATOM  =   809.7530 eV,   59.5152 Ry                                         
                                                                                
   TITEL  = PAW_PBE Pd 04Jan2005                                                
   LULTRA =        F    use ultrasoft PP ?                                      
   IUNSCR =        1    unscreen: 0-lin 1-nonlin 2-no                           
   RPACOR =    2.000    partial core radius                                     
   POMASS =  106.420; ZVAL   =   10.000    mass and valenz                      
   RCORE  =    2.600    outmost cutoff radius                                   
   RWIGS  =    2.710; RWIGS  =    1.434    wigner-seitz radius (au A)           
   ENMAX  =  250.925; ENMIN  =  188.194 eV                                      
   ICORE  =        3    local potential                                         
   LCOR   =        T    correct aug charges                                     
   LPAW   =        T    paw PP                                                  
   EAUG   =  416.230                                                            
   DEXC   =    0.000                                                            
   RMAX   =    2.653    core radius for proj-oper                               
   RAUG   =    1.300    factor for augmentation sphere                          
   RDEP   =    2.734    radius for radial grids                                 
   RDEPT  =    2.103    core radius for aug-charge                              
                                                                                
   Atomic configuration                                                         
   12 entries                                                                   
     n  l   j            E        occ.                                          
     1  0  0.50    -24164.6631   2.0000                                         
     2  0  0.50     -3530.9218   2.0000                                         
     2  1  1.50     -3165.6822   6.0000                                         
     3  0  0.50      -639.4577   2.0000                                         
     3  1  1.50      -519.4532   6.0000                                         
     3  2  2.50      -328.9757  10.0000                                         
     4  0  0.50       -88.7014   2.0000                                         
     4  1  1.50       -54.4540   6.0000                                         
     4  2  2.50        -6.6878   9.0000                                         
     5  0  0.50        -4.3543   1.0000                                         
     5  1  0.50        -1.3606   0.0000                                         
     4  3  2.50        -1.3606   0.0000                                         
   Description                                                                  
     l       E           TYP  RCUT    TYP  RCUT                                 
     2     -6.6878251     23  2.400                                             
     2     -8.0484077     23  2.400                                             
     0     -4.3542939     23  2.400                                             
     0      4.3406793     23  2.400                                             
     1     -4.0817478     23  2.600                                             
     1     15.8380318     23  2.600                                             
     3     -4.0817478     23  2.400                                             
  local pseudopotential read in
  partial core-charges read in
  partial kinetic energy density read in
  atomic valenz-charges read in
  non local Contribution for L=           2  read in
    real space projection operators read in
  non local Contribution for L=           2  read in
    real space projection operators read in
  non local Contribution for L=           0  read in
    real space projection operators read in
  non local Contribution for L=           0  read in
    real space projection operators read in
  non local Contribution for L=           1  read in
    real space projection operators read in
  non local Contribution for L=           1  read in
    real space projection operators read in
    PAW grid and wavefunctions read in
 
   number of l-projection  operators is LMAX  =           6
   number of lm-projection operators is LMMAX =          18
 
 POTCAR:    PAW_PBE C 08Apr2002                   
   VRHFIN =C: s2p2                                                              
   LEXCH  = PE                                                                  
   EATOM  =   147.1560 eV,   10.8157 Ry                                         
                                                                                
   TITEL  = PAW_PBE C 08Apr2002                                                 
   LULTRA =        F    use ultrasoft PP ?                                      
   IUNSCR =        1    unscreen: 0-lin 1-nonlin 2-no                           
   RPACOR =    1.200    partial core radius                                     
   POMASS =   12.011; ZVAL   =    4.000    mass and valenz                      
   RCORE  =    1.500    outmost cutoff radius                                   
   RWIGS  =    1.630; RWIGS  =    0.863    wigner-seitz radius (au A)           
   ENMAX  =  400.000; ENMIN  =  300.000 eV                                      
   ICORE  =        2    local potential                                         
   LCOR   =        T    correct aug charges                                     
   LPAW   =        T    paw PP                                                  
   EAUG   =  644.873                                                            
   DEXC   =    0.000                                                            
   RMAX   =    1.529    core radius for proj-oper                               
   RAUG   =    1.300    factor for augmentation sphere                          
   RDEP   =    1.501    radius for radial grids                                 
   RDEPT  =    1.300    core radius for aug-charge                              
                                                                                
   Atomic configuration                                                         
    4 entries                                                                   
     n  l   j            E        occ.                                          
     1  0  0.50      -273.3789   2.0000                                         
     2  0  0.50       -13.7508   2.0000                                         
     2  1  0.50        -5.2854   2.0000                                         
     3  2  1.50        -5.4423   0.0000                                         
   Description                                                                  
     l       E           TYP  RCUT    TYP  RCUT                                 
     0    -13.7508458     23  1.200                                             
     0     -8.2022199     23  1.200                                             
     1     -5.2854383     23  1.500                                             
     1     34.0145650     23  1.500                                             
     2     -5.4423304      7  1.500                                             
  local pseudopotential read in
  partial core-charges read in
  partial kinetic energy density read in
  atomic valenz-charges read in
  non local Contribution for L=           0  read in
    real space projection operators read in
  non local Contribution for L=           0  read in
    real space projection operators read in
  non local Contribution for L=           1  read in
    real space projection operators read in
  non local Contribution for L=           1  read in
    real space projection operators read in
    PAW grid and wavefunctions read in
 
   number of l-projection  operators is LMAX  =           4
   number of lm-projection operators is LMMAX =           8
 
 POTCAR:    PAW_PBE O 08Apr2002                   
   VRHFIN =O: s2p4                                                              
   LEXCH  = PE                                                                  
   EATOM  =   432.3788 eV,   31.7789 Ry                                         
                                                                                
   TITEL  = PAW_PBE O 08Apr2002                                                 
   LULTRA =        F    use ultrasoft PP ?                                      
   IUNSCR =        1    unscreen: 0-lin 1-nonlin 2-no                           
   RPACOR =    1.200    partial core radius                                     
   POMASS =   16.000; ZVAL   =    6.000    mass and valenz                      
   RCORE  =    1.520    outmost cutoff radius                                   
   RWIGS  =    1.550; RWIGS  =    0.820    wigner-seitz radius (au A)           
   ENMAX  =  400.000; ENMIN  =  300.000 eV                                      
   ICORE  =        2    local potential                                         
   LCOR   =        T    correct aug charges                                     
   LPAW   =        T    paw PP                                                  
   EAUG   =  605.392                                                            
   DEXC   =    0.000                                                            
   RMAX   =    1.553    core radius for proj-oper                               
   RAUG   =    1.300    factor for augmentation sphere                          
   RDEP   =    1.550    radius for radial grids                                 
   RDEPT  =    1.329    core radius for aug-charge                              
                                                                                
   Atomic configuration                                                         
    4 entries                                                                   
     n  l   j            E        occ.                                          
     1  0  0.50      -514.6923   2.0000                                         
     2  0  0.50       -23.9615   2.0000                                         
     2  1  0.50        -9.0305   4.0000                                         
     3  2  1.50        -9.5241   0.0000                                         
   Description                                                                  
     l       E           TYP  RCUT    TYP  RCUT                                 
     0    -23.9615318     23  1.200                                             
     0     -9.5240782     23  1.200                                             
     1     -9.0304911     23  1.520                                             
     1      8.1634956     23  1.520                                             
     2     -9.5240782      7  1.500                                             
  local pseudopotential read in
  partial core-charges read in
  partial kinetic energy density read in
  kinetic energy density of atom read in
  atomic valenz-charges read in
  non local Contribution for L=           0  read in
    real space projection operators read in
  non local Contribution for L=           0  read in
    real space projection operators read in
  non local Contribution for L=           1  read in
    real space projection operators read in
  non local Contribution for L=           1  read in
    real space projection operators read in
    PAW grid and wavefunctions read in
 
   number of l-projection  operators is LMAX  =           4
   number of lm-projection operators is LMMAX =           8
 
 Optimization of the real space projectors (new method)

 maximal supplied QI-value         = 14.36
 optimisation between [QCUT,QGAM] = [ 10.20, 20.39] = [ 29.12,116.47] Ry 
 Optimized for a Real-space Cutoff    1.51 Angstroem

   l    n(q)    QCUT    max X(q) W(low)/X(q) W(high)/X(q)  e(spline) 
   2      8    10.197    59.108    0.26E-03    0.14E-03    0.96E-07
   2      8    10.197    58.101    0.27E-03    0.14E-03    0.98E-07
   0      9    10.197   102.235    0.54E-04    0.60E-05    0.72E-07
   0      9    10.197    58.388    0.52E-04    0.60E-05    0.68E-07
   1      9    10.197    22.191    0.18E-03    0.25E-03    0.79E-07
   1      9    10.197    15.590    0.15E-03    0.21E-03    0.69E-07
 Optimization of the real space projectors (new method)

 maximal supplied QI-value         = 25.13
 optimisation between [QCUT,QGAM] = [ 10.05, 20.36] = [ 28.30,116.06] Ry 
 Optimized for a Real-space Cutoff    1.30 Angstroem

   l    n(q)    QCUT    max X(q) W(low)/X(q) W(high)/X(q)  e(spline) 
   0      8    10.053   115.676    0.49E-03    0.72E-03    0.18E-06
   0      8    10.053    87.132    0.49E-03    0.71E-03    0.18E-06
   1      7    10.053     4.429    0.32E-03    0.31E-03    0.18E-06
   1      7    10.053     2.733    0.23E-03    0.19E-03    0.20E-06
 Optimization of the real space projectors (new method)

 maximal supplied QI-value         = 24.76
 optimisation between [QCUT,QGAM] = [ 10.15, 20.30] = [ 28.85,115.39] Ry 
 Optimized for a Real-space Cutoff    1.38 Angstroem

   l    n(q)    QCUT    max X(q) W(low)/X(q) W(high)/X(q)  e(spline) 
   0      8    10.150    20.381    0.22E-03    0.32E-03    0.29E-06
   0      8    10.150    15.268    0.23E-03    0.35E-03    0.30E-06
   1      8    10.150     5.964    0.46E-03    0.53E-03    0.21E-06
   1      8    10.150     5.382    0.38E-03    0.45E-03    0.19E-06

 ----------------------------------------------------------------------------- 
|                                                                             |
|  ADVICE TO THIS USER RUNNING 'VASP/VAMP'   (HEAR YOUR MASTER'S VOICE ...):  |
|                                                                             |
|      You enforced a specific xc-type in the INCAR file,                     |
|      a different type was found on the POTCAR file                          |
|          I HOPE YOU KNOW, WHAT YOU ARE  DOING                               |
|                                                                             |
 ----------------------------------------------------------------------------- 

  PAW_PBE Pd 04Jan2005                  :
 energy of atom  1       EATOM= -809.7530
 kinetic energy error for atom=    0.0091 (will be added to EATOM!!)
  PAW_PBE C 08Apr2002                   :
 energy of atom  2       EATOM= -147.1560
 kinetic energy error for atom=    0.0288 (will be added to EATOM!!)
  PAW_PBE O 08Apr2002                   :
 energy of atom  3       EATOM= -432.3788
 kinetic energy error for atom=    0.1156 (will be added to EATOM!!)
 
 
 POSCAR: Pd55PES                                 
  positions in cartesian coordinates
  No initial velocities read in
 exchange correlation table for  LEXCH =        9
   RHO(1)=    0.500       N(1)  =     2000
   RHO(2)=  100.500       N(2)  =     4000
 


--------------------------------------------------------------------------------------------------------


 ion  position               nearest neighbor table
   1  0.446  0.328  0.417-   3 3.25   5 3.25   7 3.36  15 3.36  29 3.42  28 3.42
   2  0.672  0.554  0.417-  26 3.25  30 3.25  17 3.36   9 3.36  47 3.42  49 3.42
   3  0.554  0.328  0.417-   1 3.25   5 3.25   7 3.36  11 3.36  29 3.42  21 3.42
   4  0.328  0.554  0.417-  32 3.25  22 3.25  13 3.36   8 3.36  43 3.42  48 3.42
   5  0.500  0.383  0.340-   1 3.25   3 3.25  11 3.36  15 3.36  21 3.42  28 3.42
   6  0.500  0.383  0.660-  24 3.25  19 3.25  16 3.36  12 3.36  42 3.42  44 3.42
   7  0.500  0.276  0.500-  29 3.24   3 3.36   1 3.36  19 3.36  24 3.36
   8  0.276  0.500  0.500-  48 3.24  22 3.36  40 3.36   4 3.36  25 3.36
   9  0.724  0.500  0.500-  49 3.24  26 3.36  45 3.36   2 3.36  20 3.36
  10  0.500  0.724  0.500-  55 3.24  27 3.36  23 3.36  46 3.36  41 3.36
  11  0.612  0.388  0.342-  21 3.24   5 3.36   3 3.36  30 3.36  26 3.36
  12  0.612  0.388  0.658-  42 3.24  24 3.36  45 3.36   6 3.36  31 3.36
  13  0.388  0.612  0.342-  43 3.24  32 3.36  50 3.36   4 3.36  27 3.36
  14  0.388  0.612  0.658-  53 3.24  25 3.36  33 3.36  51 3.36  46 3.36
  15  0.388  0.388  0.342-  28 3.24   5 3.36   1 3.36  32 3.36  22 3.36
  16  0.388  0.388  0.658-  44 3.24  19 3.36  40 3.36   6 3.36  33 3.36
  17  0.612  0.612  0.342-  47 3.24  30 3.36  50 3.36   2 3.36  23 3.36
  18  0.612  0.612  0.658-  54 3.24  31 3.36  20 3.36  51 3.36  41 3.36
  19  0.446  0.328  0.583-   6 3.25  24 3.25  16 3.36   7 3.36  44 3.42  29 3.42
  20  0.672  0.554  0.583-  31 3.25  45 3.25  18 3.36   9 3.36  54 3.42  49 3.42
  21  0.558  0.442  0.418-  11 3.24   5 3.42   3 3.42  30 3.42  26 3.42
  22  0.328  0.446  0.417-   4 3.25  32 3.25   8 3.36  15 3.36  48 3.42  28 3.42
  23  0.554  0.672  0.417-  27 3.25  50 3.25  10 3.36  17 3.36  55 3.42  47 3.42
  24  0.554  0.328  0.583-   6 3.25  19 3.25  12 3.36   7 3.36  42 3.42  29 3.42
  25  0.328  0.554  0.583-  33 3.25  40 3.25  14 3.36   8 3.36  53 3.42  48 3.42
  26  0.672  0.446  0.417-   2 3.25  30 3.25   9 3.36  11 3.36  49 3.42  21 3.42
  27  0.446  0.672  0.417-  23 3.25  50 3.25  10 3.36  13 3.36  55 3.42  43 3.42
  28  0.442  0.442  0.418-  15 3.24   5 3.42   1 3.42  32 3.42  22 3.42
  29  0.500  0.384  0.500-   7 3.24   3 3.42   1 3.42  24 3.42  19 3.42
  30  0.617  0.500  0.340-   2 3.25  26 3.25  17 3.36  11 3.36  47 3.42  21 3.42
  31  0.617  0.500  0.660-  20 3.25  45 3.25  18 3.36  12 3.36  54 3.42  42 3.42
  32  0.383  0.500  0.340-   4 3.25  22 3.25  13 3.36  15 3.36  43 3.42  28 3.42
  33  0.383  0.500  0.660-  25 3.25  40 3.25  14 3.36  16 3.36  53 3.42  44 3.42
  34  0.383  0.383  0.500-
  35  0.617  0.617  0.500-
  36  0.617  0.383  0.500-
  37  0.383  0.617  0.500-
  38  0.500  0.500  0.335-
  39  0.500  0.500  0.665-  56 1.79  57 2.26
  40  0.328  0.446  0.583-  33 3.25  25 3.25  16 3.36   8 3.36  44 3.42  48 3.42
  41  0.554  0.672  0.583-  46 3.25  51 3.25  10 3.36  18 3.36  54 3.42  55 3.42
  42  0.558  0.442  0.582-  12 3.24   6 3.42  24 3.42  31 3.42  45 3.42
  43  0.442  0.558  0.418-  13 3.24   4 3.42  32 3.42  27 3.42  50 3.42
  44  0.442  0.442  0.582-  16 3.24   6 3.42  19 3.42  33 3.42  40 3.42
  45  0.672  0.446  0.583-  20 3.25  31 3.25   9 3.36  12 3.36  49 3.42  42 3.42
  46  0.446  0.672  0.583-  41 3.25  51 3.25  10 3.36  14 3.36  53 3.42  55 3.42
  47  0.558  0.558  0.418-  17 3.24   2 3.42  30 3.42  23 3.42  50 3.42
  48  0.384  0.500  0.500-   8 3.24   4 3.42  22 3.42  25 3.42  40 3.42
  49  0.616  0.500  0.500-   9 3.24   2 3.42  26 3.42  20 3.42  45 3.42
  50  0.500  0.617  0.340-  27 3.25  23 3.25  13 3.36  17 3.36  43 3.42  47 3.42
  51  0.500  0.617  0.660-  57 1.94  56 2.05  41 3.25  46 3.25  14 3.36  18 3.36  53 3.42  54 3.42

  52  0.500  0.500  0.500-
  53  0.442  0.558  0.582-  14 3.24  25 3.42  33 3.42  51 3.42  46 3.42
  54  0.558  0.558  0.582-  56 2.36  18 3.24  31 3.42  20 3.42  51 3.42  41 3.42
  55  0.500  0.616  0.500-  10 3.24  23 3.42  27 3.42  41 3.42  46 3.42
  56  0.523  0.554  0.652-  57 1.13  39 1.79  51 2.05  54 2.36
  57  0.528  0.566  0.687-  56 1.13  51 1.94  39 2.26
 
  LATTYP: Found a simple cubic cell.
 ALAT       =    30.0000000000
  
  Lattice vectors:
  
 A1 = (  30.0000000000,   0.0000000000,   0.0000000000)
 A2 = (   0.0000000000,  30.0000000000,   0.0000000000)
 A3 = (   0.0000000000,   0.0000000000,  30.0000000000)


Analysis of symmetry for initial positions (statically):
=====================================================================
 Subroutine PRICEL returns:
 Original cell was already a primitive cell.
 

 Routine SETGRP: Setting up the symmetry group for a 
 simple cubic supercell.


 Subroutine GETGRP returns: Found  1 space group operations
 (whereof  1 operations were pure point group operations)
 out of a pool of 48 trial point group operations.


The static configuration has the point symmetry C_1 .


Analysis of symmetry for dynamics (positions and initial velocities):
=====================================================================
 Subroutine PRICEL returns:
 Original cell was already a primitive cell.
 

 Routine SETGRP: Setting up the symmetry group for a 
 simple cubic supercell.


 Subroutine GETGRP returns: Found  1 space group operations
 (whereof  1 operations were pure point group operations)
 out of a pool of 48 trial point group operations.


The dynamic configuration has the point symmetry C_1 .


Analysis of constrained symmetry for selective dynamics:
=====================================================================
 Subroutine PRICEL returns:
 Original cell was already a primitive cell.
 

 Routine SETGRP: Setting up the symmetry group for a 
 simple cubic supercell.


 Subroutine GETGRP returns: Found  1 space group operations
 (whereof  1 operations were pure point group operations)
 out of a pool of 48 trial point group operations.


The constrained configuration has the point symmetry C_1 .


 Subroutine INISYM returns: Found  1 space group operations
 (whereof  1 operations are pure point group operations),
 and found     1 'primitive' translations

 
 
 KPOINTS: K-points                                

Automatic generation of k-mesh.
Space group operators:
 irot       det(A)        alpha          n_x          n_y          n_z        tau_x        tau_y        tau_z
    1     1.000000     0.000000     1.000000     0.000000     0.000000     0.000000     0.000000     0.000000
 
 Subroutine IBZKPT returns following result:
 ===========================================
 
 Found      1 irreducible k-points:
 
 Following reciprocal coordinates:
            Coordinates               Weight
  0.000000  0.000000  0.000000      1.000000
 
 Following cartesian coordinates:
            Coordinates               Weight
  0.000000  0.000000  0.000000      1.000000
 


--------------------------------------------------------------------------------------------------------




 Dimension of arrays:
   k-points           NKPTS =      1   k-points in BZ     NKDIM =      1   number of bands    NBANDS=    336
   number of dos      NEDOS =    301   number of ions     NIONS =     57
   non local maximal  LDIM  =      6   non local SUM 2l+1 LMDIM =     18
   total plane-waves  NPLWV = ******
   max r-space proj   IRMAX =   1847   max aug-charges    IRDMAX=   6262
   dimension x,y,z NGX =   150 NGY =  150 NGZ =  150
   dimension x,y,z NGXF=   300 NGYF=  300 NGZF=  300
   support grid    NGXF=   300 NGYF=  300 NGZF=  300
   ions per type =              55   1   1
   NGX,Y,Z   is equivalent  to a cutoff of   8.31,  8.31,  8.31 a.u.
   NGXF,Y,Z  is equivalent  to a cutoff of  16.62, 16.62, 16.62 a.u.

 SYSTEM =  6_Pd100_top_free_z(O)                   
 POSCAR =  Pd55PES                                 

 Startparameter for this run:
   NWRITE =      2    write-flag & timer
   PREC   = normal    normal or accurate (medium, high low for compatibility)
   ISTART =      0    job   : 0-new  1-cont  2-samecut
   ICHARG =      2    charge: 1-file 2-atom 10-const
   ISPIN  =      1    spin polarized calculation?
   LNONCOLLINEAR =      F non collinear calculations
   LSORBIT =      F    spin-orbit coupling
   INIWAV =      1    electr: 0-lowe 1-rand  2-diag
   LASPH  =      F    aspherical Exc in radial PAW
   METAGGA=      F    non-selfconsistent MetaGGA calc.

 Electronic Relaxation 1
   ENCUT  =  400.0 eV  29.40 Ry    5.42 a.u.  48.92 48.92 48.92*2*pi/ulx,y,z
   ENINI  =  400.0     initial cutoff
   ENAUG  =  644.9 eV  augmentation charge cutoff
   NELM   =    100;   NELMIN=  6; NELMDL= -5     # of ELM steps 
   EDIFF  = 0.1E-03   stopping-criterion for ELM
   LREAL  =      T    real-space projection
   NLSPLINE    = F    spline interpolate recip. space projectors
   LCOMPAT=      F    compatible to vasp.4.4
   GGA_COMPAT  = T    GGA compatible to vasp.4.4-vasp.4.6
   LMAXPAW     = -100 max onsite density
   LMAXMIX     =    2 max onsite mixed and CHGCAR
   VOSKOWN=      0    Vosko Wilk Nusair interpolation
   ROPT   =   -0.00050  -0.00050  -0.00050
 Ionic relaxation
   EDIFFG = -.5E-01   stopping-criterion for IOM
   NSW    =      0    number of steps for IOM
   NBLOCK =      1;   KBLOCK =      1    inner block; outer block 
   IBRION =     -1    ionic relax: 0-MD 1-quasi-New 2-CG
   NFREE  =      1    steps in history (QN), initial steepest desc. (CG)
   ISIF   =      2    stress and relaxation
   IWAVPR =     10    prediction:  0-non 1-charg 2-wave 3-comb
   ISYM   =      2    0-nonsym 1-usesym 2-fastsym
   LCORR  =      T    Harris-Foulkes like correction to forces

   POTIM  = 0.5000    time-step for ionic-motion
   TEIN   =    0.0    initial temperature
   TEBEG  =    0.0;   TEEND  =   0.0 temperature during run
   SMASS  =  -3.00    Nose mass-parameter (am)
   estimated Nose-frequenzy (Omega)   =  0.10E-29 period in steps =****** mass=  -0.206E-25a.u.
   SCALEE = 1.0000    scale energy and forces
   NPACO  =    256;   APACO  = 16.0  distance and # of slots for P.C.
   PSTRESS=    0.0 pullay stress

  Mass of Ions in am
   POMASS = 106.42 12.01 16.00
  Ionic Valenz
   ZVAL   =  10.00  4.00  6.00
  Atomic Wigner-Seitz radii
   RWIGS  =  -1.00 -1.00 -1.00
  virtual crystal weights 
   VCA    =   1.00  1.00  1.00
   NELECT =     560.0000    total number of electrons
   NUPDOWN=      -1.0000    fix difference up-down

 DOS related values:
   EMIN   =  10.00;   EMAX   =-10.00  energy-range for DOS
   EFERMI =   0.00
   ISMEAR =     2;   SIGMA  =   0.20  broadening in eV -4-tet -1-fermi 0-gaus

 Electronic relaxation 2 (details)
   IALGO  =     68    algorithm
   LDIAG  =      T    sub-space diagonalisation (order eigenvalues)
   LSUBROT=      F    optimize rotation matrix (better conditioning)
   TURBO    =      0    0=normal 1=particle mesh
   IRESTART =      0    0=no restart 2=restart with 2 vectors
   NREBOOT  =      0    no. of reboots
   NMIN     =      0    reboot dimension
   EREF     =   0.00    reference energy to select bands
   IMIX   =      4    mixing-type and parameters
     AMIX     =   0.40;   BMIX     =  1.00
     AMIX_MAG =   1.60;   BMIX_MAG =  1.00
     AMIN     =   0.10
     WC   =   100.;   INIMIX=   1;  MIXPRE=   1;  MAXMIX= -45

 Intra band minimization:
   WEIMIN = 0.0000     energy-eigenvalue tresh-hold
   EBREAK =  0.74E-07  absolut break condition
   DEPER  =   0.30     relativ break condition  

   TIME   =   0.40     timestep for ELM

  volume/ion in A,a.u.               =     473.68      3196.58
  Fermi-wavevector in a.u.,A,eV,Ry     =   0.449797  0.849992  2.752691  0.202317
  Thomas-Fermi vector in A             =   1.430086
 
 Write flags
   LWAVE        =      F    write WAVECAR
   LDOWNSAMPLE  =      F    k-point downsampling of WAVECAR
   LCHARG       =      F    write CHGCAR
   LVTOT        =      F    write LOCPOT, total local potential
   LVHAR        =      F    write LOCPOT, Hartree potential only
   LELF         =      F    write electronic localiz. function (ELF)
   LORBIT       =      0    0 simple, 1 ext, 2 COOP (PROOUT), +10 PAW based schemes


 Dipole corrections
   LMONO  =      F    monopole corrections only (constant potential shift)
   LDIPOL =      F    correct potential (dipole corrections)
   IDIPOL =      0    1-x, 2-y, 3-z, 4-all directions 
   EPSILON=  1.0000000 bulk dielectric constant

 Exchange correlation treatment:
   GGA     =    RP    GGA type
   LEXCH   =     9    internal setting for exchange type
   VOSKOWN=      0    Vosko Wilk Nusair interpolation
   LHFCALC =     F    Hartree Fock is set to
   LHFONE  =     F    Hartree Fock one center treatment
   AEXX    =    0.0000 exact exchange contribution

 Linear response parameters
   LEPSILON=     F    determine dielectric tensor
   LRPA    =     F    only Hartree local field effects (RPA)
   LNABLA  =     F    use nabla operator in PAW spheres
   LVEL    =     F    velocity operator in full k-point grid
   LINTERFAST=   F  fast interpolation
   KINTER  =     0    interpolate to denser k-point grid
   CSHIFT  =0.1000    complex shift for real part using Kramers Kronig
   OMEGAMAX=  -1.0    maximum frequency
   DEG_THRESHOLD= 0.2000000E-02 threshold for treating states as degnerate
   RTIME   =   -0.100 relaxation time in fs
  (WPLASMAI=    0.000 imaginary part of plasma frequency in eV, 0.658/RTIME)
   DFIELD  = 0.0000000 0.0000000 0.0000000 field for delta impulse in time
 
 Orbital magnetization related:
   ORBITALMAG=     F  switch on orbital magnetization
   LCHIMAG   =     F  perturbation theory with respect to B field
   DQ        =  0.001000  dq finite difference perturbation B field
   LLRAUG    =     F  two centre corrections for induced B field



--------------------------------------------------------------------------------------------------------


 Static calculation
 charge density and potential will be updated during run
 non-spin polarized calculation
 RMM-DIIS sequential band-by-band and
  variant of blocked Davidson during initial phase
 perform sub-space diagonalisation
    before iterative eigenvector-optimisation
 modified Broyden-mixing scheme, WC =      100.0
 initial mixing is a Kerker type mixing with AMIX =  0.4000 and BMIX =      1.0000
 Hartree-type preconditioning will be used
 using additional bands           56
 real space projection scheme for non local part
 use partial core corrections
 calculate Harris-corrections to forces 
   (improved forces if not selfconsistent)
 use gradient corrections 
 use of overlap-Matrix (Vanderbilt PP)
 Methfessel and Paxton  Order N= 2 SIGMA  =   0.20


--------------------------------------------------------------------------------------------------------


  energy-cutoff  :      400.00
  volume of cell :    27000.00
      direct lattice vectors                 reciprocal lattice vectors
    30.000000000  0.000000000  0.000000000     0.033333333  0.000000000  0.000000000
     0.000000000 30.000000000  0.000000000     0.000000000  0.033333333  0.000000000
     0.000000000  0.000000000 30.000000000     0.000000000  0.000000000  0.033333333

  length of vectors
    30.000000000 30.000000000 30.000000000     0.033333333  0.033333333  0.033333333


 
 k-points in units of 2pi/SCALE and weight: K-points                                
   0.00000000  0.00000000  0.00000000       1.000
 
 k-points in reciprocal lattice and weights: K-points                                
   0.00000000  0.00000000  0.00000000       1.000
 
 position of ions in fractional coordinates (direct lattice) 
   0.44576020  0.32826710  0.41691983
   0.67173288  0.55423978  0.41691983
   0.55423980  0.32826710  0.41691983
   0.32826712  0.55423978  0.41691983
   0.50000000  0.38250690  0.34021317
   0.50000000  0.38250690  0.65978680
   0.50000000  0.27609440  0.50000000
   0.27609443  0.49999998  0.50000000
   0.72390557  0.49999998  0.50000000
   0.50000000  0.72390555  0.50000000
   0.61195280  0.38804720  0.34167483
   0.61195280  0.38804720  0.65832513
   0.38804722  0.61195278  0.34167483
   0.38804722  0.61195278  0.65832513
   0.38804720  0.38804720  0.34167483
   0.38804720  0.38804720  0.65832513
   0.61195278  0.61195278  0.34167483
   0.61195278  0.61195278  0.65832513
   0.44576020  0.32826710  0.58308023
   0.67173288  0.55423978  0.58308023
   0.55791699  0.44208301  0.41809300
   0.32826705  0.44576024  0.41691983
   0.55423973  0.67173293  0.41691983
   0.55423980  0.32826710  0.58308023
   0.32826712  0.55423978  0.58308023
   0.67173295  0.44576024  0.41691983
   0.44576027  0.67173293  0.41691983
   0.44208301  0.44208301  0.41809300
   0.50000000  0.38416601  0.50000000
   0.61749315  0.50000005  0.34021317
   0.61749315  0.50000005  0.65978680
   0.38250685  0.50000005  0.34021317
   0.38250685  0.50000005  0.65978680
   0.38317830  0.38317830  0.50000000
   0.61682172  0.61682172  0.50000000
   0.61682170  0.38317830  0.50000000
   0.38317828  0.61682172  0.50000000
   0.50000000  0.50000000  0.33478917
   0.50000000  0.50000000  0.66521087
   0.32826705  0.44576024  0.58308023
   0.55423973  0.67173293  0.58308023
   0.55791699  0.44208301  0.58190703
   0.44208298  0.55791702  0.41809300
   0.44208301  0.44208301  0.58190703
   0.67173295  0.44576024  0.58308023
   0.44576027  0.67173293  0.58308023
   0.55791702  0.55791702  0.41809300
   0.38416599  0.50000002  0.50000000
   0.61583401  0.50000002  0.50000000
   0.50000000  0.61749319  0.34021317
   0.50000000  0.61749319  0.65978680
   0.50000000  0.50000000  0.50000000
   0.44208298  0.55791702  0.58190703
   0.55791702  0.55791702  0.58190703
   0.50000000  0.61583404  0.50000000
   0.52290973  0.55369563  0.65223623
   0.52819297  0.56607837  0.68734343
 
 position of ions in cartesian coordinates  (Angst):
  13.37280588  9.84801292 12.50759500
  20.15198637 16.62719342 12.50759500
  16.62719412  9.84801292 12.50759500
   9.84801363 16.62719342 12.50759500
  15.00000000 11.47520705 10.20639500
  15.00000000 11.47520705 19.79360400
  15.00000000  8.28283206 15.00000000
   8.28283277 14.99999929 15.00000000
  21.71716723 14.99999929 15.00000000
  15.00000000 21.71716652 14.99999999
  18.35858397 11.64141603 10.25024500
  18.35858397 11.64141603 19.74975399
  11.64141674 18.35858326 10.25024500
  11.64141674 18.35858326 19.74975400
  11.64141603 11.64141603 10.25024500
  11.64141603 11.64141603 19.74975400
  18.35858326 18.35858326 10.25024500
  18.35858326 18.35858326 19.74975400
  13.37280588  9.84801291 17.49240700
  20.15198638 16.62719341 17.49240700
  16.73750985 13.26249015 12.54279000
   9.84801151 13.37280729 12.50759500
  16.62719200 20.15198779 12.50759500
  16.62719412  9.84801292 17.49240700
   9.84801363 16.62719342 17.49240700
  20.15198849 13.37280729 12.50759500
  13.37280800 20.15198779 12.50759500
  13.26249015 13.26249015 12.54279000
  15.00000000 11.52498029 15.00000000
  18.52479437 15.00000140 10.20639500
  18.52479437 15.00000141 19.79360400
  11.47520562 15.00000141 10.20639501
  11.47520563 15.00000141 19.79360400
  11.49534898 11.49534898 15.00000000
  18.50465172 18.50465172 15.00000000
  18.50465102 11.49534898 15.00000000
  11.49534828 18.50465172 15.00000000
  15.00000000 15.00000000 10.04367500
  15.00000000 15.00000000 19.95632599
   9.84801151 13.37280729 17.49240700
  16.62719200 20.15198779 17.49240700
  16.73750985 13.26249015 17.45721100
  13.26248944 16.73751056 12.54279001
  13.26249015 13.26249015 17.45721100
  20.15198849 13.37280729 17.49240699
  13.37280800 20.15198779 17.49240700
  16.73751056 16.73751056 12.54279000
  11.52497959 15.00000071 15.00000000
  18.47502041 15.00000071 15.00000000
  14.99999999 18.52479579 10.20639500
  15.00000000 18.52479578 19.79360400
  15.00000000 15.00000000 15.00000000
  13.26248944 16.73751057 17.45721101
  16.73751056 16.73751057 17.45721100
  15.00000000 18.47502112 15.00000000
  15.68729200 16.61086900 19.56708700
  15.84578900 16.98235100 20.62030300
 


--------------------------------------------------------------------------------------------------------


 k-point  1 :   0.0000 0.0000 0.0000  plane waves:  490521

 maximum and minimum number of plane-waves per node :    490521   490521

 maximum number of plane-waves:    490521
 maximum index in each direction: 
   IXMAX=   48   IYMAX=   48   IZMAX=   48
   IXMIN=  -48   IYMIN=  -48   IZMIN=  -48


 serial   3D FFT for wavefunctions
 parallel 3D FFT for charge:
    minimum data exchange during FFTs selected (reduces bandwidth)


 total amount of memory used by VASP MPI-rank0  5486941. kBytes
=======================================================================

   base      :      30000. kBytes
   nonlr-proj:      17126. kBytes
   fftplans  :     924480. kBytes
   grid      :    1872000. kBytes
   one-center:        886. kBytes
   wavefun   :    2642449. kBytes
 
     INWAV:  cpu time    0.0001: real time    0.0004
 Broyden mixing: mesh for mixing (old mesh)
   NGX = 97   NGY = 97   NGZ = 97
  (NGX  =300   NGY  =300   NGZ  =300)
  gives a total of 912673 points

 initial charge density was supplied:
 charge density of overlapping atoms calculated
 number of electron     560.0000000 magnetization 
 keeping initial charge density in first step


--------------------------------------------------------------------------------------------------------


 Maximum index for non-local projection operator         1763
 Maximum index for augmentation-charges         5898 (set IRDMAX)


--------------------------------------------------------------------------------------------------------


 First call to EWALD:  gamma=   0.059
 Maximum number of real-space cells 3x 3x 3
 Maximum number of reciprocal cells 3x 3x 3

    FEWALD:  cpu time    0.0146: real time    0.0146


--------------------------------------- Iteration      1(   1)  ---------------------------------------


    POTLOK:  cpu time   14.4025: real time   14.4054
    SETDIJ:  cpu time    0.1212: real time    0.1212
     EDDAV:  cpu time  367.3847: real time  367.4526
       DOS:  cpu time    0.0012: real time    0.0012
    --------------------------------------------
      LOOP:  cpu time  381.9096: real time  381.9804

 eigenvalue-minimisations  :   688
 total energy-change (2. order) : 0.4409995E+04  (-0.1005854E+05)
 number of electron     560.0000000 magnetization 
 augmentation part      560.0000000 magnetization 

 Free energy of the ion-electron system (eV)
  ---------------------------------------------------
  alpha Z        PSCENC =        75.25431677
  Ewald energy   TEWEN  =    141082.23825414
  -Hartree energ DENC   =   -184419.96895654
  -exchange      EXHF   =         0.00000000
  -V(xc)+E(xc)   XCENC  =     -1700.34249865
  PAW double counting   =     44873.02882129   -41398.84523641
  entropy T*S    EENTRO =         0.01216604
  eigenvalues    EBANDS =       812.11288315
  atomic energy  EATOM  =     45086.50549395
  Solvation  Ediel_sol  =         0.00000000
  ---------------------------------------------------
  free energy    TOTEN  =      4409.99524375 eV

  energy without entropy =     4409.98307771  energy(sigma->0) =     4409.99220224


--------------------------------------------------------------------------------------------------------




--------------------------------------- Iteration      1(   2)  ---------------------------------------


     EDDAV:  cpu time  586.4287: real time  586.4419
       DOS:  cpu time    0.0012: real time    0.0012
    --------------------------------------------
      LOOP:  cpu time  586.4299: real time  586.4431

 eigenvalue-minimisations  :  1224
 total energy-change (2. order) :-0.2397190E+04  (-0.2159319E+04)
 number of electron     560.0000000 magnetization 
 augmentation part      560.0000000 magnetization 

 Free energy of the ion-electron system (eV)
  ---------------------------------------------------
  alpha Z        PSCENC =        75.25431677
  Ewald energy   TEWEN  =    141082.23825414
  -Hartree energ DENC   =   -184419.96895654
  -exchange      EXHF   =         0.00000000
  -V(xc)+E(xc)   XCENC  =     -1700.34249865
  PAW double counting   =     44873.02882129   -41398.84523641
  entropy T*S    EENTRO =         0.03889431
  eigenvalues    EBANDS =     -1585.10348115
  atomic energy  EATOM  =     45086.50549395
  Solvation  Ediel_sol  =         0.00000000
  ---------------------------------------------------
  free energy    TOTEN  =      2012.80560772 eV

  energy without entropy =     2012.76671341  energy(sigma->0) =     2012.79588415


--------------------------------------------------------------------------------------------------------




--------------------------------------- Iteration      1(   3)  ---------------------------------------


     EDDAV:  cpu time  491.8571: real time  491.8654
       DOS:  cpu time    0.0010: real time    0.0010
    --------------------------------------------
      LOOP:  cpu time  491.8582: real time  491.8664

 eigenvalue-minimisations  :   984
 total energy-change (2. order) :-0.1775984E+04  (-0.1669779E+04)
 number of electron     560.0000000 magnetization 
 augmentation part      560.0000000 magnetization 

 Free energy of the ion-electron system (eV)
  ---------------------------------------------------
  alpha Z        PSCENC =        75.25431677
  Ewald energy   TEWEN  =    141082.23825414
  -Hartree energ DENC   =   -184419.96895654
  -exchange      EXHF   =         0.00000000
  -V(xc)+E(xc)   XCENC  =     -1700.34249865
  PAW double counting   =     44873.02882129   -41398.84523641
  entropy T*S    EENTRO =        -0.04197628
  eigenvalues    EBANDS =     -3361.00657675
  atomic energy  EATOM  =     45086.50549395
  Solvation  Ediel_sol  =         0.00000000
  ---------------------------------------------------
  free energy    TOTEN  =       236.82164153 eV

  energy without entropy =      236.86361781  energy(sigma->0) =      236.83213560


--------------------------------------------------------------------------------------------------------




--------------------------------------- Iteration      1(   4)  ---------------------------------------


     EDDAV:  cpu time  429.0196: real time  429.0397
       DOS:  cpu time    0.0012: real time    0.0012
    --------------------------------------------
      LOOP:  cpu time  429.0208: real time  429.0409

 eigenvalue-minimisations  :   832
 total energy-change (2. order) :-0.3711993E+03  (-0.3170884E+03)
 number of electron     560.0000000 magnetization 
 augmentation part      560.0000000 magnetization 

 Free energy of the ion-electron system (eV)
  ---------------------------------------------------
  alpha Z        PSCENC =        75.25431677
  Ewald energy   TEWEN  =    141082.23825414
  -Hartree energ DENC   =   -184419.96895654
  -exchange      EXHF   =         0.00000000
  -V(xc)+E(xc)   XCENC  =     -1700.34249865
  PAW double counting   =     44873.02882129   -41398.84523641
  entropy T*S    EENTRO =        -0.05672073
  eigenvalues    EBANDS =     -3732.19116893
  atomic energy  EATOM  =     45086.50549395
  Solvation  Ediel_sol  =         0.00000000
  ---------------------------------------------------
  free energy    TOTEN  =      -134.37769510 eV

  energy without entropy =     -134.32097437  energy(sigma->0) =     -134.36351492


--------------------------------------------------------------------------------------------------------




--------------------------------------- Iteration      1(   5)  ---------------------------------------


     EDDAV:  cpu time  521.4684: real time  521.4815
       DOS:  cpu time    0.0013: real time    0.0013
    CHARGE:  cpu time   25.5912: real time   25.5932
    MIXING:  cpu time    0.4435: real time    0.4436
    --------------------------------------------
      LOOP:  cpu time  547.5045: real time  547.5196

 eigenvalue-minimisations  :  1056
 total energy-change (2. order) :-0.4514547E+02  (-0.3757966E+02)
 number of electron     559.9999856 magnetization 
 augmentation part      245.0197339 magnetization 

 Broyden mixing:
  rms(total) = 0.20022E+01    rms(broyden)= 0.20014E+01
  rms(prec ) = 0.21035E+01
  weight for this iteration     100.00

 Free energy of the ion-electron system (eV)
  ---------------------------------------------------
  alpha Z        PSCENC =        75.25431677
  Ewald energy   TEWEN  =    141082.23825414
  -Hartree energ DENC   =   -184419.96895654
  -exchange      EXHF   =         0.00000000
  -V(xc)+E(xc)   XCENC  =     -1700.34249865
  PAW double counting   =     44873.02882129   -41398.84523641
  entropy T*S    EENTRO =         0.46139171
  eigenvalues    EBANDS =     -3777.85474902
  atomic energy  EATOM  =     45086.50549395
  Solvation  Ediel_sol  =         0.00000000
  ---------------------------------------------------
  free energy    TOTEN  =      -179.52316275 eV

  energy without entropy =     -179.98455446  energy(sigma->0) =     -179.63851068


--------------------------------------------------------------------------------------------------------




--------------------------------------- Iteration      1(   6)  ---------------------------------------


    POTLOK:  cpu time   13.5491: real time   13.5518
    SETDIJ:  cpu time    0.1213: real time    0.1213
    EDDIAG:  cpu time   68.6825: real time   68.6855
  RMM-DIIS:  cpu time  191.6899: real time  191.6940
    ORTHCH:  cpu time   13.3385: real time   13.3385
       DOS:  cpu time    0.0014: real time    0.0014
    CHARGE:  cpu time   25.6248: real time   25.6249
    MIXING:  cpu time    0.4545: real time    0.4545
    --------------------------------------------
      LOOP:  cpu time  313.4620: real time  313.4718

 eigenvalue-minimisations  :   729
 total energy-change (2. order) : 0.2697678E-02  (-0.7178182E+01)
 number of electron     559.9999894 magnetization 
 augmentation part      240.4775335 magnetization 

 Broyden mixing:
  rms(total) = 0.23177E+01    rms(broyden)= 0.23175E+01
  rms(prec ) = 0.25713E+01
  weight for this iteration     100.00

 eigenvalues of (default mixing * dielectric matrix)
  average eigenvalue GAMMA=   0.4280
  0.4280

 Free energy of the ion-electron system (eV)
  ---------------------------------------------------
  alpha Z        PSCENC =        75.25431677
  Ewald energy   TEWEN  =    141082.23825414
  -Hartree energ DENC   =   -184831.07282437
  -exchange      EXHF   =         0.00000000
  -V(xc)+E(xc)   XCENC  =     -1693.92930877
  PAW double counting   =     45742.86763424   -42242.90485840
  entropy T*S    EENTRO =        -0.17188989
  eigenvalues    EBANDS =     -3398.30728275
  atomic energy  EATOM  =     45086.50549395
  Solvation  Ediel_sol  =         0.00000000
  ---------------------------------------------------
  free energy    TOTEN  =      -179.52046508 eV

  energy without entropy =     -179.34857519  energy(sigma->0) =     -179.47749260


--------------------------------------------------------------------------------------------------------




--------------------------------------- Iteration      1(   7)  ---------------------------------------


    POTLOK:  cpu time   13.2407: real time   13.2415
    SETDIJ:  cpu time    0.1237: real time    0.1237
    EDDIAG:  cpu time   67.8645: real time   67.8650
  RMM-DIIS:  cpu time  217.7820: real time  217.7842
    ORTHCH:  cpu time   13.7107: real time   13.7107
       DOS:  cpu time    0.0014: real time    0.0014
    CHARGE:  cpu time   25.5659: real time   25.5658
    MIXING:  cpu time    0.4895: real time    0.4895
    --------------------------------------------
      LOOP:  cpu time  338.7783: real time  338.7818

 eigenvalue-minimisations  :   831
 total energy-change (2. order) :-0.2025477E+01  (-0.2065788E+01)
 number of electron     559.9999829 magnetization 
 augmentation part      240.3108332 magnetization 

 Broyden mixing:
  rms(total) = 0.23839E+01    rms(broyden)= 0.23836E+01
  rms(prec ) = 0.27568E+01
  weight for this iteration     100.00

 eigenvalues of (default mixing * dielectric matrix)
  average eigenvalue GAMMA=   0.4086
  0.6050  0.2121

 Free energy of the ion-electron system (eV)
  ---------------------------------------------------
  alpha Z        PSCENC =        75.25431677
  Ewald energy   TEWEN  =    141082.23825414
  -Hartree energ DENC   =   -184944.00300441
  -exchange      EXHF   =         0.00000000
  -V(xc)+E(xc)   XCENC  =     -1694.29871801
  PAW double counting   =     45869.70789476   -42366.64756279
  entropy T*S    EENTRO =        -0.06456847
  eigenvalues    EBANDS =     -3290.23804833
  atomic energy  EATOM  =     45086.50549395
  Solvation  Ediel_sol  =         0.00000000
  ---------------------------------------------------
  free energy    TOTEN  =      -181.54594238 eV

  energy without entropy =     -181.48137391  energy(sigma->0) =     -181.52980026


--------------------------------------------------------------------------------------------------------




--------------------------------------- Iteration      1(   8)  ---------------------------------------


    POTLOK:  cpu time   13.3000: real time   13.3019
    SETDIJ:  cpu time    0.1247: real time    0.1247
    EDDIAG:  cpu time   69.3924: real time   69.3931
  RMM-DIIS:  cpu time  200.0036: real time  200.0062
    ORTHCH:  cpu time   13.5149: real time   13.5149
       DOS:  cpu time    0.0014: real time    0.0014
    CHARGE:  cpu time   25.5851: real time   25.5850
    MIXING:  cpu time    0.5090: real time    0.5090
    --------------------------------------------
      LOOP:  cpu time  322.4311: real time  322.4363

 eigenvalue-minimisations  :   755
 total energy-change (2. order) :-0.2187316E+01  (-0.1092659E+01)
 number of electron     559.9999833 magnetization 
 augmentation part      240.3912296 magnetization 

 Broyden mixing:
  rms(total) = 0.30831E+01    rms(broyden)= 0.30828E+01
  rms(prec ) = 0.36966E+01
  weight for this iteration     100.00

 eigenvalues of (default mixing * dielectric matrix)
  average eigenvalue GAMMA=   0.3637
  0.7195  0.2365  0.1352

 Free energy of the ion-electron system (eV)
  ---------------------------------------------------
  alpha Z        PSCENC =        75.25431677
  Ewald energy   TEWEN  =    141082.23825414
  -Hartree energ DENC   =   -184957.97985412
  -exchange      EXHF   =         0.00000000
  -V(xc)+E(xc)   XCENC  =     -1694.25343088
  PAW double counting   =     45974.51183472   -42468.86314117
  entropy T*S    EENTRO =        -0.19414977
  eigenvalues    EBANDS =     -3280.95258189
  atomic energy  EATOM  =     45086.50549395
  Solvation  Ediel_sol  =         0.00000000
  ---------------------------------------------------
  free energy    TOTEN  =      -183.73325825 eV

  energy without entropy =     -183.53910847  energy(sigma->0) =     -183.68472080


--------------------------------------------------------------------------------------------------------




--------------------------------------- Iteration      1(   9)  ---------------------------------------


    POTLOK:  cpu time   13.0803: real time   13.0809
    SETDIJ:  cpu time    0.1227: real time    0.1227
    EDDIAG:  cpu time   68.5126: real time   68.5133
  RMM-DIIS:  cpu time  195.8907: real time  195.8938
    ORTHCH:  cpu time   13.2629: real time   13.2629
       DOS:  cpu time    0.0014: real time    0.0014
    CHARGE:  cpu time   25.2190: real time   25.2228
    MIXING:  cpu time    0.5270: real time    0.5270
    --------------------------------------------
      LOOP:  cpu time  316.6166: real time  316.6248

 eigenvalue-minimisations  :   734
 total energy-change (2. order) : 0.2715925E+01  (-0.7067377E+00)
 number of electron     559.9999852 magnetization 
 augmentation part      241.2571205 magnetization 

 Broyden mixing:
  rms(total) = 0.28259E+01    rms(broyden)= 0.28255E+01
  rms(prec ) = 0.32893E+01
  weight for this iteration     100.00

 eigenvalues of (default mixing * dielectric matrix)
  average eigenvalue GAMMA=   0.3560
  0.8643  0.3114  0.1242  0.1242

 Free energy of the ion-electron system (eV)
  ---------------------------------------------------
  alpha Z        PSCENC =        75.25431677
  Ewald energy   TEWEN  =    141082.23825414
  -Hartree energ DENC   =   -184976.60620412
  -exchange      EXHF   =         0.00000000
  -V(xc)+E(xc)   XCENC  =     -1694.21561687
  PAW double counting   =     46040.65539024   -42533.44867508
  entropy T*S    EENTRO =        -0.04743989
  eigenvalues    EBANDS =     -3261.35285237
  atomic energy  EATOM  =     45086.50549395
  Solvation  Ediel_sol  =         0.00000000
  ---------------------------------------------------
  free energy    TOTEN  =      -181.01733323 eV

  energy without entropy =     -180.96989334  energy(sigma->0) =     -181.00547326


--------------------------------------------------------------------------------------------------------




--------------------------------------- Iteration      1(  10)  ---------------------------------------


    POTLOK:  cpu time   13.2354: real time   13.2361
    SETDIJ:  cpu time    0.1210: real time    0.1210
    EDDIAG:  cpu time   68.8399: real time   68.8404
  RMM-DIIS:  cpu time  194.6488: real time  194.6554
    ORTHCH:  cpu time   13.3093: real time   13.3093
       DOS:  cpu time    0.0014: real time    0.0014
    CHARGE:  cpu time   25.0286: real time   25.0286
    MIXING:  cpu time    0.5677: real time    0.5677
    --------------------------------------------
      LOOP:  cpu time  315.7521: real time  315.7599

 eigenvalue-minimisations  :   730
 total energy-change (2. order) : 0.1274456E+01  (-0.6382968E+00)
 number of electron     559.9999882 magnetization 
 augmentation part      241.3945700 magnetization 

 Broyden mixing:
  rms(total) = 0.20608E+01    rms(broyden)= 0.20604E+01
  rms(prec ) = 0.23802E+01
  weight for this iteration     100.00

 eigenvalues of (default mixing * dielectric matrix)
  average eigenvalue GAMMA=   0.3759
  1.0949  0.3763  0.1495  0.1495  0.1096

 Free energy of the ion-electron system (eV)
  ---------------------------------------------------
  alpha Z        PSCENC =        75.25431677
  Ewald energy   TEWEN  =    141082.23825414
  -Hartree energ DENC   =   -185007.46504020
  -exchange      EXHF   =         0.00000000
  -V(xc)+E(xc)   XCENC  =     -1693.99914360
  PAW double counting   =     46117.45636261   -42608.22556075
  entropy T*S    EENTRO =        -0.04539382
  eigenvalues    EBANDS =     -3231.46216616
  atomic energy  EATOM  =     45086.50549395
  Solvation  Ediel_sol  =         0.00000000
  ---------------------------------------------------
  free energy    TOTEN  =      -179.74287706 eV

  energy without entropy =     -179.69748324  energy(sigma->0) =     -179.73152860


--------------------------------------------------------------------------------------------------------




--------------------------------------- Iteration      1(  11)  ---------------------------------------


    POTLOK:  cpu time   13.1155: real time   13.1161
    SETDIJ:  cpu time    0.1200: real time    0.1200
    EDDIAG:  cpu time   68.8189: real time   68.8225
  RMM-DIIS:  cpu time  189.2482: real time  189.2599
    ORTHCH:  cpu time   13.2106: real time   13.2109
       DOS:  cpu time    0.0014: real time    0.0014
    CHARGE:  cpu time   25.3394: real time   25.3403
    MIXING:  cpu time    0.6261: real time    0.6262
    --------------------------------------------
      LOOP:  cpu time  310.4801: real time  310.4973

 eigenvalue-minimisations  :   716
 total energy-change (2. order) : 0.2043996E+00  (-0.5037822E+00)
 number of electron     559.9999880 magnetization 
 augmentation part      241.2334866 magnetization 

 Broyden mixing:
  rms(total) = 0.26517E+01    rms(broyden)= 0.26514E+01
  rms(prec ) = 0.31118E+01
  weight for this iteration     100.00

 eigenvalues of (default mixing * dielectric matrix)
  average eigenvalue GAMMA=   0.3726
  1.2462  0.4579  0.1613  0.1613  0.1044  0.1044

 Free energy of the ion-electron system (eV)
  ---------------------------------------------------
  alpha Z        PSCENC =        75.25431677
  Ewald energy   TEWEN  =    141082.23825414
  -Hartree energ DENC   =   -185058.08019699
  -exchange      EXHF   =         0.00000000
  -V(xc)+E(xc)   XCENC  =     -1693.66380486
  PAW double counting   =     46220.69809953   -42708.50101306
  entropy T*S    EENTRO =        -0.05188628
  eigenvalues    EBANDS =     -3183.93774066
  atomic energy  EATOM  =     45086.50549395
  Solvation  Ediel_sol  =         0.00000000
  ---------------------------------------------------
  free energy    TOTEN  =      -179.53847746 eV

  energy without entropy =     -179.48659118  energy(sigma->0) =     -179.52550589


--------------------------------------------------------------------------------------------------------




--------------------------------------- Iteration      1(  12)  ---------------------------------------


    POTLOK:  cpu time   13.0719: real time   13.0740
    SETDIJ:  cpu time    0.1239: real time    0.1239
    EDDIAG:  cpu time   68.9939: real time   68.9985
  RMM-DIIS:  cpu time  192.2684: real time  192.2750
    ORTHCH:  cpu time   13.5133: real time   13.5132
       DOS:  cpu time    0.0014: real time    0.0014
    CHARGE:  cpu time   25.4398: real time   25.4396
    MIXING:  cpu time    0.6711: real time    0.6711
    --------------------------------------------
      LOOP:  cpu time  314.0837: real time  314.0968

 eigenvalue-minimisations  :   727
 total energy-change (2. order) :-0.1993215E+00  (-0.3408577E+00)
 number of electron     559.9999905 magnetization 
 augmentation part      241.8763233 magnetization 

 Broyden mixing:
  rms(total) = 0.38808E+01    rms(broyden)= 0.38806E+01
  rms(prec ) = 0.45032E+01
  weight for this iteration     100.00

 eigenvalues of (default mixing * dielectric matrix)
  average eigenvalue GAMMA=   0.3527
  1.3527  0.5089  0.1659  0.1659  0.1047  0.1047  0.0662

 Free energy of the ion-electron system (eV)
  ---------------------------------------------------
  alpha Z        PSCENC =        75.25431677
  Ewald energy   TEWEN  =    141082.23825414
  -Hartree energ DENC   =   -185086.73952228
  -exchange      EXHF   =         0.00000000
  -V(xc)+E(xc)   XCENC  =     -1693.42274828
  PAW double counting   =     46287.45904004   -42773.32503511
  entropy T*S    EENTRO =         0.23015960
  eigenvalues    EBANDS =     -3157.93775778
  atomic energy  EATOM  =     45086.50549395
  Solvation  Ediel_sol  =         0.00000000
  ---------------------------------------------------
  free energy    TOTEN  =      -179.73779895 eV

  energy without entropy =     -179.96795855  energy(sigma->0) =     -179.79533885


--------------------------------------------------------------------------------------------------------




--------------------------------------- Iteration      1(  13)  ---------------------------------------


    POTLOK:  cpu time   13.1682: real time   13.1726
    SETDIJ:  cpu time    0.1217: real time    0.1217
    EDDIAG:  cpu time   69.1317: real time   69.1317
  RMM-DIIS:  cpu time  188.3461: real time  188.3476
    ORTHCH:  cpu time   13.5965: real time   13.5964
       DOS:  cpu time    0.0015: real time    0.0015
    CHARGE:  cpu time   25.2023: real time   25.2022
    MIXING:  cpu time    0.6849: real time    0.6849
    --------------------------------------------
      LOOP:  cpu time  310.2530: real time  310.2587

 eigenvalue-minimisations  :   714
 total energy-change (2. order) : 0.3495828E+01  (-0.2775793E+00)
 number of electron     559.9999870 magnetization 
 augmentation part      241.6591339 magnetization 

 Broyden mixing:
  rms(total) = 0.15740E+01    rms(broyden)= 0.15736E+01
  rms(prec ) = 0.18262E+01
  weight for this iteration     100.00

 eigenvalues of (default mixing * dielectric matrix)
  average eigenvalue GAMMA=   0.3427
  1.4395  0.5282  0.1863  0.1863  0.1463  0.0920  0.0817  0.0817

 Free energy of the ion-electron system (eV)
  ---------------------------------------------------
  alpha Z        PSCENC =        75.25431677
  Ewald energy   TEWEN  =    141082.23825414
  -Hartree energ DENC   =   -185107.46840510
  -exchange      EXHF   =         0.00000000
  -V(xc)+E(xc)   XCENC  =     -1693.20424413
  PAW double counting   =     46334.32855262   -42818.78809919
  entropy T*S    EENTRO =         0.04797734
  eigenvalues    EBANDS =     -3135.15581760
  atomic energy  EATOM  =     45086.50549395
  Solvation  Ediel_sol  =         0.00000000
  ---------------------------------------------------
  free energy    TOTEN  =      -176.24197119 eV

  energy without entropy =     -176.28994853  energy(sigma->0) =     -176.25396552


--------------------------------------------------------------------------------------------------------




--------------------------------------- Iteration      1(  14)  ---------------------------------------


    POTLOK:  cpu time   13.1452: real time   13.1482
    SETDIJ:  cpu time    0.1275: real time    0.1275
    EDDIAG:  cpu time   68.6114: real time   68.6116
  RMM-DIIS:  cpu time  191.6301: real time  191.6355
    ORTHCH:  cpu time   13.4354: real time   13.4353
       DOS:  cpu time    0.0014: real time    0.0014
    CHARGE:  cpu time   25.0783: real time   25.0782
    MIXING:  cpu time    0.7281: real time    0.7281
    --------------------------------------------
      LOOP:  cpu time  312.7575: real time  312.7659

 eigenvalue-minimisations  :   722
 total energy-change (2. order) : 0.1976037E+00  (-0.1504427E+00)
 number of electron     559.9999882 magnetization 
 augmentation part      241.6148821 magnetization 

 Broyden mixing:
  rms(total) = 0.17546E+01    rms(broyden)= 0.17542E+01
  rms(prec ) = 0.21272E+01
  weight for this iteration     100.00

 eigenvalues of (default mixing * dielectric matrix)
  average eigenvalue GAMMA=   0.3279
  1.4960  0.5412  0.1923  0.1923  0.1810  0.1116  0.0873  0.0873  0.0622

 Free energy of the ion-electron system (eV)
  ---------------------------------------------------
  alpha Z        PSCENC =        75.25431677
  Ewald energy   TEWEN  =    141082.23825414
  -Hartree energ DENC   =   -185132.68302665
  -exchange      EXHF   =         0.00000000
  -V(xc)+E(xc)   XCENC  =     -1692.91839178
  PAW double counting   =     46375.29229443   -42858.37989926
  entropy T*S    EENTRO =         0.01561860
  eigenvalues    EBANDS =     -3111.36902772
  atomic energy  EATOM  =     45086.50549395
  Solvation  Ediel_sol  =         0.00000000
  ---------------------------------------------------
  free energy    TOTEN  =      -176.04436752 eV

  energy without entropy =     -176.05998612  energy(sigma->0) =     -176.04827217


--------------------------------------------------------------------------------------------------------




--------------------------------------- Iteration      1(  15)  ---------------------------------------


    POTLOK:  cpu time   13.1947: real time   13.1976
    SETDIJ:  cpu time    0.1236: real time    0.1236
    EDDIAG:  cpu time   69.2287: real time   69.2293
  RMM-DIIS:  cpu time  190.8067: real time  190.8099
    ORTHCH:  cpu time   13.4742: real time   13.4741
       DOS:  cpu time    0.0015: real time    0.0015
    CHARGE:  cpu time   25.4995: real time   25.4994
    MIXING:  cpu time    0.8063: real time    0.8063
    --------------------------------------------
      LOOP:  cpu time  313.1352: real time  313.1417

 eigenvalue-minimisations  :   721
 total energy-change (2. order) : 0.7639712E+00  (-0.9453672E-01)
 number of electron     559.9999837 magnetization 
 augmentation part      241.5546280 magnetization 

 Broyden mixing:
  rms(total) = 0.17770E+01    rms(broyden)= 0.17767E+01
  rms(prec ) = 0.20888E+01
  weight for this iteration     100.00

 eigenvalues of (default mixing * dielectric matrix)
  average eigenvalue GAMMA=   0.3301
  1.6126  0.5557  0.3431  0.1752  0.1752  0.1048  0.1048  0.1057  0.0621  0.0621

 Free energy of the ion-electron system (eV)
  ---------------------------------------------------
  alpha Z        PSCENC =        75.25431677
  Ewald energy   TEWEN  =    141082.23825414
  -Hartree energ DENC   =   -185151.94422077
  -exchange      EXHF   =         0.00000000
  -V(xc)+E(xc)   XCENC  =     -1692.68308718
  PAW double counting   =     46404.25627042   -42886.24564226
  entropy T*S    EENTRO =         0.06602640
  eigenvalues    EBANDS =     -3092.72780783
  atomic energy  EATOM  =     45086.50549395
  Solvation  Ediel_sol  =         0.00000000
  ---------------------------------------------------
  free energy    TOTEN  =      -175.28039635 eV

  energy without entropy =     -175.34642275  energy(sigma->0) =     -175.29690295


--------------------------------------------------------------------------------------------------------




--------------------------------------- Iteration      1(  16)  ---------------------------------------


    POTLOK:  cpu time   13.3623: real time   13.3646
    SETDIJ:  cpu time    0.1227: real time    0.1227
    EDDIAG:  cpu time   69.3827: real time   69.3841
  RMM-DIIS:  cpu time  187.2214: real time  187.2250
    ORTHCH:  cpu time   13.5560: real time   13.5559
       DOS:  cpu time    0.0015: real time    0.0015
    CHARGE:  cpu time   25.4692: real time   25.4690
    MIXING:  cpu time    0.8609: real time    0.8609
    --------------------------------------------
      LOOP:  cpu time  309.9768: real time  309.9837

 eigenvalue-minimisations  :   710
 total energy-change (2. order) : 0.9579643E-01  (-0.1024386E+00)
 number of electron     559.9999864 magnetization 
 augmentation part      241.4102821 magnetization 

 Broyden mixing:
  rms(total) = 0.15785E+01    rms(broyden)= 0.15783E+01
  rms(prec ) = 0.18226E+01
  weight for this iteration     100.00

 eigenvalues of (default mixing * dielectric matrix)
  average eigenvalue GAMMA=   0.3319
  1.7335  0.5801  0.4396  0.1773  0.1773  0.1205  0.1205  0.0896  0.0896  0.0614
  0.0614

 Free energy of the ion-electron system (eV)
  ---------------------------------------------------
  alpha Z        PSCENC =        75.25431677
  Ewald energy   TEWEN  =    141082.23825414
  -Hartree energ DENC   =   -185178.92778776
  -exchange      EXHF   =         0.00000000
  -V(xc)+E(xc)   XCENC  =     -1692.30816798
  PAW double counting   =     46448.05981581   -42928.31996874
  entropy T*S    EENTRO =         0.01803788
  eigenvalues    EBANDS =     -3067.70459399
  atomic energy  EATOM  =     45086.50549395
  Solvation  Ediel_sol  =         0.00000000
  ---------------------------------------------------
  free energy    TOTEN  =      -175.18459992 eV

  energy without entropy =     -175.20263780  energy(sigma->0) =     -175.18910939


--------------------------------------------------------------------------------------------------------




--------------------------------------- Iteration      1(  17)  ---------------------------------------


    POTLOK:  cpu time   13.4614: real time   13.4625
    SETDIJ:  cpu time    0.1234: real time    0.1234
    EDDIAG:  cpu time   69.1182: real time   69.1235
  RMM-DIIS:  cpu time  186.9916: real time  186.9918
    ORTHCH:  cpu time   13.5014: real time   13.5014
       DOS:  cpu time    0.0015: real time    0.0015
    CHARGE:  cpu time   25.3298: real time   25.3296
    MIXING:  cpu time    0.8815: real time    0.8815
    --------------------------------------------
      LOOP:  cpu time  309.4088: real time  309.4152

 eigenvalue-minimisations  :   709
 total energy-change (2. order) : 0.3421687E+00  (-0.8173544E-01)
 number of electron     559.9999870 magnetization 
 augmentation part      241.1920445 magnetization 

 Broyden mixing:
  rms(total) = 0.11177E+01    rms(broyden)= 0.11174E+01
  rms(prec ) = 0.12702E+01
  weight for this iteration     100.00

 eigenvalues of (default mixing * dielectric matrix)
  average eigenvalue GAMMA=   0.3307
  1.8266  0.5592  0.5592  0.1851  0.1851  0.1249  0.1249  0.1018  0.1018  0.0735
  0.0632  0.0632

 Free energy of the ion-electron system (eV)
  ---------------------------------------------------
  alpha Z        PSCENC =        75.25431677
  Ewald energy   TEWEN  =    141082.23825414
  -Hartree energ DENC   =   -185207.09646068
  -exchange      EXHF   =         0.00000000
  -V(xc)+E(xc)   XCENC  =     -1691.91349567
  PAW double counting   =     46490.09563172   -42968.67118799
  entropy T*S    EENTRO =        -0.06320594
  eigenvalues    EBANDS =     -3041.19177754
  atomic energy  EATOM  =     45086.50549395
  Solvation  Ediel_sol  =         0.00000000
  ---------------------------------------------------
  free energy    TOTEN  =      -174.84243124 eV

  energy without entropy =     -174.77922530  energy(sigma->0) =     -174.82662975


--------------------------------------------------------------------------------------------------------




--------------------------------------- Iteration      1(  18)  ---------------------------------------


    POTLOK:  cpu time   13.2860: real time   13.2865
    SETDIJ:  cpu time    0.1214: real time    0.1214
    EDDIAG:  cpu time   68.9724: real time   68.9761
  RMM-DIIS:  cpu time  185.4366: real time  185.4371
    ORTHCH:  cpu time   13.3639: real time   13.3638
       DOS:  cpu time    0.0015: real time    0.0015
    CHARGE:  cpu time   25.2870: real time   25.2868
    MIXING:  cpu time    0.9481: real time    0.9482
    --------------------------------------------
      LOOP:  cpu time  307.4168: real time  307.4213

 eigenvalue-minimisations  :   702
 total energy-change (2. order) : 0.4927689E+00  (-0.4513518E-01)
 number of electron     559.9999863 magnetization 
 augmentation part      241.1974004 magnetization 

 Broyden mixing:
  rms(total) = 0.90401E+00    rms(broyden)= 0.90379E+00
  rms(prec ) = 0.10438E+01
  weight for this iteration     100.00

 eigenvalues of (default mixing * dielectric matrix)
  average eigenvalue GAMMA=   0.3241
  1.8876  0.5509  0.5509  0.2113  0.1919  0.1919  0.1091  0.1091  0.1248  0.0838
  0.0838  0.0591  0.0591

 Free energy of the ion-electron system (eV)
  ---------------------------------------------------
  alpha Z        PSCENC =        75.25431677
  Ewald energy   TEWEN  =    141082.23825414
  -Hartree energ DENC   =   -185222.84299688
  -exchange      EXHF   =         0.00000000
  -V(xc)+E(xc)   XCENC  =     -1691.64377173
  PAW double counting   =     46512.95387083   -42990.41449163
  entropy T*S    EENTRO =        -0.01915097
  eigenvalues    EBANDS =     -3026.38118688
  atomic energy  EATOM  =     45086.50549395
  Solvation  Ediel_sol  =         0.00000000
  ---------------------------------------------------
  free energy    TOTEN  =      -174.34966239 eV

  energy without entropy =     -174.33051142  energy(sigma->0) =     -174.34487465


--------------------------------------------------------------------------------------------------------




--------------------------------------- Iteration      1(  19)  ---------------------------------------


    POTLOK:  cpu time   13.4400: real time   13.4412
    SETDIJ:  cpu time    0.1226: real time    0.1226
    EDDIAG:  cpu time   69.2422: real time   69.2439
  RMM-DIIS:  cpu time  183.3199: real time  183.3208
    ORTHCH:  cpu time   13.5945: real time   13.5945
       DOS:  cpu time    0.0015: real time    0.0015
    CHARGE:  cpu time   25.6411: real time   25.6410
    MIXING:  cpu time    1.0048: real time    1.0048
    --------------------------------------------
      LOOP:  cpu time  306.3666: real time  306.3702

 eigenvalue-minimisations  :   698
 total energy-change (2. order) : 0.2124508E+00  (-0.3081706E-01)
 number of electron     559.9999864 magnetization 
 augmentation part      241.2413323 magnetization 

 Broyden mixing:
  rms(total) = 0.97954E+00    rms(broyden)= 0.97940E+00
  rms(prec ) = 0.11458E+01
  weight for this iteration     100.00

 eigenvalues of (default mixing * dielectric matrix)
  average eigenvalue GAMMA=   0.3173
  1.9194  0.5434  0.5434  0.3535  0.1874  0.1874  0.1166  0.1166  0.1123  0.0871
  0.0871  0.0688  0.0598  0.0598

 Free energy of the ion-electron system (eV)
  ---------------------------------------------------
  alpha Z        PSCENC =        75.25431677
  Ewald energy   TEWEN  =    141082.23825414
  -Hartree energ DENC   =   -185231.69867543
  -exchange      EXHF   =         0.00000000
  -V(xc)+E(xc)   XCENC  =     -1691.47694427
  PAW double counting   =     46524.37330677   -43001.12944359
  entropy T*S    EENTRO =         0.00067764
  eigenvalues    EBANDS =     -3018.20419761
  atomic energy  EATOM  =     45086.50549395
  Solvation  Ediel_sol  =         0.00000000
  ---------------------------------------------------
  free energy    TOTEN  =      -174.13721162 eV

  energy without entropy =     -174.13788926  energy(sigma->0) =     -174.13738103


--------------------------------------------------------------------------------------------------------




--------------------------------------- Iteration      1(  20)  ---------------------------------------


    POTLOK:  cpu time   13.1800: real time   13.1830
    SETDIJ:  cpu time    0.1236: real time    0.1236
    EDDIAG:  cpu time   69.2867: real time   69.2905
  RMM-DIIS:  cpu time  186.0983: real time  186.0986
    ORTHCH:  cpu time   13.5764: real time   13.5763
       DOS:  cpu time    0.0015: real time    0.0015
    CHARGE:  cpu time   25.7099: real time   25.7097
    MIXING:  cpu time    1.0829: real time    1.0829
    --------------------------------------------
      LOOP:  cpu time  309.0592: real time  309.0662

 eigenvalue-minimisations  :   702
 total energy-change (2. order) : 0.1539431E+00  (-0.1672382E-01)
 number of electron     559.9999869 magnetization 
 augmentation part      241.1844447 magnetization 

 Broyden mixing:
  rms(total) = 0.69837E+00    rms(broyden)= 0.69822E+00
  rms(prec ) = 0.80457E+00
  weight for this iteration     100.00

 eigenvalues of (default mixing * dielectric matrix)
  average eigenvalue GAMMA=   0.3308
  1.9909  0.5916  0.5744  0.5744  0.1999  0.1999  0.1305  0.1305  0.1151  0.1151
  0.0812  0.0812  0.0611  0.0611  0.0551

 Free energy of the ion-electron system (eV)
  ---------------------------------------------------
  alpha Z        PSCENC =        75.25431677
  Ewald energy   TEWEN  =    141082.23825414
  -Hartree energ DENC   =   -185241.69074548
  -exchange      EXHF   =         0.00000000
  -V(xc)+E(xc)   XCENC  =     -1691.34770214
  PAW double counting   =     46530.52655756   -43006.74291068
  entropy T*S    EENTRO =        -0.02354410
  eigenvalues    EBANDS =     -3008.70298856
  atomic energy  EATOM  =     45086.50549395
  Solvation  Ediel_sol  =         0.00000000
  ---------------------------------------------------
  free energy    TOTEN  =      -173.98326854 eV

  energy without entropy =     -173.95972444  energy(sigma->0) =     -173.97738251


--------------------------------------------------------------------------------------------------------




--------------------------------------- Iteration      1(  21)  ---------------------------------------


    POTLOK:  cpu time   13.4077: real time   13.4089
    SETDIJ:  cpu time    0.1231: real time    0.1231
    EDDIAG:  cpu time   68.9256: real time   68.9258
  RMM-DIIS:  cpu time  185.8709: real time  185.8845
    ORTHCH:  cpu time   13.6761: real time   13.6774
       DOS:  cpu time    0.0015: real time    0.0015
    CHARGE:  cpu time   26.0172: real time   26.0209
    MIXING:  cpu time    1.1544: real time    1.1544
    --------------------------------------------
      LOOP:  cpu time  309.1765: real time  309.1965

 eigenvalue-minimisations  :   698
 total energy-change (2. order) : 0.1166857E+00  (-0.1945232E-01)
 number of electron     559.9999868 magnetization 
 augmentation part      241.1727529 magnetization 

 Broyden mixing:
  rms(total) = 0.70776E+00    rms(broyden)= 0.70760E+00
  rms(prec ) = 0.81731E+00
  weight for this iteration     100.00

 eigenvalues of (default mixing * dielectric matrix)
  average eigenvalue GAMMA=   0.3346
  2.0191  0.7133  0.6365  0.6365  0.2043  0.2043  0.1264  0.1264  0.1229  0.1229
  0.1024  0.0830  0.0830  0.0602  0.0602  0.0524

 Free energy of the ion-electron system (eV)
  ---------------------------------------------------
  alpha Z        PSCENC =        75.25431677
  Ewald energy   TEWEN  =    141082.23825414
  -Hartree energ DENC   =   -185255.80777116
  -exchange      EXHF   =         0.00000000
  -V(xc)+E(xc)   XCENC  =     -1691.09692897
  PAW double counting   =     46538.51345113   -43013.78278876
  entropy T*S    EENTRO =        -0.01145885
  eigenvalues    EBANDS =     -2995.67915106
  atomic energy  EATOM  =     45086.50549395
  Solvation  Ediel_sol  =         0.00000000
  ---------------------------------------------------
  free energy    TOTEN  =      -173.86658280 eV

  energy without entropy =     -173.85512395  energy(sigma->0) =     -173.86371808


--------------------------------------------------------------------------------------------------------




--------------------------------------- Iteration      1(  22)  ---------------------------------------


    POTLOK:  cpu time   13.6039: real time   13.6065
    SETDIJ:  cpu time    0.1241: real time    0.1241
    EDDIAG:  cpu time   70.0386: real time   70.0426
  RMM-DIIS:  cpu time  183.7159: real time  183.7333
    ORTHCH:  cpu time   13.7535: real time   13.7548
       DOS:  cpu time    0.0015: real time    0.0015
    CHARGE:  cpu time   25.6747: real time   25.6755
    MIXING:  cpu time    1.2289: real time    1.2289
    --------------------------------------------
      LOOP:  cpu time  308.1411: real time  308.1670

 eigenvalue-minimisations  :   696
 total energy-change (2. order) : 0.1680077E+00  (-0.1583520E-01)
 number of electron     559.9999867 magnetization 
 augmentation part      241.1427133 magnetization 

 Broyden mixing:
  rms(total) = 0.55378E+00    rms(broyden)= 0.55361E+00
  rms(prec ) = 0.64229E+00
  weight for this iteration     100.00

 eigenvalues of (default mixing * dielectric matrix)
  average eigenvalue GAMMA=   0.3413
  2.0601  0.8545  0.6698  0.6698  0.2102  0.2102  0.1979  0.1220  0.1220  0.1182
  0.1182  0.1168  0.0801  0.0801  0.0602  0.0602  0.0514

 Free energy of the ion-electron system (eV)
  ---------------------------------------------------
  alpha Z        PSCENC =        75.25431677
  Ewald energy   TEWEN  =    141082.23825414
  -Hartree energ DENC   =   -185268.37696004
  -exchange      EXHF   =         0.00000000
  -V(xc)+E(xc)   XCENC  =     -1690.92025560
  PAW double counting   =     46540.51233233   -43015.13921789
  entropy T*S    EENTRO =        -0.00494630
  eigenvalues    EBANDS =     -2983.76759245
  atomic energy  EATOM  =     45086.50549395
  Solvation  Ediel_sol  =         0.00000000
  ---------------------------------------------------
  free energy    TOTEN  =      -173.69857507 eV

  energy without entropy =     -173.69362877  energy(sigma->0) =     -173.69733850


--------------------------------------------------------------------------------------------------------




--------------------------------------- Iteration      1(  23)  ---------------------------------------


    POTLOK:  cpu time   13.3929: real time   13.3942
    SETDIJ:  cpu time    0.1237: real time    0.1237
    EDDIAG:  cpu time   69.4864: real time   69.4915
  RMM-DIIS:  cpu time  182.9069: real time  182.9269
    ORTHCH:  cpu time   13.4658: real time   13.4662
       DOS:  cpu time    0.0014: real time    0.0014
    CHARGE:  cpu time   25.6764: real time   25.6781
    MIXING:  cpu time    1.2694: real time    1.2695
    --------------------------------------------
      LOOP:  cpu time  306.3229: real time  306.3514

 eigenvalue-minimisations  :   694
 total energy-change (2. order) : 0.4556455E-01  (-0.1305772E-01)
 number of electron     559.9999874 magnetization 
 augmentation part      241.0853839 magnetization 

 Broyden mixing:
  rms(total) = 0.52522E+00    rms(broyden)= 0.52506E+00
  rms(prec ) = 0.60349E+00
  weight for this iteration     100.00

 eigenvalues of (default mixing * dielectric matrix)
  average eigenvalue GAMMA=   0.3537
[...]
 -0.006  -0.012   0.004   0.004   0.005  -0.006  -0.012   0.004
 -0.011  -0.020   0.006   0.007   0.009  -0.010  -0.019   0.006
 -0.014  -0.005   0.013   0.000   0.022  -0.014  -0.005   0.012
  0.000  -0.023  -0.006  -0.015  -0.000   0.000  -0.022  -0.006
 -0.022   0.000   0.009  -0.005  -0.016  -0.022   0.000   0.008
 -0.017  -0.006   0.015   0.000   0.027  -0.017  -0.006   0.015
  0.000  -0.027  -0.007  -0.018   0.000   0.000  -0.027  -0.007
 -0.027   0.000   0.010  -0.006  -0.019  -0.026   0.000   0.010
 total augmentation occupancy for first ion, spin component:           1
  1.535  -0.030   0.006   0.016   0.024   0.076  -0.008  -0.002   0.036  -0.010   0.093  -0.031   0.012   0.002   0.003  -0.019
 -0.030   1.397   0.028   0.071  -0.001  -0.007   0.072   0.011  -0.014  -0.007   0.216  -0.065   0.019   0.003   0.002  -0.006
  0.006   0.028   1.541   0.002   0.002  -0.002   0.013   0.074  -0.013   0.017  -0.053   0.018  -0.003  -0.006  -0.005   0.016
  0.016   0.071   0.002   1.339   0.044   0.034  -0.013  -0.012   0.091  -0.023  -0.079   0.020  -0.001  -0.009  -0.004   0.001
  0.024  -0.001   0.002   0.044   1.438  -0.010  -0.008   0.016  -0.022   0.068  -0.092   0.029  -0.003  -0.009  -0.009   0.026
  0.076  -0.007  -0.002   0.034  -0.010   0.217   0.019  -0.002  -0.045   0.004  -0.049   0.002   0.017  -0.010   0.034  -0.004
 -0.008   0.072   0.013  -0.013  -0.008   0.019   0.263  -0.023  -0.003   0.006  -0.109   0.007  -0.001   0.051  -0.010  -0.000
 -0.002   0.011   0.074  -0.012   0.016  -0.002  -0.023   0.215   0.014  -0.020   0.028  -0.001  -0.012   0.009  -0.018   0.003
  0.036  -0.014  -0.013   0.091  -0.022  -0.045  -0.003   0.014   0.261   0.007   0.043  -0.004  -0.009   0.036   0.004   0.000
 -0.010  -0.007   0.017  -0.023   0.068   0.004   0.006  -0.020   0.007   0.259   0.046  -0.003  -0.038   0.002   0.049   0.007
  0.093   0.216  -0.053  -0.079  -0.092  -0.049  -0.109   0.028   0.043   0.046   0.950  -0.141   0.084   0.014   0.063  -0.013
 -0.031  -0.065   0.018   0.020   0.029   0.002   0.007  -0.001  -0.004  -0.003  -0.141   0.023  -0.014  -0.003  -0.010   0.003
  0.012   0.019  -0.003  -0.001  -0.003   0.017  -0.001  -0.012  -0.009  -0.038   0.084  -0.014   0.029  -0.008  -0.004  -0.003
  0.002   0.003  -0.006  -0.009  -0.009  -0.010   0.051   0.009   0.036   0.002   0.014  -0.003  -0.008   0.036   0.004   0.000
  0.003   0.002  -0.005  -0.004  -0.009   0.034  -0.010  -0.018   0.004   0.049   0.063  -0.010  -0.004   0.004   0.034  -0.000
 -0.019  -0.006   0.016   0.001   0.026  -0.004  -0.000   0.003   0.000   0.007  -0.013   0.003  -0.003   0.000  -0.000   0.001
  0.001  -0.028  -0.007  -0.018   0.001   0.001  -0.008  -0.002  -0.006  -0.000  -0.003   0.001   0.000  -0.003  -0.000   0.000
 -0.028   0.001   0.012  -0.005  -0.019  -0.006   0.001   0.003  -0.001  -0.007  -0.008   0.001  -0.000  -0.000  -0.003   0.000


------------------------ aborting loop because EDIFF is reached ----------------------------------------


    CHARGE:  cpu time   25.4507: real time   25.4542
    FORLOC:  cpu time    6.8007: real time    6.8008
    FORNL :  cpu time   66.7848: real time   66.7937
    STRESS:  cpu time  199.6487: real time  199.6602
    FORCOR:  cpu time   22.2208: real time   22.2211
    FORHAR:  cpu time    9.8813: real time    9.8815
    MIXING:  cpu time    3.8229: real time    3.8229
    OFIELD:  cpu time    0.0000: real time    0.0000

  FORCE on cell =-STRESS in cart. coord.  units (eV):
  Direction    XX          YY          ZZ          XY          YZ          ZX
  --------------------------------------------------------------------------------------
  Alpha Z    75.25432    75.25432    75.25432
  Ewald   45938.23856 46605.10026 48538.79326    88.87829   735.50951   344.20602
  Hartree 60864.54653 61271.40042 63297.16365    75.18233   701.75500   318.27941
  E(xc)   -2908.54473 -2906.60724 -2906.62593    -0.00243    -0.24341    -0.11117
  Local  ************************************  -161.78509 -1434.21822  -661.16259
  n-local  -879.41436  -870.41135  -884.67534     0.70419    -4.94008    -2.25369
  augment  4109.41189  4097.46513  4102.50859    -0.84768     3.29207     2.01666
  Kinetic  7832.27950  7805.37400  7807.68696    -1.32320     1.30127     3.19924
  Fock        0.00000     0.00000     0.00000     0.00000     0.00000     0.00000
  -------------------------------------------------------------------------------------
  Total    -108.23819   -96.79639  -102.09938     0.80640     2.45613     4.17387
  in kB      -6.42284    -5.74389    -6.05857     0.04785     0.14575     0.24768
  external pressure =       -6.08 kB  Pullay stress =        0.00 kB


 VOLUME and BASIS-vectors are now :
 -----------------------------------------------------------------------------
  energy-cutoff  :      400.00
  volume of cell :    27000.00
      direct lattice vectors                 reciprocal lattice vectors
    30.000000000  0.000000000  0.000000000     0.033333333  0.000000000  0.000000000
     0.000000000 30.000000000  0.000000000     0.000000000  0.033333333  0.000000000
     0.000000000  0.000000000 30.000000000     0.000000000  0.000000000  0.033333333

  length of vectors
    30.000000000 30.000000000 30.000000000     0.033333333  0.033333333  0.033333333


 FORCES acting on ions
    electron-ion (+dipol)            ewald-force                    non-local-force                 convergence-correction
 -----------------------------------------------------------------------------------------------
   0.396E+03 0.977E+03 0.423E+03   -.394E+03 -.974E+03 -.423E+03   -.149E+01 -.183E+01 -.224E+00   0.455E-03 -.129E-02 0.114E-03
   -.979E+03 -.393E+03 0.430E+03   0.976E+03 0.391E+03 -.429E+03   0.181E+01 0.149E+01 -.216E+00   -.743E-03 0.274E-02 0.492E-03
   -.395E+03 0.978E+03 0.424E+03   0.392E+03 -.975E+03 -.423E+03   0.149E+01 -.183E+01 -.215E+00   0.308E-02 -.153E-02 0.115E-02
   0.978E+03 -.393E+03 0.426E+03   -.975E+03 0.391E+03 -.425E+03   -.183E+01 0.149E+01 -.198E+00   0.562E-03 0.221E-02 0.179E-02
   0.712E+00 0.590E+03 0.971E+03   -.698E+00 -.589E+03 -.967E+03   -.906E-02 -.297E+00 -.236E+01   0.120E-02 -.706E-03 -.109E-02
   0.670E+01 0.632E+03 -.960E+03   -.678E+01 -.631E+03 0.957E+03   0.620E-01 -.432E+00 0.242E+01   0.119E-02 0.207E-02 0.219E-03
   0.102E+01 0.114E+04 0.655E+01   -.102E+01 -.114E+04 -.655E+01   -.318E-02 -.311E+01 0.186E-02   0.247E-02 0.560E-03 0.278E-02
   0.114E+04 0.300E+01 0.832E+01   -.114E+04 -.300E+01 -.832E+01   -.310E+01 0.417E-03 -.367E-02   0.114E-02 0.133E-02 0.495E-02
   -.115E+04 0.465E+01 0.130E+02   0.114E+04 -.463E+01 -.129E+02   0.310E+01 -.907E-02 -.238E-01   -.102E-02 0.469E-04 0.204E-02
   0.294E+01 -.115E+04 0.190E+02   -.288E+01 0.115E+04 -.189E+02   -.335E-01 0.311E+01 -.504E-01   0.120E-02 -.136E-02 0.272E-02
   -.580E+03 0.582E+03 0.818E+03   0.577E+03 -.579E+03 -.815E+03   0.155E+01 -.156E+01 -.221E+01   0.150E-02 -.144E-02 -.764E-03
   -.596E+03 0.614E+03 -.809E+03   0.593E+03 -.612E+03 0.805E+03   0.156E+01 -.156E+01 0.220E+01   -.419E-02 -.830E-03 -.139E-02
   0.582E+03 -.579E+03 0.820E+03   -.579E+03 0.577E+03 -.817E+03   -.156E+01 0.156E+01 -.220E+01   0.157E-02 0.151E-02 -.314E-03
   0.643E+03 -.602E+03 -.805E+03   -.641E+03 0.599E+03 0.801E+03   -.150E+01 0.149E+01 0.226E+01   0.682E-03 -.145E-02 -.104E-02
   0.580E+03 0.581E+03 0.817E+03   -.578E+03 -.579E+03 -.814E+03   -.155E+01 -.155E+01 -.221E+01   -.822E-03 -.704E-03 -.152E-02
   0.597E+03 0.602E+03 -.810E+03   -.594E+03 -.599E+03 0.806E+03   -.161E+01 -.161E+01 0.219E+01   0.281E-02 0.191E-02 0.193E-02
   -.580E+03 -.579E+03 0.821E+03   0.578E+03 0.577E+03 -.818E+03   0.156E+01 0.156E+01 -.220E+01   -.520E-03 0.163E-02 0.397E-03
   -.704E+03 -.652E+03 -.787E+03   0.702E+03 0.650E+03 0.784E+03   0.907E+00 0.122E+01 0.225E+01   -.269E-02 0.155E-02 -.103E-02
   0.400E+03 0.989E+03 -.408E+03   -.398E+03 -.986E+03 0.408E+03   -.150E+01 -.181E+01 0.211E+00   0.234E-02 0.449E-02 0.760E-02
   -.102E+04 -.392E+03 -.388E+03   0.101E+04 0.389E+03 0.388E+03   0.182E+01 0.151E+01 0.255E+00   -.197E-02 -.166E-03 -.143E-03
   -.323E+03 0.328E+03 0.469E+03   0.323E+03 -.329E+03 -.469E+03   -.374E+00 0.371E+00 0.527E+00   0.697E-03 0.158E-02 0.358E-02
   0.977E+03 0.398E+03 0.424E+03   -.974E+03 -.395E+03 -.424E+03   -.183E+01 -.149E+01 -.225E+00   -.903E-03 0.642E-03 0.159E-02
   -.395E+03 -.978E+03 0.432E+03   0.393E+03 0.975E+03 -.432E+03   0.149E+01 0.182E+01 -.225E+00   0.901E-03 -.501E-03 0.329E-03
   -.396E+03 0.992E+03 -.407E+03   0.394E+03 -.989E+03 0.407E+03   0.148E+01 -.183E+01 0.238E+00   0.171E-02 0.504E-02 0.631E-02
   0.999E+03 -.393E+03 -.402E+03   -.997E+03 0.390E+03 0.402E+03   -.185E+01 0.149E+01 0.231E+00   0.253E-02 -.712E-04 0.357E-02
   -.977E+03 0.399E+03 0.427E+03   0.974E+03 -.397E+03 -.426E+03   0.182E+01 -.149E+01 -.204E+00   0.841E-03 0.563E-03 0.204E-02
   0.398E+03 -.977E+03 0.430E+03   -.396E+03 0.974E+03 -.430E+03   -.149E+01 0.181E+01 -.208E+00   0.206E-02 -.894E-04 0.811E-03
   0.325E+03 0.327E+03 0.467E+03   -.326E+03 -.328E+03 -.467E+03   0.379E+00 0.378E+00 0.504E+00   0.107E-02 0.330E-02 0.318E-02
   0.259E+01 0.655E+03 0.169E+02   -.258E+01 -.656E+03 -.169E+02   -.302E-02 0.701E+00 0.105E-01   0.312E-02 0.329E-02 0.668E-02
   -.589E+03 0.207E+01 0.973E+03   0.588E+03 -.208E+01 -.969E+03   0.321E+00 0.377E-02 -.234E+01   0.687E-03 0.356E-02 -.105E-02
   -.688E+03 0.681E+02 -.950E+03   0.688E+03 -.684E+02 0.946E+03   -.113E-01 0.215E+00 0.235E+01   -.333E-02 -.317E-02 -.189E-02
   0.590E+03 0.181E+01 0.971E+03   -.589E+03 -.179E+01 -.968E+03   -.302E+00 -.118E-01 -.236E+01   0.810E-03 0.224E-02 -.107E-02
   0.643E+03 0.244E+02 -.959E+03   -.643E+03 -.245E+02 0.955E+03   -.317E+00 0.714E-01 0.240E+01   0.144E-02 -.342E-03 -.148E-02
   0.768E+03 0.771E+03 0.107E+02   -.766E+03 -.769E+03 -.108E+02   -.114E+01 -.113E+01 0.179E-01   -.117E-03 0.207E-02 0.517E-02
   -.776E+03 -.770E+03 0.317E+02   0.774E+03 0.768E+03 -.316E+02   0.121E+01 0.124E+01 -.691E-01   -.197E-02 0.688E-03 0.155E-02
   -.767E+03 0.774E+03 0.139E+02   0.765E+03 -.772E+03 -.139E+02   0.114E+01 -.113E+01 -.248E-01   -.487E-04 0.207E-03 0.596E-02
   0.777E+03 -.767E+03 0.212E+02   -.775E+03 0.765E+03 -.212E+02   -.113E+01 0.117E+01 -.468E-01   0.129E-02 -.679E-03 0.454E-02
   0.966E+00 0.224E+01 0.108E+04   -.944E+00 -.221E+01 -.108E+04   -.164E-01 -.237E-01 -.161E+01   0.727E-03 0.373E-02 -.532E-03
   0.133E+03 0.312E+03 -.106E+04   -.132E+03 -.310E+03 0.105E+04   -.292E+01 -.625E+01 0.321E+01   -.175E-02 -.296E-02 -.173E-02
   0.990E+03 0.405E+03 -.407E+03   -.987E+03 -.403E+03 0.406E+03   -.182E+01 -.152E+01 0.202E+00   0.276E-02 0.223E-02 0.475E-02
   -.408E+03 -.103E+04 -.371E+03   0.406E+03 0.102E+04 0.370E+03   0.152E+01 0.168E+01 0.371E+00   -.132E-02 -.996E-03 0.777E-03
   -.335E+03 0.374E+03 -.413E+03   0.336E+03 -.374E+03 0.414E+03   -.391E+00 0.498E+00 -.451E+00   -.139E-02 -.177E-02 0.409E-02
   0.327E+03 -.320E+03 0.472E+03   -.327E+03 0.321E+03 -.472E+03   0.372E+00 -.351E+00 0.535E+00   0.232E-02 0.154E-02 0.256E-02
   0.347E+03 0.358E+03 -.424E+03   -.348E+03 -.358E+03 0.425E+03   0.336E+00 0.328E+00 -.633E+00   0.217E-02 0.174E-02 0.631E-02
   -.996E+03 0.414E+03 -.400E+03   0.993E+03 -.411E+03 0.400E+03   0.181E+01 -.152E+01 0.227E+00   -.309E-02 -.261E-02 0.122E-02
   0.422E+03 -.101E+04 -.384E+03   -.420E+03 0.101E+04 0.384E+03   -.169E+01 0.192E+01 0.485E-01   0.140E-02 -.186E-02 0.217E-02
   -.323E+03 -.320E+03 0.475E+03   0.324E+03 0.321E+03 -.475E+03   -.358E+00 -.365E+00 0.521E+00   0.440E-04 0.324E-02 0.158E-02
   0.655E+03 0.753E+01 0.211E+02   -.656E+03 -.753E+01 -.211E+02   0.701E+00 -.528E-03 -.166E-01   0.234E-02 0.230E-02 0.653E-02
   -.654E+03 0.113E+02 0.315E+02   0.655E+03 -.112E+02 -.314E+02   -.660E+00 -.892E-01 -.709E-01   -.194E-02 0.343E-03 0.461E-02
   0.989E+00 -.588E+03 0.974E+03   -.994E+00 0.587E+03 -.971E+03   0.143E-02 0.322E+00 -.233E+01   0.204E-02 0.108E-02 0.854E-04
   0.146E+03 -.896E+03 -.881E+03   -.146E+03 0.895E+03 0.878E+03   -.205E+01 0.457E+01 0.187E+00   -.120E-02 -.413E-03 -.192E-02
   0.657E+01 0.154E+02 0.435E+02   -.659E+01 -.154E+02 -.435E+02   -.902E-02 -.135E-01 -.158E-01   0.412E-03 0.190E-02 0.593E-02
   0.394E+03 -.319E+03 -.377E+03   -.395E+03 0.320E+03 0.377E+03   0.859E+00 -.391E+00 -.129E+00   -.880E-04 -.562E-03 0.294E-02
   -.388E+03 -.320E+03 -.282E+03   0.388E+03 0.320E+03 0.285E+03   -.143E+00 -.260E+00 -.123E+01   -.277E-02 -.218E-03 0.399E-03
   0.666E+01 -.652E+03 0.440E+02   -.666E+01 0.653E+03 -.440E+02   -.199E-01 -.715E+00 -.513E-01   0.115E-02 -.103E-03 0.370E-02
   -.525E+02 -.509E+02 -.160E+03   0.513E+02 0.431E+02 0.135E+03   0.114E+01 0.577E+01 0.131E+02   -.110E-02 0.264E-04 -.647E-03
   -.162E+03 -.199E+03 -.938E+03   0.179E+03 0.213E+03 0.101E+04   -.130E+02 -.111E+02 -.542E+02   -.171E-02 0.194E-03 -.129E-02
 -----------------------------------------------------------------------------------------------
   0.172E+02 0.742E+01 0.421E+02   0.568E-12 0.824E-12 -.182E-11   -.172E+02 -.745E+01 -.422E+02   0.180E-01 0.357E-01 0.100E+00
 
 
 POSITION                                       TOTAL-FORCE (eV/Angst)
 -----------------------------------------------------------------------------------
     13.37281      9.84801     12.50759         0.695823      1.106305      0.290704
     20.15199     16.62719     12.50759        -1.114232     -0.705061      0.297879
     16.62719      9.84801     12.50759        -0.699394      1.109610      0.291838
      9.84801     16.62719     12.50759         1.111482     -0.699744      0.288653
     15.00000     11.47521     10.20639         0.006011      0.409072      1.279591
     15.00000     11.47521     19.79360        -0.013716      0.305196     -1.299810
     15.00000      8.28283     15.00000         0.002067      1.516070      0.001762
      8.28283     15.00000     15.00000         1.513569     -0.001114      0.001337
     21.71717     15.00000     15.00000        -1.508357      0.004326      0.005942
     15.00000     21.71717     15.00000         0.020575     -1.513389      0.024037
     18.35858     11.64142     10.25025        -0.748856      0.757739      1.071992
     18.35858     11.64142     19.74975        -0.746055      0.742384     -1.066767
     11.64142     18.35858     10.25025         0.754651     -0.756140      1.072084
     11.64142     18.35858     19.74975         0.664679     -0.724091     -1.073294
     11.64142     11.64142     10.25025         0.750443      0.753123      1.076745
     11.64142     11.64142     19.74975         0.762015      0.760612     -1.058904
     18.35858     18.35858     10.25025        -0.755044     -0.755024      1.072073
     18.35858     18.35858     19.74975        -0.390275     -0.541748     -1.089630
     13.37281      9.84801     17.49241         0.702725      1.114432     -0.291549
     20.15199     16.62719     17.49241        -1.061566     -0.727246     -0.327611
     16.73751     13.26249     12.54279         0.111345     -0.105176     -0.154545
      9.84801     13.37281     12.50759         1.107556      0.698917      0.294700
     16.62719     20.15199     12.50759        -0.700805     -1.108878      0.293827
     16.62719      9.84801     17.49241        -0.694713      1.109237     -0.300946
      9.84801     16.62719     17.49241         1.107408     -0.687882     -0.303646
     20.15199     13.37281     12.50759        -1.104870      0.690458      0.274720
     13.37281     20.15199     12.50759         0.696966     -1.110950      0.289930
     13.26249     13.26249     12.54279        -0.113092     -0.113162     -0.150751
     15.00000     11.52498     15.00000         0.001058     -0.229710      0.002586
     18.52479     15.00000     10.20639        -0.418473     -0.004078      1.275571
     18.52479     15.00000     19.79360        -0.233020     -0.108779     -1.309375
     11.47521     15.00000     10.20640         0.411779      0.008165      1.278347
     11.47521     15.00000     19.79360         0.324738     -0.018629     -1.301899
     11.49535     11.49535     15.00000         0.828228      0.824847     -0.010563
     18.50465     18.50465     15.00000        -0.836567     -0.861487      0.008375
     18.50465     11.49535     15.00000        -0.832273      0.826466      0.001279
     11.49535     18.50465     15.00000         0.825127     -0.837406      0.000594
     15.00000     15.00000     10.04368         0.005753      0.010390      1.179280
     15.00000     15.00000     19.95633        -1.747881     -4.330709     -1.267893
      9.84801     13.37281     17.49241         1.111602      0.707988     -0.286952
     16.62719     20.15199     17.49241        -0.716657     -1.005937     -0.399300
     16.73751     13.26249     17.45721         0.122060     -0.184482      0.108448
     13.26249     16.73751     12.54279        -0.112374      0.105690     -0.162065
     13.26249     13.26249     17.45721        -0.121144     -0.139662      0.155743
     20.15199     13.37281     17.49241        -1.099498      0.701459     -0.298239
     13.37281     20.15199     17.49241         0.708067     -1.070579     -0.253316
     16.73751     16.73751     12.54279         0.110004      0.109759     -0.151345
     11.52498     15.00000     15.00000        -0.223804      0.000795      0.000815
     18.47502     15.00000     15.00000         0.243717      0.012967      0.011596
     15.00000     18.52480     10.20639        -0.001284     -0.420349      1.278562
     15.00000     18.52480     19.79360        -1.872087      3.276043     -2.757238
     15.00000     15.00000     15.00000        -0.018990     -0.013944     -0.041504
     13.26249     16.73751     17.45721        -0.274581      0.087433      0.014963
     16.73751     16.73751     17.45721        -0.293721      0.037583      1.178474
     15.00000     18.47502     15.00000        -0.012300      0.248034     -0.013484
     15.68729     16.61087     19.56709        -0.102440     -2.046838    -11.931986
     15.84579     16.98235     20.62030         3.868623      2.787095     12.880165
 -----------------------------------------------------------------------------------
    total drift:                               -0.005231     -0.003175     -0.009453


--------------------------------------------------------------------------------------------------------



  FREE ENERGIE OF THE ION-ELECTRON SYSTEM (eV)
  ---------------------------------------------------
  free  energy   TOTEN  =      -173.44020311 eV

  energy  without entropy=     -173.39481349  energy(sigma->0) =     -173.42885570
 


--------------------------------------------------------------------------------------------------------


    POTLOK:  cpu time   14.3135: real time   14.3148


--------------------------------------------------------------------------------------------------------


     LOOP+:  cpu time18569.1225: real time18570.1870
    4ORBIT:  cpu time    0.0000: real time    0.0000

 total amount of memory used by VASP MPI-rank0  5486941. kBytes
=======================================================================

   base      :      30000. kBytes
   nonlr-proj:      17126. kBytes
   fftplans  :     924480. kBytes
   grid      :    1872000. kBytes
   one-center:        886. kBytes
   wavefun   :    2642449. kBytes
 
  
  
 General timing and accounting informations for this job:
 ========================================================
  
                  Total CPU time used (sec):    18644.174
                            User time (sec):    17571.188
                          System time (sec):     1072.985
                         Elapsed time (sec):    18645.349
  
                   Maximum memory used (kb):     7178700.
                   Average memory used (kb):           0.
  
                          Minor page faults:    834514465
                          Major page faults:            0
                 Voluntary context switches:          510
