  57  57   0   0
  0.4736842E+03  0.3000000E-08  0.3000000E-08  0.3000000E-08  0.5000000E-15
  1.000000000000000E-004
  CAR 
 6_Pd100_top_free_z(O)                   
      1.29841471    -30.09230918  301     -4.15575122      1.00000000
    -30.092  0.0000E+00  0.0000E+00
    -29.988  0.0000E+00  0.0000E+00
    -29.883  0.0000E+00  0.0000E+00
    -29.778  0.2089E-27  0.2185E-28
    -29.674  0.8818E-24  0.9228E-25
    -29.569  0.2122E-20  0.2221E-21
    -29.464  0.2902E-17  0.3039E-18
    -29.360  0.2249E-14  0.2357E-15
    -29.255  0.9853E-12  0.1033E-12
    -29.151  0.2416E-09  0.2539E-10
    -29.046  0.3295E-07  0.3473E-08
    -28.941  0.2465E-05  0.2614E-06
    -28.837  0.9898E-04  0.1062E-04
    -28.732  0.2047E-02  0.2248E-03
    -28.627  0.1987E-01  0.2304E-02
    -28.523  0.6425E-01  0.9027E-02
    -28.418 -0.1448E+00 -0.6128E-02
    -28.314 -0.8135E+00 -0.9125E-01
    -28.209  0.1253E+01  0.3989E-01
    -28.104  0.7974E+01  0.8742E+00
    -28.000  0.9177E+01  0.1834E+01
    -27.895  0.2564E+01  0.2103E+01
    -27.790 -0.7865E+00  0.2020E+01
    -27.686 -0.2895E+00  0.1990E+01
    -27.581  0.6099E-01  0.1997E+01
    -27.476  0.2933E-01  0.2000E+01
    -27.372  0.3693E-02  0.2000E+01
    -27.267  0.2097E-03  0.2000E+01
    -27.163  0.6047E-05  0.2000E+01
    -27.058  0.9291E-07  0.2000E+01
    -26.953  0.7801E-09  0.2000E+01
    -26.849  0.3635E-11  0.2000E+01
    -26.744  0.8488E-14  0.2000E+01
    -26.639  0.0000E+00  0.2000E+01
    -26.535  0.0000E+00  0.2000E+01
    -26.430  0.0000E+00  0.2000E+01
    -26.325  0.0000E+00  0.2000E+01
    -26.221  0.0000E+00  0.2000E+01
    -26.116  0.0000E+00  0.2000E+01
    -26.012  0.0000E+00  0.2000E+01
    -25.907  0.0000E+00  0.2000E+01
    -25.802  0.0000E+00  0.2000E+01
    -25.698  0.0000E+00  0.2000E+01
    -25.593  0.0000E+00  0.2000E+01
    -25.488  0.0000E+00  0.2000E+01
    -25.384  0.0000E+00  0.2000E+01
    -25.279  0.0000E+00  0.2000E+01
    -25.174  0.0000E+00  0.2000E+01
    -25.070  0.0000E+00  0.2000E+01
    -24.965  0.0000E+00  0.2000E+01
    -24.861  0.0000E+00  0.2000E+01
    -24.756  0.0000E+00  0.2000E+01
    -24.651  0.0000E+00  0.2000E+01
    -24.547  0.0000E+00  0.2000E+01
    -24.442  0.0000E+00  0.2000E+01
    -24.337  0.0000E+00  0.2000E+01
    -24.233  0.0000E+00  0.2000E+01
    -24.128  0.0000E+00  0.2000E+01
    -24.023  0.0000E+00  0.2000E+01
    -23.919  0.0000E+00  0.2000E+01
    -23.814  0.0000E+00  0.2000E+01
    -23.710  0.0000E+00  0.2000E+01
    -23.605  0.0000E+00  0.2000E+01
    -23.500  0.0000E+00  0.2000E+01
    -23.396  0.0000E+00  0.2000E+01
    -23.291  0.0000E+00  0.2000E+01
    -23.186  0.0000E+00  0.2000E+01
    -23.082  0.0000E+00  0.2000E+01
    -22.977  0.0000E+00  0.2000E+01
    -22.872  0.0000E+00  0.2000E+01
    -22.768  0.0000E+00  0.2000E+01
    -22.663  0.0000E+00  0.2000E+01
    -22.559  0.0000E+00  0.2000E+01
    -22.454  0.0000E+00  0.2000E+01
    -22.349  0.0000E+00  0.2000E+01
    -22.245  0.0000E+00  0.2000E+01
    -22.140  0.0000E+00  0.2000E+01
    -22.035  0.0000E+00  0.2000E+01
    -21.931  0.0000E+00  0.2000E+01
    -21.826  0.0000E+00  0.2000E+01
    -21.721  0.0000E+00  0.2000E+01
    -21.617  0.0000E+00  0.2000E+01
    -21.512  0.0000E+00  0.2000E+01
    -21.408  0.0000E+00  0.2000E+01
    -21.303  0.0000E+00  0.2000E+01
    -21.198  0.0000E+00  0.2000E+01
    -21.094  0.0000E+00  0.2000E+01
    -20.989  0.0000E+00  0.2000E+01
    -20.884  0.0000E+00  0.2000E+01
    -20.780  0.0000E+00  0.2000E+01
    -20.675  0.0000E+00  0.2000E+01
    -20.570  0.0000E+00  0.2000E+01
    -20.466  0.0000E+00  0.2000E+01
    -20.361  0.0000E+00  0.2000E+01
    -20.257  0.0000E+00  0.2000E+01
    -20.152  0.0000E+00  0.2000E+01
    -20.047  0.0000E+00  0.2000E+01
    -19.943  0.0000E+00  0.2000E+01
    -19.838  0.0000E+00  0.2000E+01
    -19.733  0.0000E+00  0.2000E+01
    -19.629  0.0000E+00  0.2000E+01
    -19.524  0.0000E+00  0.2000E+01
    -19.419  0.0000E+00  0.2000E+01
    -19.315  0.0000E+00  0.2000E+01
    -19.210  0.0000E+00  0.2000E+01
    -19.106  0.0000E+00  0.2000E+01
    -19.001  0.0000E+00  0.2000E+01
    -18.896  0.0000E+00  0.2000E+01
    -18.792  0.0000E+00  0.2000E+01
    -18.687  0.0000E+00  0.2000E+01
    -18.582  0.0000E+00  0.2000E+01
    -18.478  0.0000E+00  0.2000E+01
    -18.373  0.0000E+00  0.2000E+01
    -18.268  0.0000E+00  0.2000E+01
    -18.164  0.0000E+00  0.2000E+01
    -18.059  0.0000E+00  0.2000E+01
    -17.955  0.0000E+00  0.2000E+01
    -17.850  0.0000E+00  0.2000E+01
    -17.745  0.0000E+00  0.2000E+01
    -17.641  0.0000E+00  0.2000E+01
    -17.536  0.0000E+00  0.2000E+01
    -17.431  0.0000E+00  0.2000E+01
    -17.327  0.0000E+00  0.2000E+01
    -17.222  0.0000E+00  0.2000E+01
    -17.117  0.0000E+00  0.2000E+01
    -17.013  0.0000E+00  0.2000E+01
    -16.908  0.0000E+00  0.2000E+01
    -16.804  0.0000E+00  0.2000E+01
    -16.699  0.0000E+00  0.2000E+01
    -16.594  0.0000E+00  0.2000E+01
    -16.490  0.0000E+00  0.2000E+01
    -16.385  0.0000E+00  0.2000E+01
    -16.280  0.0000E+00  0.2000E+01
    -16.176  0.0000E+00  0.2000E+01
    -16.071  0.0000E+00  0.2000E+01
    -15.966  0.0000E+00  0.2000E+01
    -15.862  0.0000E+00  0.2000E+01
    -15.757  0.0000E+00  0.2000E+01
    -15.653  0.0000E+00  0.2000E+01
    -15.548  0.0000E+00  0.2000E+01
    -15.443  0.0000E+00  0.2000E+01
    -15.339  0.0000E+00  0.2000E+01
    -15.234  0.0000E+00  0.2000E+01
    -15.129  0.0000E+00  0.2000E+01
    -15.025  0.6427E-27  0.2000E+01
    -14.920  0.2521E-23  0.2000E+01
    -14.815  0.5635E-20  0.2000E+01
    -14.711  0.7158E-17  0.2000E+01
    -14.606  0.5148E-14  0.2000E+01
    -14.502  0.2091E-11  0.2000E+01
    -14.397  0.4754E-09  0.2000E+01
    -14.292  0.5998E-07  0.2000E+01
    -14.188  0.4143E-05  0.2000E+01
    -14.083  0.1530E-03  0.2000E+01
    -13.978  0.2886E-02  0.2000E+01
    -13.874  0.2502E-01  0.2003E+01
    -13.769  0.6415E-01  0.2010E+01
    -13.664 -0.2232E+00  0.1986E+01
    -13.560 -0.8193E+00  0.1901E+01
    -13.455  0.1970E+01  0.2107E+01
    -13.351  0.8716E+01  0.3019E+01
    -13.246  0.8537E+01  0.3912E+01
    -13.141  0.1775E+01  0.4098E+01
    -13.037 -0.8229E+00  0.4012E+01
    -12.932 -0.2017E+00  0.3990E+01
    -12.827  0.6458E-01  0.3997E+01
    -12.723  0.2361E-01  0.4000E+01
    -12.618  0.2645E-02  0.4000E+01
    -12.514  0.1369E-03  0.4000E+01
    -12.409  0.3627E-05  0.4000E+01
    -12.304  0.5146E-07  0.4000E+01
    -12.200  0.4797E-08  0.4000E+01
    -12.095  0.4256E-06  0.4000E+01
    -11.990  0.2237E-04  0.4000E+01
    -11.886  0.6199E-03  0.4000E+01
    -11.781  0.8539E-02  0.4001E+01
    -11.676  0.4997E-01  0.4006E+01
    -11.572  0.4084E-01  0.4010E+01
    -11.467 -0.4969E+00  0.3958E+01
    -11.363 -0.5255E+00  0.3903E+01
    -11.258  0.4177E+01  0.4341E+01
    -11.153  0.1191E+02  0.5586E+01
    -11.049  0.1421E+02  0.7073E+01
    -10.944  0.8552E+01  0.7968E+01
    -10.839  0.1260E+01  0.8100E+01
    -10.735 -0.1382E+01  0.7955E+01
    -10.630 -0.4842E+00  0.7905E+01
    -10.525  0.5036E+01  0.8432E+01
    -10.421  0.1005E+02  0.9483E+01
    -10.316  0.5607E+01  0.1007E+02
    -10.212 -0.1011E+00  0.1006E+02
    -10.107 -0.6253E+00  0.9994E+01
    -10.002 -0.4149E-02  0.9993E+01
     -9.898  0.5149E-01  0.9999E+01
     -9.793  0.1004E-01  0.1000E+02
     -9.688  0.7847E-03  0.1000E+02
     -9.584  0.3003E-04  0.1000E+02
     -9.479  0.6023E-06  0.1000E+02
     -9.374  0.6541E-08  0.1000E+02
     -9.270  0.3918E-10  0.1000E+02
     -9.165  0.1316E-12  0.1000E+02
     -9.061  0.0000E+00  0.1000E+02
     -8.956  0.0000E+00  0.1000E+02
     -8.851  0.0000E+00  0.1000E+02
     -8.747  0.0000E+00  0.1000E+02
     -8.642  0.0000E+00  0.1000E+02
     -8.537  0.0000E+00  0.1000E+02
     -8.433  0.0000E+00  0.1000E+02
     -8.328  0.6390E-27  0.1000E+02
     -8.223  0.2507E-23  0.1000E+02
     -8.119  0.5607E-20  0.1000E+02
     -8.014  0.7125E-17  0.1000E+02
     -7.910  0.5126E-14  0.1000E+02
     -7.805  0.2083E-11  0.1000E+02
     -7.700  0.4737E-09  0.1000E+02
     -7.596  0.5980E-07  0.1000E+02
     -7.491  0.4132E-05  0.1000E+02
     -7.386  0.1526E-03  0.1000E+02
     -7.282  0.2881E-02  0.1000E+02
     -7.177  0.2499E-01  0.1000E+02
     -7.072  0.6417E-01  0.1001E+02
     -6.968 -0.2226E+00  0.9986E+01
     -6.863 -0.8150E+00  0.9901E+01
     -6.759  0.2011E+01  0.1011E+02
     -6.654  0.8894E+01  0.1104E+02
     -6.549  0.8444E+01  0.1193E+02
     -6.445 -0.1933E+00  0.1191E+02
     -6.340 -0.5860E+00  0.1184E+02
     -6.235  0.1941E+02  0.1388E+02
     -6.131  0.4082E+02  0.1815E+02
     -6.026  0.2972E+02  0.2126E+02
     -5.921  0.1265E+02  0.2258E+02
     -5.817  0.3252E+02  0.2598E+02
     -5.712  0.7688E+02  0.3403E+02
     -5.608  0.1556E+03  0.5031E+02
     -5.503  0.2625E+03  0.7777E+02
     -5.398  0.2935E+03  0.1085E+03
     -5.294  0.2339E+03  0.1330E+03
     -5.189  0.2150E+03  0.1555E+03
     -5.084  0.2867E+03  0.1855E+03
     -4.980  0.3540E+03  0.2225E+03
     -4.875  0.3319E+03  0.2572E+03
     -4.770  0.3002E+03  0.2886E+03
     -4.666  0.3587E+03  0.3262E+03
     -4.561  0.4179E+03  0.3699E+03
     -4.457  0.4148E+03  0.4133E+03
     -4.352  0.4713E+03  0.4626E+03
     -4.247  0.5499E+03  0.5201E+03
     -4.143  0.4184E+03  0.5639E+03
     -4.038  0.1496E+03  0.5796E+03
     -3.933  0.1560E+02  0.5812E+03
     -3.829  0.1865E+02  0.5831E+03
     -3.724  0.2272E+02  0.5855E+03
     -3.619  0.1571E+02  0.5872E+03
     -3.515  0.2414E+02  0.5897E+03
     -3.410  0.2332E+02  0.5921E+03
     -3.306  0.9748E+01  0.5932E+03
     -3.201  0.4824E+01  0.5937E+03
     -3.096  0.3081E+02  0.5969E+03
     -2.992  0.6103E+02  0.6033E+03
     -2.887  0.4154E+02  0.6076E+03
     -2.782  0.5607E+01  0.6082E+03
     -2.678  0.5804E+01  0.6088E+03
     -2.573  0.2504E+02  0.6114E+03
     -2.468  0.2743E+02  0.6143E+03
     -2.364  0.1612E+02  0.6160E+03
     -2.259  0.1124E+02  0.6172E+03
     -2.155  0.2250E+02  0.6195E+03
     -2.050  0.4034E+02  0.6237E+03
     -1.945  0.4379E+02  0.6283E+03
     -1.841  0.3299E+02  0.6318E+03
     -1.736  0.3117E+02  0.6350E+03
     -1.631  0.4086E+02  0.6393E+03
     -1.527  0.3700E+02  0.6432E+03
     -1.422  0.2332E+02  0.6456E+03
     -1.317  0.1993E+02  0.6477E+03
     -1.213  0.2059E+02  0.6499E+03
     -1.108  0.2253E+02  0.6522E+03
     -1.004  0.4963E+02  0.6574E+03
     -0.899  0.7440E+02  0.6652E+03
     -0.794  0.4784E+02  0.6702E+03
     -0.690  0.1325E+02  0.6716E+03
     -0.585  0.3607E+01  0.6720E+03
     -0.480  0.6862E+00  0.6720E+03
     -0.376 -0.4377E+00  0.6720E+03
     -0.271 -0.2973E-01  0.6720E+03
     -0.166  0.7714E-01  0.6720E+03
     -0.062  0.2057E-01  0.6720E+03
      0.043  0.2068E-02  0.6720E+03
      0.147  0.9930E-04  0.6720E+03
      0.252  0.2468E-05  0.6720E+03
      0.357  0.3297E-07  0.6720E+03
      0.461  0.2417E-09  0.6720E+03
      0.566  0.9846E-12  0.6720E+03
      0.671  0.2122E-14  0.6720E+03
      0.775  0.0000E+00  0.6720E+03
      0.880  0.0000E+00  0.6720E+03
      0.985  0.0000E+00  0.6720E+03
      1.089  0.0000E+00  0.6720E+03
      1.194  0.0000E+00  0.6720E+03
      1.298  0.0000E+00  0.6720E+03
