 vasp.5.4.4.18Apr17-6-g9f103f2a35 (build Sep 03 2018 23:53:05) complex          
  
 executed on             LinuxIFC date 2021.11.26  10:44:05
 running on    1 total cores
 distrk:  each k-point on    1 cores,    1 groups
 distr:  one band on NCORES_PER_BAND=   1 cores,    1 groups


--------------------------------------------------------------------------------------------------------


 INCAR:
 POTCAR:    PAW_PBE Pd 04Jan2005                  
 POTCAR:    PAW_PBE C 08Apr2002                   
 POTCAR:    PAW_PBE O 08Apr2002                   
 POTCAR:    PAW_PBE Pd 04Jan2005                  
   VRHFIN =Pd : s1 d9                                                           
   LEXCH  = PE                                                                  
   EATOM  =   809.7530 eV,   59.5152 Ry                                         
                                                                                
   TITEL  = PAW_PBE Pd 04Jan2005                                                
   LULTRA =        F    use ultrasoft PP ?                                      
   IUNSCR =        1    unscreen: 0-lin 1-nonlin 2-no                           
   RPACOR =    2.000    partial core radius                                     
   POMASS =  106.420; ZVAL   =   10.000    mass and valenz                      
   RCORE  =    2.600    outmost cutoff radius                                   
   RWIGS  =    2.710; RWIGS  =    1.434    wigner-seitz radius (au A)           
   ENMAX  =  250.925; ENMIN  =  188.194 eV                                      
   ICORE  =        3    local potential                                         
   LCOR   =        T    correct aug charges                                     
   LPAW   =        T    paw PP                                                  
   EAUG   =  416.230                                                            
   DEXC   =    0.000                                                            
   RMAX   =    2.653    core radius for proj-oper                               
   RAUG   =    1.300    factor for augmentation sphere                          
   RDEP   =    2.734    radius for radial grids                                 
   RDEPT  =    2.103    core radius for aug-charge                              
                                                                                
   Atomic configuration                                                         
   12 entries                                                                   
     n  l   j            E        occ.                                          
     1  0  0.50    -24164.6631   2.0000                                         
     2  0  0.50     -3530.9218   2.0000                                         
     2  1  1.50     -3165.6822   6.0000                                         
     3  0  0.50      -639.4577   2.0000                                         
     3  1  1.50      -519.4532   6.0000                                         
     3  2  2.50      -328.9757  10.0000                                         
     4  0  0.50       -88.7014   2.0000                                         
     4  1  1.50       -54.4540   6.0000                                         
     4  2  2.50        -6.6878   9.0000                                         
     5  0  0.50        -4.3543   1.0000                                         
     5  1  0.50        -1.3606   0.0000                                         
     4  3  2.50        -1.3606   0.0000                                         
   Description                                                                  
     l       E           TYP  RCUT    TYP  RCUT                                 
     2     -6.6878251     23  2.400                                             
     2     -8.0484077     23  2.400                                             
     0     -4.3542939     23  2.400                                             
     0      4.3406793     23  2.400                                             
     1     -4.0817478     23  2.600                                             
     1     15.8380318     23  2.600                                             
     3     -4.0817478     23  2.400                                             
  local pseudopotential read in
  partial core-charges read in
  partial kinetic energy density read in
  atomic valenz-charges read in
  non local Contribution for L=           2  read in
    real space projection operators read in
  non local Contribution for L=           2  read in
    real space projection operators read in
  non local Contribution for L=           0  read in
    real space projection operators read in
  non local Contribution for L=           0  read in
    real space projection operators read in
  non local Contribution for L=           1  read in
    real space projection operators read in
  non local Contribution for L=           1  read in
    real space projection operators read in
    PAW grid and wavefunctions read in
 
   number of l-projection  operators is LMAX  =           6
   number of lm-projection operators is LMMAX =          18
 
 POTCAR:    PAW_PBE C 08Apr2002                   
   VRHFIN =C: s2p2                                                              
   LEXCH  = PE                                                                  
   EATOM  =   147.1560 eV,   10.8157 Ry                                         
                                                                                
   TITEL  = PAW_PBE C 08Apr2002                                                 
   LULTRA =        F    use ultrasoft PP ?                                      
   IUNSCR =        1    unscreen: 0-lin 1-nonlin 2-no                           
   RPACOR =    1.200    partial core radius                                     
   POMASS =   12.011; ZVAL   =    4.000    mass and valenz                      
   RCORE  =    1.500    outmost cutoff radius                                   
   RWIGS  =    1.630; RWIGS  =    0.863    wigner-seitz radius (au A)           
   ENMAX  =  400.000; ENMIN  =  300.000 eV                                      
   ICORE  =        2    local potential                                         
   LCOR   =        T    correct aug charges                                     
   LPAW   =        T    paw PP                                                  
   EAUG   =  644.873                                                            
   DEXC   =    0.000                                                            
   RMAX   =    1.529    core radius for proj-oper                               
   RAUG   =    1.300    factor for augmentation sphere                          
   RDEP   =    1.501    radius for radial grids                                 
   RDEPT  =    1.300    core radius for aug-charge                              
                                                                                
   Atomic configuration                                                         
    4 entries                                                                   
     n  l   j            E        occ.                                          
     1  0  0.50      -273.3789   2.0000                                         
     2  0  0.50       -13.7508   2.0000                                         
     2  1  0.50        -5.2854   2.0000                                         
     3  2  1.50        -5.4423   0.0000                                         
   Description                                                                  
     l       E           TYP  RCUT    TYP  RCUT                                 
     0    -13.7508458     23  1.200                                             
     0     -8.2022199     23  1.200                                             
     1     -5.2854383     23  1.500                                             
     1     34.0145650     23  1.500                                             
     2     -5.4423304      7  1.500                                             
  local pseudopotential read in
  partial core-charges read in
  partial kinetic energy density read in
  atomic valenz-charges read in
  non local Contribution for L=           0  read in
    real space projection operators read in
  non local Contribution for L=           0  read in
    real space projection operators read in
  non local Contribution for L=           1  read in
    real space projection operators read in
  non local Contribution for L=           1  read in
    real space projection operators read in
    PAW grid and wavefunctions read in
 
   number of l-projection  operators is LMAX  =           4
   number of lm-projection operators is LMMAX =           8
 
 POTCAR:    PAW_PBE O 08Apr2002                   
   VRHFIN =O: s2p4                                                              
   LEXCH  = PE                                                                  
   EATOM  =   432.3788 eV,   31.7789 Ry                                         
                                                                                
   TITEL  = PAW_PBE O 08Apr2002                                                 
   LULTRA =        F    use ultrasoft PP ?                                      
   IUNSCR =        1    unscreen: 0-lin 1-nonlin 2-no                           
   RPACOR =    1.200    partial core radius                                     
   POMASS =   16.000; ZVAL   =    6.000    mass and valenz                      
   RCORE  =    1.520    outmost cutoff radius                                   
   RWIGS  =    1.550; RWIGS  =    0.820    wigner-seitz radius (au A)           
   ENMAX  =  400.000; ENMIN  =  300.000 eV                                      
   ICORE  =        2    local potential                                         
   LCOR   =        T    correct aug charges                                     
   LPAW   =        T    paw PP                                                  
   EAUG   =  605.392                                                            
   DEXC   =    0.000                                                            
   RMAX   =    1.553    core radius for proj-oper                               
   RAUG   =    1.300    factor for augmentation sphere                          
   RDEP   =    1.550    radius for radial grids                                 
   RDEPT  =    1.329    core radius for aug-charge                              
                                                                                
   Atomic configuration                                                         
    4 entries                                                                   
     n  l   j            E        occ.                                          
     1  0  0.50      -514.6923   2.0000                                         
     2  0  0.50       -23.9615   2.0000                                         
     2  1  0.50        -9.0305   4.0000                                         
     3  2  1.50        -9.5241   0.0000                                         
   Description                                                                  
     l       E           TYP  RCUT    TYP  RCUT                                 
     0    -23.9615318     23  1.200                                             
     0     -9.5240782     23  1.200                                             
     1     -9.0304911     23  1.520                                             
     1      8.1634956     23  1.520                                             
     2     -9.5240782      7  1.500                                             
  local pseudopotential read in
  partial core-charges read in
  partial kinetic energy density read in
  kinetic energy density of atom read in
  atomic valenz-charges read in
  non local Contribution for L=           0  read in
    real space projection operators read in
  non local Contribution for L=           0  read in
    real space projection operators read in
  non local Contribution for L=           1  read in
    real space projection operators read in
  non local Contribution for L=           1  read in
    real space projection operators read in
    PAW grid and wavefunctions read in
 
   number of l-projection  operators is LMAX  =           4
   number of lm-projection operators is LMMAX =           8
 
 Optimization of the real space projectors (new method)

 maximal supplied QI-value         = 14.36
 optimisation between [QCUT,QGAM] = [ 10.20, 20.39] = [ 29.12,116.47] Ry 
 Optimized for a Real-space Cutoff    1.51 Angstroem

   l    n(q)    QCUT    max X(q) W(low)/X(q) W(high)/X(q)  e(spline) 
   2      8    10.197    59.108    0.26E-03    0.14E-03    0.96E-07
   2      8    10.197    58.101    0.27E-03    0.14E-03    0.98E-07
   0      9    10.197   102.235    0.54E-04    0.60E-05    0.72E-07
   0      9    10.197    58.388    0.52E-04    0.60E-05    0.68E-07
   1      9    10.197    22.191    0.18E-03    0.25E-03    0.79E-07
   1      9    10.197    15.590    0.15E-03    0.21E-03    0.69E-07
 Optimization of the real space projectors (new method)

 maximal supplied QI-value         = 25.13
 optimisation between [QCUT,QGAM] = [ 10.05, 20.36] = [ 28.30,116.06] Ry 
 Optimized for a Real-space Cutoff    1.30 Angstroem

   l    n(q)    QCUT    max X(q) W(low)/X(q) W(high)/X(q)  e(spline) 
   0      8    10.053   115.676    0.49E-03    0.72E-03    0.18E-06
   0      8    10.053    87.132    0.49E-03    0.71E-03    0.18E-06
   1      7    10.053     4.429    0.32E-03    0.31E-03    0.18E-06
   1      7    10.053     2.733    0.23E-03    0.19E-03    0.20E-06
 Optimization of the real space projectors (new method)

 maximal supplied QI-value         = 24.76
 optimisation between [QCUT,QGAM] = [ 10.15, 20.30] = [ 28.85,115.39] Ry 
 Optimized for a Real-space Cutoff    1.38 Angstroem

   l    n(q)    QCUT    max X(q) W(low)/X(q) W(high)/X(q)  e(spline) 
   0      8    10.150    20.381    0.22E-03    0.32E-03    0.29E-06
   0      8    10.150    15.268    0.23E-03    0.35E-03    0.30E-06
   1      8    10.150     5.964    0.46E-03    0.53E-03    0.21E-06
   1      8    10.150     5.382    0.38E-03    0.45E-03    0.19E-06

 ----------------------------------------------------------------------------- 
|                                                                             |
|  ADVICE TO THIS USER RUNNING 'VASP/VAMP'   (HEAR YOUR MASTER'S VOICE ...):  |
|                                                                             |
|      You enforced a specific xc-type in the INCAR file,                     |
|      a different type was found on the POTCAR file                          |
|          I HOPE YOU KNOW, WHAT YOU ARE  DOING                               |
|                                                                             |
 ----------------------------------------------------------------------------- 

  PAW_PBE Pd 04Jan2005                  :
 energy of atom  1       EATOM= -809.7530
 kinetic energy error for atom=    0.0091 (will be added to EATOM!!)
  PAW_PBE C 08Apr2002                   :
 energy of atom  2       EATOM= -147.1560
 kinetic energy error for atom=    0.0288 (will be added to EATOM!!)
  PAW_PBE O 08Apr2002                   :
 energy of atom  3       EATOM= -432.3788
 kinetic energy error for atom=    0.1156 (will be added to EATOM!!)
 
 
 POSCAR: Pd55PES                                 
  positions in cartesian coordinates
  No initial velocities read in
 exchange correlation table for  LEXCH =        9
   RHO(1)=    0.500       N(1)  =     2000
   RHO(2)=  100.500       N(2)  =     4000
 


--------------------------------------------------------------------------------------------------------


 ion  position               nearest neighbor table
   1  0.446  0.328  0.417-   3 3.25   5 3.25   7 3.36  15 3.36  29 3.42  28 3.42
   2  0.672  0.554  0.417-  26 3.25  30 3.25  17 3.36   9 3.36  47 3.42  49 3.42
   3  0.554  0.328  0.417-   1 3.25   5 3.25   7 3.36  11 3.36  29 3.42  21 3.42
   4  0.328  0.554  0.417-  32 3.25  22 3.25  13 3.36   8 3.36  43 3.42  48 3.42
   5  0.500  0.383  0.340-   1 3.25   3 3.25  11 3.36  15 3.36  21 3.42  28 3.42
   6  0.500  0.383  0.660-  24 3.25  19 3.25  16 3.36  12 3.36  42 3.42  44 3.42
   7  0.500  0.276  0.500-  29 3.24   3 3.36   1 3.36  19 3.36  24 3.36
   8  0.276  0.500  0.500-  48 3.24  22 3.36  40 3.36   4 3.36  25 3.36
   9  0.724  0.500  0.500-  49 3.24  26 3.36  45 3.36   2 3.36  20 3.36
  10  0.500  0.724  0.500-  55 3.24  27 3.36  23 3.36  46 3.36  41 3.36
  11  0.612  0.388  0.342-  21 3.24   5 3.36   3 3.36  30 3.36  26 3.36
  12  0.612  0.388  0.658-  42 3.24  24 3.36  45 3.36   6 3.36  31 3.36
  13  0.388  0.612  0.342-  43 3.24  32 3.36  50 3.36   4 3.36  27 3.36
  14  0.388  0.612  0.658-  53 3.24  25 3.36  33 3.36  51 3.36  46 3.36
  15  0.388  0.388  0.342-  28 3.24   5 3.36   1 3.36  32 3.36  22 3.36
  16  0.388  0.388  0.658-  44 3.24  19 3.36  40 3.36   6 3.36  33 3.36
  17  0.612  0.612  0.342-  47 3.24  30 3.36  50 3.36   2 3.36  23 3.36
  18  0.612  0.612  0.658-  54 3.24  31 3.36  20 3.36  51 3.36  41 3.36
  19  0.446  0.328  0.583-   6 3.25  24 3.25  16 3.36   7 3.36  44 3.42  29 3.42
  20  0.672  0.554  0.583-  31 3.25  45 3.25  18 3.36   9 3.36  54 3.42  49 3.42
  21  0.558  0.442  0.418-  11 3.24   5 3.42   3 3.42  30 3.42  26 3.42
  22  0.328  0.446  0.417-   4 3.25  32 3.25   8 3.36  15 3.36  48 3.42  28 3.42
  23  0.554  0.672  0.417-  27 3.25  50 3.25  10 3.36  17 3.36  55 3.42  47 3.42
  24  0.554  0.328  0.583-   6 3.25  19 3.25  12 3.36   7 3.36  42 3.42  29 3.42
  25  0.328  0.554  0.583-  33 3.25  40 3.25  14 3.36   8 3.36  53 3.42  48 3.42
  26  0.672  0.446  0.417-   2 3.25  30 3.25   9 3.36  11 3.36  49 3.42  21 3.42
  27  0.446  0.672  0.417-  23 3.25  50 3.25  10 3.36  13 3.36  55 3.42  43 3.42
  28  0.442  0.442  0.418-  15 3.24   5 3.42   1 3.42  32 3.42  22 3.42
  29  0.500  0.384  0.500-   7 3.24   3 3.42   1 3.42  24 3.42  19 3.42
  30  0.617  0.500  0.340-   2 3.25  26 3.25  17 3.36  11 3.36  47 3.42  21 3.42
  31  0.617  0.500  0.660-  20 3.25  45 3.25  18 3.36  12 3.36  54 3.42  42 3.42
  32  0.383  0.500  0.340-   4 3.25  22 3.25  13 3.36  15 3.36  43 3.42  28 3.42
  33  0.383  0.500  0.660-  25 3.25  40 3.25  14 3.36  16 3.36  53 3.42  44 3.42
  34  0.383  0.383  0.500-
  35  0.617  0.617  0.500-
  36  0.617  0.383  0.500-
  37  0.383  0.617  0.500-
  38  0.500  0.500  0.335-
  39  0.500  0.500  0.665-  56 1.83
  40  0.328  0.446  0.583-  33 3.25  25 3.25  16 3.36   8 3.36  44 3.42  48 3.42
  41  0.554  0.672  0.583-  46 3.25  51 3.25  10 3.36  18 3.36  54 3.42  55 3.42
  42  0.558  0.442  0.582-  12 3.24   6 3.42  24 3.42  31 3.42  45 3.42
  43  0.442  0.558  0.418-  13 3.24   4 3.42  32 3.42  27 3.42  50 3.42
  44  0.442  0.442  0.582-  16 3.24   6 3.42  19 3.42  33 3.42  40 3.42
  45  0.672  0.446  0.583-  20 3.25  31 3.25   9 3.36  12 3.36  49 3.42  42 3.42
  46  0.446  0.672  0.583-  41 3.25  51 3.25  10 3.36  14 3.36  53 3.42  55 3.42
  47  0.558  0.558  0.418-  17 3.24   2 3.42  30 3.42  23 3.42  50 3.42
  48  0.384  0.500  0.500-   8 3.24   4 3.42  22 3.42  25 3.42  40 3.42
  49  0.616  0.500  0.500-   9 3.24   2 3.42  26 3.42  20 3.42  45 3.42
  50  0.500  0.617  0.340-  27 3.25  23 3.25  13 3.36  17 3.36  43 3.42  47 3.42
  51  0.500  0.617  0.660-  41 3.25  46 3.25  14 3.36  18 3.36  53 3.42  54 3.42
  52  0.500  0.500  0.500-
  53  0.442  0.558  0.582-  14 3.24  25 3.42  33 3.42  51 3.42  46 3.42
  54  0.558  0.558  0.582-  18 3.24  31 3.42  20 3.42  51 3.42  41 3.42
  55  0.500  0.616  0.500-  10 3.24  23 3.42  27 3.42  41 3.42  46 3.42
  56  0.524  0.522  0.717-  57 1.13  39 1.83
  57  0.528  0.525  0.754-  56 1.13
 
  LATTYP: Found a simple cubic cell.
 ALAT       =    30.0000000000
  
  Lattice vectors:
  
 A1 = (  30.0000000000,   0.0000000000,   0.0000000000)
 A2 = (   0.0000000000,  30.0000000000,   0.0000000000)
 A3 = (   0.0000000000,   0.0000000000,  30.0000000000)


Analysis of symmetry for initial positions (statically):
=====================================================================
 Subroutine PRICEL returns:
 Original cell was already a primitive cell.
 

 Routine SETGRP: Setting up the symmetry group for a 
 simple cubic supercell.


 Subroutine GETGRP returns: Found  1 space group operations
 (whereof  1 operations were pure point group operations)
 out of a pool of 48 trial point group operations.


The static configuration has the point symmetry C_1 .


Analysis of symmetry for dynamics (positions and initial velocities):
=====================================================================
 Subroutine PRICEL returns:
 Original cell was already a primitive cell.
 

 Routine SETGRP: Setting up the symmetry group for a 
 simple cubic supercell.


 Subroutine GETGRP returns: Found  1 space group operations
 (whereof  1 operations were pure point group operations)
 out of a pool of 48 trial point group operations.


The dynamic configuration has the point symmetry C_1 .


Analysis of constrained symmetry for selective dynamics:
=====================================================================
 Subroutine PRICEL returns:
 Original cell was already a primitive cell.
 

 Routine SETGRP: Setting up the symmetry group for a 
 simple cubic supercell.


 Subroutine GETGRP returns: Found  1 space group operations
 (whereof  1 operations were pure point group operations)
 out of a pool of 48 trial point group operations.


The constrained configuration has the point symmetry C_1 .


 Subroutine INISYM returns: Found  1 space group operations
 (whereof  1 operations are pure point group operations),
 and found     1 'primitive' translations

 
 
 KPOINTS: K-points                                

Automatic generation of k-mesh.
Space group operators:
 irot       det(A)        alpha          n_x          n_y          n_z        tau_x        tau_y        tau_z
    1     1.000000     0.000000     1.000000     0.000000     0.000000     0.000000     0.000000     0.000000
 
 Subroutine IBZKPT returns following result:
 ===========================================
 
 Found      1 irreducible k-points:
 
 Following reciprocal coordinates:
            Coordinates               Weight
  0.000000  0.000000  0.000000      1.000000
 
 Following cartesian coordinates:
            Coordinates               Weight
  0.000000  0.000000  0.000000      1.000000
 


--------------------------------------------------------------------------------------------------------




 Dimension of arrays:
   k-points           NKPTS =      1   k-points in BZ     NKDIM =      1   number of bands    NBANDS=    336
   number of dos      NEDOS =    301   number of ions     NIONS =     57
   non local maximal  LDIM  =      6   non local SUM 2l+1 LMDIM =     18
   total plane-waves  NPLWV = ******
   max r-space proj   IRMAX =   1847   max aug-charges    IRDMAX=   6262
   dimension x,y,z NGX =   150 NGY =  150 NGZ =  150
   dimension x,y,z NGXF=   300 NGYF=  300 NGZF=  300
   support grid    NGXF=   300 NGYF=  300 NGZF=  300
   ions per type =              55   1   1
   NGX,Y,Z   is equivalent  to a cutoff of   8.31,  8.31,  8.31 a.u.
   NGXF,Y,Z  is equivalent  to a cutoff of  16.62, 16.62, 16.62 a.u.

 SYSTEM =  6_Pd100_top_free_z(O)                   
 POSCAR =  Pd55PES                                 

 Startparameter for this run:
   NWRITE =      2    write-flag & timer
   PREC   = normal    normal or accurate (medium, high low for compatibility)
   ISTART =      0    job   : 0-new  1-cont  2-samecut
   ICHARG =      2    charge: 1-file 2-atom 10-const
   ISPIN  =      1    spin polarized calculation?
   LNONCOLLINEAR =      F non collinear calculations
   LSORBIT =      F    spin-orbit coupling
   INIWAV =      1    electr: 0-lowe 1-rand  2-diag
   LASPH  =      F    aspherical Exc in radial PAW
   METAGGA=      F    non-selfconsistent MetaGGA calc.

 Electronic Relaxation 1
   ENCUT  =  400.0 eV  29.40 Ry    5.42 a.u.  48.92 48.92 48.92*2*pi/ulx,y,z
   ENINI  =  400.0     initial cutoff
   ENAUG  =  644.9 eV  augmentation charge cutoff
   NELM   =    100;   NELMIN=  6; NELMDL= -5     # of ELM steps 
   EDIFF  = 0.1E-03   stopping-criterion for ELM
   LREAL  =      T    real-space projection
   NLSPLINE    = F    spline interpolate recip. space projectors
   LCOMPAT=      F    compatible to vasp.4.4
   GGA_COMPAT  = T    GGA compatible to vasp.4.4-vasp.4.6
   LMAXPAW     = -100 max onsite density
   LMAXMIX     =    2 max onsite mixed and CHGCAR
   VOSKOWN=      0    Vosko Wilk Nusair interpolation
   ROPT   =   -0.00050  -0.00050  -0.00050
 Ionic relaxation
   EDIFFG = -.5E-01   stopping-criterion for IOM
   NSW    =      0    number of steps for IOM
   NBLOCK =      1;   KBLOCK =      1    inner block; outer block 
   IBRION =     -1    ionic relax: 0-MD 1-quasi-New 2-CG
   NFREE  =      1    steps in history (QN), initial steepest desc. (CG)
   ISIF   =      2    stress and relaxation
   IWAVPR =     10    prediction:  0-non 1-charg 2-wave 3-comb
   ISYM   =      2    0-nonsym 1-usesym 2-fastsym
   LCORR  =      T    Harris-Foulkes like correction to forces

   POTIM  = 0.5000    time-step for ionic-motion
   TEIN   =    0.0    initial temperature
   TEBEG  =    0.0;   TEEND  =   0.0 temperature during run
   SMASS  =  -3.00    Nose mass-parameter (am)
   estimated Nose-frequenzy (Omega)   =  0.10E-29 period in steps =****** mass=  -0.206E-25a.u.
   SCALEE = 1.0000    scale energy and forces
   NPACO  =    256;   APACO  = 16.0  distance and # of slots for P.C.
   PSTRESS=    0.0 pullay stress

  Mass of Ions in am
   POMASS = 106.42 12.01 16.00
  Ionic Valenz
   ZVAL   =  10.00  4.00  6.00
  Atomic Wigner-Seitz radii
   RWIGS  =  -1.00 -1.00 -1.00
  virtual crystal weights 
   VCA    =   1.00  1.00  1.00
   NELECT =     560.0000    total number of electrons
   NUPDOWN=      -1.0000    fix difference up-down

 DOS related values:
   EMIN   =  10.00;   EMAX   =-10.00  energy-range for DOS
   EFERMI =   0.00
   ISMEAR =     2;   SIGMA  =   0.20  broadening in eV -4-tet -1-fermi 0-gaus

 Electronic relaxation 2 (details)
   IALGO  =     68    algorithm
   LDIAG  =      T    sub-space diagonalisation (order eigenvalues)
   LSUBROT=      F    optimize rotation matrix (better conditioning)
   TURBO    =      0    0=normal 1=particle mesh
   IRESTART =      0    0=no restart 2=restart with 2 vectors
   NREBOOT  =      0    no. of reboots
   NMIN     =      0    reboot dimension
   EREF     =   0.00    reference energy to select bands
   IMIX   =      4    mixing-type and parameters
     AMIX     =   0.40;   BMIX     =  1.00
     AMIX_MAG =   1.60;   BMIX_MAG =  1.00
     AMIN     =   0.10
     WC   =   100.;   INIMIX=   1;  MIXPRE=   1;  MAXMIX= -45

 Intra band minimization:
   WEIMIN = 0.0000     energy-eigenvalue tresh-hold
   EBREAK =  0.74E-07  absolut break condition
   DEPER  =   0.30     relativ break condition  

   TIME   =   0.40     timestep for ELM

  volume/ion in A,a.u.               =     473.68      3196.58
  Fermi-wavevector in a.u.,A,eV,Ry     =   0.449797  0.849992  2.752691  0.202317
  Thomas-Fermi vector in A             =   1.430086
 
 Write flags
   LWAVE        =      F    write WAVECAR
   LDOWNSAMPLE  =      F    k-point downsampling of WAVECAR
   LCHARG       =      F    write CHGCAR
   LVTOT        =      F    write LOCPOT, total local potential
   LVHAR        =      F    write LOCPOT, Hartree potential only
   LELF         =      F    write electronic localiz. function (ELF)
   LORBIT       =      0    0 simple, 1 ext, 2 COOP (PROOUT), +10 PAW based schemes


 Dipole corrections
   LMONO  =      F    monopole corrections only (constant potential shift)
   LDIPOL =      F    correct potential (dipole corrections)
   IDIPOL =      0    1-x, 2-y, 3-z, 4-all directions 
   EPSILON=  1.0000000 bulk dielectric constant

 Exchange correlation treatment:
   GGA     =    RP    GGA type
   LEXCH   =     9    internal setting for exchange type
   VOSKOWN=      0    Vosko Wilk Nusair interpolation
   LHFCALC =     F    Hartree Fock is set to
   LHFONE  =     F    Hartree Fock one center treatment
   AEXX    =    0.0000 exact exchange contribution

 Linear response parameters
   LEPSILON=     F    determine dielectric tensor
   LRPA    =     F    only Hartree local field effects (RPA)
   LNABLA  =     F    use nabla operator in PAW spheres
   LVEL    =     F    velocity operator in full k-point grid
   LINTERFAST=   F  fast interpolation
   KINTER  =     0    interpolate to denser k-point grid
   CSHIFT  =0.1000    complex shift for real part using Kramers Kronig
   OMEGAMAX=  -1.0    maximum frequency
   DEG_THRESHOLD= 0.2000000E-02 threshold for treating states as degnerate
   RTIME   =   -0.100 relaxation time in fs
  (WPLASMAI=    0.000 imaginary part of plasma frequency in eV, 0.658/RTIME)
   DFIELD  = 0.0000000 0.0000000 0.0000000 field for delta impulse in time
 
 Orbital magnetization related:
   ORBITALMAG=     F  switch on orbital magnetization
   LCHIMAG   =     F  perturbation theory with respect to B field
   DQ        =  0.001000  dq finite difference perturbation B field
   LLRAUG    =     F  two centre corrections for induced B field



--------------------------------------------------------------------------------------------------------


 Static calculation
 charge density and potential will be updated during run
 non-spin polarized calculation
 RMM-DIIS sequential band-by-band and
  variant of blocked Davidson during initial phase
 perform sub-space diagonalisation
    before iterative eigenvector-optimisation
 modified Broyden-mixing scheme, WC =      100.0
 initial mixing is a Kerker type mixing with AMIX =  0.4000 and BMIX =      1.0000
 Hartree-type preconditioning will be used
 using additional bands           56
 real space projection scheme for non local part
 use partial core corrections
 calculate Harris-corrections to forces 
   (improved forces if not selfconsistent)
 use gradient corrections 
 use of overlap-Matrix (Vanderbilt PP)
 Methfessel and Paxton  Order N= 2 SIGMA  =   0.20


--------------------------------------------------------------------------------------------------------


  energy-cutoff  :      400.00
  volume of cell :    27000.00
      direct lattice vectors                 reciprocal lattice vectors
    30.000000000  0.000000000  0.000000000     0.033333333  0.000000000  0.000000000
     0.000000000 30.000000000  0.000000000     0.000000000  0.033333333  0.000000000
     0.000000000  0.000000000 30.000000000     0.000000000  0.000000000  0.033333333

  length of vectors
    30.000000000 30.000000000 30.000000000     0.033333333  0.033333333  0.033333333


 
 k-points in units of 2pi/SCALE and weight: K-points                                
   0.00000000  0.00000000  0.00000000       1.000
 
 k-points in reciprocal lattice and weights: K-points                                
   0.00000000  0.00000000  0.00000000       1.000
 
 position of ions in fractional coordinates (direct lattice) 
   0.44576020  0.32826710  0.41691983
   0.67173288  0.55423978  0.41691983
   0.55423980  0.32826710  0.41691983
   0.32826712  0.55423978  0.41691983
   0.50000000  0.38250690  0.34021317
   0.50000000  0.38250690  0.65978680
   0.50000000  0.27609440  0.50000000
   0.27609443  0.49999998  0.50000000
   0.72390557  0.49999998  0.50000000
   0.50000000  0.72390555  0.50000000
   0.61195280  0.38804720  0.34167483
   0.61195280  0.38804720  0.65832513
   0.38804722  0.61195278  0.34167483
   0.38804722  0.61195278  0.65832513
   0.38804720  0.38804720  0.34167483
   0.38804720  0.38804720  0.65832513
   0.61195278  0.61195278  0.34167483
   0.61195278  0.61195278  0.65832513
   0.44576020  0.32826710  0.58308023
   0.67173288  0.55423978  0.58308023
   0.55791699  0.44208301  0.41809300
   0.32826705  0.44576024  0.41691983
   0.55423973  0.67173293  0.41691983
   0.55423980  0.32826710  0.58308023
   0.32826712  0.55423978  0.58308023
   0.67173295  0.44576024  0.41691983
   0.44576027  0.67173293  0.41691983
   0.44208301  0.44208301  0.41809300
   0.50000000  0.38416601  0.50000000
   0.61749315  0.50000005  0.34021317
   0.61749315  0.50000005  0.65978680
   0.38250685  0.50000005  0.34021317
   0.38250685  0.50000005  0.65978680
   0.38317830  0.38317830  0.50000000
   0.61682172  0.61682172  0.50000000
   0.61682170  0.38317830  0.50000000
   0.38317828  0.61682172  0.50000000
   0.50000000  0.50000000  0.33478917
   0.50000000  0.50000000  0.66521087
   0.32826705  0.44576024  0.58308023
   0.55423973  0.67173293  0.58308023
   0.55791699  0.44208301  0.58190703
   0.44208298  0.55791702  0.41809300
   0.44208301  0.44208301  0.58190703
   0.67173295  0.44576024  0.58308023
   0.44576027  0.67173293  0.58308023
   0.55791702  0.55791702  0.41809300
   0.38416599  0.50000002  0.50000000
   0.61583401  0.50000002  0.50000000
   0.50000000  0.61749319  0.34021317
   0.50000000  0.61749319  0.65978680
   0.50000000  0.50000000  0.50000000
   0.44208298  0.55791702  0.58190703
   0.55791702  0.55791702  0.58190703
   0.50000000  0.61583404  0.50000000
   0.52378563  0.52161057  0.71697093
   0.52786307  0.52531517  0.75416517
 
 position of ions in cartesian coordinates  (Angst):
  13.37280588  9.84801292 12.50759500
  20.15198637 16.62719342 12.50759500
  16.62719412  9.84801292 12.50759500
   9.84801363 16.62719342 12.50759500
  15.00000000 11.47520705 10.20639500
  15.00000000 11.47520705 19.79360400
  15.00000000  8.28283206 15.00000000
   8.28283277 14.99999929 15.00000000
  21.71716723 14.99999929 15.00000000
  15.00000000 21.71716652 14.99999999
  18.35858397 11.64141603 10.25024500
  18.35858397 11.64141603 19.74975399
  11.64141674 18.35858326 10.25024500
  11.64141674 18.35858326 19.74975400
  11.64141603 11.64141603 10.25024500
  11.64141603 11.64141603 19.74975400
  18.35858326 18.35858326 10.25024500
  18.35858326 18.35858326 19.74975400
  13.37280588  9.84801291 17.49240700
  20.15198638 16.62719341 17.49240700
  16.73750985 13.26249015 12.54279000
   9.84801151 13.37280729 12.50759500
  16.62719200 20.15198779 12.50759500
  16.62719412  9.84801292 17.49240700
   9.84801363 16.62719342 17.49240700
  20.15198849 13.37280729 12.50759500
  13.37280800 20.15198779 12.50759500
  13.26249015 13.26249015 12.54279000
  15.00000000 11.52498029 15.00000000
  18.52479437 15.00000140 10.20639500
  18.52479437 15.00000141 19.79360400
  11.47520562 15.00000141 10.20639501
  11.47520563 15.00000141 19.79360400
  11.49534898 11.49534898 15.00000000
  18.50465172 18.50465172 15.00000000
  18.50465102 11.49534898 15.00000000
  11.49534828 18.50465172 15.00000000
  15.00000000 15.00000000 10.04367500
  15.00000000 15.00000000 19.95632599
   9.84801151 13.37280729 17.49240700
  16.62719200 20.15198779 17.49240700
  16.73750985 13.26249015 17.45721100
  13.26248944 16.73751056 12.54279001
  13.26249015 13.26249015 17.45721100
  20.15198849 13.37280729 17.49240699
  13.37280800 20.15198779 17.49240700
  16.73751056 16.73751056 12.54279000
  11.52497959 15.00000071 15.00000000
  18.47502041 15.00000071 15.00000000
  14.99999999 18.52479579 10.20639500
  15.00000000 18.52479578 19.79360400
  15.00000000 15.00000000 15.00000000
  13.26248944 16.73751057 17.45721101
  16.73751056 16.73751057 17.45721100
  15.00000000 18.47502112 15.00000000
  15.71356900 15.64831700 21.50912800
  15.83589200 15.75945500 22.62495500
 


--------------------------------------------------------------------------------------------------------


 k-point  1 :   0.0000 0.0000 0.0000  plane waves:  490521

 maximum and minimum number of plane-waves per node :    490521   490521

 maximum number of plane-waves:    490521
 maximum index in each direction: 
   IXMAX=   48   IYMAX=   48   IZMAX=   48
   IXMIN=  -48   IYMIN=  -48   IZMIN=  -48


 serial   3D FFT for wavefunctions
 parallel 3D FFT for charge:
    minimum data exchange during FFTs selected (reduces bandwidth)


 total amount of memory used by VASP MPI-rank0  5486940. kBytes
=======================================================================

   base      :      30000. kBytes
   nonlr-proj:      17125. kBytes
   fftplans  :     924480. kBytes
   grid      :    1872000. kBytes
   one-center:        886. kBytes
   wavefun   :    2642449. kBytes
 
     INWAV:  cpu time    0.0001: real time    0.0003
 Broyden mixing: mesh for mixing (old mesh)
   NGX = 97   NGY = 97   NGZ = 97
  (NGX  =300   NGY  =300   NGZ  =300)
  gives a total of 912673 points

 initial charge density was supplied:
 charge density of overlapping atoms calculated
 number of electron     560.0000000 magnetization 
 keeping initial charge density in first step


--------------------------------------------------------------------------------------------------------


 Maximum index for non-local projection operator         1763
 Maximum index for augmentation-charges         5898 (set IRDMAX)


--------------------------------------------------------------------------------------------------------


 First call to EWALD:  gamma=   0.059
 Maximum number of real-space cells 3x 3x 3
 Maximum number of reciprocal cells 3x 3x 3

    FEWALD:  cpu time    0.0148: real time    0.0148


--------------------------------------- Iteration      1(   1)  ---------------------------------------


    POTLOK:  cpu time   14.5155: real time   14.5196
    SETDIJ:  cpu time    0.1223: real time    0.1223
     EDDAV:  cpu time  365.1108: real time  365.1871
       DOS:  cpu time    0.0013: real time    0.0013
    --------------------------------------------
      LOOP:  cpu time  379.7499: real time  379.8302

 eigenvalue-minimisations  :   688
 total energy-change (2. order) : 0.4395690E+04  (-0.1004815E+05)
 number of electron     560.0000000 magnetization 
 augmentation part      560.0000000 magnetization 

 Free energy of the ion-electron system (eV)
  ---------------------------------------------------
  alpha Z        PSCENC =        75.25431677
  Ewald energy   TEWEN  =    138944.45192808
  -Hartree energ DENC   =   -182302.01029171
  -exchange      EXHF   =         0.00000000
  -V(xc)+E(xc)   XCENC  =     -1702.81544657
  PAW double counting   =     44873.02882129   -41398.84523641
  entropy T*S    EENTRO =         0.01217212
  eigenvalues    EBANDS =       820.10872130
  atomic energy  EATOM  =     45086.50549395
  Solvation  Ediel_sol  =         0.00000000
  ---------------------------------------------------
  free energy    TOTEN  =      4395.69047882 eV

  energy without entropy =     4395.67830670  energy(sigma->0) =     4395.68743579


--------------------------------------------------------------------------------------------------------




--------------------------------------- Iteration      1(   2)  ---------------------------------------


     EDDAV:  cpu time  576.7014: real time  576.7290
       DOS:  cpu time    0.0012: real time    0.0012
    --------------------------------------------
      LOOP:  cpu time  576.7026: real time  576.7302

 eigenvalue-minimisations  :  1208
 total energy-change (2. order) :-0.2368917E+04  (-0.2127034E+04)
 number of electron     560.0000000 magnetization 
 augmentation part      560.0000000 magnetization 

 Free energy of the ion-electron system (eV)
  ---------------------------------------------------
  alpha Z        PSCENC =        75.25431677
  Ewald energy   TEWEN  =    138944.45192808
  -Hartree energ DENC   =   -182302.01029171
  -exchange      EXHF   =         0.00000000
  -V(xc)+E(xc)   XCENC  =     -1702.81544657
  PAW double counting   =     44873.02882129   -41398.84523641
  entropy T*S    EENTRO =        -0.03133472
  eigenvalues    EBANDS =     -1548.76489767
  atomic energy  EATOM  =     45086.50549395
  Solvation  Ediel_sol  =         0.00000000
  ---------------------------------------------------
  free energy    TOTEN  =      2026.77335301 eV

  energy without entropy =     2026.80468773  energy(sigma->0) =     2026.78118669


--------------------------------------------------------------------------------------------------------




--------------------------------------- Iteration      1(   3)  ---------------------------------------


     EDDAV:  cpu time  490.4135: real time  490.4676
       DOS:  cpu time    0.0011: real time    0.0011
    --------------------------------------------
      LOOP:  cpu time  490.4146: real time  490.4687

 eigenvalue-minimisations  :  1000
 total energy-change (2. order) :-0.1786489E+04  (-0.1675193E+04)
 number of electron     560.0000000 magnetization 
 augmentation part      560.0000000 magnetization 

 Free energy of the ion-electron system (eV)
  ---------------------------------------------------
  alpha Z        PSCENC =        75.25431677
  Ewald energy   TEWEN  =    138944.45192808
  -Hartree energ DENC   =   -182302.01029171
  -exchange      EXHF   =         0.00000000
  -V(xc)+E(xc)   XCENC  =     -1702.81544657
  PAW double counting   =     44873.02882129   -41398.84523641
  entropy T*S    EENTRO =         0.03023648
  eigenvalues    EBANDS =     -3335.31588798
  atomic energy  EATOM  =     45086.50549395
  Solvation  Ediel_sol  =         0.00000000
  ---------------------------------------------------
  free energy    TOTEN  =       240.28393390 eV

  energy without entropy =      240.25369742  energy(sigma->0) =      240.27637478


--------------------------------------------------------------------------------------------------------




--------------------------------------- Iteration      1(   4)  ---------------------------------------


     EDDAV:  cpu time  423.3172: real time  423.3748
       DOS:  cpu time    0.0011: real time    0.0011
    --------------------------------------------
      LOOP:  cpu time  423.3183: real time  423.3759

 eigenvalue-minimisations  :   832
 total energy-change (2. order) :-0.3743644E+03  (-0.3189175E+03)
 number of electron     560.0000000 magnetization 
 augmentation part      560.0000000 magnetization 

 Free energy of the ion-electron system (eV)
  ---------------------------------------------------
  alpha Z        PSCENC =        75.25431677
  Ewald energy   TEWEN  =    138944.45192808
  -Hartree energ DENC   =   -182302.01029171
  -exchange      EXHF   =         0.00000000
  -V(xc)+E(xc)   XCENC  =     -1702.81544657
  PAW double counting   =     44873.02882129   -41398.84523641
  entropy T*S    EENTRO =        -0.01804796
  eigenvalues    EBANDS =     -3709.63198691
  atomic energy  EATOM  =     45086.50549395
  Solvation  Ediel_sol  =         0.00000000
  ---------------------------------------------------
  free energy    TOTEN  =      -134.08044947 eV

  energy without entropy =     -134.06240151  energy(sigma->0) =     -134.07593748


--------------------------------------------------------------------------------------------------------




--------------------------------------- Iteration      1(   5)  ---------------------------------------


     EDDAV:  cpu time  519.3839: real time  519.4025
       DOS:  cpu time    0.0014: real time    0.0014
    CHARGE:  cpu time   25.3465: real time   25.3465
    MIXING:  cpu time    0.4407: real time    0.4407
    --------------------------------------------
      LOOP:  cpu time  545.1724: real time  545.1911

 eigenvalue-minimisations  :  1064
 total energy-change (2. order) :-0.4627858E+02  (-0.3786701E+02)
 number of electron     559.9999839 magnetization 
 augmentation part      244.9767439 magnetization 

 Broyden mixing:
  rms(total) = 0.16876E+01    rms(broyden)= 0.16869E+01
  rms(prec ) = 0.17890E+01
  weight for this iteration     100.00

 Free energy of the ion-electron system (eV)
  ---------------------------------------------------
  alpha Z        PSCENC =        75.25431677
  Ewald energy   TEWEN  =    138944.45192808
  -Hartree energ DENC   =   -182302.01029171
  -exchange      EXHF   =         0.00000000
  -V(xc)+E(xc)   XCENC  =     -1702.81544657
  PAW double counting   =     44873.02882129   -41398.84523641
  entropy T*S    EENTRO =         0.47965335
  eigenvalues    EBANDS =     -3756.40827192
  atomic energy  EATOM  =     45086.50549395
  Solvation  Ediel_sol  =         0.00000000
  ---------------------------------------------------
  free energy    TOTEN  =      -180.35903317 eV

  energy without entropy =     -180.83868652  energy(sigma->0) =     -180.47894651


--------------------------------------------------------------------------------------------------------




--------------------------------------- Iteration      1(   6)  ---------------------------------------


    POTLOK:  cpu time   13.4297: real time   13.4326
    SETDIJ:  cpu time    0.1189: real time    0.1189
    EDDIAG:  cpu time   68.9976: real time   68.9998
  RMM-DIIS:  cpu time  189.7044: real time  189.7093
    ORTHCH:  cpu time   13.4796: real time   13.4797
       DOS:  cpu time    0.0015: real time    0.0015
    CHARGE:  cpu time   25.5016: real time   25.5018
    MIXING:  cpu time    0.4645: real time    0.4646
    --------------------------------------------
      LOOP:  cpu time  311.6978: real time  311.7081

 eigenvalue-minimisations  :   723
 total energy-change (2. order) : 0.1999622E+00  (-0.6547245E+01)
 number of electron     559.9999891 magnetization 
 augmentation part      240.4770324 magnetization 

 Broyden mixing:
  rms(total) = 0.23046E+01    rms(broyden)= 0.23044E+01
  rms(prec ) = 0.26002E+01
  weight for this iteration     100.00

 eigenvalues of (default mixing * dielectric matrix)
  average eigenvalue GAMMA=   0.3643
  0.3643

 Free energy of the ion-electron system (eV)
  ---------------------------------------------------
  alpha Z        PSCENC =        75.25431677
  Ewald energy   TEWEN  =    138944.45192808
  -Hartree energ DENC   =   -182699.58120156
  -exchange      EXHF   =         0.00000000
  -V(xc)+E(xc)   XCENC  =     -1696.43710174
  PAW double counting   =     45664.50556124   -42164.20747771
  entropy T*S    EENTRO =        -0.24494457
  eigenvalues    EBANDS =     -3390.40564543
  atomic energy  EATOM  =     45086.50549395
  Solvation  Ediel_sol  =         0.00000000
  ---------------------------------------------------
  free energy    TOTEN  =      -180.15907097 eV

  energy without entropy =     -179.91412640  energy(sigma->0) =     -180.09783482


--------------------------------------------------------------------------------------------------------




--------------------------------------- Iteration      1(   7)  ---------------------------------------


    POTLOK:  cpu time   13.0767: real time   13.0776
    SETDIJ:  cpu time    0.1187: real time    0.1187
    EDDIAG:  cpu time   67.8831: real time   67.8898
  RMM-DIIS:  cpu time  220.9756: real time  220.9814
    ORTHCH:  cpu time   13.4621: real time   13.4621
       DOS:  cpu time    0.0015: real time    0.0015
    CHARGE:  cpu time   25.2729: real time   25.2731
    MIXING:  cpu time    0.4883: real time    0.4883
    --------------------------------------------
      LOOP:  cpu time  341.2789: real time  341.2926

 eigenvalue-minimisations  :   844
 total energy-change (2. order) :-0.1515352E+01  (-0.2089001E+01)
 number of electron     559.9999817 magnetization 
 augmentation part      240.4913327 magnetization 

 Broyden mixing:
  rms(total) = 0.19949E+01    rms(broyden)= 0.19946E+01
  rms(prec ) = 0.23136E+01
  weight for this iteration     100.00

 eigenvalues of (default mixing * dielectric matrix)
  average eigenvalue GAMMA=   0.3846
  0.5773  0.1920

 Free energy of the ion-electron system (eV)
  ---------------------------------------------------
  alpha Z        PSCENC =        75.25431677
  Ewald energy   TEWEN  =    138944.45192808
  -Hartree energ DENC   =   -182795.69705728
  -exchange      EXHF   =         0.00000000
  -V(xc)+E(xc)   XCENC  =     -1696.70756056
  PAW double counting   =     45749.98466085   -42246.98697578
  entropy T*S    EENTRO =        -0.13848098
  eigenvalues    EBANDS =     -3298.34074753
  atomic energy  EATOM  =     45086.50549395
  Solvation  Ediel_sol  =         0.00000000
  ---------------------------------------------------
  free energy    TOTEN  =      -181.67442248 eV

  energy without entropy =     -181.53594150  energy(sigma->0) =     -181.63980224


--------------------------------------------------------------------------------------------------------




--------------------------------------- Iteration      1(   8)  ---------------------------------------


    POTLOK:  cpu time   13.2407: real time   13.2424
    SETDIJ:  cpu time    0.1214: real time    0.1214
    EDDIAG:  cpu time   69.2143: real time   69.2156
  RMM-DIIS:  cpu time  197.0697: real time  197.0712
    ORTHCH:  cpu time   13.2400: real time   13.2400
       DOS:  cpu time    0.0014: real time    0.0014
    CHARGE:  cpu time   25.2806: real time   25.2808
    MIXING:  cpu time    0.5304: real time    0.5304
    --------------------------------------------
      LOOP:  cpu time  318.6984: real time  318.7032

 eigenvalue-minimisations  :   756
 total energy-change (2. order) :-0.3918834E+01  (-0.8388737E+00)
 number of electron     559.9999829 magnetization 
 augmentation part      240.2282879 magnetization 

 Broyden mixing:
  rms(total) = 0.33002E+01    rms(broyden)= 0.33000E+01
  rms(prec ) = 0.39871E+01
  weight for this iteration     100.00

 eigenvalues of (default mixing * dielectric matrix)
  average eigenvalue GAMMA=   0.3249
  0.6635  0.1977  0.1134

 Free energy of the ion-electron system (eV)
  ---------------------------------------------------
  alpha Z        PSCENC =        75.25431677
  Ewald energy   TEWEN  =    138944.45192808
  -Hartree energ DENC   =   -182821.64847540
  -exchange      EXHF   =         0.00000000
  -V(xc)+E(xc)   XCENC  =     -1696.61101078
  PAW double counting   =     45844.51911001   -42338.22530119
  entropy T*S    EENTRO =        -0.03993344
  eigenvalues    EBANDS =     -3279.79938445
  atomic energy  EATOM  =     45086.50549395
  Solvation  Ediel_sol  =         0.00000000
  ---------------------------------------------------
  free energy    TOTEN  =      -185.59325645 eV

  energy without entropy =     -185.55332300  energy(sigma->0) =     -185.58327309


--------------------------------------------------------------------------------------------------------




--------------------------------------- Iteration      1(   9)  ---------------------------------------


    POTLOK:  cpu time   13.3226: real time   13.3236
    SETDIJ:  cpu time    0.1189: real time    0.1189
    EDDIAG:  cpu time   67.8869: real time   67.8881
  RMM-DIIS:  cpu time  200.4903: real time  200.4945
    ORTHCH:  cpu time   13.5369: real time   13.5369
       DOS:  cpu time    0.0014: real time    0.0014
    CHARGE:  cpu time   25.1256: real time   25.1257
    MIXING:  cpu time    0.5589: real time    0.5589
    --------------------------------------------
      LOOP:  cpu time  321.0415: real time  321.0479

 eigenvalue-minimisations  :   766
 total energy-change (2. order) : 0.2928095E+01  (-0.5118117E+00)
 number of electron     559.9999832 magnetization 
 augmentation part      241.0362992 magnetization 

 Broyden mixing:
  rms(total) = 0.26474E+01    rms(broyden)= 0.26471E+01
  rms(prec ) = 0.30547E+01
  weight for this iteration     100.00

 eigenvalues of (default mixing * dielectric matrix)
  average eigenvalue GAMMA=   0.3062
  0.7689  0.2155  0.1397  0.1006

 Free energy of the ion-electron system (eV)
  ---------------------------------------------------
  alpha Z        PSCENC =        75.25431677
  Ewald energy   TEWEN  =    138944.45192808
  -Hartree energ DENC   =   -182838.75352199
  -exchange      EXHF   =         0.00000000
  -V(xc)+E(xc)   XCENC  =     -1696.57940745
  PAW double counting   =     45889.80458131   -42382.08195903
  entropy T*S    EENTRO =        -0.14817451
  eigenvalues    EBANDS =     -3261.11841819
  atomic energy  EATOM  =     45086.50549395
  Solvation  Ediel_sol  =         0.00000000
  ---------------------------------------------------
  free energy    TOTEN  =      -182.66516106 eV

  energy without entropy =     -182.51698656  energy(sigma->0) =     -182.62811744


--------------------------------------------------------------------------------------------------------




--------------------------------------- Iteration      1(  10)  ---------------------------------------


    POTLOK:  cpu time   13.4312: real time   13.4338
    SETDIJ:  cpu time    0.1227: real time    0.1227
    EDDIAG:  cpu time   68.3284: real time   68.3290
  RMM-DIIS:  cpu time  190.0191: real time  190.0220
    ORTHCH:  cpu time   13.2958: real time   13.2958
       DOS:  cpu time    0.0015: real time    0.0015
    CHARGE:  cpu time   25.1985: real time   25.1985
    MIXING:  cpu time    0.5806: real time    0.5806
    --------------------------------------------
      LOOP:  cpu time  310.9779: real time  310.9839

 eigenvalue-minimisations  :   731
 total energy-change (2. order) : 0.2076200E+01  (-0.4367254E+00)
 number of electron     559.9999861 magnetization 
 augmentation part      241.3249268 magnetization 

 Broyden mixing:
  rms(total) = 0.26021E+01    rms(broyden)= 0.26018E+01
  rms(prec ) = 0.31475E+01
  weight for this iteration     100.00

 eigenvalues of (default mixing * dielectric matrix)
  average eigenvalue GAMMA=   0.2840
  0.8262  0.2086  0.2086  0.0883  0.0883

 Free energy of the ion-electron system (eV)
  ---------------------------------------------------
  alpha Z        PSCENC =        75.25431677
  Ewald energy   TEWEN  =    138944.45192808
  -Hartree energ DENC   =   -182871.70898062
  -exchange      EXHF   =         0.00000000
  -V(xc)+E(xc)   XCENC  =     -1696.42928534
  PAW double counting   =     45943.27134053   -42433.77635441
  entropy T*S    EENTRO =         0.09151838
  eigenvalues    EBANDS =     -3228.24893861
  atomic energy  EATOM  =     45086.50549395
  Solvation  Ediel_sol  =         0.00000000
  ---------------------------------------------------
  free energy    TOTEN  =      -180.58896128 eV

  energy without entropy =     -180.68047965  energy(sigma->0) =     -180.61184087


--------------------------------------------------------------------------------------------------------




--------------------------------------- Iteration      1(  11)  ---------------------------------------


    POTLOK:  cpu time   13.3387: real time   13.3410
    SETDIJ:  cpu time    0.1220: real time    0.1220
    EDDIAG:  cpu time   67.3242: real time   67.3248
  RMM-DIIS:  cpu time  191.7482: real time  191.7769
    ORTHCH:  cpu time   13.6437: real time   13.6437
       DOS:  cpu time    0.0014: real time    0.0014
    CHARGE:  cpu time   25.3610: real time   25.3611
    MIXING:  cpu time    0.5835: real time    0.5835
    --------------------------------------------
      LOOP:  cpu time  312.1227: real time  312.1544

 eigenvalue-minimisations  :   734
 total energy-change (2. order) : 0.8037842E+00  (-0.2315870E+00)
 number of electron     559.9999849 magnetization 
 augmentation part      241.2331038 magnetization 

 Broyden mixing:
  rms(total) = 0.21308E+01    rms(broyden)= 0.21305E+01
  rms(prec ) = 0.25721E+01
  weight for this iteration     100.00

 eigenvalues of (default mixing * dielectric matrix)
  average eigenvalue GAMMA=   0.2848
  0.9138  0.2668  0.2668  0.0986  0.0986  0.0644

 Free energy of the ion-electron system (eV)
  ---------------------------------------------------
  alpha Z        PSCENC =        75.25431677
  Ewald energy   TEWEN  =    138944.45192808
  -Hartree energ DENC   =   -182893.71722579
  -exchange      EXHF   =         0.00000000
  -V(xc)+E(xc)   XCENC  =     -1696.32235667
  PAW double counting   =     45975.39265672   -42464.70649610
  entropy T*S    EENTRO =        -0.06744966
  eigenvalues    EBANDS =     -3206.57604435
  atomic energy  EATOM  =     45086.50549395
  Solvation  Ediel_sol  =         0.00000000
  ---------------------------------------------------
  free energy    TOTEN  =      -179.78517706 eV

  energy without entropy =     -179.71772740  energy(sigma->0) =     -179.76831464


--------------------------------------------------------------------------------------------------------




--------------------------------------- Iteration      1(  12)  ---------------------------------------


    POTLOK:  cpu time   13.3271: real time   13.3295
    SETDIJ:  cpu time    0.1217: real time    0.1217
    EDDIAG:  cpu time   67.8855: real time   67.8864
  RMM-DIIS:  cpu time  189.2493: real time  189.2568
    ORTHCH:  cpu time   13.6807: real time   13.6809
       DOS:  cpu time    0.0015: real time    0.0015
    CHARGE:  cpu time   25.7083: real time   25.7084
    MIXING:  cpu time    0.6650: real time    0.6650
    --------------------------------------------
      LOOP:  cpu time  310.6392: real time  310.6502

 eigenvalue-minimisations  :   722
 total energy-change (2. order) : 0.8925916E+00  (-0.2375844E+00)
 number of electron     559.9999835 magnetization 
 augmentation part      241.3070491 magnetization 

 Broyden mixing:
  rms(total) = 0.21128E+01    rms(broyden)= 0.21125E+01
  rms(prec ) = 0.24973E+01
  weight for this iteration     100.00

 eigenvalues of (default mixing * dielectric matrix)
  average eigenvalue GAMMA=   0.2950
  1.0672  0.3183  0.3183  0.1092  0.1092  0.0714  0.0714

 Free energy of the ion-electron system (eV)
  ---------------------------------------------------
  alpha Z        PSCENC =        75.25431677
  Ewald energy   TEWEN  =    138944.45192808
  -Hartree energ DENC   =   -182922.11814827
  -exchange      EXHF   =         0.00000000
  -V(xc)+E(xc)   XCENC  =     -1696.10634384
  PAW double counting   =     46019.82425387   -42507.50527728
  entropy T*S    EENTRO =         0.01846276
  eigenvalues    EBANDS =     -3179.21727154
  atomic energy  EATOM  =     45086.50549395
  Solvation  Ediel_sol  =         0.00000000
  ---------------------------------------------------
  free energy    TOTEN  =      -178.89258550 eV

  energy without entropy =     -178.91104826  energy(sigma->0) =     -178.89720119


--------------------------------------------------------------------------------------------------------




--------------------------------------- Iteration      1(  13)  ---------------------------------------


    POTLOK:  cpu time   13.4488: real time   13.4494
    SETDIJ:  cpu time    0.1255: real time    0.1255
    EDDIAG:  cpu time   68.0819: real time   68.0891
  RMM-DIIS:  cpu time  189.7497: real time  189.7601
    ORTHCH:  cpu time   13.5007: real time   13.5010
       DOS:  cpu time    0.0014: real time    0.0014
    CHARGE:  cpu time   25.8150: real time   25.8153
    MIXING:  cpu time    0.6888: real time    0.6888
    --------------------------------------------
      LOOP:  cpu time  311.4118: real time  311.4307

 eigenvalue-minimisations  :   726
 total energy-change (2. order) :-0.5656597E+00  (-0.2324994E+00)
 number of electron     559.9999809 magnetization 
 augmentation part      241.5058532 magnetization 

 Broyden mixing:
  rms(total) = 0.32180E+01    rms(broyden)= 0.32178E+01
  rms(prec ) = 0.37831E+01
  weight for this iteration     100.00

 eigenvalues of (default mixing * dielectric matrix)
  average eigenvalue GAMMA=   0.2949
  1.1857  0.4375  0.2949  0.1163  0.1163  0.0763  0.0763  0.0561

 Free energy of the ion-electron system (eV)
  ---------------------------------------------------
  alpha Z        PSCENC =        75.25431677
  Ewald energy   TEWEN  =    138944.45192808
  -Hartree energ DENC   =   -182944.89787197
  -exchange      EXHF   =         0.00000000
  -V(xc)+E(xc)   XCENC  =     -1695.74673105
  PAW double counting   =     46077.20804979   -42562.66861620
  entropy T*S    EENTRO =         0.13798321
  eigenvalues    EBANDS =     -3159.70279773
  atomic energy  EATOM  =     45086.50549395
  Solvation  Ediel_sol  =         0.00000000
  ---------------------------------------------------
  free energy    TOTEN  =      -179.45824517 eV

  energy without entropy =     -179.59622837  energy(sigma->0) =     -179.49274097


--------------------------------------------------------------------------------------------------------




--------------------------------------- Iteration      1(  14)  ---------------------------------------


    POTLOK:  cpu time   13.5167: real time   13.5187
    SETDIJ:  cpu time    0.1221: real time    0.1221
    EDDIAG:  cpu time   68.3926: real time   68.3944
  RMM-DIIS:  cpu time  187.7843: real time  187.8007
    ORTHCH:  cpu time   13.6514: real time   13.6515
       DOS:  cpu time    0.0014: real time    0.0014
    CHARGE:  cpu time   25.4025: real time   25.4025
    MIXING:  cpu time    0.7363: real time    0.7363
    --------------------------------------------
      LOOP:  cpu time  309.6074: real time  309.6276

 eigenvalue-minimisations  :   719
 total energy-change (2. order) : 0.9804101E+00  (-0.1941608E+00)
 number of electron     559.9999815 magnetization 
 augmentation part      241.4882359 magnetization 

 Broyden mixing:
  rms(total) = 0.24446E+01    rms(broyden)= 0.24443E+01
  rms(prec ) = 0.27713E+01
  weight for this iteration     100.00

 eigenvalues of (default mixing * dielectric matrix)
  average eigenvalue GAMMA=   0.2910
  1.3043  0.5013  0.2776  0.1229  0.1229  0.0870  0.0870  0.0582  0.0582

 Free energy of the ion-electron system (eV)
  ---------------------------------------------------
  alpha Z        PSCENC =        75.25431677
  Ewald energy   TEWEN  =    138944.45192808
  -Hartree energ DENC   =   -182973.73663772
  -exchange      EXHF   =         0.00000000
  -V(xc)+E(xc)   XCENC  =     -1695.41656664
  PAW double counting   =     46127.98627447   -42611.50768898
  entropy T*S    EENTRO =         0.00060202
  eigenvalues    EBANDS =     -3132.01555706
  atomic energy  EATOM  =     45086.50549395
  Solvation  Ediel_sol  =         0.00000000
  ---------------------------------------------------
  free energy    TOTEN  =      -178.47783511 eV

  energy without entropy =     -178.47843714  energy(sigma->0) =     -178.47798562


--------------------------------------------------------------------------------------------------------




--------------------------------------- Iteration      1(  15)  ---------------------------------------


    POTLOK:  cpu time   13.4185: real time   13.4194
    SETDIJ:  cpu time    0.1243: real time    0.1244
    EDDIAG:  cpu time   68.3981: real time   68.4001
  RMM-DIIS:  cpu time  185.5799: real time  185.5992
    ORTHCH:  cpu time   13.4730: real time   13.4736
       DOS:  cpu time    0.0016: real time    0.0016
    CHARGE:  cpu time   25.2974: real time   25.2992
    MIXING:  cpu time    0.7758: real time    0.7759
    --------------------------------------------
      LOOP:  cpu time  307.0686: real time  307.0933

 eigenvalue-minimisations  :   711
 total energy-change (2. order) : 0.1637403E+01  (-0.1627270E+00)
 number of electron     559.9999870 magnetization 
 augmentation part      241.5578590 magnetization 

 Broyden mixing:
  rms(total) = 0.15552E+01    rms(broyden)= 0.15548E+01
  rms(prec ) = 0.18218E+01
  weight for this iteration     100.00

 eigenvalues of (default mixing * dielectric matrix)
  average eigenvalue GAMMA=   0.2873
  1.3921  0.5473  0.2097  0.2097  0.1137  0.1137  0.0927  0.0702  0.0702  0.0532

 Free energy of the ion-electron system (eV)
  ---------------------------------------------------
  alpha Z        PSCENC =        75.25431677
  Ewald energy   TEWEN  =    138944.45192808
  -Hartree energ DENC   =   -182990.65824233
  -exchange      EXHF   =         0.00000000
  -V(xc)+E(xc)   XCENC  =     -1695.10015007
  PAW double counting   =     46169.34854884   -42651.26298640
  entropy T*S    EENTRO =         0.02809154
  eigenvalues    EBANDS =     -3115.40743281
  atomic energy  EATOM  =     45086.50549395
  Solvation  Ediel_sol  =         0.00000000
  ---------------------------------------------------
  free energy    TOTEN  =      -176.84043243 eV

  energy without entropy =     -176.86852397  energy(sigma->0) =     -176.84745531


--------------------------------------------------------------------------------------------------------




--------------------------------------- Iteration      1(  16)  ---------------------------------------


    POTLOK:  cpu time   13.3738: real time   13.3753
    SETDIJ:  cpu time    0.1206: real time    0.1207
    EDDIAG:  cpu time   69.4591: real time   69.5186
  RMM-DIIS:  cpu time  186.6853: real time  186.7045
    ORTHCH:  cpu time   13.3162: real time   13.3161
       DOS:  cpu time    0.0016: real time    0.0016
    CHARGE:  cpu time   25.3748: real time   25.3748
    MIXING:  cpu time    0.8342: real time    0.8342
    --------------------------------------------
      LOOP:  cpu time  309.1657: real time  309.2458

 eigenvalue-minimisations  :   718
 total energy-change (2. order) :-0.2825731E+00  (-0.8698061E-01)
 number of electron     559.9999857 magnetization 
 augmentation part      241.3650242 magnetization 

 Broyden mixing:
  rms(total) = 0.18008E+01    rms(broyden)= 0.18006E+01
  rms(prec ) = 0.21704E+01
  weight for this iteration     100.00

 eigenvalues of (default mixing * dielectric matrix)
  average eigenvalue GAMMA=   0.2879
  1.4536  0.5629  0.2868  0.2868  0.1181  0.1181  0.0793  0.0793  0.0706  0.0554
  0.0554

 Free energy of the ion-electron system (eV)
  ---------------------------------------------------
  alpha Z        PSCENC =        75.25431677
  Ewald energy   TEWEN  =    138944.45192808
  -Hartree energ DENC   =   -183016.93903677
  -exchange      EXHF   =         0.00000000
  -V(xc)+E(xc)   XCENC  =     -1694.81515990
  PAW double counting   =     46202.46830270   -42682.94449956
  entropy T*S    EENTRO =         0.08050341
  eigenvalues    EBANDS =     -3091.18485416
  atomic energy  EATOM  =     45086.50549395
  Solvation  Ediel_sol  =         0.00000000
  ---------------------------------------------------
  free energy    TOTEN  =      -177.12300548 eV

  energy without entropy =     -177.20350889  energy(sigma->0) =     -177.14313133


--------------------------------------------------------------------------------------------------------




--------------------------------------- Iteration      1(  17)  ---------------------------------------


    POTLOK:  cpu time   13.1746: real time   13.1882
    SETDIJ:  cpu time    0.1178: real time    0.1178
    EDDIAG:  cpu time   67.9890: real time   68.0015
  RMM-DIIS:  cpu time  183.4670: real time  183.4784
    ORTHCH:  cpu time   13.4396: real time   13.4397
       DOS:  cpu time    0.0015: real time    0.0015
    CHARGE:  cpu time   25.3713: real time   25.3712
    MIXING:  cpu time    0.8672: real time    0.8672
    --------------------------------------------
      LOOP:  cpu time  304.4281: real time  304.4656

 eigenvalue-minimisations  :   708
 total energy-change (2. order) : 0.8075789E+00  (-0.5481455E-01)
 number of electron     559.9999852 magnetization 
 augmentation part      241.3480872 magnetization 

 Broyden mixing:
  rms(total) = 0.12817E+01    rms(broyden)= 0.12814E+01
  rms(prec ) = 0.14910E+01
  weight for this iteration     100.00

 eigenvalues of (default mixing * dielectric matrix)
  average eigenvalue GAMMA=   0.2979
  1.5690  0.6096  0.3624  0.3624  0.1206  0.1206  0.0891  0.0891  0.0724  0.0724
  0.0537  0.0537

 Free energy of the ion-electron system (eV)
  ---------------------------------------------------
  alpha Z        PSCENC =        75.25431677
  Ewald energy   TEWEN  =    138944.45192808
  -Hartree energ DENC   =   -183032.60627432
  -exchange      EXHF   =         0.00000000
  -V(xc)+E(xc)   XCENC  =     -1694.58437533
  PAW double counting   =     46222.74519875   -42702.16246459
  entropy T*S    EENTRO =        -0.01068561
  eigenvalues    EBANDS =     -3075.90856427
  atomic energy  EATOM  =     45086.50549395
  Solvation  Ediel_sol  =         0.00000000
  ---------------------------------------------------
  free energy    TOTEN  =      -176.31542656 eV

  energy without entropy =     -176.30474095  energy(sigma->0) =     -176.31275515


--------------------------------------------------------------------------------------------------------




--------------------------------------- Iteration      1(  18)  ---------------------------------------


    POTLOK:  cpu time   13.3282: real time   13.3309
    SETDIJ:  cpu time    0.1267: real time    0.1267
    EDDIAG:  cpu time   68.7489: real time   68.7496
  RMM-DIIS:  cpu time  182.9207: real time  182.9303
    ORTHCH:  cpu time   13.4515: real time   13.4516
       DOS:  cpu time    0.0015: real time    0.0015
    CHARGE:  cpu time   25.4859: real time   25.4904
    MIXING:  cpu time    0.9443: real time    0.9443
    --------------------------------------------
      LOOP:  cpu time  305.0077: real time  305.0253

 eigenvalue-minimisations  :   700
 total energy-change (2. order) : 0.3119195E+00  (-0.5887718E-01)
 number of electron     559.9999853 magnetization 
 augmentation part      241.2910090 magnetization 

 Broyden mixing:
  rms(total) = 0.10263E+01    rms(broyden)= 0.10261E+01
  rms(prec ) = 0.11900E+01
  weight for this iteration     100.00

 eigenvalues of (default mixing * dielectric matrix)
  average eigenvalue GAMMA=   0.2977
  1.6129  0.6961  0.3877  0.3877  0.1212  0.1212  0.1035  0.1035  0.0823  0.0823
  0.0631  0.0539  0.0539

 Free energy of the ion-electron system (eV)
  ---------------------------------------------------
  alpha Z        PSCENC =        75.25431677
  Ewald energy   TEWEN  =    138944.45192808
  -Hartree energ DENC   =   -183059.11152791
  -exchange      EXHF   =         0.00000000
  -V(xc)+E(xc)   XCENC  =     -1694.19486731
  PAW double counting   =     46255.81187143   -42733.40286551
  entropy T*S    EENTRO =        -0.00556305
  eigenvalues    EBANDS =     -3051.31229347
  atomic energy  EATOM  =     45086.50549395
  Solvation  Ediel_sol  =         0.00000000
  ---------------------------------------------------
  free energy    TOTEN  =      -176.00350702 eV

  energy without entropy =     -175.99794396  energy(sigma->0) =     -176.00211625


--------------------------------------------------------------------------------------------------------




--------------------------------------- Iteration      1(  19)  ---------------------------------------


    POTLOK:  cpu time   13.3507: real time   13.3536
    SETDIJ:  cpu time    0.1239: real time    0.1239
    EDDIAG:  cpu time   68.6137: real time   68.6138
  RMM-DIIS:  cpu time  184.2723: real time  184.2838
    ORTHCH:  cpu time   13.6211: real time   13.6210
       DOS:  cpu time    0.0015: real time    0.0015
    CHARGE:  cpu time   25.5959: real time   25.5958
    MIXING:  cpu time    1.0201: real time    1.0201
    --------------------------------------------
      LOOP:  cpu time  306.5992: real time  306.6136

 eigenvalue-minimisations  :   706
 total energy-change (2. order) : 0.1521547E+00  (-0.3108839E-01)
 number of electron     559.9999851 magnetization 
 augmentation part      241.1791720 magnetization 

 Broyden mixing:
  rms(total) = 0.10602E+01    rms(broyden)= 0.10600E+01
  rms(prec ) = 0.12813E+01
  weight for this iteration     100.00

 eigenvalues of (default mixing * dielectric matrix)
  average eigenvalue GAMMA=   0.3008
  1.6936  0.7936  0.4022  0.4022  0.1210  0.1210  0.1402  0.1402  0.0810  0.0810
  0.0646  0.0646  0.0529  0.0529

 Free energy of the ion-electron system (eV)
  ---------------------------------------------------
  alpha Z        PSCENC =        75.25431677
  Ewald energy   TEWEN  =    138944.45192808
  -Hartree energ DENC   =   -183079.53345326
  -exchange      EXHF   =         0.00000000
  -V(xc)+E(xc)   XCENC  =     -1693.95434669
  PAW double counting   =     46272.26342752   -42748.73825888
  entropy T*S    EENTRO =         0.00348154
  eigenvalues    EBANDS =     -3032.10394137
  atomic energy  EATOM  =     45086.50549395
  Solvation  Ediel_sol  =         0.00000000
  ---------------------------------------------------
  free energy    TOTEN  =      -175.85135235 eV

  energy without entropy =     -175.85483389  energy(sigma->0) =     -175.85222273


--------------------------------------------------------------------------------------------------------




--------------------------------------- Iteration      1(  20)  ---------------------------------------


    POTLOK:  cpu time   13.5254: real time   13.5281
    SETDIJ:  cpu time    0.1249: real time    0.1248
    EDDIAG:  cpu time   69.4144: real time   69.4150
  RMM-DIIS:  cpu time  183.7795: real time  183.7979
    ORTHCH:  cpu time   13.5731: real time   13.5732
       DOS:  cpu time    0.0015: real time    0.0015
    CHARGE:  cpu time   25.5670: real time   25.5670
    MIXING:  cpu time    1.0407: real time    1.0407
    --------------------------------------------
      LOOP:  cpu time  307.0263: real time  307.0482

 eigenvalue-minimisations  :   705
 total energy-change (2. order) : 0.1771043E+00  (-0.3126979E-01)
 number of electron     559.9999864 magnetization 
 augmentation part      241.0879444 magnetization 

 Broyden mixing:
  rms(total) = 0.86397E+00    rms(broyden)= 0.86371E+00
  rms(prec ) = 0.10213E+01
  weight for this iteration     100.00

 eigenvalues of (default mixing * dielectric matrix)
  average eigenvalue GAMMA=   0.3032
  1.7533  0.8179  0.4265  0.4265  0.2632  0.1203  0.1203  0.1333  0.0869  0.0869
  0.0769  0.0769  0.0535  0.0535  0.0519

 Free energy of the ion-electron system (eV)
  ---------------------------------------------------
  alpha Z        PSCENC =        75.25431677
  Ewald energy   TEWEN  =    138944.45192808
  -Hartree energ DENC   =   -183101.03600080
  -exchange      EXHF   =         0.00000000
  -V(xc)+E(xc)   XCENC  =     -1693.66671055
  PAW double counting   =     46290.14155552   -42765.30828401
  entropy T*S    EENTRO =        -0.00952811
  eigenvalues    EBANDS =     -3012.00701890
  atomic energy  EATOM  =     45086.50549395
  Solvation  Ediel_sol  =         0.00000000
  ---------------------------------------------------
  free energy    TOTEN  =      -175.67424806 eV

  energy without entropy =     -175.66471995  energy(sigma->0) =     -175.67186603


--------------------------------------------------------------------------------------------------------




--------------------------------------- Iteration      1(  21)  ---------------------------------------


    POTLOK:  cpu time   13.5947: real time   13.5980
    SETDIJ:  cpu time    0.1250: real time    0.1250
    EDDIAG:  cpu time   70.0235: real time   70.0375
  RMM-DIIS:  cpu time  182.7574: real time  182.7732
    ORTHCH:  cpu time   13.6070: real time   13.6076
       DOS:  cpu time    0.0015: real time    0.0015
    CHARGE:  cpu time   25.6660: real time   25.6695
    MIXING:  cpu time    1.0992: real time    1.0992
    --------------------------------------------
      LOOP:  cpu time  306.8744: real time  306.9115

 eigenvalue-minimisations  :   699
 total energy-change (2. order) : 0.1743088E+00  (-0.2259938E-01)
 number of electron     559.9999857 magnetization 
 augmentation part      241.0550736 magnetization 

 Broyden mixing:
  rms(total) = 0.64136E+00    rms(broyden)= 0.64117E+00
  rms(prec ) = 0.73083E+00
  weight for this iteration     100.00

 eigenvalues of (default mixing * dielectric matrix)
  average eigenvalue GAMMA=   0.3113
  1.8044  0.7907  0.5394  0.5394  0.3198  0.1201  0.1201  0.1346  0.1346  0.0849
  0.0849  0.0734  0.0734  0.0537  0.0537  0.0529

 Free energy of the ion-electron system (eV)
  ---------------------------------------------------
  alpha Z        PSCENC =        75.25431677
  Ewald energy   TEWEN  =    138944.45192808
  -Hartree energ DENC   =   -183115.20000357
  -exchange      EXHF   =         0.00000000
  -V(xc)+E(xc)   XCENC  =     -1693.47907343
  PAW double counting   =     46298.22684745   -42772.57216438
  entropy T*S    EENTRO =        -0.03246317
  eigenvalues    EBANDS =     -2998.65482099
  atomic energy  EATOM  =     45086.50549395
  Solvation  Ediel_sol  =         0.00000000
  ---------------------------------------------------
  free energy    TOTEN  =      -175.49993929 eV

  energy without entropy =     -175.46747612  energy(sigma->0) =     -175.49182350


--------------------------------------------------------------------------------------------------------




--------------------------------------- Iteration      1(  22)  ---------------------------------------


    POTLOK:  cpu time   13.3475: real time   13.3522
    SETDIJ:  cpu time    0.1212: real time    0.1212
    EDDIAG:  cpu time   69.7972: real time   69.8045
  RMM-DIIS:  cpu time  181.6488: real time  181.6686
    ORTHCH:  cpu time   13.6269: real time   13.6283
       DOS:  cpu time    0.0015: real time    0.0015
    CHARGE:  cpu time   25.5759: real time   25.5777
    MIXING:  cpu time    1.2208: real time    1.2209
    --------------------------------------------
      LOOP:  cpu time  305.3398: real time  305.3749

 eigenvalue-minimisations  :   696
 total energy-change (2. order) : 0.7458705E-02  (-0.2018797E-01)
 number of electron     559.9999866 magnetization 
 augmentation part      241.0640427 magnetization 

 Broyden mixing:
  rms(total) = 0.70578E+00    rms(broyden)= 0.70562E+00
  rms(prec ) = 0.82290E+00
  weight for this iteration     100.00

 eigenvalues of (default mixing * dielectric matrix)
  average eigenvalue GAMMA=   0.3223
  1.8549  0.9083  0.6348  0.6348  0.3243  0.1694  0.1203  0.1203  0.1411  0.1019
  0.0850  0.0850  0.0693  0.0693  0.0537  0.0537  0.0522

 Free energy of the ion-electron system (eV)
  ---------------------------------------------------
  alpha Z        PSCENC =        75.25431677
  Ewald energy   TEWEN  =    138944.45192808
  -Hartree energ DENC   =   -183127.80427784
  -exchange      EXHF   =         0.00000000
  -V(xc)+E(xc)   XCENC  =     -1693.31136956
  PAW double counting   =     46301.16439390   -42774.78817570
  entropy T*S    EENTRO =        -0.00662144
  eigenvalues    EBANDS =     -2986.95816875
  atomic energy  EATOM  =     45086.50549395
  Solvation  Ediel_sol  =         0.00000000
  ---------------------------------------------------
  free energy    TOTEN  =      -175.49248059 eV

  energy without entropy =     -175.48585915  energy(sigma->0) =     -175.49082523


--------------------------------------------------------------------------------------------------------




--------------------------------------- Iteration      1(  23)  ---------------------------------------


    POTLOK:  cpu time   13.2605: real time   13.2649
    SETDIJ:  cpu time    0.1255: real time    0.1255
    EDDIAG:  cpu time   69.2959: real time   69.3071
  RMM-DIIS:  cpu time  183.6620: real time  183.6860
    ORTHCH:  cpu time   13.4021: real time   13.4025
       DOS:  cpu time    0.0016: real time    0.0016
    CHARGE:  cpu time   25.6009: real time   25.6032
    MIXING:  cpu time    1.2395: real time    1.2396
    --------------------------------------------
      LOOP:  cpu time  306.5879: real time  306.6303

 eigenvalue-minimisations  :   702
 total energy-change (2. order) : 0.7292833E-01  (-0.1838108E-01)
 number of electron     559.9999859 magnetization 
 augmentation part      241.0851147 magnetization 

 Broyden mixing:
  rms(total) = 0.67674E+00    rms(broyden)= 0.67656E+00
  rms(prec ) = 0.79358E+00
  weight for this iteration     100.00

 eigenvalues of (default mixing * dielectric matrix)
  average eigenvalue GAMMA=   0.3374
  1.9159  1.2676  0.6315  0.6315  0.2862  0.2862  0.1205  0.1205  0.1477  0.1024
[...]
 -0.006  -0.012   0.004   0.004   0.005  -0.006  -0.012   0.004
 -0.011  -0.021   0.007   0.007   0.009  -0.010  -0.020   0.006
 -0.014  -0.005   0.013   0.000   0.022  -0.014  -0.005   0.012
  0.000  -0.023  -0.006  -0.015  -0.000   0.000  -0.022  -0.006
 -0.022   0.000   0.009  -0.005  -0.016  -0.021   0.000   0.008
 -0.017  -0.006   0.015   0.000   0.027  -0.017  -0.006   0.015
  0.000  -0.027  -0.007  -0.018  -0.000   0.000  -0.027  -0.007
 -0.027   0.000   0.010  -0.006  -0.019  -0.026   0.000   0.010
 total augmentation occupancy for first ion, spin component:           1
  1.534  -0.028   0.006   0.016   0.024   0.077  -0.008  -0.002   0.036  -0.010   0.092  -0.031   0.012   0.002   0.002  -0.019
 -0.028   1.394   0.027   0.070  -0.002  -0.007   0.074   0.012  -0.014  -0.007   0.224  -0.067   0.018   0.004   0.003  -0.006
  0.006   0.027   1.540   0.001   0.001  -0.002   0.013   0.075  -0.012   0.017  -0.053   0.018  -0.003  -0.006  -0.005   0.016
  0.016   0.070   0.001   1.335   0.043   0.033  -0.013  -0.012   0.093  -0.022  -0.076   0.019  -0.002  -0.008  -0.003   0.001
  0.024  -0.002   0.001   0.043   1.438  -0.010  -0.008   0.016  -0.022   0.068  -0.093   0.030  -0.003  -0.009  -0.010   0.027
  0.077  -0.007  -0.002   0.033  -0.010   0.218   0.019  -0.002  -0.045   0.004  -0.048   0.002   0.017  -0.010   0.035  -0.004
 -0.008   0.074   0.013  -0.013  -0.008   0.019   0.263  -0.023  -0.003   0.006  -0.110   0.007  -0.001   0.051  -0.010  -0.000
 -0.002   0.012   0.075  -0.012   0.016  -0.002  -0.023   0.216   0.014  -0.020   0.028  -0.001  -0.012   0.009  -0.018   0.003
  0.036  -0.014  -0.012   0.093  -0.022  -0.045  -0.003   0.014   0.261   0.007   0.043  -0.004  -0.009   0.036   0.004   0.000
 -0.010  -0.007   0.017  -0.022   0.068   0.004   0.006  -0.020   0.007   0.259   0.046  -0.003  -0.038   0.002   0.049   0.007
  0.092   0.224  -0.053  -0.076  -0.093  -0.048  -0.110   0.028   0.043   0.046   0.951  -0.141   0.084   0.014   0.064  -0.013
 -0.031  -0.067   0.018   0.019   0.030   0.002   0.007  -0.001  -0.004  -0.003  -0.141   0.023  -0.014  -0.003  -0.010   0.003
  0.012   0.018  -0.003  -0.002  -0.003   0.017  -0.001  -0.012  -0.009  -0.038   0.084  -0.014   0.029  -0.008  -0.004  -0.003
  0.002   0.004  -0.006  -0.008  -0.009  -0.010   0.051   0.009   0.036   0.002   0.014  -0.003  -0.008   0.035   0.004   0.000
  0.002   0.003  -0.005  -0.003  -0.010   0.035  -0.010  -0.018   0.004   0.049   0.064  -0.010  -0.004   0.004   0.034  -0.000
 -0.019  -0.006   0.016   0.001   0.027  -0.004  -0.000   0.003   0.000   0.007  -0.013   0.003  -0.003   0.000  -0.000   0.001
  0.001  -0.028  -0.007  -0.018   0.001   0.001  -0.008  -0.001  -0.006  -0.000  -0.004   0.001   0.000  -0.003  -0.000   0.000
 -0.028   0.001   0.012  -0.005  -0.019  -0.006   0.001   0.003  -0.001  -0.007  -0.008   0.001  -0.000  -0.000  -0.003   0.000


------------------------ aborting loop because EDIFF is reached ----------------------------------------


    CHARGE:  cpu time   25.1004: real time   25.1005
    FORLOC:  cpu time    6.8542: real time    6.8543
    FORNL :  cpu time   65.0621: real time   65.0620
    STRESS:  cpu time  201.4109: real time  201.4107
    FORCOR:  cpu time   21.9701: real time   21.9701
    FORHAR:  cpu time    9.8666: real time    9.8666
    MIXING:  cpu time    3.5744: real time    3.5745
    OFIELD:  cpu time    0.0000: real time    0.0000

  FORCE on cell =-STRESS in cart. coord.  units (eV):
  Direction    XX          YY          ZZ          XY          YZ          ZX
  --------------------------------------------------------------------------------------
  Alpha Z    75.25432    75.25432    75.25432
  Ewald   44551.36150 44531.99922 49860.98540    59.97724   421.20489   461.86720
  Hartree 59463.53472 59450.37804 64386.68679    39.48292   349.54662   383.30390
  E(xc)   -2906.09326 -2906.15964 -2903.64292     0.21718     0.61143     0.65955
  Local  ************************************   -95.41021  -759.57611  -832.92930
  n-local  -879.55839  -879.56523  -884.50057    -0.12710     0.34458     0.39330
  augment  4105.56232  4105.81307  4098.72389    -0.99310    -2.66021    -2.91381
  Kinetic  7817.96040  7818.68708  7782.39290    -3.02743    -8.63175    -9.41528
  Fock        0.00000     0.00000     0.00000     0.00000     0.00000     0.00000
  -------------------------------------------------------------------------------------
  Total    -112.95537  -112.95256  -107.34538     0.11949     0.83945     0.96555
  in kB      -6.70276    -6.70259    -6.36986     0.00709     0.04981     0.05730
  external pressure =       -6.59 kB  Pullay stress =        0.00 kB


 VOLUME and BASIS-vectors are now :
 -----------------------------------------------------------------------------
  energy-cutoff  :      400.00
  volume of cell :    27000.00
      direct lattice vectors                 reciprocal lattice vectors
    30.000000000  0.000000000  0.000000000     0.033333333  0.000000000  0.000000000
     0.000000000 30.000000000  0.000000000     0.000000000  0.033333333  0.000000000
     0.000000000  0.000000000 30.000000000     0.000000000  0.000000000  0.033333333

  length of vectors
    30.000000000 30.000000000 30.000000000     0.033333333  0.033333333  0.033333333


 FORCES acting on ions
    electron-ion (+dipol)            ewald-force                    non-local-force                 convergence-correction
 -----------------------------------------------------------------------------------------------
   0.396E+03 0.975E+03 0.422E+03   -.393E+03 -.972E+03 -.422E+03   -.150E+01 -.184E+01 -.213E+00   0.142E-01 -.380E-02 -.430E-02
   -.975E+03 -.395E+03 0.424E+03   0.972E+03 0.392E+03 -.424E+03   0.183E+01 0.149E+01 -.185E+00   -.396E-02 -.857E-02 0.267E-01
   -.394E+03 0.975E+03 0.423E+03   0.392E+03 -.972E+03 -.422E+03   0.150E+01 -.184E+01 -.202E+00   0.219E-01 0.128E-01 0.307E-02
   0.975E+03 -.394E+03 0.423E+03   -.972E+03 0.392E+03 -.422E+03   -.184E+01 0.150E+01 -.203E+00   0.486E-02 0.162E-01 -.817E-02
   0.510E+00 0.588E+03 0.968E+03   -.526E+00 -.588E+03 -.964E+03   -.268E-02 -.291E+00 -.238E+01   0.208E-01 0.425E-02 -.143E-02
   0.921E+01 0.636E+03 -.936E+03   -.928E+01 -.635E+03 0.933E+03   0.253E-01 -.250E+00 0.247E+01   0.311E-01 0.122E-01 -.387E-03
   0.912E+00 0.114E+04 0.788E+01   -.923E+00 -.114E+04 -.786E+01   -.168E-02 -.311E+01 -.182E-01   0.170E-01 0.889E-03 0.320E-02
   0.114E+04 0.826E+00 0.777E+01   -.114E+04 -.827E+00 -.774E+01   -.311E+01 -.143E-02 -.166E-01   -.138E-01 0.639E-02 -.428E-02
   -.114E+04 0.117E+01 0.111E+02   0.114E+04 -.116E+01 -.111E+02   0.310E+01 -.332E-02 -.519E-01   -.220E-01 0.130E-02 0.135E-01
   0.126E+01 -.114E+04 0.109E+02   -.126E+01 0.114E+04 -.109E+02   -.329E-02 0.310E+01 -.494E-01   0.988E-02 -.119E-01 0.252E-02
   -.579E+03 0.580E+03 0.816E+03   0.577E+03 -.578E+03 -.813E+03   0.155E+01 -.156E+01 -.221E+01   0.995E-02 0.655E-02 0.101E-01
   -.601E+03 0.614E+03 -.790E+03   0.598E+03 -.611E+03 0.787E+03   0.155E+01 -.154E+01 0.224E+01   0.829E-02 0.219E-01 -.131E-01
   0.580E+03 -.579E+03 0.816E+03   -.578E+03 0.577E+03 -.813E+03   -.156E+01 0.155E+01 -.221E+01   0.865E-02 0.985E-02 -.671E-03
   0.613E+03 -.600E+03 -.791E+03   -.610E+03 0.598E+03 0.788E+03   -.154E+01 0.155E+01 0.224E+01   0.172E-01 0.939E-02 0.510E-02
   0.580E+03 0.580E+03 0.815E+03   -.577E+03 -.577E+03 -.812E+03   -.156E+01 -.156E+01 -.221E+01   0.444E-02 -.378E-02 -.129E-01
   0.600E+03 0.600E+03 -.798E+03   -.598E+03 -.598E+03 0.795E+03   -.157E+01 -.157E+01 0.223E+01   0.139E-01 -.497E-02 0.129E-01
   -.579E+03 -.579E+03 0.817E+03   0.577E+03 0.577E+03 -.813E+03   0.156E+01 0.156E+01 -.221E+01   0.472E-02 -.500E-02 0.127E-01
   -.620E+03 -.621E+03 -.773E+03   0.618E+03 0.619E+03 0.770E+03   0.150E+01 0.150E+01 0.223E+01   0.344E-02 -.192E-01 -.194E-01
   0.400E+03 0.986E+03 -.403E+03   -.398E+03 -.983E+03 0.402E+03   -.153E+01 -.184E+01 0.198E+00   0.201E-01 0.419E-03 0.872E-02
   -.993E+03 -.398E+03 -.392E+03   0.990E+03 0.396E+03 0.391E+03   0.182E+01 0.155E+01 0.256E+00   -.159E-01 -.143E-01 -.724E-02
   -.322E+03 0.324E+03 0.464E+03   0.322E+03 -.324E+03 -.464E+03   -.361E+00 0.362E+00 0.527E+00   0.256E-01 0.112E-01 0.178E-01
   0.975E+03 0.395E+03 0.422E+03   -.972E+03 -.393E+03 -.422E+03   -.184E+01 -.150E+01 -.213E+00   -.338E-02 0.956E-03 -.971E-02
   -.394E+03 -.975E+03 0.424E+03   0.392E+03 0.972E+03 -.424E+03   0.149E+01 0.183E+01 -.186E+00   0.550E-02 -.119E-01 0.146E-01
   -.396E+03 0.988E+03 -.401E+03   0.394E+03 -.986E+03 0.401E+03   0.152E+01 -.183E+01 0.226E+00   0.240E-01 0.219E-01 0.603E-02
   0.988E+03 -.396E+03 -.401E+03   -.985E+03 0.394E+03 0.401E+03   -.183E+01 0.152E+01 0.224E+00   0.491E-02 0.152E-01 0.340E-02
   -.974E+03 0.396E+03 0.424E+03   0.972E+03 -.394E+03 -.423E+03   0.183E+01 -.149E+01 -.190E+00   -.366E-02 0.823E-02 0.209E-01
   0.396E+03 -.975E+03 0.424E+03   -.394E+03 0.972E+03 -.423E+03   -.149E+01 0.184E+01 -.191E+00   0.908E-02 -.144E-02 0.276E-02
   0.323E+03 0.323E+03 0.463E+03   -.324E+03 -.324E+03 -.463E+03   0.372E+00 0.372E+00 0.505E+00   0.304E-01 0.116E-01 0.178E-02
   0.180E+01 0.647E+03 0.162E+02   -.184E+01 -.648E+03 -.162E+02   -.124E-02 0.711E+00 -.237E-01   0.377E-01 0.197E-01 0.854E-02
   -.588E+03 0.539E+00 0.969E+03   0.587E+03 -.532E+00 -.965E+03   0.307E+00 -.149E-02 -.236E+01   0.664E-02 -.388E-02 0.178E-01
   -.664E+03 0.201E+02 -.899E+03   0.664E+03 -.202E+02 0.895E+03   -.859E-02 0.280E-01 0.228E+01   0.571E-02 0.552E-03 -.256E-01
   0.588E+03 0.470E+00 0.968E+03   -.588E+03 -.476E+00 -.964E+03   -.290E+00 -.260E-02 -.238E+01   0.920E-02 0.109E-01 -.978E-02
   0.635E+03 0.813E+01 -.937E+03   -.635E+03 -.817E+01 0.933E+03   -.266E+00 0.231E-01 0.247E+01   0.211E-01 0.549E-02 0.120E-01
   0.766E+03 0.766E+03 0.109E+02   -.764E+03 -.764E+03 -.110E+02   -.113E+01 -.113E+01 0.405E-01   0.120E-01 -.494E-02 0.136E-02
   -.766E+03 -.766E+03 0.173E+02   0.764E+03 0.764E+03 -.173E+02   0.116E+01 0.115E+01 -.571E-01   0.258E-02 -.214E-01 0.162E-01
   -.765E+03 0.768E+03 0.137E+02   0.763E+03 -.766E+03 -.137E+02   0.114E+01 -.114E+01 -.114E-01   0.111E-01 0.264E-01 0.114E-01
   0.768E+03 -.765E+03 0.135E+02   -.766E+03 0.763E+03 -.134E+02   -.114E+01 0.114E+01 -.646E-02   0.213E-01 0.121E-01 -.472E-02
   0.620E+00 0.573E+00 0.107E+04   -.611E+00 -.555E+00 -.107E+04   -.173E-01 -.155E-01 -.163E+01   0.165E-01 0.540E-02 0.677E-02
   0.101E+03 0.914E+02 -.818E+03   -.968E+02 -.880E+02 0.824E+03   -.391E+01 -.355E+01 -.775E+01   0.367E-01 0.460E-02 -.113E-01
   0.986E+03 0.400E+03 -.403E+03   -.983E+03 -.398E+03 0.403E+03   -.184E+01 -.153E+01 0.199E+00   -.272E-03 -.360E-02 0.747E-02
   -.398E+03 -.993E+03 -.392E+03   0.396E+03 0.990E+03 0.392E+03   0.154E+01 0.182E+01 0.255E+00   0.152E-01 -.224E-01 -.340E-02
   -.330E+03 0.343E+03 -.410E+03   0.330E+03 -.344E+03 0.410E+03   -.278E+00 0.376E+00 -.453E+00   0.333E-01 0.197E-01 0.938E-03
   0.324E+03 -.322E+03 0.464E+03   -.324E+03 0.322E+03 -.464E+03   0.363E+00 -.362E+00 0.525E+00   0.257E-01 0.130E-01 0.566E-02
   0.338E+03 0.338E+03 -.420E+03   -.339E+03 -.338E+03 0.421E+03   0.160E+00 0.154E+00 -.775E+00   0.441E-01 0.113E-01 0.389E-02
   -.989E+03 0.404E+03 -.395E+03   0.986E+03 -.402E+03 0.395E+03   0.183E+01 -.156E+01 0.212E+00   -.134E-01 0.189E-01 -.365E-02
   0.404E+03 -.989E+03 -.396E+03   -.402E+03 0.986E+03 0.396E+03   -.156E+01 0.183E+01 0.209E+00   0.219E-01 -.349E-02 -.170E-02
   -.322E+03 -.322E+03 0.465E+03   0.322E+03 0.322E+03 -.465E+03   -.354E+00 -.354E+00 0.545E+00   0.151E-01 -.395E-02 0.263E-01
   0.647E+03 0.164E+01 0.160E+02   -.648E+03 -.166E+01 -.160E+02   0.712E+00 -.876E-03 -.212E-01   0.287E-01 0.140E-01 -.133E-02
   -.646E+03 0.216E+01 0.211E+02   0.647E+03 -.216E+01 -.210E+02   -.709E+00 -.380E-02 -.704E-01   0.103E-01 0.559E-02 0.203E-01
   0.581E+00 -.588E+03 0.969E+03   -.582E+00 0.587E+03 -.965E+03   -.160E-02 0.307E+00 -.236E+01   0.438E-02 0.102E-02 0.876E-02
   0.209E+02 -.662E+03 -.902E+03   -.210E+02 0.662E+03 0.899E+03   0.326E-01 -.321E-02 0.230E+01   0.261E-01 -.719E-02 -.984E-02
   0.285E+01 0.261E+01 0.257E+02   -.289E+01 -.263E+01 -.257E+02   0.293E-03 0.218E-03 -.425E-01   0.427E-01 0.123E-01 0.118E-01
   0.343E+03 -.330E+03 -.411E+03   -.344E+03 0.330E+03 0.412E+03   0.365E+00 -.267E+00 -.477E+00   0.439E-01 0.622E-02 -.273E-02
   -.333E+03 -.333E+03 -.396E+03   0.333E+03 0.334E+03 0.396E+03   -.414E+00 -.420E+00 -.224E+00   0.282E-01 -.754E-02 -.562E-02
   0.233E+01 -.646E+03 0.208E+02   -.235E+01 0.647E+03 -.207E+02   -.429E-02 -.709E+00 -.677E-01   0.279E-01 -.988E-02 0.744E-02
   -.503E+02 -.462E+02 -.305E+03   0.480E+02 0.442E+02 0.285E+03   0.150E+01 0.135E+01 0.161E+02   0.884E-02 -.923E-04 -.678E-02
   -.809E+02 -.737E+02 -.821E+03   0.878E+02 0.800E+02 0.886E+03   -.609E+01 -.550E+01 -.602E+02   0.903E-02 -.968E-04 -.806E-02
 -----------------------------------------------------------------------------------------------
   0.817E+01 0.797E+01 0.532E+02   0.597E-12 -.739E-12 -.205E-11   -.898E+01 -.815E+01 -.534E+02   0.799E+00 0.185E+00 0.156E+00
 
 
 POSITION                                       TOTAL-FORCE (eV/Angst)
 -----------------------------------------------------------------------------------
     13.37281      9.84801     12.50759         0.695740      1.109059      0.288432
     20.15199     16.62719     12.50759        -1.112116     -0.698317      0.286415
     16.62719      9.84801     12.50759        -0.697381      1.107923      0.287497
      9.84801     16.62719     12.50759         1.107864     -0.697480      0.287512
     15.00000     11.47521     10.20639         0.002582      0.401538      1.280930
     15.00000     11.47521     19.79360        -0.014081      0.377894     -1.325350
     15.00000      8.28283     15.00000         0.004699      1.508793      0.008319
      8.28283     15.00000     15.00000         1.509268      0.004017      0.007769
     21.71717     15.00000     15.00000        -1.504751      0.005226      0.019630
     15.00000     21.71717     15.00000         0.005620     -1.504435      0.018773
     18.35858     11.64142     10.25025        -0.749833      0.754328      1.074482
     18.35858     11.64142     19.74975        -0.739089      0.736935     -1.072245
     11.64142     18.35858     10.25025         0.754350     -0.749799      1.074471
     11.64142     18.35858     19.74975         0.738507     -0.740516     -1.071806
     11.64142     11.64142     10.25025         0.751204      0.750696      1.075235
     11.64142     11.64142     19.74975         0.751360      0.751020     -1.068282
     18.35858     18.35858     10.25025        -0.753173     -0.753655      1.072617
     18.35858     18.35858     19.74975        -0.718916     -0.718775     -1.071468
     13.37281      9.84801     17.49241         0.702040      1.107991     -0.285881
     20.15199     16.62719     17.49241        -1.090710     -0.703335     -0.309097
     16.73751     13.26249     12.54279         0.113221     -0.114830     -0.151520
      9.84801     13.37281     12.50759         1.108879      0.695615      0.288622
     16.62719     20.15199     12.50759        -0.698004     -1.111945      0.286541
     16.62719      9.84801     17.49241        -0.698466      1.104393     -0.295678
      9.84801     16.62719     17.49241         1.104805     -0.698058     -0.294709
     20.15199     13.37281     12.50759        -1.113007      0.695447      0.283702
     13.37281     20.15199     12.50759         0.695475     -1.113105      0.283748
     13.26249     13.26249     12.54279        -0.114406     -0.114688     -0.147496
     15.00000     11.52498     15.00000        -0.001041     -0.212759     -0.000057
     18.52479     15.00000     10.20639        -0.407746      0.001532      1.279534
     18.52479     15.00000     19.79360        -0.452001     -0.000335     -1.289317
     11.47521     15.00000     10.20640         0.401263      0.002228      1.280929
     11.47521     15.00000     19.79360         0.380055     -0.012887     -1.324690
     11.49535     11.49535     15.00000         0.812088      0.812190     -0.028205
     18.50465     18.50465     15.00000        -0.833060     -0.833026      0.009765
     18.50465     11.49535     15.00000        -0.825669      0.820422     -0.008627
     11.49535     18.50465     15.00000         0.819378     -0.824532     -0.010736
     15.00000     15.00000     10.04368         0.008880      0.007801      1.185356
     15.00000     15.00000     19.95633        -0.123171     -0.106722     -1.578349
      9.84801     13.37281     17.49241         1.108106      0.700997     -0.286270
     16.62719     20.15199     17.49241        -0.702767     -1.091662     -0.308497
     16.73751     13.26249     17.45721         0.132840     -0.170799      0.112054
     13.26249     16.73751     12.54279        -0.114503      0.113262     -0.151119
     13.26249     13.26249     17.45721        -0.071457     -0.068775      0.202102
     20.15199     13.37281     17.49241        -1.098666      0.705407     -0.294368
     13.37281     20.15199     17.49241         0.705733     -1.100032     -0.292557
     16.73751     16.73751     12.54279         0.113549      0.113569     -0.152879
     11.52498     15.00000     15.00000        -0.212146     -0.001206      0.000036
     18.47502     15.00000     15.00000         0.218148      0.001469      0.000137
     15.00000     18.52480     10.20639         0.001863     -0.407758      1.279658
     15.00000     18.52480     19.79360        -0.005628     -0.432788     -1.300163
     15.00000     15.00000     15.00000        -0.000058     -0.000193      0.008064
     13.26249     16.73751     17.45721        -0.167236      0.128279      0.115300
     16.73751     16.73751     17.45721         0.165485      0.167123      0.082802
     15.00000     18.47502     15.00000         0.001680      0.217574      0.000087
     15.71357     15.64832     21.50913        -0.722875     -0.688622     -4.116175
     15.83589     15.75945     22.62495         0.827275      0.768304      4.755023
 -----------------------------------------------------------------------------------
    total drift:                               -0.006806      0.004164     -0.000621


--------------------------------------------------------------------------------------------------------



  FREE ENERGIE OF THE ION-ELECTRON SYSTEM (eV)
  ---------------------------------------------------
  free  energy   TOTEN  =      -175.13480112 eV

  energy  without entropy=     -175.09617251  energy(sigma->0) =     -175.12514397
 


--------------------------------------------------------------------------------------------------------


    POTLOK:  cpu time   13.9008: real time   13.9008


--------------------------------------------------------------------------------------------------------


     LOOP+:  cpu time18582.0389: real time18583.3462
    4ORBIT:  cpu time    0.0000: real time    0.0000

 total amount of memory used by VASP MPI-rank0  5486940. kBytes
=======================================================================

   base      :      30000. kBytes
   nonlr-proj:      17125. kBytes
   fftplans  :     924480. kBytes
   grid      :    1872000. kBytes
   one-center:        886. kBytes
   wavefun   :    2642449. kBytes
 
  
  
 General timing and accounting informations for this job:
 ========================================================
  
                  Total CPU time used (sec):    18657.012
                            User time (sec):    17622.212
                          System time (sec):     1034.800
                         Elapsed time (sec):    18658.370
  
                   Maximum memory used (kb):     7178608.
                   Average memory used (kb):           0.
  
                          Minor page faults:    829378150
                          Major page faults:            0
                 Voluntary context switches:          567
