  57  57   0   0
  0.4736842E+03  0.3000000E-08  0.3000000E-08  0.3000000E-08  0.5000000E-15
  1.000000000000000E-004
  CAR 
 6_Pd100_top_free_z(O)                   
      1.20742378    -30.49343790  301     -4.15721882      1.00000000
    -30.493  0.0000E+00  0.0000E+00
    -30.388  0.0000E+00  0.0000E+00
    -30.282  0.0000E+00  0.0000E+00
    -30.176  0.2670E-27  0.2822E-28
    -30.071  0.1200E-23  0.1269E-24
    -29.965  0.3042E-20  0.3216E-21
    -29.859  0.4332E-17  0.4581E-18
    -29.754  0.3455E-14  0.3656E-15
    -29.648  0.1539E-11  0.1630E-12
    -29.542  0.3795E-09  0.4026E-10
    -29.437  0.5136E-07  0.5468E-08
    -29.331  0.3762E-05  0.4030E-06
    -29.225  0.1456E-03  0.1579E-04
    -29.120  0.2846E-02  0.3165E-03
    -29.014  0.2517E-01  0.2976E-02
    -28.908  0.6368E-01  0.9705E-02
    -28.803 -0.2386E+00 -0.1550E-01
    -28.697 -0.8093E+00 -0.1010E+00
    -28.591  0.2226E+01  0.1342E+00
    -28.486  0.8965E+01  0.1082E+01
    -28.380  0.8180E+01  0.1946E+01
    -28.274  0.1389E+01  0.2093E+01
    -28.169 -0.8146E+00  0.2007E+01
    -28.063 -0.1486E+00  0.1991E+01
    -27.957  0.6404E-01  0.1998E+01
    -27.852  0.1940E-01  0.2000E+01
    -27.746  0.1929E-02  0.2000E+01
    -27.640  0.8894E-04  0.2000E+01
    -27.535  0.2089E-05  0.2000E+01
    -27.429  0.2604E-07  0.2000E+01
    -27.323  0.1761E-09  0.2000E+01
    -27.218  0.6535E-12  0.2000E+01
    -27.112  0.2101E-14  0.2000E+01
    -27.006  0.0000E+00  0.2000E+01
    -26.901  0.0000E+00  0.2000E+01
    -26.795  0.0000E+00  0.2000E+01
    -26.689  0.0000E+00  0.2000E+01
    -26.584  0.0000E+00  0.2000E+01
    -26.478  0.0000E+00  0.2000E+01
    -26.372  0.0000E+00  0.2000E+01
    -26.267  0.0000E+00  0.2000E+01
    -26.161  0.0000E+00  0.2000E+01
    -26.055  0.0000E+00  0.2000E+01
    -25.950  0.0000E+00  0.2000E+01
    -25.844  0.0000E+00  0.2000E+01
    -25.738  0.0000E+00  0.2000E+01
    -25.633  0.0000E+00  0.2000E+01
    -25.527  0.0000E+00  0.2000E+01
    -25.421  0.0000E+00  0.2000E+01
    -25.316  0.0000E+00  0.2000E+01
    -25.210  0.0000E+00  0.2000E+01
    -25.104  0.0000E+00  0.2000E+01
    -24.999  0.0000E+00  0.2000E+01
    -24.893  0.0000E+00  0.2000E+01
    -24.787  0.0000E+00  0.2000E+01
    -24.682  0.0000E+00  0.2000E+01
    -24.576  0.0000E+00  0.2000E+01
    -24.470  0.0000E+00  0.2000E+01
    -24.365  0.0000E+00  0.2000E+01
    -24.259  0.0000E+00  0.2000E+01
    -24.153  0.0000E+00  0.2000E+01
    -24.048  0.0000E+00  0.2000E+01
    -23.942  0.0000E+00  0.2000E+01
    -23.836  0.0000E+00  0.2000E+01
    -23.731  0.0000E+00  0.2000E+01
    -23.625  0.0000E+00  0.2000E+01
    -23.519  0.0000E+00  0.2000E+01
    -23.414  0.0000E+00  0.2000E+01
    -23.308  0.0000E+00  0.2000E+01
    -23.202  0.0000E+00  0.2000E+01
    -23.097  0.0000E+00  0.2000E+01
    -22.991  0.0000E+00  0.2000E+01
    -22.885  0.0000E+00  0.2000E+01
    -22.780  0.0000E+00  0.2000E+01
    -22.674  0.0000E+00  0.2000E+01
    -22.568  0.0000E+00  0.2000E+01
    -22.463  0.0000E+00  0.2000E+01
    -22.357  0.0000E+00  0.2000E+01
    -22.251  0.0000E+00  0.2000E+01
    -22.146  0.0000E+00  0.2000E+01
    -22.040  0.0000E+00  0.2000E+01
    -21.934  0.0000E+00  0.2000E+01
    -21.829  0.0000E+00  0.2000E+01
    -21.723  0.0000E+00  0.2000E+01
    -21.617  0.0000E+00  0.2000E+01
    -21.512  0.0000E+00  0.2000E+01
    -21.406  0.0000E+00  0.2000E+01
    -21.300  0.0000E+00  0.2000E+01
    -21.195  0.0000E+00  0.2000E+01
    -21.089  0.0000E+00  0.2000E+01
    -20.983  0.0000E+00  0.2000E+01
    -20.878  0.0000E+00  0.2000E+01
    -20.772  0.0000E+00  0.2000E+01
    -20.666  0.0000E+00  0.2000E+01
    -20.561  0.0000E+00  0.2000E+01
    -20.455  0.0000E+00  0.2000E+01
    -20.349  0.0000E+00  0.2000E+01
    -20.243  0.0000E+00  0.2000E+01
    -20.138  0.0000E+00  0.2000E+01
    -20.032  0.0000E+00  0.2000E+01
    -19.926  0.0000E+00  0.2000E+01
    -19.821  0.0000E+00  0.2000E+01
    -19.715  0.0000E+00  0.2000E+01
    -19.609  0.0000E+00  0.2000E+01
    -19.504  0.0000E+00  0.2000E+01
    -19.398  0.0000E+00  0.2000E+01
    -19.292  0.0000E+00  0.2000E+01
    -19.187  0.0000E+00  0.2000E+01
    -19.081  0.0000E+00  0.2000E+01
    -18.975  0.0000E+00  0.2000E+01
    -18.870  0.0000E+00  0.2000E+01
    -18.764  0.0000E+00  0.2000E+01
    -18.658  0.0000E+00  0.2000E+01
    -18.553  0.0000E+00  0.2000E+01
    -18.447  0.0000E+00  0.2000E+01
    -18.341  0.0000E+00  0.2000E+01
    -18.236  0.0000E+00  0.2000E+01
    -18.130  0.0000E+00  0.2000E+01
    -18.024  0.0000E+00  0.2000E+01
    -17.919  0.0000E+00  0.2000E+01
    -17.813  0.0000E+00  0.2000E+01
    -17.707  0.0000E+00  0.2000E+01
    -17.602  0.0000E+00  0.2000E+01
    -17.496  0.0000E+00  0.2000E+01
    -17.390  0.0000E+00  0.2000E+01
    -17.285  0.0000E+00  0.2000E+01
    -17.179  0.0000E+00  0.2000E+01
    -17.073  0.0000E+00  0.2000E+01
    -16.968  0.0000E+00  0.2000E+01
    -16.862  0.0000E+00  0.2000E+01
    -16.756  0.0000E+00  0.2000E+01
    -16.651  0.0000E+00  0.2000E+01
    -16.545  0.0000E+00  0.2000E+01
    -16.439  0.0000E+00  0.2000E+01
    -16.334  0.0000E+00  0.2000E+01
    -16.228  0.0000E+00  0.2000E+01
    -16.122  0.0000E+00  0.2000E+01
    -16.017  0.0000E+00  0.2000E+01
    -15.911  0.0000E+00  0.2000E+01
    -15.805  0.0000E+00  0.2000E+01
    -15.700  0.0000E+00  0.2000E+01
    -15.594  0.0000E+00  0.2000E+01
    -15.488  0.0000E+00  0.2000E+01
    -15.383  0.0000E+00  0.2000E+01
    -15.277  0.0000E+00  0.2000E+01
    -15.171  0.0000E+00  0.2000E+01
    -15.066  0.1166E-27  0.2000E+01
    -14.960  0.5534E-24  0.2000E+01
    -14.854  0.1481E-20  0.2000E+01
    -14.749  0.2228E-17  0.2000E+01
    -14.643  0.1878E-14  0.2000E+01
    -14.537  0.8850E-12  0.2000E+01
    -14.432  0.2307E-09  0.2000E+01
    -14.326  0.3308E-07  0.2000E+01
    -14.220  0.2571E-05  0.2000E+01
    -14.115  0.1059E-03  0.2000E+01
    -14.009  0.2214E-02  0.2000E+01
    -13.903  0.2130E-01  0.2002E+01
    -13.798  0.6451E-01  0.2009E+01
    -13.692 -0.1782E+00  0.1990E+01
    -13.586 -0.8205E+00  0.1904E+01
    -13.481  0.1668E+01  0.2080E+01
    -13.375  0.8474E+01  0.2975E+01
    -13.269  0.8711E+01  0.3896E+01
    -13.164  0.1919E+01  0.4099E+01
    -13.058 -0.8191E+00  0.4012E+01
    -12.952 -0.2052E+00  0.3990E+01
    -12.847  0.6442E-01  0.3997E+01
    -12.741  0.2303E-01  0.4000E+01
    -12.635  0.2488E-02  0.4000E+01
    -12.530  0.1228E-03  0.4000E+01
    -12.424  0.3067E-05  0.4000E+01
    -12.318  0.4055E-07  0.4000E+01
    -12.213  0.2961E-09  0.4000E+01
    -12.107  0.1214E-08  0.4000E+01
    -12.001  0.1432E-06  0.4000E+01
    -11.896  0.9126E-05  0.4000E+01
    -11.790  0.3058E-03  0.4000E+01
    -11.684  0.5128E-02  0.4001E+01
    -11.579  0.3814E-01  0.4005E+01
    -11.473  0.7096E-01  0.4012E+01
    -11.367 -0.3412E+00  0.3976E+01
    -11.262 -0.8173E+00  0.3890E+01
    -11.156  0.2923E+01  0.4199E+01
    -11.050  0.1152E+02  0.5416E+01
    -10.945  0.1519E+02  0.7021E+01
    -10.839  0.8438E+01  0.7913E+01
    -10.733  0.1071E+01  0.8026E+01
    -10.628  0.4784E+01  0.8531E+01
    -10.522  0.9859E+01  0.9573E+01
    -10.416  0.4850E+01  0.1009E+02
    -10.311 -0.3726E+00  0.1005E+02
    -10.205 -0.5184E+00  0.9992E+01
    -10.099  0.2848E-01  0.9995E+01
     -9.994  0.4345E-01  0.9999E+01
     -9.888  0.7032E-02  0.1000E+02
     -9.782  0.4728E-03  0.1000E+02
     -9.677  0.1560E-04  0.1000E+02
     -9.571  0.2683E-06  0.1000E+02
     -9.465  0.2480E-08  0.1000E+02
     -9.360  0.1253E-10  0.1000E+02
     -9.254  0.3572E-13  0.1000E+02
     -9.148  0.0000E+00  0.1000E+02
     -9.043  0.0000E+00  0.1000E+02
     -8.937  0.0000E+00  0.1000E+02
     -8.831  0.0000E+00  0.1000E+02
     -8.726  0.0000E+00  0.1000E+02
     -8.620  0.0000E+00  0.1000E+02
     -8.514  0.0000E+00  0.1000E+02
     -8.409  0.0000E+00  0.1000E+02
     -8.303  0.7244E-26  0.1000E+02
     -8.197  0.2613E-22  0.1000E+02
     -8.091  0.5308E-19  0.1000E+02
     -7.986  0.6052E-16  0.1000E+02
     -7.880  0.3858E-13  0.1000E+02
     -7.774  0.1372E-10  0.1000E+02
     -7.669  0.2689E-08  0.1000E+02
     -7.563  0.2880E-06  0.1000E+02
     -7.457  0.1657E-04  0.1000E+02
     -7.352  0.4968E-03  0.1000E+02
     -7.246  0.7299E-02  0.1000E+02
     -7.140  0.4433E-01  0.1001E+02
     -7.035  0.2540E-01  0.1001E+02
     -6.929 -0.5303E+00  0.9952E+01
     -6.823 -0.3275E+00  0.9918E+01
     -6.718  0.5013E+01  0.1045E+02
     -6.612  0.9929E+01  0.1150E+02
     -6.506  0.4413E+01  0.1196E+02
     -6.401  0.8801E-01  0.1197E+02
     -6.295  0.1162E+02  0.1320E+02
     -6.189  0.3346E+02  0.1674E+02
     -6.084  0.3656E+02  0.2060E+02
     -5.978  0.1407E+02  0.2209E+02
     -5.872  0.1266E+02  0.2342E+02
     -5.767  0.4519E+02  0.2820E+02
     -5.661  0.1027E+03  0.3905E+02
     -5.555  0.2067E+03  0.6089E+02
     -5.450  0.2940E+03  0.9196E+02
     -5.344  0.2673E+03  0.1202E+03
     -5.238  0.2073E+03  0.1421E+03
     -5.133  0.2417E+03  0.1676E+03
     -5.027  0.3362E+03  0.2032E+03
     -4.921  0.3562E+03  0.2408E+03
     -4.816  0.2967E+03  0.2722E+03
     -4.710  0.3165E+03  0.3056E+03
     -4.604  0.4086E+03  0.3488E+03
     -4.499  0.4264E+03  0.3938E+03
     -4.393  0.4436E+03  0.4407E+03
     -4.287  0.5412E+03  0.4979E+03
     -4.182  0.5043E+03  0.5512E+03
     -4.076  0.2457E+03  0.5771E+03
     -3.970  0.3882E+02  0.5812E+03
     -3.865  0.1361E+02  0.5827E+03
     -3.759  0.3207E+02  0.5861E+03
     -3.653  0.1726E+02  0.5879E+03
     -3.548  0.1262E+02  0.5892E+03
     -3.442  0.2570E+02  0.5919E+03
     -3.336  0.1731E+02  0.5938E+03
     -3.231 -0.1291E+01  0.5936E+03
     -3.125  0.1409E+02  0.5951E+03
     -3.019  0.5674E+02  0.6011E+03
     -2.914  0.6240E+02  0.6077E+03
     -2.808  0.2418E+02  0.6103E+03
     -2.702 -0.2214E+01  0.6100E+03
     -2.597  0.4238E+01  0.6105E+03
     -2.491  0.2294E+02  0.6129E+03
     -2.385  0.2788E+02  0.6159E+03
     -2.280  0.1649E+02  0.6176E+03
     -2.174  0.1563E+02  0.6192E+03
     -2.068  0.3414E+02  0.6229E+03
     -1.963  0.4382E+02  0.6275E+03
     -1.857  0.3765E+02  0.6315E+03
     -1.751  0.3270E+02  0.6349E+03
     -1.646  0.3966E+02  0.6391E+03
     -1.540  0.3833E+02  0.6432E+03
     -1.434  0.2363E+02  0.6457E+03
     -1.329  0.1774E+02  0.6475E+03
     -1.223  0.2035E+02  0.6497E+03
     -1.117  0.2601E+02  0.6524E+03
     -1.012  0.4748E+02  0.6574E+03
     -0.906  0.6998E+02  0.6648E+03
     -0.800  0.5370E+02  0.6705E+03
     -0.695  0.1681E+02  0.6723E+03
     -0.589 -0.1348E+01  0.6721E+03
     -0.483 -0.1726E+01  0.6720E+03
     -0.378  0.6862E-01  0.6720E+03
     -0.272  0.1946E+00  0.6720E+03
     -0.166  0.4249E-01  0.6720E+03
     -0.061  0.3919E-02  0.6720E+03
      0.045  0.1799E-03  0.6720E+03
      0.151  0.4349E-05  0.6720E+03
      0.256  0.5685E-07  0.6720E+03
      0.362  0.4079E-09  0.6720E+03
      0.468  0.1624E-11  0.6720E+03
      0.573  0.4203E-14  0.6720E+03
      0.679  0.0000E+00  0.6720E+03
      0.785  0.0000E+00  0.6720E+03
      0.890  0.0000E+00  0.6720E+03
      0.996  0.0000E+00  0.6720E+03
      1.102  0.0000E+00  0.6720E+03
      1.207  0.0000E+00  0.6720E+03
