<?xml version="1.0" encoding="ISO-8859-1"?>
<modeling>
 <generator>
  <i name="program" type="string">vasp </i>
  <i name="version" type="string">5.4.4.18Apr17-6-g9f103f2a35  </i>
  <i name="subversion" type="string">(build Sep 03 2018 23:53:05) complex            parallel </i>
  <i name="platform" type="string">LinuxIFC </i>
  <i name="date" type="string">2021 11 26 </i>
  <i name="time" type="string">23:24:38 </i>
 </generator>
 <incar>
  <i type="string" name="SYSTEM"> 6_Pd100_top_free_z(O)</i>
  <i type="int" name="ISTART">     0</i>
  <i type="string" name="PREC">normal   			! encut=max(enmax), ngx,y,z</i>
  <i type="string" name="ALGO"> Fast     			! Mix RMM-DIIS and Dav</i>
  <i type="logical" name="ADDGRID"> F  </i>
  <i type="int" name="ISPIN">     1</i>
  <i type="int" name="ICHARG">     2</i>
  <i type="int" name="NELM">   100</i>
  <i type="int" name="NELMIN">     6</i>
  <i type="int" name="IBRION">     2</i>
  <i name="EDIFF">      0.00010000</i>
  <i name="EDIFFG">     -0.05000000</i>
  <i type="int" name="NSW">     0</i>
  <i type="int" name="ISIF">     2</i>
  <i type="int" name="ISYM">     2</i>
  <i name="ENCUT">    400.00000000</i>
  <i type="string" name="LREAL"> Auto     			! Auto or A projection done</i>
  <i type="int" name="ISMEAR">     2</i>
  <i name="SIGMA">      0.20000000</i>
  <i type="logical" name="LWAVE"> F  </i>
  <i type="logical" name="LCHARG"> F  </i>
  <v type="int" name="KPOINT_BSE">    -1     0     0     0</v>
  <i type="int" name="MAXMEM"> 10000</i>
  <i type="int" name="NELM">   100</i>
  <i type="string" name="GGA"> RP         			! Revised PBE</i>
 </incar>
 <structure name="primitive_cell" >
  <crystal>
   <varray name="basis" >
    <v>      30.00000000       0.00000000       0.00000000 </v>
    <v>       0.00000000      30.00000000       0.00000000 </v>
    <v>       0.00000000       0.00000000      30.00000000 </v>
   </varray>
   <i name="volume">  27000.00000000 </i>
   <varray name="rec_basis" >
    <v>       0.03333333       0.00000000       0.00000000 </v>
    <v>       0.00000000       0.03333333       0.00000000 </v>
    <v>       0.00000000       0.00000000       0.03333333 </v>
   </varray>
  </crystal>
  <varray name="positions" >
   <v>       0.44576020       0.32826710       0.41691983 </v>
   <v>      -0.44576020       0.32826710       0.41691983 </v>
   <v>      -0.50000000       0.38250690       0.34021317 </v>
   <v>      -0.50000000       0.27609440      -0.50000000 </v>
   <v>       0.38804720       0.38804720       0.34167483 </v>
   <v>      -0.50000000       0.38416601      -0.50000000 </v>
   <v>       0.44208300       0.44208300       0.41809300 </v>
   <v>       0.38317830       0.38317830      -0.50000000 </v>
   <v>      -0.44208300       0.44208300       0.41809300 </v>
   <v>       0.44576020       0.32826710      -0.41691977 </v>
   <v>       0.32826705       0.44576024       0.41691983 </v>
   <v>      -0.38804720       0.38804720       0.34167483 </v>
   <v>      -0.38317830       0.38317830      -0.50000000 </v>
   <v>      -0.50000000      -0.50000000       0.33478917 </v>
   <v>      -0.50000000      -0.50000000      -0.50000000 </v>
   <v>      -0.44576020       0.32826710      -0.41691977 </v>
   <v>       0.38250685      -0.49999995       0.34021317 </v>
   <v>       0.44208300       0.44208300      -0.41809297 </v>
   <v>       0.38416599      -0.49999998      -0.50000000 </v>
   <v>      -0.44208300       0.44208300      -0.41809297 </v>
   <v>       0.44208298      -0.44208298       0.41809300 </v>
   <v>       0.32826705       0.44576024      -0.41691977 </v>
   <v>      -0.50000000       0.38250690      -0.34021320 </v>
   <v>       0.32826712      -0.44576022       0.41691983 </v>
   <v>      -0.38250685      -0.49999995       0.34021317 </v>
   <v>      -0.32826705       0.44576024       0.41691983 </v>
   <v>       0.27609443       0.49999998      -0.50000000 </v>
   <v>       0.38804720       0.38804720      -0.34167487 </v>
   <v>      -0.38416599      -0.49999998      -0.50000000 </v>
   <v>      -0.44208298      -0.44208298       0.41809300 </v>
   <v>       0.44208298      -0.44208298      -0.41809297 </v>
   <v>      -0.38804720       0.38804720      -0.34167487 </v>
   <v>       0.38804722      -0.38804722       0.34167483 </v>
   <v>       0.38250685      -0.49999995      -0.34021320 </v>
   <v>       0.32826712      -0.44576022      -0.41691977 </v>
   <v>      -0.32826705       0.44576024      -0.41691977 </v>
   <v>       0.50000000      -0.38250681       0.34021317 </v>
   <v>      -0.50000000      -0.38416596      -0.50000000 </v>
   <v>      -0.44208298      -0.44208298      -0.41809297 </v>
   <v>      -0.50000000      -0.50000000      -0.33478913 </v>
   <v>       0.38317828      -0.38317828      -0.50000000 </v>
   <v>      -0.32826712      -0.44576022       0.41691983 </v>
   <v>      -0.27609443       0.49999998      -0.50000000 </v>
   <v>      -0.38804722      -0.38804722       0.34167483 </v>
   <v>      -0.38250685      -0.49999995      -0.34021320 </v>
   <v>       0.44576027      -0.32826707       0.41691983 </v>
   <v>      -0.38317828      -0.38317828      -0.50000000 </v>
   <v>      -0.32826712      -0.44576022      -0.41691977 </v>
   <v>      -0.44576027      -0.32826707       0.41691983 </v>
   <v>       0.38804722      -0.38804722      -0.34167487 </v>
   <v>      -0.50000000      -0.38250681      -0.34021320 </v>
   <v>       0.44576027      -0.32826707      -0.41691977 </v>
   <v>      -0.44576027      -0.32826707      -0.41691977 </v>
   <v>      -0.50000000      -0.27609445       0.50000000 </v>
   <v>      -0.38804722      -0.38804722      -0.34167487 </v>
   <v>      -0.49589887      -0.37232390      -0.27774770 </v>
   <v>      -0.49529733      -0.35359690      -0.24514867 </v>
  </varray>
 </structure>
 <varray name="primitive_index" >
  <v type="int" >        1 </v>
  <v type="int" >        3 </v>
  <v type="int" >        5 </v>
  <v type="int" >        7 </v>
  <v type="int" >       15 </v>
  <v type="int" >       29 </v>
  <v type="int" >       28 </v>
  <v type="int" >       34 </v>
  <v type="int" >       21 </v>
  <v type="int" >       19 </v>
  <v type="int" >       22 </v>
  <v type="int" >       11 </v>
  <v type="int" >       36 </v>
  <v type="int" >       38 </v>
  <v type="int" >       52 </v>
  <v type="int" >       24 </v>
  <v type="int" >       32 </v>
  <v type="int" >       44 </v>
  <v type="int" >       48 </v>
  <v type="int" >       42 </v>
  <v type="int" >       43 </v>
  <v type="int" >       40 </v>
  <v type="int" >        6 </v>
  <v type="int" >        4 </v>
  <v type="int" >       30 </v>
  <v type="int" >       26 </v>
  <v type="int" >        8 </v>
  <v type="int" >       16 </v>
  <v type="int" >       49 </v>
  <v type="int" >       47 </v>
  <v type="int" >       53 </v>
  <v type="int" >       12 </v>
  <v type="int" >       13 </v>
  <v type="int" >       33 </v>
  <v type="int" >       25 </v>
  <v type="int" >       45 </v>
  <v type="int" >       50 </v>
  <v type="int" >       55 </v>
  <v type="int" >       54 </v>
  <v type="int" >       39 </v>
  <v type="int" >       37 </v>
  <v type="int" >        2 </v>
  <v type="int" >        9 </v>
  <v type="int" >       17 </v>
  <v type="int" >       31 </v>
  <v type="int" >       27 </v>
  <v type="int" >       35 </v>
  <v type="int" >       20 </v>
  <v type="int" >       23 </v>
  <v type="int" >       14 </v>
  <v type="int" >       51 </v>
  <v type="int" >       46 </v>
  <v type="int" >       41 </v>
  <v type="int" >       10 </v>
  <v type="int" >       18 </v>
  <v type="int" >       56 </v>
  <v type="int" >       57 </v>
 </varray>
 <kpoints>
  <generation param="Monkhorst-Pack">
   <v type="int" name="divisions">       1        1        1 </v>
   <v name="usershift">      0.00000000       0.00000000       0.00000000 </v>
   <v name="genvec1">      1.00000000       0.00000000       0.00000000 </v>
   <v name="genvec2">      0.00000000       1.00000000       0.00000000 </v>
   <v name="genvec3">      0.00000000       0.00000000       1.00000000 </v>
   <v name="shift">      0.00000000       0.00000000       0.00000000 </v>
  </generation>
  <varray name="kpointlist" >
   <v>       0.00000000       0.00000000       0.00000000 </v>
  </varray>
  <varray name="weights" >
   <v>       1.00000000 </v>
  </varray>
 </kpoints>
 <parameters>
  <separator name="general" >
   <i type="string" name="SYSTEM">6_Pd100_top_free_z(O)</i>
   <i type="logical" name="LCOMPAT"> F  </i>
  </separator>
  <separator name="electronic" >
   <i type="string" name="PREC">normal</i>
   <i name="ENMAX">    400.00000000</i>
   <i name="ENAUG">    644.87300000</i>
   <i name="EDIFF">      0.00010000</i>
   <i type="int" name="IALGO">    68</i>
   <i type="int" name="IWAVPR">    10</i>
   <i type="int" name="NBANDS">   336</i>
   <i name="NELECT">    560.00000000</i>
   <i type="int" name="TURBO">     0</i>
   <i type="int" name="IRESTART">     0</i>
   <i type="int" name="NREBOOT">     0</i>
   <i type="int" name="NMIN">     0</i>
   <i name="EREF">      0.00000000</i>
   <separator name="electronic smearing" >
    <i type="int" name="ISMEAR">     2</i>
    <i name="SIGMA">      0.20000000</i>
    <i name="KSPACING">      0.50000000</i>
    <i type="logical" name="KGAMMA"> T  </i>
   </separator>
   <separator name="electronic projectors" >
    <i type="logical" name="LREAL"> T  </i>
    <v name="ROPT">     -0.00050000     -0.00050000     -0.00050000</v>
    <i type="int" name="LMAXPAW">  -100</i>
    <i type="int" name="LMAXMIX">     2</i>
    <i type="logical" name="NLSPLINE"> F  </i>
   </separator>
   <separator name="electronic startup" >
    <i type="int" name="ISTART">     0</i>
    <i type="int" name="ICHARG">     2</i>
    <i type="int" name="INIWAV">     1</i>
   </separator>
   <separator name="electronic spin" >
    <i type="int" name="ISPIN">     1</i>
    <i type="logical" name="LNONCOLLINEAR"> F  </i>
    <v name="MAGMOM">      1.00000000      1.00000000      1.00000000      1.00000000      1.00000000      1.00000000      1.00000000      1.00000000      1.00000000      1.00000000      1.00000000      1.00000000      1.00000000      1.00000000      1.00000000      1.00000000      1.00000000      1.00000000      1.00000000      1.00000000
      1.00000000      1.00000000      1.00000000      1.00000000      1.00000000      1.00000000      1.00000000      1.00000000      1.00000000      1.00000000      1.00000000      1.00000000      1.00000000      1.00000000      1.00000000      1.00000000      1.00000000      1.00000000      1.00000000      1.00000000
      1.00000000      1.00000000      1.00000000      1.00000000      1.00000000      1.00000000      1.00000000      1.00000000      1.00000000      1.00000000      1.00000000      1.00000000      1.00000000      1.00000000      1.00000000      1.00000000      1.00000000</v>
    <i name="NUPDOWN">     -1.00000000</i>
    <i type="logical" name="LSORBIT"> F  </i>
    <v name="SAXIS">      0.00000000      0.00000000      1.00000000</v>
    <i type="logical" name="LSPIRAL"> F  </i>
    <v name="QSPIRAL">      0.00000000      0.00000000      0.00000000</v>
    <i type="logical" name="LZEROZ"> F  </i>
   </separator>
   <separator name="electronic exchange-correlation" >
    <i type="logical" name="LASPH"> F  </i>
    <i type="logical" name="LMETAGGA"> F  </i>
   </separator>
   <separator name="electronic convergence" >
    <i type="int" name="NELM">   100</i>
    <i type="int" name="NELMDL">    -5</i>
    <i type="int" name="NELMIN">     6</i>
    <i name="ENINI">    400.00000000</i>
    <separator name="electronic convergence detail" >
     <i type="logical" name="LDIAG"> T  </i>
     <i type="logical" name="LSUBROT"> F  </i>
     <i name="WEIMIN">      0.00000000</i>
     <i name="EBREAK">      0.00000007</i>
     <i name="DEPER">      0.30000000</i>
     <i type="int" name="NRMM">     4</i>
     <i name="TIME">      0.40000000</i>
    </separator>
   </separator>
   <separator name="electronic mixer" >
    <i name="AMIX">      0.40000000</i>
    <i name="BMIX">      1.00000000</i>
    <i name="AMIN">      0.10000000</i>
    <i name="AMIX_MAG">      1.60000000</i>
    <i name="BMIX_MAG">      1.00000000</i>
    <separator name="electronic mixer details" >
     <i type="int" name="IMIX">     4</i>
     <i type="logical" name="MIXFIRST"> F  </i>
     <i type="int" name="MAXMIX">   -45</i>
     <i name="WC">    100.00000000</i>
     <i type="int" name="INIMIX">     1</i>
     <i type="int" name="MIXPRE">     1</i>
     <i type="int" name="MREMOVE">     5</i>
    </separator>
   </separator>
   <separator name="electronic dipolcorrection" >
    <i type="logical" name="LDIPOL"> F  </i>
    <i type="logical" name="LMONO"> F  </i>
    <i type="int" name="IDIPOL">     0</i>
    <i name="EPSILON">      1.00000000</i>
    <v name="DIPOL">   -100.00000000   -100.00000000   -100.00000000</v>
    <i name="EFIELD">      0.00000000</i>
   </separator>
  </separator>
  <separator name="grids" >
   <i type="int" name="NGX">   150</i>
   <i type="int" name="NGY">   150</i>
   <i type="int" name="NGZ">   150</i>
   <i type="int" name="NGXF">   300</i>
   <i type="int" name="NGYF">   300</i>
   <i type="int" name="NGZF">   300</i>
   <i type="logical" name="ADDGRID"> F  </i>
  </separator>
  <separator name="ionic" >
   <i type="int" name="NSW">     0</i>
   <i type="int" name="IBRION">    -1</i>
   <i type="int" name="MDALGO">     0</i>
   <i type="int" name="ISIF">     2</i>
   <i name="PSTRESS">      0.00000000</i>
   <i name="EDIFFG">     -0.05000000</i>
   <i type="int" name="NFREE">     1</i>
   <i name="POTIM">      0.50000000</i>
   <i name="SMASS">     -3.00000000</i>
   <i name="SCALEE">      1.00000000</i>
  </separator>
  <separator name="ionic md" >
   <i name="TEBEG">      0.00010000</i>
   <i name="TEEND">      0.00010000</i>
   <i type="int" name="NBLOCK">     1</i>
   <i type="int" name="KBLOCK">     1</i>
   <i type="int" name="NPACO">   256</i>
   <i name="APACO">     16.00000000</i>
  </separator>
  <separator name="symmetry" >
   <i type="int" name="ISYM">     2</i>
   <i name="SYMPREC">      0.00001000</i>
  </separator>
  <separator name="dos" >
   <i type="int" name="LORBIT">     0</i>
   <v name="RWIGS">     -1.00000000     -1.00000000     -1.00000000</v>
   <i type="int" name="NEDOS">   301</i>
   <i name="EMIN">     10.00000000</i>
   <i name="EMAX">    -10.00000000</i>
   <i name="EFERMI">      0.00000000</i>
  </separator>
  <separator name="writing" >
   <i type="int" name="NWRITE">     2</i>
   <i type="logical" name="LWAVE"> F  </i>
   <i type="logical" name="LDOWNSAMPLE"> F  </i>
   <i type="logical" name="LCHARG"> F  </i>
   <i type="logical" name="LPARD"> F  </i>
   <i type="logical" name="LVTOT"> F  </i>
   <i type="logical" name="LVHAR"> F  </i>
   <i type="logical" name="LELF"> F  </i>
   <i type="logical" name="LOPTICS"> F  </i>
   <v name="STM">      0.00000000      0.00000000      0.00000000      0.00000000      0.00000000      0.00000000      0.00000000</v>
  </separator>
  <separator name="performance" >
   <i type="int" name="NPAR">     1</i>
   <i type="int" name="NSIM">     4</i>
   <i type="int" name="NBLK">    -1</i>
   <i type="logical" name="LPLANE"> T  </i>
   <i type="logical" name="LSCALAPACK"> T  </i>
   <i type="logical" name="LSCAAWARE"> F  </i>
   <i type="logical" name="LSCALU"> F  </i>
   <i type="logical" name="LASYNC"> F  </i>
   <i type="logical" name="LORBITALREAL"> F  </i>
  </separator>
  <separator name="miscellaneous" >
   <i type="int" name="IDIOT">     3</i>
   <i type="int" name="ISPECIAL">     0</i>
   <i type="logical" name="LMUSIC"> F  </i>
   <v name="POMASS">    106.42000000     12.01100000     16.00000000</v>
   <v name="DARWINR">      0.00000000      0.00000000      0.00000000</v>
   <v name="DARWINV">      1.00000000      1.00000000      1.00000000</v>
   <i type="logical" name="LCORR"> T  </i>
  </separator>
  <i type="logical" name="GGA_COMPAT"> T  </i>
  <i type="logical" name="LBERRY"> F  </i>
  <i type="int" name="ICORELEVEL">     0</i>
  <i type="logical" name="LDAU"> F  </i>
  <i type="int" name="I_CONSTRAINED_M">     0</i>
  <separator name="electronic exchange-correlation" >
   <i type="string" name="GGA">RP</i>
   <i type="int" name="VOSKOWN">     0</i>
   <i type="logical" name="LHFCALC"> F  </i>
   <i type="string" name="PRECFOCK"></i>
   <i type="logical" name="LSYMGRAD"> F  </i>
   <i type="logical" name="LHFONE"> F  </i>
   <i type="logical" name="LRHFCALC"> F  </i>
   <i type="logical" name="LTHOMAS"> F  </i>
   <i type="logical" name="LMODELHF"> F  </i>
   <i name="ENCUT4O">     -1.00000000</i>
   <i type="int" name="EXXOEP">     0</i>
   <i type="int" name="FOURORBIT">     0</i>
   <i name="AEXX">      0.00000000</i>
   <i name="HFALPHA">      0.00000000</i>
   <i name="MCALPHA">      0.00000000</i>
   <i name="ALDAX">      1.00000000</i>
   <i name="AGGAX">      1.00000000</i>
   <i name="ALDAC">      1.00000000</i>
   <i name="AGGAC">      1.00000000</i>
   <i type="int" name="NKREDX">     1</i>
   <i type="int" name="NKREDY">     1</i>
   <i type="int" name="NKREDZ">     1</i>
   <i type="logical" name="SHIFTRED"> F  </i>
   <i type="logical" name="ODDONLY"> F  </i>
   <i type="logical" name="EVENONLY"> F  </i>
   <i type="int" name="LMAXFOCK">     0</i>
   <i type="int" name="NMAXFOCKAE">     0</i>
   <i type="logical" name="LFOCKAEDFT"> F  </i>
   <i name="HFSCREEN">      0.00000000</i>
   <i name="HFSCREENC">      0.00000000</i>
   <i type="int" name="NBANDSGWLOW">     0</i>
  </separator>
  <separator name="vdW DFT" >
   <i type="logical" name="LUSE_VDW"> F  </i>
   <i name="Zab_VDW">     -0.84910000</i>
   <i name="PARAM1">      0.12340000</i>
   <i name="PARAM2">      1.00000000</i>
   <i name="PARAM3">      0.00000000</i>
  </separator>
  <separator name="model GW" >
   <i type="int" name="MODEL_GW">     0</i>
   <i name="MODEL_EPS0">    284.21052632</i>
   <i name="MODEL_ALPHA">      1.00000000</i>
  </separator>
  <separator name="linear response parameters" >
   <i type="logical" name="LEPSILON"> F  </i>
   <i type="logical" name="LRPA"> F  </i>
   <i type="logical" name="LNABLA"> F  </i>
   <i type="logical" name="LVEL"> F  </i>
   <i type="int" name="KINTER">     0</i>
   <i name="CSHIFT">      0.10000000</i>
   <i name="OMEGAMAX">     -1.00000000</i>
   <i name="DEG_THRESHOLD">      0.00200000</i>
   <i name="RTIME">     -0.10000000</i>
   <i name="WPLASMAI">      0.00000000</i>
   <v name="DFIELD">      0.00000000      0.00000000      0.00000000</v>
   <v name="WPLASMA">      0.00000000      0.00000000      0.00000000      0.00000000      0.00000000      0.00000000      0.00000000      0.00000000      0.00000000</v>
  </separator>
  <separator name="orbital magnetization" >
   <i type="logical" name="NUCIND"> F  </i>
   <v name="MAGPOS">      0.00000000      0.00000000      0.00000000</v>
   <i type="logical" name="LNICSALL"> T  </i>
   <i type="logical" name="ORBITALMAG"> F  </i>
   <i type="logical" name="LMAGBLOCH"> F  </i>
   <i type="logical" name="LCHIMAG"> F  </i>
   <i type="logical" name="LGAUGE"> T  </i>
   <i type="int" name="MAGATOM">     0</i>
   <v name="MAGDIPOL">      0.00000000      0.00000000      0.00000000</v>
   <v name="AVECCONST">      0.00000000      0.00000000      0.00000000</v>
  </separator>
  <separator name="response functions" >
   <i type="logical" name="LADDER"> F  </i>
   <i type="logical" name="LRPAFORCE"> F  </i>
   <i type="logical" name="LFXC"> F  </i>
   <i type="logical" name="LHARTREE"> T  </i>
   <i type="int" name="IBSE">     0</i>
   <v type="int" name="KPOINT">    -1     0     0     0</v>
   <i type="logical" name="LTCTE"> F  </i>
   <i type="logical" name="LTETE"> F  </i>
   <i type="logical" name="LTRIPLET"> F  </i>
   <i type="logical" name="LFXCEPS"> F  </i>
   <i type="logical" name="LFXHEG"> F  </i>
   <i type="int" name="NATURALO">     2</i>
   <i type="logical" name="L2ORDER"> F  </i>
   <i type="logical" name="LMP2LT"> F  </i>
   <i type="logical" name="LUSEW"> F  </i>
   <i name="ENCUTGW">     -2.00000000</i>
   <i name="ENCUTGWSOFT">     -2.00000000</i>
   <i name="ENCUTLF">     -1.00000000</i>
   <i type="int" name="LMAXMP2">    -1</i>
   <i name="SCISSOR">      0.00000000</i>
   <i type="int" name="NOMEGA">     0</i>
   <i type="int" name="NOMEGAR">     0</i>
   <i type="int" name="NBANDSGW">    -1</i>
   <i type="int" name="NBANDSO">    -1</i>
   <i type="int" name="NBANDSV">    -1</i>
   <i type="int" name="NELM">   100</i>
   <i type="int" name="NELMHF">     1</i>
   <i type="int" name="DIM">     3</i>
   <i type="int" name="ANTIRES">     0</i>
   <i name="OMEGAMAX">    -30.00000000</i>
   <i name="OMEGAMIN">    -30.00000000</i>
   <i name="OMEGATL">   -200.00000000</i>
   <i type="int" name="OMEGAGRID">   140</i>
   <i name="CSHIFT">     -0.10000000</i>
   <i type="logical" name="SELFENERGY"> F  </i>
   <i type="logical" name="LSPECTRAL"> F  </i>
   <i type="logical" name="LSPECTRALGW"> F  </i>
   <i type="logical" name="LSINGLES"> F  </i>
   <i type="logical" name="LFERMIGW"> F  </i>
   <i type="logical" name="ODDONLYGW"> F  </i>
   <i type="logical" name="EVENONLYGW"> F  </i>
   <i type="int" name="NKREDLFX">     1</i>
   <i type="int" name="NKREDLFY">     1</i>
   <i type="int" name="NKREDLFZ">     1</i>
   <i type="int" name="MAXMEM"> 10000</i>
   <i type="int" name="TELESCOPE">     0</i>
   <i type="int" name="TAUPAR">     1</i>
   <i type="int" name="OMEGAPAR">    -1</i>
   <i name="LAMBDA">      1.00000000</i>
  </separator>
  <separator name="External order field" >
   <i name="OFIELD_KAPPA">      0.00000000</i>
   <v name="OFIELD_K">      0.00000000      0.00000000      0.00000000</v>
   <i name="OFIELD_Q6_NEAR">      0.00000000</i>
   <i name="OFIELD_Q6_FAR">      0.00000000</i>
   <i name="OFIELD_A">      0.00000000</i>
  </separator>
 </parameters>
 <atominfo>
  <atoms>      57 </atoms>
  <types>       3 </types>
  <array name="atoms" >
   <dimension dim="1">ion</dimension>
   <field type="string">element</field>
   <field type="int">atomtype</field>
   <set>
    <rc><c>Pd</c><c>   1</c></rc>
    <rc><c>Pd</c><c>   1</c></rc>
    <rc><c>Pd</c><c>   1</c></rc>
    <rc><c>Pd</c><c>   1</c></rc>
    <rc><c>Pd</c><c>   1</c></rc>
    <rc><c>Pd</c><c>   1</c></rc>
    <rc><c>Pd</c><c>   1</c></rc>
    <rc><c>Pd</c><c>   1</c></rc>
    <rc><c>Pd</c><c>   1</c></rc>
    <rc><c>Pd</c><c>   1</c></rc>
    <rc><c>Pd</c><c>   1</c></rc>
    <rc><c>Pd</c><c>   1</c></rc>
    <rc><c>Pd</c><c>   1</c></rc>
    <rc><c>Pd</c><c>   1</c></rc>
    <rc><c>Pd</c><c>   1</c></rc>
    <rc><c>Pd</c><c>   1</c></rc>
    <rc><c>Pd</c><c>   1</c></rc>
    <rc><c>Pd</c><c>   1</c></rc>
    <rc><c>Pd</c><c>   1</c></rc>
    <rc><c>Pd</c><c>   1</c></rc>
    <rc><c>Pd</c><c>   1</c></rc>
    <rc><c>Pd</c><c>   1</c></rc>
    <rc><c>Pd</c><c>   1</c></rc>
    <rc><c>Pd</c><c>   1</c></rc>
    <rc><c>Pd</c><c>   1</c></rc>
    <rc><c>Pd</c><c>   1</c></rc>
    <rc><c>Pd</c><c>   1</c></rc>
    <rc><c>Pd</c><c>   1</c></rc>
    <rc><c>Pd</c><c>   1</c></rc>
    <rc><c>Pd</c><c>   1</c></rc>
    <rc><c>Pd</c><c>   1</c></rc>
    <rc><c>Pd</c><c>   1</c></rc>
    <rc><c>Pd</c><c>   1</c></rc>
    <rc><c>Pd</c><c>   1</c></rc>
    <rc><c>Pd</c><c>   1</c></rc>
    <rc><c>Pd</c><c>   1</c></rc>
    <rc><c>Pd</c><c>   1</c></rc>
    <rc><c>Pd</c><c>   1</c></rc>
    <rc><c>Pd</c><c>   1</c></rc>
    <rc><c>Pd</c><c>   1</c></rc>
    <rc><c>Pd</c><c>   1</c></rc>
    <rc><c>Pd</c><c>   1</c></rc>
    <rc><c>Pd</c><c>   1</c></rc>
    <rc><c>Pd</c><c>   1</c></rc>
    <rc><c>Pd</c><c>   1</c></rc>
    <rc><c>Pd</c><c>   1</c></rc>
    <rc><c>Pd</c><c>   1</c></rc>
    <rc><c>Pd</c><c>   1</c></rc>
    <rc><c>Pd</c><c>   1</c></rc>
    <rc><c>Pd</c><c>   1</c></rc>
    <rc><c>Pd</c><c>   1</c></rc>
    <rc><c>Pd</c><c>   1</c></rc>
    <rc><c>Pd</c><c>   1</c></rc>
    <rc><c>Pd</c><c>   1</c></rc>
    <rc><c>Pd</c><c>   1</c></rc>
    <rc><c>C </c><c>   2</c></rc>
    <rc><c>O </c><c>   3</c></rc>
   </set>
  </array>
  <array name="atomtypes" >
   <dimension dim="1">type</dimension>
   <field type="int">atomspertype</field>
   <field type="string">element</field>
   <field>mass</field>
   <field>valence</field>
   <field type="string">pseudopotential</field>
   <set>
    <rc><c>  55</c><c>Pd</c><c>    106.42000000</c><c>     10.00000000</c><c>  PAW_PBE Pd 04Jan2005                  </c></rc>
    <rc><c>   1</c><c>C </c><c>     12.01100000</c><c>      4.00000000</c><c>  PAW_PBE C 08Apr2002                   </c></rc>
    <rc><c>   1</c><c>O </c><c>     16.00000000</c><c>      6.00000000</c><c>  PAW_PBE O 08Apr2002                   </c></rc>
   </set>
  </array>
 </atominfo>
 <structure name="initialpos" >
  <crystal>
   <varray name="basis" >
    <v>      30.00000000       0.00000000       0.00000000 </v>
    <v>       0.00000000      30.00000000       0.00000000 </v>
    <v>       0.00000000       0.00000000      30.00000000 </v>
   </varray>
   <i name="volume">  27000.00000000 </i>
   <varray name="rec_basis" >
    <v>       0.03333333       0.00000000       0.00000000 </v>
    <v>       0.00000000       0.03333333       0.00000000 </v>
    <v>       0.00000000       0.00000000       0.03333333 </v>
   </varray>
  </crystal>
  <varray name="positions" >
   <v>       0.44576020       0.32826710       0.41691983 </v>
   <v>       0.67173288       0.55423978       0.41691983 </v>
   <v>       0.55423980       0.32826710       0.41691983 </v>
   <v>       0.32826712       0.55423978       0.41691983 </v>
   <v>       0.50000000       0.38250690       0.34021317 </v>
   <v>       0.50000000       0.38250690       0.65978680 </v>
   <v>       0.50000000       0.27609440       0.50000000 </v>
   <v>       0.27609443       0.49999998       0.50000000 </v>
   <v>       0.72390557       0.49999998       0.50000000 </v>
   <v>       0.50000000       0.72390555       0.50000000 </v>
   <v>       0.61195280       0.38804720       0.34167483 </v>
   <v>       0.61195280       0.38804720       0.65832513 </v>
   <v>       0.38804722       0.61195278       0.34167483 </v>
   <v>       0.38804722       0.61195278       0.65832513 </v>
   <v>       0.38804720       0.38804720       0.34167483 </v>
   <v>       0.38804720       0.38804720       0.65832513 </v>
   <v>       0.61195278       0.61195278       0.34167483 </v>
   <v>       0.61195278       0.61195278       0.65832513 </v>
   <v>       0.44576020       0.32826710       0.58308023 </v>
   <v>       0.67173288       0.55423978       0.58308023 </v>
   <v>       0.55791699       0.44208301       0.41809300 </v>
   <v>       0.32826705       0.44576024       0.41691983 </v>
   <v>       0.55423973       0.67173293       0.41691983 </v>
   <v>       0.55423980       0.32826710       0.58308023 </v>
   <v>       0.32826712       0.55423978       0.58308023 </v>
   <v>       0.67173295       0.44576024       0.41691983 </v>
   <v>       0.44576027       0.67173293       0.41691983 </v>
   <v>       0.44208301       0.44208301       0.41809300 </v>
   <v>       0.50000000       0.38416601       0.50000000 </v>
   <v>       0.61749315       0.50000005       0.34021317 </v>
   <v>       0.61749315       0.50000005       0.65978680 </v>
   <v>       0.38250685       0.50000005       0.34021317 </v>
   <v>       0.38250685       0.50000005       0.65978680 </v>
   <v>       0.38317830       0.38317830       0.50000000 </v>
   <v>       0.61682172       0.61682172       0.50000000 </v>
   <v>       0.61682170       0.38317830       0.50000000 </v>
   <v>       0.38317828       0.61682172       0.50000000 </v>
   <v>       0.50000000       0.50000000       0.33478917 </v>
   <v>       0.50000000       0.50000000       0.66521087 </v>
   <v>       0.32826705       0.44576024       0.58308023 </v>
   <v>       0.55423973       0.67173293       0.58308023 </v>
   <v>       0.55791699       0.44208301       0.58190703 </v>
   <v>       0.44208298       0.55791702       0.41809300 </v>
   <v>       0.44208301       0.44208301       0.58190703 </v>
   <v>       0.67173295       0.44576024       0.58308023 </v>
   <v>       0.44576027       0.67173293       0.58308023 </v>
   <v>       0.55791702       0.55791702       0.41809300 </v>
   <v>       0.38416599       0.50000002       0.50000000 </v>
   <v>       0.61583401       0.50000002       0.50000000 </v>
   <v>       0.50000000       0.61749319       0.34021317 </v>
   <v>       0.50000000       0.61749319       0.65978680 </v>
   <v>       0.50000000       0.50000000       0.50000000 </v>
   <v>       0.44208298       0.55791702       0.58190703 </v>
   <v>       0.55791702       0.55791702       0.58190703 </v>
   <v>       0.50000000       0.61583404       0.50000000 </v>
   <v>       0.50410113       0.62767610       0.72225230 </v>
   <v>       0.50470267       0.64640310       0.75485133 </v>
  </varray>
  <varray name="selective"  type="logical" >
   <v type="logical" >  F  F  F </v>
   <v type="logical" >  F  F  F </v>
   <v type="logical" >  F  F  F </v>
   <v type="logical" >  F  F  F </v>
   <v type="logical" >  F  F  F </v>
   <v type="logical" >  F  F  F </v>
   <v type="logical" >  F  F  F </v>
   <v type="logical" >  F  F  F </v>
   <v type="logical" >  F  F  F </v>
   <v type="logical" >  F  F  F </v>
   <v type="logical" >  F  F  F </v>
   <v type="logical" >  F  F  F </v>
   <v type="logical" >  F  F  F </v>
   <v type="logical" >  F  F  F </v>
   <v type="logical" >  F  F  F </v>
   <v type="logical" >  F  F  F </v>
   <v type="logical" >  F  F  F </v>
   <v type="logical" >  F  F  F </v>
   <v type="logical" >  F  F  F </v>
   <v type="logical" >  F  F  F </v>
   <v type="logical" >  F  F  F </v>
   <v type="logical" >  F  F  F </v>
   <v type="logical" >  F  F  F </v>
   <v type="logical" >  F  F  F </v>
   <v type="logical" >  F  F  F </v>
   <v type="logical" >  F  F  F </v>
   <v type="logical" >  F  F  F </v>
   <v type="logical" >  F  F  F </v>
   <v type="logical" >  F  F  F </v>
   <v type="logical" >  F  F  F </v>
   <v type="logical" >  F  F  F </v>
   <v type="logical" >  F  F  F </v>
   <v type="logical" >  F  F  F </v>
   <v type="logical" >  F  F  F </v>
   <v type="logical" >  F  F  F </v>
   <v type="logical" >  F  F  F </v>
   <v type="logical" >  F  F  F </v>
   <v type="logical" >  F  F  F </v>
   <v type="logical" >  F  F  F </v>
   <v type="logical" >  F  F  F </v>
   <v type="logical" >  F  F  F </v>
   <v type="logical" >  F  F  F </v>
   <v type="logical" >  F  F  F </v>
   <v type="logical" >  F  F  F </v>
   <v type="logical" >  F  F  F </v>
   <v type="logical" >  F  F  F </v>
   <v type="logical" >  F  F  F </v>
   <v type="logical" >  F  F  F </v>
   <v type="logical" >  F  F  F </v>
   <v type="logical" >  F  F  F </v>
   <v type="logical" >  F  F  F </v>
   <v type="logical" >  F  F  F </v>
   <v type="logical" >  F  F  F </v>
   <v type="logical" >  F  F  F </v>
   <v type="logical" >  F  F  F </v>
   <v type="logical" >  F  F  F </v>
   <v type="logical" >  F  F  F </v>
  </varray>
  <nose>
   <v>      -3.00000000       0.00000000       0.00010000       0.00010000 </v>
  </nose>
 </structure>
 <calculation>
  <scstep>
   <time name="dav">  360.94  361.02</time>
   <time name="total">  375.49  375.56</time>
   <energy>
    <i name="alphaZ">     75.25431677 </i>
    <i name="ewald"> 137992.21571038 </i>
    <i name="hartreedc">-181352.21258882 </i>
    <i name="XCdc">  -1703.07727420 </i>
    <i name="pawpsdc">  44873.02882129 </i>
    <i name="pawaedc"> -41398.84523641 </i>
    <i name="eentropy">     -0.01440646 </i>
    <i name="bandstr">    818.28451550 </i>
    <i name="atom">  45086.50549395 </i>
    <i name="e_fr_energy">   4391.13935200 </i>
    <i name="e_wo_entrp">   4391.15375846 </i>
    <i name="e_0_energy">   4391.14295361 </i>
   </energy>
  </scstep>
  <scstep>
   <time name="dav">  578.07  578.09</time>
   <time name="total">  578.08  578.09</time>
   <energy>
    <i name="e_fr_energy">   2008.84787161 </i>
    <i name="e_wo_entrp">   2008.88103557 </i>
    <i name="e_0_energy">   2008.85616260 </i>
   </energy>
  </scstep>
  <scstep>
   <time name="dav">  486.37  486.38</time>
   <time name="total">  486.37  486.38</time>
   <energy>
    <i name="e_fr_energy">    232.70523096 </i>
    <i name="e_wo_entrp">    232.73569342 </i>
    <i name="e_0_energy">    232.71284658 </i>
   </energy>
  </scstep>
  <scstep>
   <time name="dav">  424.93  424.93</time>
   <time name="total">  424.93  424.94</time>
   <energy>
    <i name="e_fr_energy">   -135.61177093 </i>
    <i name="e_wo_entrp">   -135.58623799 </i>
    <i name="e_0_energy">   -135.60538769 </i>
   </energy>
  </scstep>
  <scstep>
   <time name="dav">  508.58  508.58</time>
   <time name="total">  534.76  534.76</time>
   <energy>
    <i name="e_fr_energy">   -179.92457929 </i>
    <i name="e_wo_entrp">   -180.39893880 </i>
    <i name="e_0_energy">   -180.04316917 </i>
   </energy>
  </scstep>
  <scstep>
   <time name="diag">   69.08   69.08</time>
   <time name="diis">  190.00  190.00</time>
   <time name="orth">   13.63   13.63</time>
   <time name="total">  312.68  312.69</time>
   <energy>
    <i name="e_fr_energy">   -180.43551205 </i>
    <i name="e_wo_entrp">   -180.20669700 </i>
    <i name="e_0_energy">   -180.37830829 </i>
   </energy>
  </scstep>
  <scstep>
   <time name="diag">   68.10   68.11</time>
   <time name="diis">  226.96  226.99</time>
   <time name="orth">   13.64   13.64</time>
   <time name="total">  348.51  348.56</time>
   <energy>
    <i name="e_fr_energy">   -184.06759259 </i>
    <i name="e_wo_entrp">   -183.93034765 </i>
    <i name="e_0_energy">   -184.03328135 </i>
   </energy>
  </scstep>
  <scstep>
   <time name="diag">   68.25   68.26</time>
   <time name="diis">  206.57  206.59</time>
   <time name="orth">   13.81   13.82</time>
   <time name="total">  328.63  328.66</time>
   <energy>
    <i name="e_fr_energy">   -184.52833091 </i>
    <i name="e_wo_entrp">   -184.42554955 </i>
    <i name="e_0_energy">   -184.50263557 </i>
   </energy>
  </scstep>
  <scstep>
   <time name="diag">   68.81   68.81</time>
   <time name="diis">  195.91  195.92</time>
   <time name="orth">   13.74   13.74</time>
   <time name="total">  318.09  318.11</time>
   <energy>
    <i name="e_fr_energy">   -182.56674493 </i>
    <i name="e_wo_entrp">   -182.54476611 </i>
    <i name="e_0_energy">   -182.56125023 </i>
   </energy>
  </scstep>
  <scstep>
   <time name="diag">   68.77   68.77</time>
   <time name="diis">  198.14  198.15</time>
   <time name="orth">   13.76   13.76</time>
   <time name="total">  320.30  320.31</time>
   <energy>
    <i name="e_fr_energy">   -180.06199321 </i>
    <i name="e_wo_entrp">   -180.09773832 </i>
    <i name="e_0_energy">   -180.07092949 </i>
   </energy>
  </scstep>
  <scstep>
   <time name="diag">   67.96   67.96</time>
   <time name="diis">  194.62  194.62</time>
   <time name="orth">   13.58   13.58</time>
   <time name="total">  315.82  315.82</time>
   <energy>
    <i name="e_fr_energy">   -178.64116567 </i>
    <i name="e_wo_entrp">   -178.46679086 </i>
    <i name="e_0_energy">   -178.59757196 </i>
   </energy>
  </scstep>
  <scstep>
   <time name="diag">   67.99   67.99</time>
   <time name="diis">  191.76  191.76</time>
   <time name="orth">   13.53   13.53</time>
   <time name="total">  313.16  313.17</time>
   <energy>
    <i name="e_fr_energy">   -178.50947521 </i>
    <i name="e_wo_entrp">   -178.49183197 </i>
    <i name="e_0_energy">   -178.50506440 </i>
   </energy>
  </scstep>
  <scstep>
   <time name="diag">   67.76   67.77</time>
   <time name="diis">  194.22  194.23</time>
   <time name="orth">   13.35   13.35</time>
   <time name="total">  315.10  315.11</time>
   <energy>
    <i name="e_fr_energy">   -177.73295707 </i>
    <i name="e_wo_entrp">   -177.68547297 </i>
    <i name="e_0_energy">   -177.72108604 </i>
   </energy>
  </scstep>
  <scstep>
   <time name="diag">   67.39   67.39</time>
   <time name="diis">  192.08  192.09</time>
   <time name="orth">   13.60   13.60</time>
   <time name="total">  313.15  313.17</time>
   <energy>
    <i name="e_fr_energy">   -178.03014068 </i>
    <i name="e_wo_entrp">   -178.03036128 </i>
    <i name="e_0_energy">   -178.03019583 </i>
   </energy>
  </scstep>
  <scstep>
   <time name="diag">   67.39   67.39</time>
   <time name="diis">  195.57  195.58</time>
   <time name="orth">   13.78   13.78</time>
   <time name="total">  316.36  316.37</time>
   <energy>
    <i name="e_fr_energy">   -177.21789850 </i>
    <i name="e_wo_entrp">   -177.15898716 </i>
    <i name="e_0_energy">   -177.20317067 </i>
   </energy>
  </scstep>
  <scstep>
   <time name="diag">   67.47   67.47</time>
   <time name="diis">  194.08  194.08</time>
   <time name="orth">   13.84   13.84</time>
   <time name="total">  315.30  315.30</time>
   <energy>
    <i name="e_fr_energy">   -177.31010184 </i>
    <i name="e_wo_entrp">   -177.33363027 </i>
    <i name="e_0_energy">   -177.31598395 </i>
   </energy>
  </scstep>
  <scstep>
   <time name="diag">   67.34   67.34</time>
   <time name="diis">  194.89  194.89</time>
   <time name="orth">   13.94   13.94</time>
   <time name="total">  316.00  316.01</time>
   <energy>
    <i name="e_fr_energy">   -176.26540341 </i>
    <i name="e_wo_entrp">   -176.24703626 </i>
    <i name="e_0_energy">   -176.26081162 </i>
   </energy>
  </scstep>
  <scstep>
   <time name="diag">   67.48   67.48</time>
   <time name="diis">  192.27  192.27</time>
   <time name="orth">   13.89   13.89</time>
   <time name="total">  313.76  313.76</time>
   <energy>
    <i name="e_fr_energy">   -175.95787384 </i>
    <i name="e_wo_entrp">   -175.93718236 </i>
    <i name="e_0_energy">   -175.95270097 </i>
   </energy>
  </scstep>
  <scstep>
   <time name="diag">   67.45   67.45</time>
   <time name="diis">  193.97  193.98</time>
   <time name="orth">   13.69   13.69</time>
   <time name="total">  315.14  315.15</time>
   <energy>
    <i name="e_fr_energy">   -176.01260880 </i>
    <i name="e_wo_entrp">   -176.04452840 </i>
    <i name="e_0_energy">   -176.02058870 </i>
   </energy>
  </scstep>
  <scstep>
   <time name="diag">   67.39   67.39</time>
   <time name="diis">  192.64  192.64</time>
   <time name="orth">   13.88   13.88</time>
   <time name="total">  313.84  313.84</time>
   <energy>
    <i name="e_fr_energy">   -175.80827835 </i>
    <i name="e_wo_entrp">   -175.78101507 </i>
    <i name="e_0_energy">   -175.80146253 </i>
   </energy>
  </scstep>
  <scstep>
   <time name="diag">   67.38   67.38</time>
   <time name="diis">  191.07  191.07</time>
   <time name="orth">   14.04   14.04</time>
   <time name="total">  312.66  312.67</time>
   <energy>
    <i name="e_fr_energy">   -175.51138850 </i>
    <i name="e_wo_entrp">   -175.44413880 </i>
    <i name="e_0_energy">   -175.49457608 </i>
   </energy>
  </scstep>
  <scstep>
   <time name="diag">   67.34   67.34</time>
   <time name="diis">  188.43  188.45</time>
   <time name="orth">   14.12   14.12</time>
   <time name="total">  310.37  310.39</time>
   <energy>
    <i name="e_fr_energy">   -175.39420082 </i>
    <i name="e_wo_entrp">   -175.31742430 </i>
    <i name="e_0_energy">   -175.37500669 </i>
   </energy>
  </scstep>
  <scstep>
   <time name="diag">   67.39   67.40</time>
   <time name="diis">  188.59  188.61</time>
   <time name="orth">   14.55   14.55</time>
   <time name="total">  310.97  311.00</time>
   <energy>
    <i name="e_fr_energy">   -175.38316382 </i>
    <i name="e_wo_entrp">   -175.28998083 </i>
    <i name="e_0_energy">   -175.35986807 </i>
   </energy>
  </scstep>
  <scstep>
   <time name="diag">   67.56   67.56</time>
   <time name="diis">  189.82  189.83</time>
   <time name="orth">   14.18   14.18</time>
   <time name="total">  312.20  312.21</time>
   <energy>
    <i name="e_fr_energy">   -175.29525439 </i>
    <i name="e_wo_entrp">   -175.20493667 </i>
    <i name="e_0_energy">   -175.27267496 </i>
   </energy>
  </scstep>
  <scstep>
   <time name="diag">   67.69   67.69</time>
   <time name="diis">  189.38  189.38</time>
   <time name="orth">   14.24   14.24</time>
   <time name="total">  311.82  311.83</time>
   <energy>
    <i name="e_fr_energy">   -175.25971584 </i>
    <i name="e_wo_entrp">   -175.18440832 </i>
    <i name="e_0_energy">   -175.24088896 </i>
   </energy>
  </scstep>
  <scstep>
   <time name="diag">   67.84   67.84</time>
   <time name="diis">  188.97  188.99</time>
   <time name="orth">   14.22   14.22</time>
   <time name="total">  311.58  311.60</time>
   <energy>
    <i name="e_fr_energy">   -175.24477549 </i>
    <i name="e_wo_entrp">   -175.15332573 </i>
    <i name="e_0_energy">   -175.22191305 </i>
   </energy>
  </scstep>
  <scstep>
   <time name="diag">   67.62   67.62</time>
   <time name="diis">  186.57  186.57</time>
   <time name="orth">   14.01   14.01</time>
   <time name="total">  309.17  309.17</time>
   <energy>
    <i name="e_fr_energy">   -175.17591495 </i>
    <i name="e_wo_entrp">   -175.10921865 </i>
    <i name="e_0_energy">   -175.15924088 </i>
   </energy>
  </scstep>
  <scstep>
   <time name="diag">   68.10   68.11</time>
   <time name="diis">  186.43  186.45</time>
   <time name="orth">   13.92   13.92</time>
   <time name="total">  308.85  308.87</time>
   <energy>
    <i name="e_fr_energy">   -175.15987426 </i>
    <i name="e_wo_entrp">   -175.08234296 </i>
    <i name="e_0_energy">   -175.14049143 </i>
   </energy>
  </scstep>
  <scstep>
   <time name="diag">   68.49   68.49</time>
   <time name="diis">  185.83  185.84</time>
   <time name="orth">   14.20   14.21</time>
   <time name="total">  309.65  309.68</time>
   <energy>
    <i name="e_fr_energy">   -175.15223952 </i>
    <i name="e_wo_entrp">   -175.05268508 </i>
    <i name="e_0_energy">   -175.12735091 </i>
   </energy>
  </scstep>
  <scstep>
   <time name="diag">   68.58   68.58</time>
   <time name="diis">  185.72  185.74</time>
   <time name="orth">   14.19   14.19</time>
   <time name="total">  309.71  309.74</time>
   <energy>
    <i name="e_fr_energy">   -175.12573419 </i>
    <i name="e_wo_entrp">   -175.02527777 </i>
    <i name="e_0_energy">   -175.10062009 </i>
   </energy>
  </scstep>
  <scstep>
   <time name="diag">   68.30   68.31</time>
   <time name="diis">  186.77  186.79</time>
   <time name="orth">   13.94   13.94</time>
   <time name="total">  310.20  310.23</time>
   <energy>
    <i name="e_fr_energy">   -175.12003762 </i>
    <i name="e_wo_entrp">   -175.02677589 </i>
    <i name="e_0_energy">   -175.09672219 </i>
   </energy>
  </scstep>
  <scstep>
   <time name="diag">   67.94   67.95</time>
   <time name="diis">  188.26  188.27</time>
   <time name="orth">   13.90   13.91</time>
   <time name="total">  311.17  311.19</time>
   <energy>
    <i name="e_fr_energy">   -175.11755621 </i>
    <i name="e_wo_entrp">   -175.02986978 </i>
    <i name="e_0_energy">   -175.09563460 </i>
   </energy>
  </scstep>
  <scstep>
   <time name="diag">   68.02   68.03</time>
   <time name="diis">  185.47  185.48</time>
   <time name="orth">   13.95   13.95</time>
   <time name="total">  308.91  308.93</time>
   <energy>
    <i name="e_fr_energy">   -175.11487269 </i>
    <i name="e_wo_entrp">   -175.02770728 </i>
    <i name="e_0_energy">   -175.09308133 </i>
   </energy>
  </scstep>
  <scstep>
   <time name="diag">   68.31   68.31</time>
   <time name="diis">  186.42  186.44</time>
   <time name="orth">   13.87   13.87</time>
   <time name="total">  310.27  310.29</time>
   <energy>
    <i name="e_fr_energy">   -175.11346413 </i>
    <i name="e_wo_entrp">   -175.02148554 </i>
    <i name="e_0_energy">   -175.09046948 </i>
   </energy>
  </scstep>
  <scstep>
   <time name="diag">   68.36   68.36</time>
   <time name="diis">  184.82  184.83</time>
   <time name="orth">   13.71   13.71</time>
   <time name="total">  308.84  308.85</time>
   <energy>
    <i name="e_fr_energy">   -175.11548793 </i>
    <i name="e_wo_entrp">   -175.02535679 </i>
    <i name="e_0_energy">   -175.09295514 </i>
   </energy>
  </scstep>
  <scstep>
   <time name="diag">   68.22   68.23</time>
   <time name="diis">  185.38  185.39</time>
   <time name="orth">   13.97   13.97</time>
   <time name="total">  308.95  308.96</time>
   <energy>
    <i name="e_fr_energy">   -175.11649510 </i>
    <i name="e_wo_entrp">   -175.02643384 </i>
    <i name="e_0_energy">   -175.09397978 </i>
   </energy>
  </scstep>
  <scstep>
   <time name="diag">   68.64   68.64</time>
   <time name="diis">  183.45  183.47</time>
   <time name="orth">   14.02   14.02</time>
   <time name="total">  308.38  308.40</time>
   <energy>
    <i name="e_fr_energy">   -175.11567536 </i>
    <i name="e_wo_entrp">   -175.02409855 </i>
    <i name="e_0_energy">   -175.09278116 </i>
   </energy>
  </scstep>
  <scstep>
   <time name="diag">   68.66   68.66</time>
   <time name="diis">  181.60  181.61</time>
   <time name="orth">   14.21   14.22</time>
   <time name="total">  307.11  307.14</time>
   <energy>
    <i name="e_fr_energy">   -175.11664687 </i>
    <i name="e_wo_entrp">   -175.02622058 </i>
    <i name="e_0_energy">   -175.09404030 </i>
   </energy>
  </scstep>
  <scstep>
   <time name="diag">   67.96   67.96</time>
   <time name="diis">  180.89  180.89</time>
   <time name="orth">   13.78   13.78</time>
   <time name="total">  305.27  305.27</time>
   <energy>
    <i name="e_fr_energy">   -175.11922307 </i>
    <i name="e_wo_entrp">   -175.02801664 </i>
    <i name="e_0_energy">   -175.09642146 </i>
   </energy>
  </scstep>
  <scstep>
   <time name="diag">   68.34   68.35</time>
   <time name="diis">  159.76  159.77</time>
   <time name="orth">   13.59   13.59</time>
   <time name="total">  284.96  284.97</time>
   <energy>
    <i name="e_fr_energy">   -175.12084484 </i>
    <i name="e_wo_entrp">   -175.02861910 </i>
    <i name="e_0_energy">   -175.09778840 </i>
   </energy>
  </scstep>
  <scstep>
   <time name="diag">   68.14   68.14</time>
   <time name="diis">  146.89  146.89</time>
   <time name="orth">   14.13   14.13</time>
   <time name="total">  271.37  271.38</time>
   <energy>
    <i name="e_fr_energy">   -175.12273076 </i>
    <i name="e_wo_entrp">   -175.03196262 </i>
    <i name="e_0_energy">   -175.10003872 </i>
   </energy>
  </scstep>
  <scstep>
   <time name="diag">   68.77   68.77</time>
   <time name="diis">  141.64  141.64</time>
   <time name="orth">   13.67   13.67</time>
   <time name="total">  266.76  266.77</time>
   <energy>
    <i name="e_fr_energy">   -175.12515633 </i>
    <i name="e_wo_entrp">   -175.03487764 </i>
    <i name="e_0_energy">   -175.10258666 </i>
   </energy>
  </scstep>
  <scstep>
   <time name="diag">   69.61   69.61</time>
   <time name="diis">  134.78  134.79</time>
   <time name="orth">   13.41   13.41</time>
   <time name="total">  260.14  260.15</time>
   <energy>
    <i name="e_fr_energy">   -175.12780631 </i>
    <i name="e_wo_entrp">   -175.03830214 </i>
    <i name="e_0_energy">   -175.10543027 </i>
   </energy>
  </scstep>
  <scstep>
   <time name="diag">   69.77   69.78</time>
   <time name="diis">  118.23  118.23</time>
   <time name="orth">   13.35   13.35</time>
   <time name="total">  243.24  243.24</time>
   <energy>
    <i name="e_fr_energy">   -175.12935328 </i>
    <i name="e_wo_entrp">   -175.03911315 </i>
    <i name="e_0_energy">   -175.10679325 </i>
   </energy>
  </scstep>
  <scstep>
   <time name="diag">   68.73   68.73</time>
   <time name="diis">  145.28  145.28</time>
   <time name="orth">   13.32   13.32</time>
   <time name="total">  269.59  269.59</time>
   <energy>
    <i name="e_fr_energy">   -175.13230859 </i>
    <i name="e_wo_entrp">   -175.04176587 </i>
    <i name="e_0_energy">   -175.10967291 </i>
   </energy>
  </scstep>
  <scstep>
   <time name="diag">   68.35   68.35</time>
   <time name="diis">  119.57  119.57</time>
   <time name="orth">   13.38   13.38</time>
   <time name="total">  244.17  244.17</time>
   <energy>
    <i name="e_fr_energy">   -175.13352689 </i>
    <i name="e_wo_entrp">   -175.04322361 </i>
    <i name="e_0_energy">   -175.11095107 </i>
   </energy>
  </scstep>
  <scstep>
   <time name="diag">   68.67   68.67</time>
   <time name="diis">  115.64  115.64</time>
   <time name="orth">   13.52   13.52</time>
   <time name="total">  241.17  241.17</time>
   <energy>
    <i name="e_fr_energy">   -175.13518786 </i>
    <i name="e_wo_entrp">   -175.04457724 </i>
    <i name="e_0_energy">   -175.11253521 </i>
   </energy>
  </scstep>
  <scstep>
   <time name="diag">   69.27   69.27</time>
   <time name="diis">  115.72  115.72</time>
   <time name="orth">   13.49   13.49</time>
   <time name="total">  241.92  241.92</time>
   <energy>
    <i name="e_fr_energy">   -175.13662799 </i>
    <i name="e_wo_entrp">   -175.04636069 </i>
    <i name="e_0_energy">   -175.11406117 </i>
   </energy>
  </scstep>
  <scstep>
   <time name="diag">   69.15   69.15</time>
   <time name="diis">  116.72  116.72</time>
   <time name="orth">   13.28   13.28</time>
   <time name="total">  242.32  242.32</time>
   <energy>
    <i name="e_fr_energy">   -175.13745591 </i>
    <i name="e_wo_entrp">   -175.04729775 </i>
    <i name="e_0_energy">   -175.11491637 </i>
   </energy>
  </scstep>
  <scstep>
   <time name="diag">   68.67   68.67</time>
   <time name="diis">  115.90  115.90</time>
   <time name="orth">   13.24   13.24</time>
   <time name="total">  240.73  240.74</time>
   <energy>
    <i name="e_fr_energy">   -175.13887649 </i>
    <i name="e_wo_entrp">   -175.04829663 </i>
    <i name="e_0_energy">   -175.11623153 </i>
   </energy>
  </scstep>
  <scstep>
   <time name="diag">   67.78   67.78</time>
   <time name="diis">  115.85  115.86</time>
   <time name="orth">   13.52   13.52</time>
   <time name="total">  239.59  239.60</time>
   <energy>
    <i name="e_fr_energy">   -175.13918066 </i>
    <i name="e_wo_entrp">   -175.04867903 </i>
    <i name="e_0_energy">   -175.11655526 </i>
   </energy>
  </scstep>
  <scstep>
   <time name="diag">   67.79   67.80</time>
   <time name="diis">  113.84  113.84</time>
   <time name="orth">   13.37   13.37</time>
   <time name="total">  238.01  238.01</time>
   <energy>
    <i name="e_fr_energy">   -175.13986845 </i>
    <i name="e_wo_entrp">   -175.04934920 </i>
    <i name="e_0_energy">   -175.11723864 </i>
   </energy>
  </scstep>
  <scstep>
   <time name="diag">   68.34   68.34</time>
   <time name="diis">  108.55  108.55</time>
   <time name="orth">   13.10   13.10</time>
   <time name="total">  232.91  232.91</time>
   <energy>
    <i name="e_fr_energy">   -175.14024200 </i>
    <i name="e_wo_entrp">   -175.04983442 </i>
    <i name="e_0_energy">   -175.11764011 </i>
   </energy>
  </scstep>
  <scstep>
   <time name="diag">   67.78   67.78</time>
   <time name="diis">   97.05   97.05</time>
   <time name="orth">   13.49   13.49</time>
   <time name="total">  220.82  220.83</time>
   <energy>
    <i name="e_fr_energy">   -175.14053546 </i>
    <i name="e_wo_entrp">   -175.05010405 </i>
    <i name="e_0_energy">   -175.11792761 </i>
   </energy>
  </scstep>
  <scstep>
   <time name="diag">   67.93   67.93</time>
   <time name="diis">   79.81   79.82</time>
   <time name="orth">   13.40   13.40</time>
   <time name="total">  204.08  204.10</time>
   <energy>
    <i name="e_fr_energy">   -175.14070122 </i>
    <i name="e_wo_entrp">   -175.05016596 </i>
    <i name="e_0_energy">   -175.11806741 </i>
   </energy>
  </scstep>
  <scstep>
   <time name="diag">   68.26   68.27</time>
   <time name="diis">   90.56   90.58</time>
   <time name="orth">   13.41   13.41</time>
   <time name="total">  214.84  214.87</time>
   <energy>
    <i name="e_fr_energy">   -175.14105161 </i>
    <i name="e_wo_entrp">   -175.05082032 </i>
    <i name="e_0_energy">   -175.11849379 </i>
   </energy>
  </scstep>
  <scstep>
   <time name="diag">   67.73   67.73</time>
   <time name="diis">   87.71   87.71</time>
   <time name="orth">   13.54   13.54</time>
   <time name="total">  213.06  213.08</time>
   <energy>
    <i name="e_fr_energy">   -175.14128598 </i>
    <i name="e_wo_entrp">   -175.05094618 </i>
    <i name="e_0_energy">   -175.11870103 </i>
   </energy>
  </scstep>
  <scstep>
   <time name="diag">   67.20   67.21</time>
   <time name="diis">   94.17   94.18</time>
   <time name="orth">   13.83   13.84</time>
   <time name="total">  219.07  219.09</time>
   <energy>
    <i name="e_fr_energy">   -175.14164046 </i>
    <i name="e_wo_entrp">   -175.05125253 </i>
    <i name="e_0_energy">   -175.11904348 </i>
   </energy>
  </scstep>
  <scstep>
   <time name="diag">   68.14   68.15</time>
   <time name="diis">   78.09   78.10</time>
   <time name="orth">   13.34   13.34</time>
   <time name="total">  202.97  202.99</time>
   <energy>
    <i name="e_fr_energy">   -175.14181758 </i>
    <i name="e_wo_entrp">   -175.05149765 </i>
    <i name="e_0_energy">   -175.11923759 </i>
   </energy>
  </scstep>
  <scstep>
   <time name="diag">   67.95   67.95</time>
   <time name="diis">   82.20   82.20</time>
   <time name="orth">   13.68   13.68</time>
   <time name="total">  178.21  178.22</time>
   <energy>
    <i name="alphaZ">     75.25431677 </i>
    <i name="ewald"> 137992.21571038 </i>
    <i name="hartreedc">-182344.43932846 </i>
    <i name="XCdc">  -1692.40413791 </i>
    <i name="pawpsdc">  46200.45722015 </i>
    <i name="pawaedc"> -42671.79126678 </i>
    <i name="eentropy">     -0.09035132 </i>
    <i name="bandstr">  -2820.84957169 </i>
    <i name="atom">  45086.50549395 </i>
    <i name="e_fr_energy">   -175.14191491 </i>
    <i name="e_wo_entrp">   -175.05156360 </i>
    <i name="e_0_energy">   -175.11932708 </i>
   </energy>
  </scstep>
  <structure>
   <crystal>
    <varray name="basis" >
     <v>      30.00000000       0.00000000       0.00000000 </v>
     <v>       0.00000000      30.00000000       0.00000000 </v>
     <v>       0.00000000       0.00000000      30.00000000 </v>
    </varray>
    <i name="volume">  27000.00000000 </i>
    <varray name="rec_basis" >
     <v>       0.03333333       0.00000000       0.00000000 </v>
     <v>       0.00000000       0.03333333       0.00000000 </v>
     <v>       0.00000000       0.00000000       0.03333333 </v>
    </varray>
   </crystal>
   <varray name="positions" >
    <v>       0.44576020       0.32826710       0.41691983 </v>
    <v>       0.67173288       0.55423978       0.41691983 </v>
    <v>       0.55423980       0.32826710       0.41691983 </v>
    <v>       0.32826712       0.55423978       0.41691983 </v>
    <v>       0.50000000       0.38250690       0.34021317 </v>
    <v>       0.50000000       0.38250690       0.65978680 </v>
    <v>       0.50000000       0.27609440       0.50000000 </v>
    <v>       0.27609443       0.49999998       0.50000000 </v>
    <v>       0.72390557       0.49999998       0.50000000 </v>
    <v>       0.50000000       0.72390555       0.50000000 </v>
    <v>       0.61195280       0.38804720       0.34167483 </v>
    <v>       0.61195280       0.38804720       0.65832513 </v>
    <v>       0.38804722       0.61195278       0.34167483 </v>
    <v>       0.38804722       0.61195278       0.65832513 </v>
    <v>       0.38804720       0.38804720       0.34167483 </v>
    <v>       0.38804720       0.38804720       0.65832513 </v>
    <v>       0.61195278       0.61195278       0.34167483 </v>
    <v>       0.61195278       0.61195278       0.65832513 </v>
    <v>       0.44576020       0.32826710       0.58308023 </v>
    <v>       0.67173288       0.55423978       0.58308023 </v>
    <v>       0.55791699       0.44208301       0.41809300 </v>
    <v>       0.32826705       0.44576024       0.41691983 </v>
    <v>       0.55423973       0.67173293       0.41691983 </v>
    <v>       0.55423980       0.32826710       0.58308023 </v>
    <v>       0.32826712       0.55423978       0.58308023 </v>
    <v>       0.67173295       0.44576024       0.41691983 </v>
    <v>       0.44576027       0.67173293       0.41691983 </v>
    <v>       0.44208301       0.44208301       0.41809300 </v>
    <v>       0.50000000       0.38416601       0.50000000 </v>
    <v>       0.61749315       0.50000005       0.34021317 </v>
    <v>       0.61749315       0.50000005       0.65978680 </v>
    <v>       0.38250685       0.50000005       0.34021317 </v>
    <v>       0.38250685       0.50000005       0.65978680 </v>
    <v>       0.38317830       0.38317830       0.50000000 </v>
    <v>       0.61682172       0.61682172       0.50000000 </v>
    <v>       0.61682170       0.38317830       0.50000000 </v>
    <v>       0.38317828       0.61682172       0.50000000 </v>
    <v>       0.50000000       0.50000000       0.33478917 </v>
    <v>       0.50000000       0.50000000       0.66521087 </v>
    <v>       0.32826705       0.44576024       0.58308023 </v>
    <v>       0.55423973       0.67173293       0.58308023 </v>
    <v>       0.55791699       0.44208301       0.58190703 </v>
    <v>       0.44208298       0.55791702       0.41809300 </v>
    <v>       0.44208301       0.44208301       0.58190703 </v>
    <v>       0.67173295       0.44576024       0.58308023 </v>
    <v>       0.44576027       0.67173293       0.58308023 </v>
    <v>       0.55791702       0.55791702       0.41809300 </v>
    <v>       0.38416599       0.50000002       0.50000000 </v>
    <v>       0.61583401       0.50000002       0.50000000 </v>
    <v>       0.50000000       0.61749319       0.34021317 </v>
    <v>       0.50000000       0.61749319       0.65978680 </v>
    <v>       0.50000000       0.50000000       0.50000000 </v>
    <v>       0.44208298       0.55791702       0.58190703 </v>
    <v>       0.55791702       0.55791702       0.58190703 </v>
    <v>       0.50000000       0.61583404       0.50000000 </v>
    <v>       0.50410113       0.62767610       0.72225230 </v>
    <v>       0.50470267       0.64640310       0.75485133 </v>
   </varray>
  </structure>
  <varray name="forces" >
   <v>       0.70362085       1.10654293       0.29325525 </v>
   <v>      -1.10631400      -0.70830589       0.28944736 </v>
   <v>      -0.70337897       1.10570083       0.29213093 </v>
   <v>       1.10476427      -0.70815024       0.28884145 </v>
   <v>       0.00056401       0.40729506       1.28172947 </v>
   <v>      -0.00011477       0.41609697      -1.28342098 </v>
   <v>      -0.00008394       1.51422930       0.00464451 </v>
   <v>       1.51448995      -0.00218221      -0.01420400 </v>
   <v>      -1.51296771      -0.00143752      -0.01423980 </v>
   <v>       0.00520143      -1.52166537       0.03028025 </v>
   <v>      -0.75216270       0.75468204       1.07371649 </v>
   <v>      -0.75722394       0.75735271      -1.07489560 </v>
   <v>       0.75449703      -0.75674089       1.07318724 </v>
   <v>       0.75297761      -0.74844311      -1.07044211 </v>
   <v>       0.75162913       0.75382258       1.07322731 </v>
   <v>       0.75707084       0.75681130      -1.07454708 </v>
   <v>      -0.75487325      -0.75714965       1.07352739 </v>
   <v>      -0.75556178      -0.74187088      -1.05835508 </v>
   <v>       0.70598495       1.10639381      -0.29098401 </v>
   <v>      -1.10073624      -0.70318009      -0.29024315 </v>
   <v>       0.11056582      -0.11234175      -0.15367405 </v>
   <v>       1.10427379       0.70728029       0.30204273 </v>
   <v>      -0.70223447      -1.11547940       0.28861973 </v>
   <v>      -0.70684651       1.10579559      -0.29073323 </v>
   <v>       1.10365729      -0.70026460      -0.28808505 </v>
   <v>      -1.10502758       0.70762009       0.30022121 </v>
   <v>       0.70230884      -1.11556122       0.28769876 </v>
   <v>      -0.11030811      -0.11250473      -0.15308374 </v>
   <v>      -0.00113713      -0.22383985       0.00114268 </v>
   <v>      -0.41043488       0.00695996       1.28187245 </v>
   <v>      -0.38985125      -0.02964980      -1.29734207 </v>
   <v>       0.41098463       0.00814423       1.28165246 </v>
   <v>       0.39250854      -0.02360850      -1.29603692 </v>
   <v>       0.82825231       0.82428357      -0.00322434 </v>
   <v>      -0.83788426      -0.82305415       0.00612126 </v>
   <v>      -0.82866046       0.82420116      -0.00357643 </v>
   <v>       0.83812674      -0.82331787       0.00979206 </v>
   <v>       0.00000565       0.00793369       1.18118421 </v>
   <v>      -0.00171708      -0.07193888      -1.17799127 </v>
   <v>       1.11213056       0.70853510      -0.28262346 </v>
   <v>      -0.69307014      -1.09463975      -0.38201986 </v>
   <v>       0.11575648      -0.11378140       0.15477965 </v>
   <v>      -0.11546089       0.10950451      -0.16017739 </v>
   <v>      -0.11521225      -0.11294379       0.15516665 </v>
   <v>      -1.11264024       0.70972063      -0.28074123 </v>
   <v>       0.69533408      -1.11889551      -0.36522163 </v>
   <v>       0.11544553       0.11049675      -0.15885693 </v>
   <v>      -0.24522570      -0.01227055      -0.02790242 </v>
   <v>       0.24080424      -0.01045697      -0.02588135 </v>
   <v>      -0.00024101      -0.41410888       1.27973948 </v>
   <v>       0.04691308      -0.36659111      -0.27472597 </v>
   <v>       0.00077297       0.02063932       0.01469327 </v>
   <v>      -0.10225481       0.10915208       0.10238669 </v>
   <v>       0.11174879       0.09099315       0.08557825 </v>
   <v>      -0.00082066       0.21844377       0.02074529 </v>
   <v>      -0.17906636      -1.81536016      -4.80106866 </v>
   <v>       0.12112168       1.91110332       4.06687331 </v>
  </varray>
  <varray name="stress" >
   <v>      -6.73791984       0.00348178      -0.00332469 </v>
   <v>       0.00348178      -6.66689618       0.13329414 </v>
   <v>      -0.00332468       0.13329412      -6.57960613 </v>
  </varray>
  <energy>
   <i name="e_fr_energy">   -175.14191491 </i>
   <i name="e_wo_entrp">   -175.11932708 </i>
   <i name="e_0_energy">     -0.09035132 </i>
  </energy>
  <time name="totalsc">18380.8418381.66</time>
  <eigenvalues>
   <array>
    <dimension dim="1">band</dimension>
    <dimension dim="2">kpoint</dimension>
    <dimension dim="3">spin</dimension>
    <field>eigene</field>
    <field>occ</field>
    <set>
     <set comment="spin 1">
      <set comment="kpoint 1">
       <r>  -28.4934    1.0000 </r>
       <r>  -13.3727    1.0000 </r>
       <r>  -11.0818    1.0000 </r>
       <r>  -10.9427    1.0000 </r>
       <r>  -10.5809    1.0000 </r>
       <r>   -6.6605    1.0000 </r>
       <r>   -6.3096    1.0000 </r>
       <r>   -6.2136    1.0000 </r>
       <r>   -6.1596    1.0000 </r>
       <r>   -6.1326    1.0000 </r>
       <r>   -6.1210    1.0000 </r>
       <r>   -5.8686    1.0000 </r>
       <r>   -5.8169    1.0000 </r>
       <r>   -5.8091    1.0000 </r>
       <r>   -5.7723    1.0000 </r>
       <r>   -5.7427    1.0000 </r>
       <r>   -5.7008    1.0000 </r>
       <r>   -5.6943    1.0000 </r>
       <r>   -5.6868    1.0000 </r>
       <r>   -5.6576    1.0000 </r>
       <r>   -5.6531    1.0000 </r>
       <r>   -5.6354    1.0000 </r>
       <r>   -5.6303    1.0000 </r>
       <r>   -5.6039    1.0000 </r>
       <r>   -5.5983    1.0000 </r>
       <r>   -5.5847    1.0000 </r>
       <r>   -5.5701    1.0000 </r>
       <r>   -5.5665    1.0000 </r>
       <r>   -5.5569    1.0000 </r>
       <r>   -5.5557    1.0000 </r>
       <r>   -5.5390    1.0000 </r>
       <r>   -5.5334    1.0000 </r>
       <r>   -5.5277    1.0000 </r>
       <r>   -5.5273    1.0000 </r>
       <r>   -5.5218    1.0000 </r>
       <r>   -5.5206    1.0000 </r>
       <r>   -5.5108    1.0000 </r>
       <r>   -5.5059    1.0000 </r>
       <r>   -5.5041    1.0000 </r>
       <r>   -5.4858    1.0000 </r>
       <r>   -5.4828    1.0000 </r>
       <r>   -5.4808    1.0000 </r>
       <r>   -5.4768    1.0000 </r>
       <r>   -5.4758    1.0000 </r>
       <r>   -5.4700    1.0000 </r>
       <r>   -5.4605    1.0000 </r>
       <r>   -5.4414    1.0000 </r>
       <r>   -5.4392    1.0000 </r>
       <r>   -5.4360    1.0000 </r>
       <r>   -5.4336    1.0000 </r>
       <r>   -5.4320    1.0000 </r>
       <r>   -5.4303    1.0000 </r>
       <r>   -5.4157    1.0000 </r>
       <r>   -5.4146    1.0000 </r>
       <r>   -5.4047    1.0000 </r>
       <r>   -5.3951    1.0000 </r>
       <r>   -5.3806    1.0000 </r>
       <r>   -5.3669    1.0000 </r>
       <r>   -5.3534    1.0000 </r>
       <r>   -5.3380    1.0000 </r>
       <r>   -5.3346    1.0000 </r>
       <r>   -5.3283    1.0000 </r>
       <r>   -5.3257    1.0000 </r>
       <r>   -5.3193    1.0000 </r>
       <r>   -5.3120    1.0000 </r>
       <r>   -5.3096    1.0000 </r>
       <r>   -5.3091    1.0000 </r>
       <r>   -5.2998    1.0000 </r>
       <r>   -5.2587    1.0000 </r>
       <r>   -5.2318    1.0000 </r>
       <r>   -5.2223    1.0000 </r>
       <r>   -5.2167    1.0000 </r>
       <r>   -5.2158    1.0000 </r>
       <r>   -5.2032    1.0000 </r>
       <r>   -5.1973    1.0000 </r>
       <r>   -5.1891    1.0000 </r>
       <r>   -5.1882    1.0000 </r>
       <r>   -5.1859    1.0000 </r>
       <r>   -5.1731    1.0000 </r>
       <r>   -5.1730    1.0000 </r>
       <r>   -5.1693    1.0000 </r>
       <r>   -5.1482    1.0000 </r>
       <r>   -5.1379    1.0000 </r>
       <r>   -5.1344    1.0000 </r>
       <r>   -5.1301    1.0000 </r>
       <r>   -5.1207    1.0000 </r>
       <r>   -5.1159    1.0000 </r>
       <r>   -5.1032    1.0000 </r>
       <r>   -5.0987    1.0000 </r>
       <r>   -5.0782    1.0000 </r>
       <r>   -5.0722    1.0000 </r>
       <r>   -5.0645    1.0000 </r>
       <r>   -5.0629    1.0000 </r>
       <r>   -5.0623    1.0000 </r>
       <r>   -5.0610    1.0000 </r>
       <r>   -5.0586    1.0000 </r>
       <r>   -5.0496    1.0000 </r>
       <r>   -5.0458    1.0000 </r>
       <r>   -5.0371    1.0000 </r>
       <r>   -5.0348    1.0000 </r>
       <r>   -5.0310    1.0000 </r>
       <r>   -5.0290    1.0000 </r>
       <r>   -5.0160    1.0000 </r>
       <r>   -5.0143    1.0000 </r>
       <r>   -5.0120    1.0000 </r>
       <r>   -5.0097    1.0000 </r>
       <r>   -5.0068    1.0000 </r>
       <r>   -4.9997    1.0000 </r>
       <r>   -4.9911    1.0000 </r>
       <r>   -4.9870    1.0000 </r>
       <r>   -4.9853    1.0000 </r>
       <r>   -4.9823    1.0000 </r>
       <r>   -4.9701    1.0000 </r>
       <r>   -4.9687    1.0000 </r>
       <r>   -4.9656    1.0000 </r>
       <r>   -4.9637    1.0000 </r>
       <r>   -4.9531    1.0000 </r>
       <r>   -4.9504    1.0000 </r>
       <r>   -4.9390    1.0000 </r>
       <r>   -4.9268    1.0000 </r>
       <r>   -4.9204    1.0000 </r>
       <r>   -4.9194    1.0000 </r>
       <r>   -4.9158    1.0000 </r>
       <r>   -4.9114    1.0000 </r>
       <r>   -4.9097    1.0000 </r>
       <r>   -4.9090    1.0000 </r>
       <r>   -4.8976    1.0000 </r>
       <r>   -4.8834    1.0000 </r>
       <r>   -4.8594    1.0000 </r>
       <r>   -4.8579    1.0000 </r>
       <r>   -4.8494    1.0000 </r>
       <r>   -4.8483    1.0000 </r>
       <r>   -4.8475    1.0000 </r>
       <r>   -4.8437    1.0000 </r>
       <r>   -4.8382    1.0000 </r>
       <r>   -4.8371    1.0000 </r>
       <r>   -4.8081    0.9999 </r>
       <r>   -4.8076    0.9999 </r>
       <r>   -4.8009    0.9999 </r>
       <r>   -4.7946    0.9999 </r>
       <r>   -4.7855    0.9998 </r>
       <r>   -4.7737    0.9998 </r>
       <r>   -4.7675    0.9998 </r>
       <r>   -4.7630    0.9997 </r>
       <r>   -4.7480    0.9996 </r>
       <r>   -4.7455    0.9996 </r>
       <r>   -4.7355    0.9995 </r>
       <r>   -4.7259    0.9994 </r>
       <r>   -4.7249    0.9994 </r>
       <r>   -4.7112    0.9992 </r>
       <r>   -4.7020    0.9990 </r>
       <r>   -4.6952    0.9989 </r>
       <r>   -4.6947    0.9989 </r>
       <r>   -4.6899    0.9988 </r>
       <r>   -4.6880    0.9988 </r>
       <r>   -4.6805    0.9986 </r>
       <r>   -4.6799    0.9986 </r>
       <r>   -4.6790    0.9985 </r>
       <r>   -4.6777    0.9985 </r>
       <r>   -4.6738    0.9984 </r>
       <r>   -4.6676    0.9982 </r>
       <r>   -4.6575    0.9979 </r>
       <r>   -4.6555    0.9979 </r>
       <r>   -4.6548    0.9978 </r>
       <r>   -4.6532    0.9978 </r>
       <r>   -4.6528    0.9978 </r>
       <r>   -4.6516    0.9977 </r>
       <r>   -4.6475    0.9976 </r>
       <r>   -4.6410    0.9974 </r>
       <r>   -4.6404    0.9974 </r>
       <r>   -4.6241    0.9968 </r>
       <r>   -4.6185    0.9965 </r>
       <r>   -4.6087    0.9962 </r>
       <r>   -4.6054    0.9961 </r>
       <r>   -4.6041    0.9960 </r>
       <r>   -4.6032    0.9960 </r>
       <r>   -4.6008    0.9959 </r>
       <r>   -4.5969    0.9958 </r>
       <r>   -4.5957    0.9957 </r>
       <r>   -4.5873    0.9955 </r>
       <r>   -4.5836    0.9954 </r>
       <r>   -4.5786    0.9953 </r>
       <r>   -4.5737    0.9952 </r>
       <r>   -4.5650    0.9951 </r>
       <r>   -4.5643    0.9951 </r>
       <r>   -4.5621    0.9951 </r>
       <r>   -4.5582    0.9951 </r>
       <r>   -4.5577    0.9951 </r>
       <r>   -4.5560    0.9951 </r>
       <r>   -4.5542    0.9951 </r>
       <r>   -4.5304    0.9960 </r>
       <r>   -4.5274    0.9962 </r>
       <r>   -4.5249    0.9964 </r>
       <r>   -4.5176    0.9971 </r>
       <r>   -4.5121    0.9977 </r>
       <r>   -4.5089    0.9981 </r>
       <r>   -4.5077    0.9983 </r>
       <r>   -4.4980    0.9999 </r>
       <r>   -4.4899    1.0015 </r>
       <r>   -4.4822    1.0033 </r>
       <r>   -4.4819    1.0033 </r>
       <r>   -4.4732    1.0057 </r>
       <r>   -4.4701    1.0066 </r>
       <r>   -4.4664    1.0078 </r>
       <r>   -4.4627    1.0090 </r>
       <r>   -4.4622    1.0092 </r>
       <r>   -4.4552    1.0117 </r>
       <r>   -4.4537    1.0122 </r>
       <r>   -4.4483    1.0143 </r>
       <r>   -4.4463    1.0151 </r>
       <r>   -4.4361    1.0195 </r>
       <r>   -4.4306    1.0220 </r>
       <r>   -4.4265    1.0238 </r>
       <r>   -4.4181    1.0278 </r>
       <r>   -4.4162    1.0287 </r>
       <r>   -4.4147    1.0295 </r>
       <r>   -4.4129    1.0303 </r>
       <r>   -4.4117    1.0309 </r>
       <r>   -4.4091    1.0322 </r>
       <r>   -4.4027    1.0352 </r>
       <r>   -4.3780    1.0458 </r>
       <r>   -4.3755    1.0466 </r>
       <r>   -4.3689    1.0487 </r>
       <r>   -4.3676    1.0490 </r>
       <r>   -4.3578    1.0510 </r>
       <r>   -4.3556    1.0513 </r>
       <r>   -4.3450    1.0515 </r>
       <r>   -4.3444    1.0514 </r>
       <r>   -4.3431    1.0513 </r>
       <r>   -4.3415    1.0511 </r>
       <r>   -4.3410    1.0511 </r>
       <r>   -4.3392    1.0508 </r>
       <r>   -4.3369    1.0503 </r>
       <r>   -4.3337    1.0494 </r>
       <r>   -4.3308    1.0485 </r>
       <r>   -4.3298    1.0481 </r>
       <r>   -4.3286    1.0476 </r>
       <r>   -4.3265    1.0467 </r>
       <r>   -4.3262    1.0465 </r>
       <r>   -4.3247    1.0458 </r>
       <r>   -4.3167    1.0408 </r>
       <r>   -4.3074    1.0328 </r>
       <r>   -4.3058    1.0311 </r>
       <r>   -4.2954    1.0184 </r>
       <r>   -4.2946    1.0174 </r>
       <r>   -4.2938    1.0162 </r>
       <r>   -4.2909    1.0118 </r>
       <r>   -4.2902    1.0107 </r>
       <r>   -4.2865    1.0047 </r>
       <r>   -4.2774    0.9878 </r>
       <r>   -4.2735    0.9795 </r>
       <r>   -4.2714    0.9748 </r>
       <r>   -4.2667    0.9638 </r>
       <r>   -4.2651    0.9596 </r>
       <r>   -4.2609    0.9489 </r>
       <r>   -4.2601    0.9466 </r>
       <r>   -4.2565    0.9368 </r>
       <r>   -4.2560    0.9352 </r>
       <r>   -4.2522    0.9241 </r>
       <r>   -4.2513    0.9213 </r>
       <r>   -4.2499    0.9170 </r>
       <r>   -4.2471    0.9082 </r>
       <r>   -4.2446    0.9003 </r>
       <r>   -4.2439    0.8979 </r>
       <r>   -4.2422    0.8922 </r>
       <r>   -4.2340    0.8631 </r>
       <r>   -4.2329    0.8590 </r>
       <r>   -4.2287    0.8429 </r>
       <r>   -4.2280    0.8403 </r>
       <r>   -4.2255    0.8305 </r>
       <r>   -4.2228    0.8194 </r>
       <r>   -4.2157    0.7896 </r>
       <r>   -4.2092    0.7612 </r>
       <r>   -4.2004    0.7204 </r>
       <r>   -4.1920    0.6796 </r>
       <r>   -4.1902    0.6710 </r>
       <r>   -4.1830    0.6346 </r>
       <r>   -4.1820    0.6297 </r>
       <r>   -4.1810    0.6244 </r>
       <r>   -4.1769    0.6032 </r>
       <r>   -4.1691    0.5628 </r>
       <r>   -4.1659    0.5457 </r>
       <r>   -4.1430    0.4253 </r>
       <r>   -4.1353    0.3851 </r>
       <r>   -4.1347    0.3821 </r>
       <r>   -4.1340    0.3787 </r>
       <r>   -4.1238    0.3271 </r>
       <r>   -4.1168    0.2928 </r>
       <r>   -4.1010    0.2201 </r>
       <r>   -3.9686   -0.0515 </r>
       <r>   -3.8977   -0.0285 </r>
       <r>   -3.8358   -0.0042 </r>
       <r>   -3.8215   -0.0008 </r>
       <r>   -3.7589    0.0049 </r>
       <r>   -3.5095    0.0001 </r>
       <r>   -3.4942    0.0001 </r>
       <r>   -3.4155    0.0000 </r>
       <r>   -3.0683    0.0000 </r>
       <r>   -3.0650    0.0000 </r>
       <r>   -3.0431    0.0000 </r>
       <r>   -3.0331    0.0000 </r>
       <r>   -3.0299    0.0000 </r>
       <r>   -2.9504    0.0000 </r>
       <r>   -2.9413    0.0000 </r>
       <r>   -2.9084    0.0000 </r>
       <r>   -2.5305    0.0000 </r>
       <r>   -2.5261    0.0000 </r>
       <r>   -2.3910    0.0000 </r>
       <r>   -2.3678    0.0000 </r>
       <r>   -2.1244    0.0000 </r>
       <r>   -2.1230    0.0000 </r>
       <r>   -2.1075    0.0000 </r>
       <r>   -1.9964    0.0000 </r>
       <r>   -1.9736    0.0000 </r>
       <r>   -1.9439    0.0000 </r>
       <r>   -1.8714    0.0000 </r>
       <r>   -1.8190    0.0000 </r>
       <r>   -1.7400    0.0000 </r>
       <r>   -1.6633    0.0000 </r>
       <r>   -1.6445    0.0000 </r>
       <r>   -1.6234    0.0000 </r>
       <r>   -1.5650    0.0000 </r>
       <r>   -1.4568    0.0000 </r>
       <r>   -1.3557    0.0000 </r>
       <r>   -1.2514    0.0000 </r>
       <r>   -1.1824    0.0000 </r>
       <r>   -1.1159    0.0000 </r>
       <r>   -1.0193    0.0000 </r>
       <r>   -0.9968    0.0000 </r>
       <r>   -0.9779    0.0000 </r>
       <r>   -0.9702    0.0000 </r>
       <r>   -0.9372    0.0000 </r>
       <r>   -0.9148    0.0000 </r>
       <r>   -0.8809    0.0000 </r>
       <r>   -0.8473    0.0000 </r>
       <r>   -0.7926    0.0000 </r>
      </set>
     </set>
    </set>
   </array>
  </eigenvalues>
  <separator name="orbital magnetization" >
   <v name="MAGDIPOLOUT">      0.00000000      0.00000000      0.00000000</v>
  </separator>
  <dos>
   <i name="efermi">     -4.15721882 </i>
   <total>
    <array>
     <dimension dim="1">gridpoints</dimension>
     <dimension dim="2">spin</dimension>
     <field>energy</field>
     <field>total</field>
     <field>integrated</field>
     <set>
      <set comment="spin 1">
       <r>   -30.4934     0.0000     0.0000 </r>
       <r>   -30.3878     0.0000     0.0000 </r>
       <r>   -30.2821     0.0000     0.0000 </r>
       <r>   -30.1764     0.0000     0.0000 </r>
       <r>   -30.0708     0.0000     0.0000 </r>
       <r>   -29.9651     0.0000     0.0000 </r>
       <r>   -29.8594     0.0000     0.0000 </r>
       <r>   -29.7538     0.0000     0.0000 </r>
       <r>   -29.6481     0.0000     0.0000 </r>
       <r>   -29.5424     0.0000     0.0000 </r>
       <r>   -29.4367     0.0000     0.0000 </r>
       <r>   -29.3311     0.0000     0.0000 </r>
       <r>   -29.2254     0.0001     0.0000 </r>
       <r>   -29.1197     0.0028     0.0003 </r>
       <r>   -29.0141     0.0252     0.0030 </r>
       <r>   -28.9084     0.0637     0.0097 </r>
       <r>   -28.8027    -0.2386    -0.0155 </r>
       <r>   -28.6971    -0.8093    -0.1010 </r>
       <r>   -28.5914     2.2261     0.1342 </r>
       <r>   -28.4857     8.9655     1.0816 </r>
       <r>   -28.3800     8.1798     1.9459 </r>
       <r>   -28.2744     1.3893     2.0928 </r>
       <r>   -28.1687    -0.8146     2.0067 </r>
       <r>   -28.0630    -0.1486     1.9910 </r>
       <r>   -27.9574     0.0640     1.9977 </r>
       <r>   -27.8517     0.0194     1.9998 </r>
       <r>   -27.7460     0.0019     2.0000 </r>
       <r>   -27.6404     0.0001     2.0000 </r>
       <r>   -27.5347     0.0000     2.0000 </r>
       <r>   -27.4290     0.0000     2.0000 </r>
       <r>   -27.3234     0.0000     2.0000 </r>
       <r>   -27.2177     0.0000     2.0000 </r>
       <r>   -27.1120     0.0000     2.0000 </r>
       <r>   -27.0063     0.0000     2.0000 </r>
       <r>   -26.9007     0.0000     2.0000 </r>
       <r>   -26.7950     0.0000     2.0000 </r>
       <r>   -26.6893     0.0000     2.0000 </r>
       <r>   -26.5837     0.0000     2.0000 </r>
       <r>   -26.4780     0.0000     2.0000 </r>
       <r>   -26.3723     0.0000     2.0000 </r>
       <r>   -26.2667     0.0000     2.0000 </r>
       <r>   -26.1610     0.0000     2.0000 </r>
       <r>   -26.0553     0.0000     2.0000 </r>
       <r>   -25.9496     0.0000     2.0000 </r>
       <r>   -25.8440     0.0000     2.0000 </r>
       <r>   -25.7383     0.0000     2.0000 </r>
       <r>   -25.6326     0.0000     2.0000 </r>
       <r>   -25.5270     0.0000     2.0000 </r>
       <r>   -25.4213     0.0000     2.0000 </r>
       <r>   -25.3156     0.0000     2.0000 </r>
       <r>   -25.2100     0.0000     2.0000 </r>
       <r>   -25.1043     0.0000     2.0000 </r>
       <r>   -24.9986     0.0000     2.0000 </r>
       <r>   -24.8930     0.0000     2.0000 </r>
       <r>   -24.7873     0.0000     2.0000 </r>
       <r>   -24.6816     0.0000     2.0000 </r>
       <r>   -24.5759     0.0000     2.0000 </r>
       <r>   -24.4703     0.0000     2.0000 </r>
       <r>   -24.3646     0.0000     2.0000 </r>
       <r>   -24.2589     0.0000     2.0000 </r>
       <r>   -24.1533     0.0000     2.0000 </r>
       <r>   -24.0476     0.0000     2.0000 </r>
       <r>   -23.9419     0.0000     2.0000 </r>
       <r>   -23.8363     0.0000     2.0000 </r>
       <r>   -23.7306     0.0000     2.0000 </r>
       <r>   -23.6249     0.0000     2.0000 </r>
       <r>   -23.5192     0.0000     2.0000 </r>
       <r>   -23.4136     0.0000     2.0000 </r>
       <r>   -23.3079     0.0000     2.0000 </r>
       <r>   -23.2022     0.0000     2.0000 </r>
       <r>   -23.0966     0.0000     2.0000 </r>
       <r>   -22.9909     0.0000     2.0000 </r>
       <r>   -22.8852     0.0000     2.0000 </r>
       <r>   -22.7796     0.0000     2.0000 </r>
       <r>   -22.6739     0.0000     2.0000 </r>
       <r>   -22.5682     0.0000     2.0000 </r>
       <r>   -22.4626     0.0000     2.0000 </r>
       <r>   -22.3569     0.0000     2.0000 </r>
       <r>   -22.2512     0.0000     2.0000 </r>
       <r>   -22.1455     0.0000     2.0000 </r>
       <r>   -22.0399     0.0000     2.0000 </r>
       <r>   -21.9342     0.0000     2.0000 </r>
       <r>   -21.8285     0.0000     2.0000 </r>
       <r>   -21.7229     0.0000     2.0000 </r>
       <r>   -21.6172     0.0000     2.0000 </r>
       <r>   -21.5115     0.0000     2.0000 </r>
       <r>   -21.4059     0.0000     2.0000 </r>
       <r>   -21.3002     0.0000     2.0000 </r>
       <r>   -21.1945     0.0000     2.0000 </r>
       <r>   -21.0888     0.0000     2.0000 </r>
       <r>   -20.9832     0.0000     2.0000 </r>
       <r>   -20.8775     0.0000     2.0000 </r>
       <r>   -20.7718     0.0000     2.0000 </r>
       <r>   -20.6662     0.0000     2.0000 </r>
       <r>   -20.5605     0.0000     2.0000 </r>
       <r>   -20.4548     0.0000     2.0000 </r>
       <r>   -20.3492     0.0000     2.0000 </r>
       <r>   -20.2435     0.0000     2.0000 </r>
       <r>   -20.1378     0.0000     2.0000 </r>
       <r>   -20.0322     0.0000     2.0000 </r>
       <r>   -19.9265     0.0000     2.0000 </r>
       <r>   -19.8208     0.0000     2.0000 </r>
       <r>   -19.7151     0.0000     2.0000 </r>
       <r>   -19.6095     0.0000     2.0000 </r>
       <r>   -19.5038     0.0000     2.0000 </r>
       <r>   -19.3981     0.0000     2.0000 </r>
       <r>   -19.2925     0.0000     2.0000 </r>
       <r>   -19.1868     0.0000     2.0000 </r>
       <r>   -19.0811     0.0000     2.0000 </r>
       <r>   -18.9755     0.0000     2.0000 </r>
       <r>   -18.8698     0.0000     2.0000 </r>
       <r>   -18.7641     0.0000     2.0000 </r>
       <r>   -18.6584     0.0000     2.0000 </r>
       <r>   -18.5528     0.0000     2.0000 </r>
       <r>   -18.4471     0.0000     2.0000 </r>
       <r>   -18.3414     0.0000     2.0000 </r>
       <r>   -18.2358     0.0000     2.0000 </r>
       <r>   -18.1301     0.0000     2.0000 </r>
       <r>   -18.0244     0.0000     2.0000 </r>
       <r>   -17.9188     0.0000     2.0000 </r>
       <r>   -17.8131     0.0000     2.0000 </r>
       <r>   -17.7074     0.0000     2.0000 </r>
       <r>   -17.6018     0.0000     2.0000 </r>
       <r>   -17.4961     0.0000     2.0000 </r>
       <r>   -17.3904     0.0000     2.0000 </r>
       <r>   -17.2847     0.0000     2.0000 </r>
       <r>   -17.1791     0.0000     2.0000 </r>
       <r>   -17.0734     0.0000     2.0000 </r>
       <r>   -16.9677     0.0000     2.0000 </r>
       <r>   -16.8621     0.0000     2.0000 </r>
       <r>   -16.7564     0.0000     2.0000 </r>
       <r>   -16.6507     0.0000     2.0000 </r>
       <r>   -16.5451     0.0000     2.0000 </r>
       <r>   -16.4394     0.0000     2.0000 </r>
       <r>   -16.3337     0.0000     2.0000 </r>
       <r>   -16.2281     0.0000     2.0000 </r>
       <r>   -16.1224     0.0000     2.0000 </r>
       <r>   -16.0167     0.0000     2.0000 </r>
       <r>   -15.9110     0.0000     2.0000 </r>
       <r>   -15.8054     0.0000     2.0000 </r>
       <r>   -15.6997     0.0000     2.0000 </r>
       <r>   -15.5940     0.0000     2.0000 </r>
       <r>   -15.4884     0.0000     2.0000 </r>
       <r>   -15.3827     0.0000     2.0000 </r>
       <r>   -15.2770     0.0000     2.0000 </r>
       <r>   -15.1714     0.0000     2.0000 </r>
       <r>   -15.0657     0.0000     2.0000 </r>
       <r>   -14.9600     0.0000     2.0000 </r>
       <r>   -14.8543     0.0000     2.0000 </r>
       <r>   -14.7487     0.0000     2.0000 </r>
       <r>   -14.6430     0.0000     2.0000 </r>
       <r>   -14.5373     0.0000     2.0000 </r>
       <r>   -14.4317     0.0000     2.0000 </r>
       <r>   -14.3260     0.0000     2.0000 </r>
       <r>   -14.2203     0.0000     2.0000 </r>
       <r>   -14.1147     0.0001     2.0000 </r>
       <r>   -14.0090     0.0022     2.0002 </r>
       <r>   -13.9033     0.0213     2.0025 </r>
       <r>   -13.7977     0.0645     2.0093 </r>
       <r>   -13.6920    -0.1782     1.9905 </r>
       <r>   -13.5863    -0.8205     1.9038 </r>
       <r>   -13.4806     1.6677     2.0800 </r>
       <r>   -13.3750     8.4744     2.9755 </r>
       <r>   -13.2693     8.7106     3.8959 </r>
       <r>   -13.1636     1.9189     4.0987 </r>
       <r>   -13.0580    -0.8191     4.0122 </r>
       <r>   -12.9523    -0.2052     3.9905 </r>
       <r>   -12.8466     0.0644     3.9973 </r>
       <r>   -12.7410     0.0230     3.9997 </r>
       <r>   -12.6353     0.0025     4.0000 </r>
       <r>   -12.5296     0.0001     4.0000 </r>
       <r>   -12.4239     0.0000     4.0000 </r>
       <r>   -12.3183     0.0000     4.0000 </r>
       <r>   -12.2126     0.0000     4.0000 </r>
       <r>   -12.1069     0.0000     4.0000 </r>
       <r>   -12.0013     0.0000     4.0000 </r>
       <r>   -11.8956     0.0000     4.0000 </r>
       <r>   -11.7899     0.0003     4.0000 </r>
       <r>   -11.6843     0.0051     4.0006 </r>
       <r>   -11.5786     0.0381     4.0046 </r>
       <r>   -11.4729     0.0710     4.0121 </r>
       <r>   -11.3673    -0.3412     3.9761 </r>
       <r>   -11.2616    -0.8173     3.8897 </r>
       <r>   -11.1559     2.9228     4.1985 </r>
       <r>   -11.0502    11.5240     5.4163 </r>
       <r>   -10.9446    15.1880     7.0212 </r>
       <r>   -10.8389     8.4377     7.9128 </r>
       <r>   -10.7332     1.0708     8.0259 </r>
       <r>   -10.6276     4.7841     8.5315 </r>
       <r>   -10.5219     9.8588     9.5733 </r>
       <r>   -10.4162     4.8499    10.0858 </r>
       <r>   -10.3106    -0.3726    10.0464 </r>
       <r>   -10.2049    -0.5184     9.9916 </r>
       <r>   -10.0992     0.0285     9.9946 </r>
       <r>    -9.9935     0.0435     9.9992 </r>
       <r>    -9.8879     0.0070     9.9999 </r>
       <r>    -9.7822     0.0005    10.0000 </r>
       <r>    -9.6765     0.0000    10.0000 </r>
       <r>    -9.5709     0.0000    10.0000 </r>
       <r>    -9.4652     0.0000    10.0000 </r>
       <r>    -9.3595     0.0000    10.0000 </r>
       <r>    -9.2539     0.0000    10.0000 </r>
       <r>    -9.1482     0.0000    10.0000 </r>
       <r>    -9.0425     0.0000    10.0000 </r>
       <r>    -8.9369     0.0000    10.0000 </r>
       <r>    -8.8312     0.0000    10.0000 </r>
       <r>    -8.7255     0.0000    10.0000 </r>
       <r>    -8.6198     0.0000    10.0000 </r>
       <r>    -8.5142     0.0000    10.0000 </r>
       <r>    -8.4085     0.0000    10.0000 </r>
       <r>    -8.3028     0.0000    10.0000 </r>
       <r>    -8.1972     0.0000    10.0000 </r>
       <r>    -8.0915     0.0000    10.0000 </r>
       <r>    -7.9858     0.0000    10.0000 </r>
       <r>    -7.8802     0.0000    10.0000 </r>
       <r>    -7.7745     0.0000    10.0000 </r>
       <r>    -7.6688     0.0000    10.0000 </r>
       <r>    -7.5631     0.0000    10.0000 </r>
       <r>    -7.4575     0.0000    10.0000 </r>
       <r>    -7.3518     0.0005    10.0001 </r>
       <r>    -7.2461     0.0073    10.0008 </r>
       <r>    -7.1405     0.0443    10.0055 </r>
       <r>    -7.0348     0.0254    10.0082 </r>
       <r>    -6.9291    -0.5303     9.9522 </r>
       <r>    -6.8235    -0.3275     9.9175 </r>
       <r>    -6.7178     5.0131    10.4473 </r>
       <r>    -6.6121     9.9288    11.4965 </r>
       <r>    -6.5065     4.4134    11.9628 </r>
       <r>    -6.4008     0.0880    11.9721 </r>
       <r>    -6.2951    11.6186    13.1998 </r>
       <r>    -6.1894    33.4612    16.7357 </r>
       <r>    -6.0838    36.5555    20.5985 </r>
       <r>    -5.9781    14.0707    22.0853 </r>
       <r>    -5.8724    12.6646    23.4236 </r>
       <r>    -5.7668    45.1934    28.1992 </r>
       <r>    -5.6611   102.7219    39.0537 </r>
       <r>    -5.5554   206.6506    60.8904 </r>
       <r>    -5.4498   293.9858    91.9557 </r>
       <r>    -5.3441   267.3398   120.2054 </r>
       <r>    -5.2384   207.2543   142.1059 </r>
       <r>    -5.1327   241.6542   167.6414 </r>
       <r>    -5.0271   336.1889   203.1663 </r>
       <r>    -4.9214   356.1782   240.8035 </r>
       <r>    -4.8157   296.7184   272.1576 </r>
       <r>    -4.7101   316.4714   305.5990 </r>
       <r>    -4.6044   408.5525   348.7705 </r>
       <r>    -4.4987   426.3587   393.8236 </r>
       <r>    -4.3931   443.6119   440.6999 </r>
       <r>    -4.2874   541.2424   497.8927 </r>
       <r>    -4.1817   504.2688   551.1786 </r>
       <r>    -4.0761   245.6600   577.1374 </r>
       <r>    -3.9704    38.8158   581.2390 </r>
       <r>    -3.8647    13.6130   582.6775 </r>
       <r>    -3.7590    32.0687   586.0662 </r>
       <r>    -3.6534    17.2645   587.8905 </r>
       <r>    -3.5477    12.6157   589.2236 </r>
       <r>    -3.4420    25.7039   591.9397 </r>
       <r>    -3.3364    17.3053   593.7684 </r>
       <r>    -3.2307    -1.2908   593.6320 </r>
       <r>    -3.1250    14.0882   595.1207 </r>
       <r>    -3.0194    56.7392   601.1163 </r>
       <r>    -2.9137    62.4048   607.7106 </r>
       <r>    -2.8080    24.1834   610.2660 </r>
       <r>    -2.7023    -2.2137   610.0321 </r>
       <r>    -2.5967     4.2382   610.4799 </r>
       <r>    -2.4910    22.9397   612.9040 </r>
       <r>    -2.3853    27.8836   615.8504 </r>
       <r>    -2.2797    16.4883   617.5927 </r>
       <r>    -2.1740    15.6293   619.2443 </r>
       <r>    -2.0683    34.1405   622.8519 </r>
       <r>    -1.9627    43.8204   627.4824 </r>
       <r>    -1.8570    37.6542   631.4613 </r>
       <r>    -1.7513    32.7044   634.9171 </r>
       <r>    -1.6457    39.6586   639.1078 </r>
       <r>    -1.5400    38.3315   643.1583 </r>
       <r>    -1.4343    23.6322   645.6555 </r>
       <r>    -1.3286    17.7379   647.5299 </r>
       <r>    -1.2230    20.3528   649.6805 </r>
       <r>    -1.1173    26.0062   652.4286 </r>
       <r>    -1.0116    47.4847   657.4463 </r>
       <r>    -0.9060    69.9833   664.8414 </r>
       <r>    -0.8003    53.6981   670.5156 </r>
       <r>    -0.6946    16.8118   672.2921 </r>
       <r>    -0.5890    -1.3479   672.1497 </r>
       <r>    -0.4833    -1.7264   671.9673 </r>
       <r>    -0.3776     0.0686   671.9745 </r>
       <r>    -0.2719     0.1946   671.9951 </r>
       <r>    -0.1663     0.0425   671.9996 </r>
       <r>    -0.0606     0.0039   672.0000 </r>
       <r>     0.0451     0.0002   672.0000 </r>
       <r>     0.1507     0.0000   672.0000 </r>
       <r>     0.2564     0.0000   672.0000 </r>
       <r>     0.3621     0.0000   672.0000 </r>
       <r>     0.4677     0.0000   672.0000 </r>
       <r>     0.5734     0.0000   672.0000 </r>
       <r>     0.6791     0.0000   672.0000 </r>
       <r>     0.7847     0.0000   672.0000 </r>
       <r>     0.8904     0.0000   672.0000 </r>
       <r>     0.9961     0.0000   672.0000 </r>
       <r>     1.1018     0.0000   672.0000 </r>
       <r>     1.2074     0.0000   672.0000 </r>
      </set>
     </set>
    </array>
   </total>
  </dos>
 </calculation>
 <structure name="finalpos" >
  <crystal>
   <varray name="basis" >
    <v>      30.00000000       0.00000000       0.00000000 </v>
    <v>       0.00000000      30.00000000       0.00000000 </v>
    <v>       0.00000000       0.00000000      30.00000000 </v>
   </varray>
   <i name="volume">  27000.00000000 </i>
   <varray name="rec_basis" >
    <v>       0.03333333       0.00000000       0.00000000 </v>
    <v>       0.00000000       0.03333333       0.00000000 </v>
    <v>       0.00000000       0.00000000       0.03333333 </v>
   </varray>
  </crystal>
  <varray name="positions" >
   <v>       0.44576020       0.32826710       0.41691983 </v>
   <v>       0.67173288       0.55423978       0.41691983 </v>
   <v>       0.55423980       0.32826710       0.41691983 </v>
   <v>       0.32826712       0.55423978       0.41691983 </v>
   <v>       0.50000000       0.38250690       0.34021317 </v>
   <v>       0.50000000       0.38250690       0.65978680 </v>
   <v>       0.50000000       0.27609440       0.50000000 </v>
   <v>       0.27609443       0.49999998       0.50000000 </v>
   <v>       0.72390557       0.49999998       0.50000000 </v>
   <v>       0.50000000       0.72390555       0.50000000 </v>
   <v>       0.61195280       0.38804720       0.34167483 </v>
   <v>       0.61195280       0.38804720       0.65832513 </v>
   <v>       0.38804722       0.61195278       0.34167483 </v>
   <v>       0.38804722       0.61195278       0.65832513 </v>
   <v>       0.38804720       0.38804720       0.34167483 </v>
   <v>       0.38804720       0.38804720       0.65832513 </v>
   <v>       0.61195278       0.61195278       0.34167483 </v>
   <v>       0.61195278       0.61195278       0.65832513 </v>
   <v>       0.44576020       0.32826710       0.58308023 </v>
   <v>       0.67173288       0.55423978       0.58308023 </v>
   <v>       0.55791699       0.44208301       0.41809300 </v>
   <v>       0.32826705       0.44576024       0.41691983 </v>
   <v>       0.55423973       0.67173293       0.41691983 </v>
   <v>       0.55423980       0.32826710       0.58308023 </v>
   <v>       0.32826712       0.55423978       0.58308023 </v>
   <v>       0.67173295       0.44576024       0.41691983 </v>
   <v>       0.44576027       0.67173293       0.41691983 </v>
   <v>       0.44208301       0.44208301       0.41809300 </v>
   <v>       0.50000000       0.38416601       0.50000000 </v>
   <v>       0.61749315       0.50000005       0.34021317 </v>
   <v>       0.61749315       0.50000005       0.65978680 </v>
   <v>       0.38250685       0.50000005       0.34021317 </v>
   <v>       0.38250685       0.50000005       0.65978680 </v>
   <v>       0.38317830       0.38317830       0.50000000 </v>
   <v>       0.61682172       0.61682172       0.50000000 </v>
   <v>       0.61682170       0.38317830       0.50000000 </v>
   <v>       0.38317828       0.61682172       0.50000000 </v>
   <v>       0.50000000       0.50000000       0.33478917 </v>
   <v>       0.50000000       0.50000000       0.66521087 </v>
   <v>       0.32826705       0.44576024       0.58308023 </v>
   <v>       0.55423973       0.67173293       0.58308023 </v>
   <v>       0.55791699       0.44208301       0.58190703 </v>
   <v>       0.44208298       0.55791702       0.41809300 </v>
   <v>       0.44208301       0.44208301       0.58190703 </v>
   <v>       0.67173295       0.44576024       0.58308023 </v>
   <v>       0.44576027       0.67173293       0.58308023 </v>
   <v>       0.55791702       0.55791702       0.41809300 </v>
   <v>       0.38416599       0.50000002       0.50000000 </v>
   <v>       0.61583401       0.50000002       0.50000000 </v>
   <v>       0.50000000       0.61749319       0.34021317 </v>
   <v>       0.50000000       0.61749319       0.65978680 </v>
   <v>       0.50000000       0.50000000       0.50000000 </v>
   <v>       0.44208298       0.55791702       0.58190703 </v>
   <v>       0.55791702       0.55791702       0.58190703 </v>
   <v>       0.50000000       0.61583404       0.50000000 </v>
   <v>       0.50410113       0.62767610       0.72225230 </v>
   <v>       0.50470267       0.64640310       0.75485133 </v>
  </varray>
  <varray name="selective"  type="logical" >
   <v type="logical" >  F  F  F </v>
   <v type="logical" >  F  F  F </v>
   <v type="logical" >  F  F  F </v>
   <v type="logical" >  F  F  F </v>
   <v type="logical" >  F  F  F </v>
   <v type="logical" >  F  F  F </v>
   <v type="logical" >  F  F  F </v>
   <v type="logical" >  F  F  F </v>
   <v type="logical" >  F  F  F </v>
   <v type="logical" >  F  F  F </v>
   <v type="logical" >  F  F  F </v>
   <v type="logical" >  F  F  F </v>
   <v type="logical" >  F  F  F </v>
   <v type="logical" >  F  F  F </v>
   <v type="logical" >  F  F  F </v>
   <v type="logical" >  F  F  F </v>
   <v type="logical" >  F  F  F </v>
   <v type="logical" >  F  F  F </v>
   <v type="logical" >  F  F  F </v>
   <v type="logical" >  F  F  F </v>
   <v type="logical" >  F  F  F </v>
   <v type="logical" >  F  F  F </v>
   <v type="logical" >  F  F  F </v>
   <v type="logical" >  F  F  F </v>
   <v type="logical" >  F  F  F </v>
   <v type="logical" >  F  F  F </v>
   <v type="logical" >  F  F  F </v>
   <v type="logical" >  F  F  F </v>
   <v type="logical" >  F  F  F </v>
   <v type="logical" >  F  F  F </v>
   <v type="logical" >  F  F  F </v>
   <v type="logical" >  F  F  F </v>
   <v type="logical" >  F  F  F </v>
   <v type="logical" >  F  F  F </v>
   <v type="logical" >  F  F  F </v>
   <v type="logical" >  F  F  F </v>
   <v type="logical" >  F  F  F </v>
   <v type="logical" >  F  F  F </v>
   <v type="logical" >  F  F  F </v>
   <v type="logical" >  F  F  F </v>
   <v type="logical" >  F  F  F </v>
   <v type="logical" >  F  F  F </v>
   <v type="logical" >  F  F  F </v>
   <v type="logical" >  F  F  F </v>
   <v type="logical" >  F  F  F </v>
   <v type="logical" >  F  F  F </v>
   <v type="logical" >  F  F  F </v>
   <v type="logical" >  F  F  F </v>
   <v type="logical" >  F  F  F </v>
   <v type="logical" >  F  F  F </v>
   <v type="logical" >  F  F  F </v>
   <v type="logical" >  F  F  F </v>
   <v type="logical" >  F  F  F </v>
   <v type="logical" >  F  F  F </v>
   <v type="logical" >  F  F  F </v>
   <v type="logical" >  F  F  F </v>
   <v type="logical" >  F  F  F </v>
  </varray>
  <nose>
   <v>      -3.00000000       0.00000000       0.00010000       0.00010000 </v>
  </nose>
 </structure>
</modeling>
