 vasp.5.4.4.18Apr17-6-g9f103f2a35 (build Sep 03 2018 23:53:05) complex          
  
 executed on             LinuxIFC date 2021.11.26  11:02:39
 running on    1 total cores
 distrk:  each k-point on    1 cores,    1 groups
 distr:  one band on NCORES_PER_BAND=   1 cores,    1 groups


--------------------------------------------------------------------------------------------------------


 INCAR:
 POTCAR:    PAW_PBE Pd 04Jan2005                  
 POTCAR:    PAW_PBE C 08Apr2002                   
 POTCAR:    PAW_PBE O 08Apr2002                   
 POTCAR:    PAW_PBE Pd 04Jan2005                  
   VRHFIN =Pd : s1 d9                                                           
   LEXCH  = PE                                                                  
   EATOM  =   809.7530 eV,   59.5152 Ry                                         
                                                                                
   TITEL  = PAW_PBE Pd 04Jan2005                                                
   LULTRA =        F    use ultrasoft PP ?                                      
   IUNSCR =        1    unscreen: 0-lin 1-nonlin 2-no                           
   RPACOR =    2.000    partial core radius                                     
   POMASS =  106.420; ZVAL   =   10.000    mass and valenz                      
   RCORE  =    2.600    outmost cutoff radius                                   
   RWIGS  =    2.710; RWIGS  =    1.434    wigner-seitz radius (au A)           
   ENMAX  =  250.925; ENMIN  =  188.194 eV                                      
   ICORE  =        3    local potential                                         
   LCOR   =        T    correct aug charges                                     
   LPAW   =        T    paw PP                                                  
   EAUG   =  416.230                                                            
   DEXC   =    0.000                                                            
   RMAX   =    2.653    core radius for proj-oper                               
   RAUG   =    1.300    factor for augmentation sphere                          
   RDEP   =    2.734    radius for radial grids                                 
   RDEPT  =    2.103    core radius for aug-charge                              
                                                                                
   Atomic configuration                                                         
   12 entries                                                                   
     n  l   j            E        occ.                                          
     1  0  0.50    -24164.6631   2.0000                                         
     2  0  0.50     -3530.9218   2.0000                                         
     2  1  1.50     -3165.6822   6.0000                                         
     3  0  0.50      -639.4577   2.0000                                         
     3  1  1.50      -519.4532   6.0000                                         
     3  2  2.50      -328.9757  10.0000                                         
     4  0  0.50       -88.7014   2.0000                                         
     4  1  1.50       -54.4540   6.0000                                         
     4  2  2.50        -6.6878   9.0000                                         
     5  0  0.50        -4.3543   1.0000                                         
     5  1  0.50        -1.3606   0.0000                                         
     4  3  2.50        -1.3606   0.0000                                         
   Description                                                                  
     l       E           TYP  RCUT    TYP  RCUT                                 
     2     -6.6878251     23  2.400                                             
     2     -8.0484077     23  2.400                                             
     0     -4.3542939     23  2.400                                             
     0      4.3406793     23  2.400                                             
     1     -4.0817478     23  2.600                                             
     1     15.8380318     23  2.600                                             
     3     -4.0817478     23  2.400                                             
  local pseudopotential read in
  partial core-charges read in
  partial kinetic energy density read in
  atomic valenz-charges read in
  non local Contribution for L=           2  read in
    real space projection operators read in
  non local Contribution for L=           2  read in
    real space projection operators read in
  non local Contribution for L=           0  read in
    real space projection operators read in
  non local Contribution for L=           0  read in
    real space projection operators read in
  non local Contribution for L=           1  read in
    real space projection operators read in
  non local Contribution for L=           1  read in
    real space projection operators read in
    PAW grid and wavefunctions read in
 
   number of l-projection  operators is LMAX  =           6
   number of lm-projection operators is LMMAX =          18
 
 POTCAR:    PAW_PBE C 08Apr2002                   
   VRHFIN =C: s2p2                                                              
   LEXCH  = PE                                                                  
   EATOM  =   147.1560 eV,   10.8157 Ry                                         
                                                                                
   TITEL  = PAW_PBE C 08Apr2002                                                 
   LULTRA =        F    use ultrasoft PP ?                                      
   IUNSCR =        1    unscreen: 0-lin 1-nonlin 2-no                           
   RPACOR =    1.200    partial core radius                                     
   POMASS =   12.011; ZVAL   =    4.000    mass and valenz                      
   RCORE  =    1.500    outmost cutoff radius                                   
   RWIGS  =    1.630; RWIGS  =    0.863    wigner-seitz radius (au A)           
   ENMAX  =  400.000; ENMIN  =  300.000 eV                                      
   ICORE  =        2    local potential                                         
   LCOR   =        T    correct aug charges                                     
   LPAW   =        T    paw PP                                                  
   EAUG   =  644.873                                                            
   DEXC   =    0.000                                                            
   RMAX   =    1.529    core radius for proj-oper                               
   RAUG   =    1.300    factor for augmentation sphere                          
   RDEP   =    1.501    radius for radial grids                                 
   RDEPT  =    1.300    core radius for aug-charge                              
                                                                                
   Atomic configuration                                                         
    4 entries                                                                   
     n  l   j            E        occ.                                          
     1  0  0.50      -273.3789   2.0000                                         
     2  0  0.50       -13.7508   2.0000                                         
     2  1  0.50        -5.2854   2.0000                                         
     3  2  1.50        -5.4423   0.0000                                         
   Description                                                                  
     l       E           TYP  RCUT    TYP  RCUT                                 
     0    -13.7508458     23  1.200                                             
     0     -8.2022199     23  1.200                                             
     1     -5.2854383     23  1.500                                             
     1     34.0145650     23  1.500                                             
     2     -5.4423304      7  1.500                                             
  local pseudopotential read in
  partial core-charges read in
  partial kinetic energy density read in
  atomic valenz-charges read in
  non local Contribution for L=           0  read in
    real space projection operators read in
  non local Contribution for L=           0  read in
    real space projection operators read in
  non local Contribution for L=           1  read in
    real space projection operators read in
  non local Contribution for L=           1  read in
    real space projection operators read in
    PAW grid and wavefunctions read in
 
   number of l-projection  operators is LMAX  =           4
   number of lm-projection operators is LMMAX =           8
 
 POTCAR:    PAW_PBE O 08Apr2002                   
   VRHFIN =O: s2p4                                                              
   LEXCH  = PE                                                                  
   EATOM  =   432.3788 eV,   31.7789 Ry                                         
                                                                                
   TITEL  = PAW_PBE O 08Apr2002                                                 
   LULTRA =        F    use ultrasoft PP ?                                      
   IUNSCR =        1    unscreen: 0-lin 1-nonlin 2-no                           
   RPACOR =    1.200    partial core radius                                     
   POMASS =   16.000; ZVAL   =    6.000    mass and valenz                      
   RCORE  =    1.520    outmost cutoff radius                                   
   RWIGS  =    1.550; RWIGS  =    0.820    wigner-seitz radius (au A)           
   ENMAX  =  400.000; ENMIN  =  300.000 eV                                      
   ICORE  =        2    local potential                                         
   LCOR   =        T    correct aug charges                                     
   LPAW   =        T    paw PP                                                  
   EAUG   =  605.392                                                            
   DEXC   =    0.000                                                            
   RMAX   =    1.553    core radius for proj-oper                               
   RAUG   =    1.300    factor for augmentation sphere                          
   RDEP   =    1.550    radius for radial grids                                 
   RDEPT  =    1.329    core radius for aug-charge                              
                                                                                
   Atomic configuration                                                         
    4 entries                                                                   
     n  l   j            E        occ.                                          
     1  0  0.50      -514.6923   2.0000                                         
     2  0  0.50       -23.9615   2.0000                                         
     2  1  0.50        -9.0305   4.0000                                         
     3  2  1.50        -9.5241   0.0000                                         
   Description                                                                  
     l       E           TYP  RCUT    TYP  RCUT                                 
     0    -23.9615318     23  1.200                                             
     0     -9.5240782     23  1.200                                             
     1     -9.0304911     23  1.520                                             
     1      8.1634956     23  1.520                                             
     2     -9.5240782      7  1.500                                             
  local pseudopotential read in
  partial core-charges read in
  partial kinetic energy density read in
  kinetic energy density of atom read in
  atomic valenz-charges read in
  non local Contribution for L=           0  read in
    real space projection operators read in
  non local Contribution for L=           0  read in
    real space projection operators read in
  non local Contribution for L=           1  read in
    real space projection operators read in
  non local Contribution for L=           1  read in
    real space projection operators read in
    PAW grid and wavefunctions read in
 
   number of l-projection  operators is LMAX  =           4
   number of lm-projection operators is LMMAX =           8
 
 Optimization of the real space projectors (new method)

 maximal supplied QI-value         = 14.36
 optimisation between [QCUT,QGAM] = [ 10.20, 20.39] = [ 29.12,116.47] Ry 
 Optimized for a Real-space Cutoff    1.51 Angstroem

   l    n(q)    QCUT    max X(q) W(low)/X(q) W(high)/X(q)  e(spline) 
   2      8    10.197    59.108    0.26E-03    0.14E-03    0.96E-07
   2      8    10.197    58.101    0.27E-03    0.14E-03    0.98E-07
   0      9    10.197   102.235    0.54E-04    0.60E-05    0.72E-07
   0      9    10.197    58.388    0.52E-04    0.60E-05    0.68E-07
   1      9    10.197    22.191    0.18E-03    0.25E-03    0.79E-07
   1      9    10.197    15.590    0.15E-03    0.21E-03    0.69E-07
 Optimization of the real space projectors (new method)

 maximal supplied QI-value         = 25.13
 optimisation between [QCUT,QGAM] = [ 10.05, 20.36] = [ 28.30,116.06] Ry 
 Optimized for a Real-space Cutoff    1.30 Angstroem

   l    n(q)    QCUT    max X(q) W(low)/X(q) W(high)/X(q)  e(spline) 
   0      8    10.053   115.676    0.49E-03    0.72E-03    0.18E-06
   0      8    10.053    87.132    0.49E-03    0.71E-03    0.18E-06
   1      7    10.053     4.429    0.32E-03    0.31E-03    0.18E-06
   1      7    10.053     2.733    0.23E-03    0.19E-03    0.20E-06
 Optimization of the real space projectors (new method)

 maximal supplied QI-value         = 24.76
 optimisation between [QCUT,QGAM] = [ 10.15, 20.30] = [ 28.85,115.39] Ry 
 Optimized for a Real-space Cutoff    1.38 Angstroem

   l    n(q)    QCUT    max X(q) W(low)/X(q) W(high)/X(q)  e(spline) 
   0      8    10.150    20.381    0.22E-03    0.32E-03    0.29E-06
   0      8    10.150    15.268    0.23E-03    0.35E-03    0.30E-06
   1      8    10.150     5.964    0.46E-03    0.53E-03    0.21E-06
   1      8    10.150     5.382    0.38E-03    0.45E-03    0.19E-06

 ----------------------------------------------------------------------------- 
|                                                                             |
|  ADVICE TO THIS USER RUNNING 'VASP/VAMP'   (HEAR YOUR MASTER'S VOICE ...):  |
|                                                                             |
|      You enforced a specific xc-type in the INCAR file,                     |
|      a different type was found on the POTCAR file                          |
|          I HOPE YOU KNOW, WHAT YOU ARE  DOING                               |
|                                                                             |
 ----------------------------------------------------------------------------- 

  PAW_PBE Pd 04Jan2005                  :
 energy of atom  1       EATOM= -809.7530
 kinetic energy error for atom=    0.0091 (will be added to EATOM!!)
  PAW_PBE C 08Apr2002                   :
 energy of atom  2       EATOM= -147.1560
 kinetic energy error for atom=    0.0288 (will be added to EATOM!!)
  PAW_PBE O 08Apr2002                   :
 energy of atom  3       EATOM= -432.3788
 kinetic energy error for atom=    0.1156 (will be added to EATOM!!)
 
 
 POSCAR: Pd55PES                                 
  positions in cartesian coordinates
  No initial velocities read in
 exchange correlation table for  LEXCH =        9
   RHO(1)=    0.500       N(1)  =     2000
   RHO(2)=  100.500       N(2)  =     4000
 


--------------------------------------------------------------------------------------------------------


 ion  position               nearest neighbor table
   1  0.446  0.328  0.417-   3 3.25   5 3.25   7 3.36  15 3.36  29 3.42  28 3.42
   2  0.672  0.554  0.417-  26 3.25  30 3.25  17 3.36   9 3.36  47 3.42  49 3.42
   3  0.554  0.328  0.417-   1 3.25   5 3.25   7 3.36  11 3.36  29 3.42  21 3.42
   4  0.328  0.554  0.417-  32 3.25  22 3.25  13 3.36   8 3.36  43 3.42  48 3.42
   5  0.500  0.383  0.340-   1 3.25   3 3.25  11 3.36  15 3.36  21 3.42  28 3.42
   6  0.500  0.383  0.660-  24 3.25  19 3.25  16 3.36  12 3.36  42 3.42  44 3.42
   7  0.500  0.276  0.500-  56 2.68  29 3.24   1 3.36   3 3.36  19 3.36  24 3.36
   8  0.276  0.500  0.500-  48 3.24  22 3.36  40 3.36   4 3.36  25 3.36
   9  0.724  0.500  0.500-  49 3.24  26 3.36  45 3.36   2 3.36  20 3.36
  10  0.500  0.724  0.500-  55 3.24  27 3.36  23 3.36  46 3.36  41 3.36
  11  0.612  0.388  0.342-  21 3.24   5 3.36   3 3.36  30 3.36  26 3.36
  12  0.612  0.388  0.658-  42 3.24  24 3.36  45 3.36   6 3.36  31 3.36
  13  0.388  0.612  0.342-  43 3.24  32 3.36  50 3.36   4 3.36  27 3.36
  14  0.388  0.612  0.658-  53 3.24  25 3.36  33 3.36  51 3.36  46 3.36
  15  0.388  0.388  0.342-  28 3.24   5 3.36   1 3.36  32 3.36  22 3.36
  16  0.388  0.388  0.658-  44 3.24  19 3.36  40 3.36   6 3.36  33 3.36
  17  0.612  0.612  0.342-  47 3.24  30 3.36  50 3.36   2 3.36  23 3.36
  18  0.612  0.612  0.658-  54 3.24  31 3.36  20 3.36  51 3.36  41 3.36
  19  0.446  0.328  0.583-   6 3.25  24 3.25  16 3.36   7 3.36  44 3.42  29 3.42
  20  0.672  0.554  0.583-  31 3.25  45 3.25  18 3.36   9 3.36  54 3.42  49 3.42
  21  0.558  0.442  0.418-  11 3.24   5 3.42   3 3.42  30 3.42  26 3.42
  22  0.328  0.446  0.417-   4 3.25  32 3.25   8 3.36  15 3.36  48 3.42  28 3.42
  23  0.554  0.672  0.417-  27 3.25  50 3.25  10 3.36  17 3.36  55 3.42  47 3.42
  24  0.554  0.328  0.583-   6 3.25  19 3.25  12 3.36   7 3.36  42 3.42  29 3.42
  25  0.328  0.554  0.583-  33 3.25  40 3.25  14 3.36   8 3.36  53 3.42  48 3.42
  26  0.672  0.446  0.417-   2 3.25  30 3.25   9 3.36  11 3.36  49 3.42  21 3.42
  27  0.446  0.672  0.417-  23 3.25  50 3.25  10 3.36  13 3.36  55 3.42  43 3.42
  28  0.442  0.442  0.418-  15 3.24   5 3.42   1 3.42  32 3.42  22 3.42
  29  0.500  0.384  0.500-   7 3.24   3 3.42   1 3.42  24 3.42  19 3.42
  30  0.617  0.500  0.340-   2 3.25  26 3.25  17 3.36  11 3.36  47 3.42  21 3.42
  31  0.617  0.500  0.660-  20 3.25  45 3.25  18 3.36  12 3.36  54 3.42  42 3.42
  32  0.383  0.500  0.340-   4 3.25  22 3.25  13 3.36  15 3.36  43 3.42  28 3.42
  33  0.383  0.500  0.660-  25 3.25  40 3.25  14 3.36  16 3.36  53 3.42  44 3.42
  34  0.383  0.383  0.500-
  35  0.617  0.617  0.500-
  36  0.617  0.383  0.500-
  37  0.383  0.617  0.500-
  38  0.500  0.500  0.335-
  39  0.500  0.500  0.665-
  40  0.328  0.446  0.583-  33 3.25  25 3.25  16 3.36   8 3.36  44 3.42  48 3.42
  41  0.554  0.672  0.583-  46 3.25  51 3.25  10 3.36  18 3.36  54 3.42  55 3.42
  42  0.558  0.442  0.582-  12 3.24   6 3.42  24 3.42  31 3.42  45 3.42
  43  0.442  0.558  0.418-  13 3.24   4 3.42  32 3.42  27 3.42  50 3.42
  44  0.442  0.442  0.582-  16 3.24   6 3.42  19 3.42  33 3.42  40 3.42
  45  0.672  0.446  0.583-  20 3.25  31 3.25   9 3.36  12 3.36  49 3.42  42 3.42
  46  0.446  0.672  0.583-  41 3.25  51 3.25  10 3.36  14 3.36  53 3.42  55 3.42
  47  0.558  0.558  0.418-  17 3.24   2 3.42  30 3.42  23 3.42  50 3.42
  48  0.384  0.500  0.500-   8 3.24   4 3.42  22 3.42  25 3.42  40 3.42
  49  0.616  0.500  0.500-   9 3.24   2 3.42  26 3.42  20 3.42  45 3.42
  50  0.500  0.617  0.340-  27 3.25  23 3.25  13 3.36  17 3.36  43 3.42  47 3.42
  51  0.500  0.617  0.660-  41 3.25  46 3.25  14 3.36  18 3.36  53 3.42  54 3.42
  52  0.500  0.500  0.500-
  53  0.442  0.558  0.582-  14 3.24  25 3.42  33 3.42  51 3.42  46 3.42
  54  0.558  0.558  0.582-  18 3.24  31 3.42  20 3.42  51 3.42  41 3.42
  55  0.500  0.616  0.500-  10 3.24  23 3.42  27 3.42  41 3.42  46 3.42
  56  0.443  0.207  0.493-  57 1.13   7 2.68
  57  0.436  0.171  0.492-  56 1.13
 
  LATTYP: Found a simple cubic cell.
 ALAT       =    30.0000000000
  
  Lattice vectors:
  
 A1 = (  30.0000000000,   0.0000000000,   0.0000000000)
 A2 = (   0.0000000000,  30.0000000000,   0.0000000000)
 A3 = (   0.0000000000,   0.0000000000,  30.0000000000)


Analysis of symmetry for initial positions (statically):
=====================================================================
 Subroutine PRICEL returns:
 Original cell was already a primitive cell.
 

 Routine SETGRP: Setting up the symmetry group for a 
 simple cubic supercell.


 Subroutine GETGRP returns: Found  1 space group operations
 (whereof  1 operations were pure point group operations)
 out of a pool of 48 trial point group operations.


The static configuration has the point symmetry C_1 .


Analysis of symmetry for dynamics (positions and initial velocities):
=====================================================================
 Subroutine PRICEL returns:
 Original cell was already a primitive cell.
 

 Routine SETGRP: Setting up the symmetry group for a 
 simple cubic supercell.


 Subroutine GETGRP returns: Found  1 space group operations
 (whereof  1 operations were pure point group operations)
 out of a pool of 48 trial point group operations.


The dynamic configuration has the point symmetry C_1 .


Analysis of constrained symmetry for selective dynamics:
=====================================================================
 Subroutine PRICEL returns:
 Original cell was already a primitive cell.
 

 Routine SETGRP: Setting up the symmetry group for a 
 simple cubic supercell.


 Subroutine GETGRP returns: Found  1 space group operations
 (whereof  1 operations were pure point group operations)
 out of a pool of 48 trial point group operations.


The constrained configuration has the point symmetry C_1 .


 Subroutine INISYM returns: Found  1 space group operations
 (whereof  1 operations are pure point group operations),
 and found     1 'primitive' translations

 
 
 KPOINTS: K-points                                

Automatic generation of k-mesh.
Space group operators:
 irot       det(A)        alpha          n_x          n_y          n_z        tau_x        tau_y        tau_z
    1     1.000000     0.000000     1.000000     0.000000     0.000000     0.000000     0.000000     0.000000
 
 Subroutine IBZKPT returns following result:
 ===========================================
 
 Found      1 irreducible k-points:
 
 Following reciprocal coordinates:
            Coordinates               Weight
  0.000000  0.000000  0.000000      1.000000
 
 Following cartesian coordinates:
            Coordinates               Weight
  0.000000  0.000000  0.000000      1.000000
 


--------------------------------------------------------------------------------------------------------




 Dimension of arrays:
   k-points           NKPTS =      1   k-points in BZ     NKDIM =      1   number of bands    NBANDS=    336
   number of dos      NEDOS =    301   number of ions     NIONS =     57
   non local maximal  LDIM  =      6   non local SUM 2l+1 LMDIM =     18
   total plane-waves  NPLWV = ******
   max r-space proj   IRMAX =   1847   max aug-charges    IRDMAX=   6262
   dimension x,y,z NGX =   150 NGY =  150 NGZ =  150
   dimension x,y,z NGXF=   300 NGYF=  300 NGZF=  300
   support grid    NGXF=   300 NGYF=  300 NGZF=  300
   ions per type =              55   1   1
   NGX,Y,Z   is equivalent  to a cutoff of   8.31,  8.31,  8.31 a.u.
   NGXF,Y,Z  is equivalent  to a cutoff of  16.62, 16.62, 16.62 a.u.

 SYSTEM =  6_Pd100_top_free_z(O)                   
 POSCAR =  Pd55PES                                 

 Startparameter for this run:
   NWRITE =      2    write-flag & timer
   PREC   = normal    normal or accurate (medium, high low for compatibility)
   ISTART =      0    job   : 0-new  1-cont  2-samecut
   ICHARG =      2    charge: 1-file 2-atom 10-const
   ISPIN  =      1    spin polarized calculation?
   LNONCOLLINEAR =      F non collinear calculations
   LSORBIT =      F    spin-orbit coupling
   INIWAV =      1    electr: 0-lowe 1-rand  2-diag
   LASPH  =      F    aspherical Exc in radial PAW
   METAGGA=      F    non-selfconsistent MetaGGA calc.

 Electronic Relaxation 1
   ENCUT  =  400.0 eV  29.40 Ry    5.42 a.u.  48.92 48.92 48.92*2*pi/ulx,y,z
   ENINI  =  400.0     initial cutoff
   ENAUG  =  644.9 eV  augmentation charge cutoff
   NELM   =    100;   NELMIN=  6; NELMDL= -5     # of ELM steps 
   EDIFF  = 0.1E-03   stopping-criterion for ELM
   LREAL  =      T    real-space projection
   NLSPLINE    = F    spline interpolate recip. space projectors
   LCOMPAT=      F    compatible to vasp.4.4
   GGA_COMPAT  = T    GGA compatible to vasp.4.4-vasp.4.6
   LMAXPAW     = -100 max onsite density
   LMAXMIX     =    2 max onsite mixed and CHGCAR
   VOSKOWN=      0    Vosko Wilk Nusair interpolation
   ROPT   =   -0.00050  -0.00050  -0.00050
 Ionic relaxation
   EDIFFG = -.5E-01   stopping-criterion for IOM
   NSW    =      0    number of steps for IOM
   NBLOCK =      1;   KBLOCK =      1    inner block; outer block 
   IBRION =     -1    ionic relax: 0-MD 1-quasi-New 2-CG
   NFREE  =      1    steps in history (QN), initial steepest desc. (CG)
   ISIF   =      2    stress and relaxation
   IWAVPR =     10    prediction:  0-non 1-charg 2-wave 3-comb
   ISYM   =      2    0-nonsym 1-usesym 2-fastsym
   LCORR  =      T    Harris-Foulkes like correction to forces

   POTIM  = 0.5000    time-step for ionic-motion
   TEIN   =    0.0    initial temperature
   TEBEG  =    0.0;   TEEND  =   0.0 temperature during run
   SMASS  =  -3.00    Nose mass-parameter (am)
   estimated Nose-frequenzy (Omega)   =  0.10E-29 period in steps =****** mass=  -0.206E-25a.u.
   SCALEE = 1.0000    scale energy and forces
   NPACO  =    256;   APACO  = 16.0  distance and # of slots for P.C.
   PSTRESS=    0.0 pullay stress

  Mass of Ions in am
   POMASS = 106.42 12.01 16.00
  Ionic Valenz
   ZVAL   =  10.00  4.00  6.00
  Atomic Wigner-Seitz radii
   RWIGS  =  -1.00 -1.00 -1.00
  virtual crystal weights 
   VCA    =   1.00  1.00  1.00
   NELECT =     560.0000    total number of electrons
   NUPDOWN=      -1.0000    fix difference up-down

 DOS related values:
   EMIN   =  10.00;   EMAX   =-10.00  energy-range for DOS
   EFERMI =   0.00
   ISMEAR =     2;   SIGMA  =   0.20  broadening in eV -4-tet -1-fermi 0-gaus

 Electronic relaxation 2 (details)
   IALGO  =     68    algorithm
   LDIAG  =      T    sub-space diagonalisation (order eigenvalues)
   LSUBROT=      F    optimize rotation matrix (better conditioning)
   TURBO    =      0    0=normal 1=particle mesh
   IRESTART =      0    0=no restart 2=restart with 2 vectors
   NREBOOT  =      0    no. of reboots
   NMIN     =      0    reboot dimension
   EREF     =   0.00    reference energy to select bands
   IMIX   =      4    mixing-type and parameters
     AMIX     =   0.40;   BMIX     =  1.00
     AMIX_MAG =   1.60;   BMIX_MAG =  1.00
     AMIN     =   0.10
     WC   =   100.;   INIMIX=   1;  MIXPRE=   1;  MAXMIX= -45

 Intra band minimization:
   WEIMIN = 0.0000     energy-eigenvalue tresh-hold
   EBREAK =  0.74E-07  absolut break condition
   DEPER  =   0.30     relativ break condition  

   TIME   =   0.40     timestep for ELM

  volume/ion in A,a.u.               =     473.68      3196.58
  Fermi-wavevector in a.u.,A,eV,Ry     =   0.449797  0.849992  2.752691  0.202317
  Thomas-Fermi vector in A             =   1.430086
 
 Write flags
   LWAVE        =      F    write WAVECAR
   LDOWNSAMPLE  =      F    k-point downsampling of WAVECAR
   LCHARG       =      F    write CHGCAR
   LVTOT        =      F    write LOCPOT, total local potential
   LVHAR        =      F    write LOCPOT, Hartree potential only
   LELF         =      F    write electronic localiz. function (ELF)
   LORBIT       =      0    0 simple, 1 ext, 2 COOP (PROOUT), +10 PAW based schemes


 Dipole corrections
   LMONO  =      F    monopole corrections only (constant potential shift)
   LDIPOL =      F    correct potential (dipole corrections)
   IDIPOL =      0    1-x, 2-y, 3-z, 4-all directions 
   EPSILON=  1.0000000 bulk dielectric constant

 Exchange correlation treatment:
   GGA     =    RP    GGA type
   LEXCH   =     9    internal setting for exchange type
   VOSKOWN=      0    Vosko Wilk Nusair interpolation
   LHFCALC =     F    Hartree Fock is set to
   LHFONE  =     F    Hartree Fock one center treatment
   AEXX    =    0.0000 exact exchange contribution

 Linear response parameters
   LEPSILON=     F    determine dielectric tensor
   LRPA    =     F    only Hartree local field effects (RPA)
   LNABLA  =     F    use nabla operator in PAW spheres
   LVEL    =     F    velocity operator in full k-point grid
   LINTERFAST=   F  fast interpolation
   KINTER  =     0    interpolate to denser k-point grid
   CSHIFT  =0.1000    complex shift for real part using Kramers Kronig
   OMEGAMAX=  -1.0    maximum frequency
   DEG_THRESHOLD= 0.2000000E-02 threshold for treating states as degnerate
   RTIME   =   -0.100 relaxation time in fs
  (WPLASMAI=    0.000 imaginary part of plasma frequency in eV, 0.658/RTIME)
   DFIELD  = 0.0000000 0.0000000 0.0000000 field for delta impulse in time
 
 Orbital magnetization related:
   ORBITALMAG=     F  switch on orbital magnetization
   LCHIMAG   =     F  perturbation theory with respect to B field
   DQ        =  0.001000  dq finite difference perturbation B field
   LLRAUG    =     F  two centre corrections for induced B field



--------------------------------------------------------------------------------------------------------


 Static calculation
 charge density and potential will be updated during run
 non-spin polarized calculation
 RMM-DIIS sequential band-by-band and
  variant of blocked Davidson during initial phase
 perform sub-space diagonalisation
    before iterative eigenvector-optimisation
 modified Broyden-mixing scheme, WC =      100.0
 initial mixing is a Kerker type mixing with AMIX =  0.4000 and BMIX =      1.0000
 Hartree-type preconditioning will be used
 using additional bands           56
 real space projection scheme for non local part
 use partial core corrections
 calculate Harris-corrections to forces 
   (improved forces if not selfconsistent)
 use gradient corrections 
 use of overlap-Matrix (Vanderbilt PP)
 Methfessel and Paxton  Order N= 2 SIGMA  =   0.20


--------------------------------------------------------------------------------------------------------


  energy-cutoff  :      400.00
  volume of cell :    27000.00
      direct lattice vectors                 reciprocal lattice vectors
    30.000000000  0.000000000  0.000000000     0.033333333  0.000000000  0.000000000
     0.000000000 30.000000000  0.000000000     0.000000000  0.033333333  0.000000000
     0.000000000  0.000000000 30.000000000     0.000000000  0.000000000  0.033333333

  length of vectors
    30.000000000 30.000000000 30.000000000     0.033333333  0.033333333  0.033333333


 
 k-points in units of 2pi/SCALE and weight: K-points                                
   0.00000000  0.00000000  0.00000000       1.000
 
 k-points in reciprocal lattice and weights: K-points                                
   0.00000000  0.00000000  0.00000000       1.000
 
 position of ions in fractional coordinates (direct lattice) 
   0.44576020  0.32826710  0.41691983
   0.67173288  0.55423978  0.41691983
   0.55423980  0.32826710  0.41691983
   0.32826712  0.55423978  0.41691983
   0.50000000  0.38250690  0.34021317
   0.50000000  0.38250690  0.65978680
   0.50000000  0.27609440  0.50000000
   0.27609443  0.49999998  0.50000000
   0.72390557  0.49999998  0.50000000
   0.50000000  0.72390555  0.50000000
   0.61195280  0.38804720  0.34167483
   0.61195280  0.38804720  0.65832513
   0.38804722  0.61195278  0.34167483
   0.38804722  0.61195278  0.65832513
   0.38804720  0.38804720  0.34167483
   0.38804720  0.38804720  0.65832513
   0.61195278  0.61195278  0.34167483
   0.61195278  0.61195278  0.65832513
   0.44576020  0.32826710  0.58308023
   0.67173288  0.55423978  0.58308023
   0.55791699  0.44208301  0.41809300
   0.32826705  0.44576024  0.41691983
   0.55423973  0.67173293  0.41691983
   0.55423980  0.32826710  0.58308023
   0.32826712  0.55423978  0.58308023
   0.67173295  0.44576024  0.41691983
   0.44576027  0.67173293  0.41691983
   0.44208301  0.44208301  0.41809300
   0.50000000  0.38416601  0.50000000
   0.61749315  0.50000005  0.34021317
   0.61749315  0.50000005  0.65978680
   0.38250685  0.50000005  0.34021317
   0.38250685  0.50000005  0.65978680
   0.38317830  0.38317830  0.50000000
   0.61682172  0.61682172  0.50000000
   0.61682170  0.38317830  0.50000000
   0.38317828  0.61682172  0.50000000
   0.50000000  0.50000000  0.33478917
   0.50000000  0.50000000  0.66521087
   0.32826705  0.44576024  0.58308023
   0.55423973  0.67173293  0.58308023
   0.55791699  0.44208301  0.58190703
   0.44208298  0.55791702  0.41809300
   0.44208301  0.44208301  0.58190703
   0.67173295  0.44576024  0.58308023
   0.44576027  0.67173293  0.58308023
   0.55791702  0.55791702  0.41809300
   0.38416599  0.50000002  0.50000000
   0.61583401  0.50000002  0.50000000
   0.50000000  0.61749319  0.34021317
   0.50000000  0.61749319  0.65978680
   0.50000000  0.50000000  0.50000000
   0.44208298  0.55791702  0.58190703
   0.55791702  0.55791702  0.58190703
   0.50000000  0.61583404  0.50000000
   0.44347480  0.20747923  0.49285190
   0.43634320  0.17057277  0.49195003
 
 position of ions in cartesian coordinates  (Angst):
  13.37280588  9.84801292 12.50759500
  20.15198637 16.62719342 12.50759500
  16.62719412  9.84801292 12.50759500
   9.84801363 16.62719342 12.50759500
  15.00000000 11.47520705 10.20639500
  15.00000000 11.47520705 19.79360400
  15.00000000  8.28283206 15.00000000
   8.28283277 14.99999929 15.00000000
  21.71716723 14.99999929 15.00000000
  15.00000000 21.71716652 14.99999999
  18.35858397 11.64141603 10.25024500
  18.35858397 11.64141603 19.74975399
  11.64141674 18.35858326 10.25024500
  11.64141674 18.35858326 19.74975400
  11.64141603 11.64141603 10.25024500
  11.64141603 11.64141603 19.74975400
  18.35858326 18.35858326 10.25024500
  18.35858326 18.35858326 19.74975400
  13.37280588  9.84801291 17.49240700
  20.15198638 16.62719341 17.49240700
  16.73750985 13.26249015 12.54279000
   9.84801151 13.37280729 12.50759500
  16.62719200 20.15198779 12.50759500
  16.62719412  9.84801292 17.49240700
   9.84801363 16.62719342 17.49240700
  20.15198849 13.37280729 12.50759500
  13.37280800 20.15198779 12.50759500
  13.26249015 13.26249015 12.54279000
  15.00000000 11.52498029 15.00000000
  18.52479437 15.00000140 10.20639500
  18.52479437 15.00000141 19.79360400
  11.47520562 15.00000141 10.20639501
  11.47520563 15.00000141 19.79360400
  11.49534898 11.49534898 15.00000000
  18.50465172 18.50465172 15.00000000
  18.50465102 11.49534898 15.00000000
  11.49534828 18.50465172 15.00000000
  15.00000000 15.00000000 10.04367500
  15.00000000 15.00000000 19.95632599
   9.84801151 13.37280729 17.49240700
  16.62719200 20.15198779 17.49240700
  16.73750985 13.26249015 17.45721100
  13.26248944 16.73751056 12.54279001
  13.26249015 13.26249015 17.45721100
  20.15198849 13.37280729 17.49240699
  13.37280800 20.15198779 17.49240700
  16.73751056 16.73751056 12.54279000
  11.52497959 15.00000071 15.00000000
  18.47502041 15.00000071 15.00000000
  14.99999999 18.52479579 10.20639500
  15.00000000 18.52479578 19.79360400
  15.00000000 15.00000000 15.00000000
  13.26248944 16.73751057 17.45721101
  16.73751056 16.73751057 17.45721100
  15.00000000 18.47502112 15.00000000
  13.30424400  6.22437700 14.78555700
  13.09029600  5.11718300 14.75850100
 


--------------------------------------------------------------------------------------------------------


 k-point  1 :   0.0000 0.0000 0.0000  plane waves:  490521

 maximum and minimum number of plane-waves per node :    490521   490521

 maximum number of plane-waves:    490521
 maximum index in each direction: 
   IXMAX=   48   IYMAX=   48   IZMAX=   48
   IXMIN=  -48   IYMIN=  -48   IZMIN=  -48


 serial   3D FFT for wavefunctions
 parallel 3D FFT for charge:
    minimum data exchange during FFTs selected (reduces bandwidth)


 total amount of memory used by VASP MPI-rank0  5486942. kBytes
=======================================================================

   base      :      30000. kBytes
   nonlr-proj:      17127. kBytes
   fftplans  :     924480. kBytes
   grid      :    1872000. kBytes
   one-center:        886. kBytes
   wavefun   :    2642449. kBytes
 
     INWAV:  cpu time    0.0002: real time    0.0006
 Broyden mixing: mesh for mixing (old mesh)
   NGX = 97   NGY = 97   NGZ = 97
  (NGX  =300   NGY  =300   NGZ  =300)
  gives a total of 912673 points

 initial charge density was supplied:
 charge density of overlapping atoms calculated
 number of electron     560.0000000 magnetization 
 keeping initial charge density in first step


--------------------------------------------------------------------------------------------------------


 Maximum index for non-local projection operator         1763
 Maximum index for augmentation-charges         5898 (set IRDMAX)


--------------------------------------------------------------------------------------------------------


 First call to EWALD:  gamma=   0.059
 Maximum number of real-space cells 3x 3x 3
 Maximum number of reciprocal cells 3x 3x 3

    FEWALD:  cpu time    0.0206: real time    0.0206


--------------------------------------- Iteration      1(   1)  ---------------------------------------


    POTLOK:  cpu time   19.0688: real time   19.0712
    SETDIJ:  cpu time    0.1515: real time    0.1515
     EDDAV:  cpu time  561.1028: real time  561.2705
       DOS:  cpu time    0.0017: real time    0.0017
    --------------------------------------------
      LOOP:  cpu time  580.3249: real time  580.4949

 eigenvalue-minimisations  :   688
 total energy-change (2. order) : 0.4380664E+04  (-0.1004882E+05)
 number of electron     560.0000000 magnetization 
 augmentation part      560.0000000 magnetization 

 Free energy of the ion-electron system (eV)
  ---------------------------------------------------
  alpha Z        PSCENC =        75.25431677
  Ewald energy   TEWEN  =    137007.89730088
  -Hartree energ DENC   =   -180375.94489491
  -exchange      EXHF   =         0.00000000
  -V(xc)+E(xc)   XCENC  =     -1704.02951058
  PAW double counting   =     44873.02882129   -41398.84523641
  entropy T*S    EENTRO =         0.02349808
  eigenvalues    EBANDS =       816.77423943
  atomic energy  EATOM  =     45086.50549395
  Solvation  Ediel_sol  =         0.00000000
  ---------------------------------------------------
  free energy    TOTEN  =      4380.66402850 eV

  energy without entropy =     4380.64053042  energy(sigma->0) =     4380.65815398


--------------------------------------------------------------------------------------------------------




--------------------------------------- Iteration      1(   2)  ---------------------------------------


     EDDAV:  cpu time  899.2499: real time  899.2987
       DOS:  cpu time    0.0017: real time    0.0017
    --------------------------------------------
      LOOP:  cpu time  899.2516: real time  899.3004

 eigenvalue-minimisations  :  1232
 total energy-change (2. order) :-0.2368687E+04  (-0.2129459E+04)
 number of electron     560.0000000 magnetization 
 augmentation part      560.0000000 magnetization 

 Free energy of the ion-electron system (eV)
  ---------------------------------------------------
  alpha Z        PSCENC =        75.25431677
  Ewald energy   TEWEN  =    137007.89730088
  -Hartree energ DENC   =   -180375.94489491
  -exchange      EXHF   =         0.00000000
  -V(xc)+E(xc)   XCENC  =     -1704.02951058
  PAW double counting   =     44873.02882129   -41398.84523641
  entropy T*S    EENTRO =        -0.05229937
  eigenvalues    EBANDS =     -1551.83737037
  atomic energy  EATOM  =     45086.50549395
  Solvation  Ediel_sol  =         0.00000000
  ---------------------------------------------------
  free energy    TOTEN  =      2011.97662126 eV

  energy without entropy =     2012.02892062  energy(sigma->0) =     2011.98969610


--------------------------------------------------------------------------------------------------------




--------------------------------------- Iteration      1(   3)  ---------------------------------------


     EDDAV:  cpu time  757.7728: real time  757.8096
       DOS:  cpu time    0.0015: real time    0.0015
    --------------------------------------------
      LOOP:  cpu time  757.7743: real time  757.8111

 eigenvalue-minimisations  :  1008
 total energy-change (2. order) :-0.1783627E+04  (-0.1678412E+04)
 number of electron     560.0000000 magnetization 
 augmentation part      560.0000000 magnetization 

 Free energy of the ion-electron system (eV)
  ---------------------------------------------------
  alpha Z        PSCENC =        75.25431677
  Ewald energy   TEWEN  =    137007.89730088
  -Hartree energ DENC   =   -180375.94489491
  -exchange      EXHF   =         0.00000000
  -V(xc)+E(xc)   XCENC  =     -1704.02951058
  PAW double counting   =     44873.02882129   -41398.84523641
  entropy T*S    EENTRO =         0.02653773
  eigenvalues    EBANDS =     -3335.54285721
  atomic energy  EATOM  =     45086.50549395
  Solvation  Ediel_sol  =         0.00000000
  ---------------------------------------------------
  free energy    TOTEN  =       228.34997152 eV

  energy without entropy =      228.32343378  energy(sigma->0) =      228.34333708


--------------------------------------------------------------------------------------------------------




--------------------------------------- Iteration      1(   4)  ---------------------------------------


     EDDAV:  cpu time  653.6275: real time  653.6508
       DOS:  cpu time    0.0015: real time    0.0015
    --------------------------------------------
      LOOP:  cpu time  653.6290: real time  653.6523

 eigenvalue-minimisations  :   824
 total energy-change (2. order) :-0.3629974E+03  (-0.3059897E+03)
 number of electron     560.0000000 magnetization 
 augmentation part      560.0000000 magnetization 

 Free energy of the ion-electron system (eV)
  ---------------------------------------------------
  alpha Z        PSCENC =        75.25431677
  Ewald energy   TEWEN  =    137007.89730088
  -Hartree energ DENC   =   -180375.94489491
  -exchange      EXHF   =         0.00000000
  -V(xc)+E(xc)   XCENC  =     -1704.02951058
  PAW double counting   =     44873.02882129   -41398.84523641
  entropy T*S    EENTRO =        -0.01189596
  eigenvalues    EBANDS =     -3698.50183975
  atomic energy  EATOM  =     45086.50549395
  Solvation  Ediel_sol  =         0.00000000
  ---------------------------------------------------
  free energy    TOTEN  =      -134.64744472 eV

  energy without entropy =     -134.63554876  energy(sigma->0) =     -134.64447073


--------------------------------------------------------------------------------------------------------




--------------------------------------- Iteration      1(   5)  ---------------------------------------


     EDDAV:  cpu time  800.4274: real time  800.4993
       DOS:  cpu time    0.0018: real time    0.0018
    CHARGE:  cpu time   41.2669: real time   41.2684
    MIXING:  cpu time    0.7014: real time    0.7014
    --------------------------------------------
      LOOP:  cpu time  842.3975: real time  842.4709

 eigenvalue-minimisations  :  1048
 total energy-change (2. order) :-0.4421001E+02  (-0.3668775E+02)
 number of electron     559.9999868 magnetization 
 augmentation part      245.3351195 magnetization 

 Broyden mixing:
  rms(total) = 0.13893E+01    rms(broyden)= 0.13883E+01
  rms(prec ) = 0.14939E+01
  weight for this iteration     100.00

 Free energy of the ion-electron system (eV)
  ---------------------------------------------------
  alpha Z        PSCENC =        75.25431677
  Ewald energy   TEWEN  =    137007.89730088
  -Hartree energ DENC   =   -180375.94489491
  -exchange      EXHF   =         0.00000000
  -V(xc)+E(xc)   XCENC  =     -1704.02951058
  PAW double counting   =     44873.02882129   -41398.84523641
  entropy T*S    EENTRO =         0.55136389
  eigenvalues    EBANDS =     -3743.27510514
  atomic energy  EATOM  =     45086.50549395
  Solvation  Ediel_sol  =         0.00000000
  ---------------------------------------------------
  free energy    TOTEN  =      -178.85745026 eV

  energy without entropy =     -179.40881415  energy(sigma->0) =     -178.99529123


--------------------------------------------------------------------------------------------------------




--------------------------------------- Iteration      1(   6)  ---------------------------------------


    POTLOK:  cpu time   19.3960: real time   19.3973
    SETDIJ:  cpu time    0.1528: real time    0.1528
    EDDIAG:  cpu time  101.6111: real time  101.6153
  RMM-DIIS:  cpu time  304.0429: real time  304.0721
    ORTHCH:  cpu time   20.7575: real time   20.7660
       DOS:  cpu time    0.0019: real time    0.0019
    CHARGE:  cpu time   40.2819: real time   40.2992
    MIXING:  cpu time    0.7054: real time    0.7057
    --------------------------------------------
      LOOP:  cpu time  486.9495: real time  487.0103

 eigenvalue-minimisations  :   720
 total energy-change (2. order) : 0.6678446E+00  (-0.4915604E+01)
 number of electron     559.9999916 magnetization 
 augmentation part      240.6927848 magnetization 

 Broyden mixing:
  rms(total) = 0.22385E+01    rms(broyden)= 0.22384E+01
  rms(prec ) = 0.25978E+01
  weight for this iteration     100.00

 eigenvalues of (default mixing * dielectric matrix)
  average eigenvalue GAMMA=   0.3177
  0.3177

 Free energy of the ion-electron system (eV)
  ---------------------------------------------------
  alpha Z        PSCENC =        75.25431677
  Ewald energy   TEWEN  =    137007.89730088
  -Hartree energ DENC   =   -180791.31917212
  -exchange      EXHF   =         0.00000000
  -V(xc)+E(xc)   XCENC  =     -1697.65908899
  PAW double counting   =     45622.66091023   -42120.99156758
  entropy T*S    EENTRO =        -0.28225463
  eigenvalues    EBANDS =     -3360.25554418
  atomic energy  EATOM  =     45086.50549395
  Solvation  Ediel_sol  =         0.00000000
  ---------------------------------------------------
  free energy    TOTEN  =      -178.18960566 eV

  energy without entropy =     -177.90735103  energy(sigma->0) =     -178.11904200


--------------------------------------------------------------------------------------------------------




--------------------------------------- Iteration      1(   7)  ---------------------------------------


    POTLOK:  cpu time   18.5236: real time   18.5318
    SETDIJ:  cpu time    0.1551: real time    0.1555
    EDDIAG:  cpu time  103.3752: real time  103.4183
  RMM-DIIS:  cpu time  367.7266: real time  367.7570
    ORTHCH:  cpu time   20.8324: real time   20.8327
       DOS:  cpu time    0.0019: real time    0.0019
    CHARGE:  cpu time   38.0216: real time   38.0246
    MIXING:  cpu time    0.7240: real time    0.7240
    --------------------------------------------
      LOOP:  cpu time  549.3604: real time  549.4458

 eigenvalue-minimisations  :   859
 total energy-change (2. order) :-0.1675254E+01  (-0.1854732E+01)
 number of electron     559.9999858 magnetization 
 augmentation part      240.5061768 magnetization 

 Broyden mixing:
  rms(total) = 0.18940E+01    rms(broyden)= 0.18937E+01
  rms(prec ) = 0.23044E+01
  weight for this iteration     100.00

 eigenvalues of (default mixing * dielectric matrix)
  average eigenvalue GAMMA=   0.3424
  0.5295  0.1554

 Free energy of the ion-electron system (eV)
  ---------------------------------------------------
  alpha Z        PSCENC =        75.25431677
  Ewald energy   TEWEN  =    137007.89730088
  -Hartree energ DENC   =   -180870.59862501
  -exchange      EXHF   =         0.00000000
  -V(xc)+E(xc)   XCENC  =     -1697.80148883
  PAW double counting   =     45677.82272240   -42173.60820722
  entropy T*S    EENTRO =        -0.16124752
  eigenvalues    EBANDS =     -3285.17512549
  atomic energy  EATOM  =     45086.50549395
  Solvation  Ediel_sol  =         0.00000000
  ---------------------------------------------------
  free energy    TOTEN  =      -179.86486006 eV

  energy without entropy =     -179.70361255  energy(sigma->0) =     -179.82454818


--------------------------------------------------------------------------------------------------------




--------------------------------------- Iteration      1(   8)  ---------------------------------------


    POTLOK:  cpu time   18.2902: real time   18.2924
    SETDIJ:  cpu time    0.1527: real time    0.1527
    EDDIAG:  cpu time  107.9117: real time  107.9167
  RMM-DIIS:  cpu time  325.9143: real time  325.9338
    ORTHCH:  cpu time   20.5134: real time   20.5141
       DOS:  cpu time    0.0019: real time    0.0019
    CHARGE:  cpu time   37.7937: real time   37.7952
    MIXING:  cpu time    0.7653: real time    0.7654
    --------------------------------------------
      LOOP:  cpu time  511.3433: real time  511.3723

 eigenvalue-minimisations  :   763
 total energy-change (2. order) :-0.4374248E+01  (-0.6206430E+00)
 number of electron     559.9999848 magnetization 
 augmentation part      239.8425409 magnetization 

 Broyden mixing:
  rms(total) = 0.30218E+01    rms(broyden)= 0.30216E+01
  rms(prec ) = 0.36132E+01
  weight for this iteration     100.00

 eigenvalues of (default mixing * dielectric matrix)
  average eigenvalue GAMMA=   0.3094
  0.6712  0.1488  0.1081

 Free energy of the ion-electron system (eV)
  ---------------------------------------------------
  alpha Z        PSCENC =        75.25431677
  Ewald energy   TEWEN  =    137007.89730088
  -Hartree energ DENC   =   -180921.23395257
  -exchange      EXHF   =         0.00000000
  -V(xc)+E(xc)   XCENC  =     -1697.77445585
  PAW double counting   =     45741.34919069   -42233.94161764
  entropy T*S    EENTRO =        -0.14371095
  eigenvalues    EBANDS =     -3242.15167371
  atomic energy  EATOM  =     45086.50549395
  Solvation  Ediel_sol  =         0.00000000
  ---------------------------------------------------
  free energy    TOTEN  =      -184.23910842 eV

  energy without entropy =     -184.09539747  energy(sigma->0) =     -184.20318068


--------------------------------------------------------------------------------------------------------




--------------------------------------- Iteration      1(   9)  ---------------------------------------


    POTLOK:  cpu time   18.2970: real time   18.2985
    SETDIJ:  cpu time    0.1576: real time    0.1577
    EDDIAG:  cpu time  111.0544: real time  111.0605
  RMM-DIIS:  cpu time  312.3012: real time  312.3170
    ORTHCH:  cpu time   20.4810: real time   20.4817
       DOS:  cpu time    0.0019: real time    0.0019
    CHARGE:  cpu time   37.6951: real time   37.6966
    MIXING:  cpu time    0.7970: real time    0.7970
    --------------------------------------------
      LOOP:  cpu time  500.7852: real time  500.8109

 eigenvalue-minimisations  :   741
 total energy-change (2. order) : 0.3034924E+01  (-0.4642187E+00)
 number of electron     559.9999867 magnetization 
 augmentation part      240.8374267 magnetization 

 Broyden mixing:
  rms(total) = 0.24861E+01    rms(broyden)= 0.24858E+01
  rms(prec ) = 0.28609E+01
  weight for this iteration     100.00

 eigenvalues of (default mixing * dielectric matrix)
  average eigenvalue GAMMA=   0.2930
  0.7829  0.1461  0.1461  0.0969

 Free energy of the ion-electron system (eV)
  ---------------------------------------------------
  alpha Z        PSCENC =        75.25431677
  Ewald energy   TEWEN  =    137007.89730088
  -Hartree energ DENC   =   -180935.08900079
  -exchange      EXHF   =         0.00000000
  -V(xc)+E(xc)   XCENC  =     -1697.78678612
  PAW double counting   =     45785.96563755   -42276.40288578
  entropy T*S    EENTRO =        -0.09406149
  eigenvalues    EBANDS =     -3227.45419974
  atomic energy  EATOM  =     45086.50549395
  Solvation  Ediel_sol  =         0.00000000
  ---------------------------------------------------
  free energy    TOTEN  =      -181.20418477 eV

  energy without entropy =     -181.11012328  energy(sigma->0) =     -181.18066940


--------------------------------------------------------------------------------------------------------




--------------------------------------- Iteration      1(  10)  ---------------------------------------


    POTLOK:  cpu time   18.0702: real time   18.0724
    SETDIJ:  cpu time    0.1581: real time    0.1581
    EDDIAG:  cpu time  111.5101: real time  111.5206
  RMM-DIIS:  cpu time  304.2116: real time  304.2267
    ORTHCH:  cpu time   20.3095: real time   20.3096
       DOS:  cpu time    0.0019: real time    0.0019
    CHARGE:  cpu time   37.5098: real time   37.5099
    MIXING:  cpu time    0.8960: real time    0.8961
    --------------------------------------------
      LOOP:  cpu time  492.6671: real time  492.6952

 eigenvalue-minimisations  :   728
 total energy-change (2. order) : 0.1955639E+01  (-0.2996232E+00)
 number of electron     559.9999861 magnetization 
 augmentation part      241.3159059 magnetization 

 Broyden mixing:
  rms(total) = 0.24987E+01    rms(broyden)= 0.24985E+01
  rms(prec ) = 0.29927E+01
  weight for this iteration     100.00

 eigenvalues of (default mixing * dielectric matrix)
  average eigenvalue GAMMA=   0.2590
  0.8130  0.1539  0.1539  0.1023  0.0720

 Free energy of the ion-electron system (eV)
  ---------------------------------------------------
  alpha Z        PSCENC =        75.25431677
  Ewald energy   TEWEN  =    137007.89730088
  -Hartree energ DENC   =   -180960.07648278
  -exchange      EXHF   =         0.00000000
  -V(xc)+E(xc)   XCENC  =     -1697.65321984
  PAW double counting   =     45827.14746940   -42315.69819021
  entropy T*S    EENTRO =         0.08449028
  eigenvalues    EBANDS =     -3202.70972410
  atomic energy  EATOM  =     45086.50549395
  Solvation  Ediel_sol  =         0.00000000
  ---------------------------------------------------
  free energy    TOTEN  =      -179.24854563 eV

  energy without entropy =     -179.33303592  energy(sigma->0) =     -179.26966820


--------------------------------------------------------------------------------------------------------




--------------------------------------- Iteration      1(  11)  ---------------------------------------


    POTLOK:  cpu time   18.7276: real time   18.7295
    SETDIJ:  cpu time    0.1568: real time    0.1568
    EDDIAG:  cpu time  111.6600: real time  111.6622
  RMM-DIIS:  cpu time  308.3150: real time  308.3234
    ORTHCH:  cpu time   20.3315: real time   20.3315
       DOS:  cpu time    0.0019: real time    0.0019
    CHARGE:  cpu time   38.1107: real time   38.1108
    MIXING:  cpu time    0.9631: real time    0.9631
    --------------------------------------------
      LOOP:  cpu time  498.2666: real time  498.2793

 eigenvalue-minimisations  :   743
 total energy-change (2. order) : 0.1678546E+01  (-0.1259652E+00)
 number of electron     559.9999867 magnetization 
 augmentation part      241.5007996 magnetization 

 Broyden mixing:
  rms(total) = 0.17303E+01    rms(broyden)= 0.17300E+01
  rms(prec ) = 0.20070E+01
  weight for this iteration     100.00

 eigenvalues of (default mixing * dielectric matrix)
  average eigenvalue GAMMA=   0.2466
  0.8577  0.1719  0.1719  0.1317  0.0831  0.0633

 Free energy of the ion-electron system (eV)
  ---------------------------------------------------
  alpha Z        PSCENC =        75.25431677
  Ewald energy   TEWEN  =    137007.89730088
  -Hartree energ DENC   =   -180974.15859597
  -exchange      EXHF   =         0.00000000
  -V(xc)+E(xc)   XCENC  =     -1697.57015199
  PAW double counting   =     45845.59101803   -42333.21640611
  entropy T*S    EENTRO =        -0.11614373
  eigenvalues    EBANDS =     -3187.75683165
  atomic energy  EATOM  =     45086.50549395
  Solvation  Ediel_sol  =         0.00000000
  ---------------------------------------------------
  free energy    TOTEN  =      -177.56999982 eV

  energy without entropy =     -177.45385609  energy(sigma->0) =     -177.54096389


--------------------------------------------------------------------------------------------------------




--------------------------------------- Iteration      1(  12)  ---------------------------------------


    POTLOK:  cpu time   19.3213: real time   19.3237
    SETDIJ:  cpu time    0.1545: real time    0.1545
    EDDIAG:  cpu time  111.2464: real time  111.2504
  RMM-DIIS:  cpu time  302.3058: real time  302.3162
    ORTHCH:  cpu time   20.3529: real time   20.3529
       DOS:  cpu time    0.0019: real time    0.0019
    CHARGE:  cpu time   39.4399: real time   39.4400
    MIXING:  cpu time    1.0227: real time    1.0227
    --------------------------------------------
      LOOP:  cpu time  493.8454: real time  493.8624

 eigenvalue-minimisations  :   725
 total energy-change (2. order) : 0.1341765E+01  (-0.1307440E+00)
 number of electron     559.9999862 magnetization 
 augmentation part      241.5587223 magnetization 

 Broyden mixing:
  rms(total) = 0.12274E+01    rms(broyden)= 0.12271E+01
  rms(prec ) = 0.14132E+01
  weight for this iteration     100.00

 eigenvalues of (default mixing * dielectric matrix)
  average eigenvalue GAMMA=   0.2473
  0.9088  0.2175  0.2175  0.1258  0.1258  0.0740  0.0615

 Free energy of the ion-electron system (eV)
  ---------------------------------------------------
  alpha Z        PSCENC =        75.25431677
  Ewald energy   TEWEN  =    137007.89730088
  -Hartree energ DENC   =   -180992.32704545
  -exchange      EXHF   =         0.00000000
  -V(xc)+E(xc)   XCENC  =     -1697.38028569
  PAW double counting   =     45871.78905521   -42358.05824281
  entropy T*S    EENTRO =        -0.11939144
  eigenvalues    EBANDS =     -3169.78943674
  atomic energy  EATOM  =     45086.50549395
  Solvation  Ediel_sol  =         0.00000000
  ---------------------------------------------------
  free energy    TOTEN  =      -176.22823531 eV

  energy without entropy =     -176.10884387  energy(sigma->0) =     -176.19838745


--------------------------------------------------------------------------------------------------------




--------------------------------------- Iteration      1(  13)  ---------------------------------------


    POTLOK:  cpu time   19.3041: real time   19.3081
    SETDIJ:  cpu time    0.1555: real time    0.1555
    EDDIAG:  cpu time  110.0650: real time  110.0681
  RMM-DIIS:  cpu time  300.9228: real time  300.9302
    ORTHCH:  cpu time   20.4396: real time   20.4396
       DOS:  cpu time    0.0020: real time    0.0020
    CHARGE:  cpu time   40.7657: real time   40.7658
    MIXING:  cpu time    1.0901: real time    1.0901
    --------------------------------------------
      LOOP:  cpu time  492.7447: real time  492.7593

 eigenvalue-minimisations  :   720
 total energy-change (2. order) : 0.5510428E+00  (-0.1031471E+00)
 number of electron     559.9999868 magnetization 
 augmentation part      241.6155642 magnetization 

 Broyden mixing:
  rms(total) = 0.12346E+01    rms(broyden)= 0.12343E+01
  rms(prec ) = 0.14798E+01
  weight for this iteration     100.00

 eigenvalues of (default mixing * dielectric matrix)
  average eigenvalue GAMMA=   0.2563
  0.9516  0.3007  0.3007  0.1345  0.1345  0.0869  0.0869  0.0542

 Free energy of the ion-electron system (eV)
  ---------------------------------------------------
  alpha Z        PSCENC =        75.25431677
  Ewald energy   TEWEN  =    137007.89730088
  -Hartree energ DENC   =   -181011.86490689
  -exchange      EXHF   =         0.00000000
  -V(xc)+E(xc)   XCENC  =     -1697.13772137
  PAW double counting   =     45900.55835265   -42385.26491580
  entropy T*S    EENTRO =        -0.11109183
  eigenvalues    EBANDS =     -3151.51402088
  atomic energy  EATOM  =     45086.50549395
  Solvation  Ediel_sol  =         0.00000000
  ---------------------------------------------------
  free energy    TOTEN  =      -175.67719250 eV

  energy without entropy =     -175.56610067  energy(sigma->0) =     -175.64941954


--------------------------------------------------------------------------------------------------------




--------------------------------------- Iteration      1(  14)  ---------------------------------------


    POTLOK:  cpu time   19.4522: real time   19.4547
    SETDIJ:  cpu time    0.1610: real time    0.1610
    EDDIAG:  cpu time  108.8305: real time  108.8322
  RMM-DIIS:  cpu time  301.0722: real time  301.0791
    ORTHCH:  cpu time   21.0808: real time   21.0808
       DOS:  cpu time    0.0020: real time    0.0020
    CHARGE:  cpu time   40.9002: real time   40.9002
    MIXING:  cpu time    1.1559: real time    1.1559
    --------------------------------------------
      LOOP:  cpu time  492.6547: real time  492.6657

 eigenvalue-minimisations  :   719
 total energy-change (2. order) : 0.3520731E-01  (-0.9945582E-01)
 number of electron     559.9999882 magnetization 
 augmentation part      241.5407130 magnetization 

 Broyden mixing:
  rms(total) = 0.14328E+01    rms(broyden)= 0.14326E+01
  rms(prec ) = 0.17041E+01
  weight for this iteration     100.00

 eigenvalues of (default mixing * dielectric matrix)
  average eigenvalue GAMMA=   0.2872
  1.0876  0.6278  0.2423  0.1589  0.1589  0.0877  0.0877  0.0810  0.0531

 Free energy of the ion-electron system (eV)
  ---------------------------------------------------
  alpha Z        PSCENC =        75.25431677
  Ewald energy   TEWEN  =    137007.89730088
  -Hartree energ DENC   =   -181037.57697592
  -exchange      EXHF   =         0.00000000
  -V(xc)+E(xc)   XCENC  =     -1696.77094833
  PAW double counting   =     45936.04089229   -42418.74472405
  entropy T*S    EENTRO =        -0.03665353
  eigenvalues    EBANDS =     -3128.21068725
  atomic energy  EATOM  =     45086.50549395
  Solvation  Ediel_sol  =         0.00000000
  ---------------------------------------------------
  free energy    TOTEN  =      -175.64198518 eV

  energy without entropy =     -175.60533165  energy(sigma->0) =     -175.63282180


--------------------------------------------------------------------------------------------------------




--------------------------------------- Iteration      1(  15)  ---------------------------------------


    POTLOK:  cpu time   19.2361: real time   19.2370
    SETDIJ:  cpu time    0.1577: real time    0.1577
    EDDIAG:  cpu time  107.6572: real time  107.6588
  RMM-DIIS:  cpu time  297.3680: real time  297.3741
    ORTHCH:  cpu time   21.5086: real time   21.5087
       DOS:  cpu time    0.0020: real time    0.0020
    CHARGE:  cpu time   40.8393: real time   40.8396
    MIXING:  cpu time    1.2596: real time    1.2596
    --------------------------------------------
      LOOP:  cpu time  488.0285: real time  488.0376

 eigenvalue-minimisations  :   709
 total energy-change (2. order) :-0.5725831E+00  (-0.1158682E+00)
 number of electron     559.9999886 magnetization 
 augmentation part      241.3875466 magnetization 

 Broyden mixing:
  rms(total) = 0.27133E+01    rms(broyden)= 0.27131E+01
  rms(prec ) = 0.31550E+01
  weight for this iteration     100.00

 eigenvalues of (default mixing * dielectric matrix)
  average eigenvalue GAMMA=   0.2937
  1.2250  0.7840  0.2230  0.1674  0.1674  0.0926  0.0926  0.0693  0.0660  0.0499

 Free energy of the ion-electron system (eV)
  ---------------------------------------------------
  alpha Z        PSCENC =        75.25431677
  Ewald energy   TEWEN  =    137007.89730088
  -Hartree energ DENC   =   -181083.61436289
  -exchange      EXHF   =         0.00000000
  -V(xc)+E(xc)   XCENC  =     -1696.13830918
  PAW double counting   =     45995.67447797   -42475.07293418
  entropy T*S    EENTRO =         0.09909179
  eigenvalues    EBANDS =     -3086.81964342
  atomic energy  EATOM  =     45086.50549395
  Solvation  Ediel_sol  =         0.00000000
  ---------------------------------------------------
  free energy    TOTEN  =      -176.21456831 eV

  energy without entropy =     -176.31366010  energy(sigma->0) =     -176.23934125


--------------------------------------------------------------------------------------------------------




--------------------------------------- Iteration      1(  16)  ---------------------------------------


    POTLOK:  cpu time   19.2862: real time   19.2877
    SETDIJ:  cpu time    0.1566: real time    0.1566
    EDDIAG:  cpu time  106.6894: real time  106.6929
  RMM-DIIS:  cpu time  302.2020: real time  302.2110
    ORTHCH:  cpu time   21.4581: real time   21.4583
       DOS:  cpu time    0.0021: real time    0.0020
    CHARGE:  cpu time   40.8939: real time   40.8940
    MIXING:  cpu time    1.2874: real time    1.2874
    --------------------------------------------
      LOOP:  cpu time  491.9757: real time  491.9899

 eigenvalue-minimisations  :   717
 total energy-change (2. order) : 0.8991973E+00  (-0.9592556E-01)
 number of electron     559.9999863 magnetization 
 augmentation part      241.1218969 magnetization 

 Broyden mixing:
  rms(total) = 0.13848E+01    rms(broyden)= 0.13847E+01
  rms(prec ) = 0.16428E+01
  weight for this iteration     100.00

 eigenvalues of (default mixing * dielectric matrix)
  average eigenvalue GAMMA=   0.2961
  1.3984  0.8207  0.2147  0.1742  0.1742  0.0991  0.0991  0.0836  0.0836  0.0596
  0.0502

 Free energy of the ion-electron system (eV)
  ---------------------------------------------------
  alpha Z        PSCENC =        75.25431677
  Ewald energy   TEWEN  =    137007.89730088
  -Hartree energ DENC   =   -181116.02298956
  -exchange      EXHF   =         0.00000000
  -V(xc)+E(xc)   XCENC  =     -1695.75388656
  PAW double counting   =     46033.02023299   -42510.36596325
  entropy T*S    EENTRO =        -0.04778628
  eigenvalues    EBANDS =     -3055.80208999
  atomic energy  EATOM  =     45086.50549395
  Solvation  Ediel_sol  =         0.00000000
  ---------------------------------------------------
  free energy    TOTEN  =      -175.31537103 eV

  energy without entropy =     -175.26758475  energy(sigma->0) =     -175.30342446


--------------------------------------------------------------------------------------------------------




--------------------------------------- Iteration      1(  17)  ---------------------------------------


    POTLOK:  cpu time   19.3240: real time   19.3252
    SETDIJ:  cpu time    0.1555: real time    0.1555
    EDDIAG:  cpu time  105.3067: real time  105.3087
  RMM-DIIS:  cpu time  305.9777: real time  305.9847
    ORTHCH:  cpu time   21.4507: real time   21.4507
       DOS:  cpu time    0.0019: real time    0.0019
    CHARGE:  cpu time   40.9547: real time   40.9549
    MIXING:  cpu time    1.4109: real time    1.4110
    --------------------------------------------
      LOOP:  cpu time  494.5822: real time  494.5927

 eigenvalue-minimisations  :   726
 total energy-change (2. order) : 0.1473697E+00  (-0.5985728E-01)
 number of electron     559.9999867 magnetization 
 augmentation part      241.1366813 magnetization 

 Broyden mixing:
  rms(total) = 0.15685E+01    rms(broyden)= 0.15682E+01
  rms(prec ) = 0.19084E+01
  weight for this iteration     100.00

 eigenvalues of (default mixing * dielectric matrix)
  average eigenvalue GAMMA=   0.2854
  1.4720  0.8419  0.1749  0.1749  0.1706  0.1420  0.1014  0.1014  0.0827  0.0566
  0.0531  0.0531

 Free energy of the ion-electron system (eV)
  ---------------------------------------------------
  alpha Z        PSCENC =        75.25431677
  Ewald energy   TEWEN  =    137007.89730088
  -Hartree energ DENC   =   -181136.22621568
  -exchange      EXHF   =         0.00000000
  -V(xc)+E(xc)   XCENC  =     -1695.44087495
  PAW double counting   =     46059.65150965   -42535.41621859
  entropy T*S    EENTRO =         0.01402098
  eigenvalues    EBANDS =     -3037.40733436
  atomic energy  EATOM  =     45086.50549395
  Solvation  Ediel_sol  =         0.00000000
  ---------------------------------------------------
  free energy    TOTEN  =      -175.16800134 eV

  energy without entropy =     -175.18202232  energy(sigma->0) =     -175.17150659


--------------------------------------------------------------------------------------------------------




--------------------------------------- Iteration      1(  18)  ---------------------------------------


    POTLOK:  cpu time   19.2743: real time   19.2772
    SETDIJ:  cpu time    0.1561: real time    0.1561
    EDDIAG:  cpu time  104.7376: real time  104.7388
  RMM-DIIS:  cpu time  309.0105: real time  309.0151
    ORTHCH:  cpu time   21.8472: real time   21.8473
       DOS:  cpu time    0.0020: real time    0.0020
    CHARGE:  cpu time   41.8799: real time   41.8799
    MIXING:  cpu time    1.5423: real time    1.5423
    --------------------------------------------
      LOOP:  cpu time  498.4500: real time  498.4588

 eigenvalue-minimisations  :   717
 total energy-change (2. order) : 0.5660158E+00  (-0.4027484E-01)
 number of electron     559.9999879 magnetization 
 augmentation part      241.1297626 magnetization 

 Broyden mixing:
  rms(total) = 0.10095E+01    rms(broyden)= 0.10092E+01
  rms(prec ) = 0.12025E+01
  weight for this iteration     100.00

 eigenvalues of (default mixing * dielectric matrix)
  average eigenvalue GAMMA=   0.2848
  1.4945  0.8881  0.2450  0.2450  0.1583  0.1583  0.0985  0.0985  0.0786  0.0786
  0.0638  0.0514  0.0434

 Free energy of the ion-electron system (eV)
  ---------------------------------------------------
  alpha Z        PSCENC =        75.25431677
  Ewald energy   TEWEN  =    137007.89730088
  -Hartree energ DENC   =   -181148.45245522
  -exchange      EXHF   =         0.00000000
  -V(xc)+E(xc)   XCENC  =     -1695.27027578
  PAW double counting   =     46072.28863695   -42547.20930052
  entropy T*S    EENTRO =        -0.02479522
  eigenvalues    EBANDS =     -3025.59090739
  atomic energy  EATOM  =     45086.50549395
  Solvation  Ediel_sol  =         0.00000000
  ---------------------------------------------------
  free energy    TOTEN  =      -174.60198557 eV

  energy without entropy =     -174.57719034  energy(sigma->0) =     -174.59578676


--------------------------------------------------------------------------------------------------------




--------------------------------------- Iteration      1(  19)  ---------------------------------------


    POTLOK:  cpu time   18.6017: real time   18.6028
    SETDIJ:  cpu time    0.1528: real time    0.1528
    EDDIAG:  cpu time  104.5435: real time  104.5459
  RMM-DIIS:  cpu time  310.0539: real time  310.0704
    ORTHCH:  cpu time   21.8196: real time   21.8196
       DOS:  cpu time    0.0020: real time    0.0020
    CHARGE:  cpu time   41.0238: real time   41.0238
    MIXING:  cpu time    1.4907: real time    1.4907
    --------------------------------------------
      LOOP:  cpu time  497.6879: real time  497.7079

 eigenvalue-minimisations  :   717
 total energy-change (2. order) : 0.1702010E+00  (-0.2721612E-01)
 number of electron     559.9999881 magnetization 
 augmentation part      241.0713409 magnetization 

 Broyden mixing:
  rms(total) = 0.84056E+00    rms(broyden)= 0.84038E+00
  rms(prec ) = 0.97962E+00
  weight for this iteration     100.00

 eigenvalues of (default mixing * dielectric matrix)
  average eigenvalue GAMMA=   0.2937
  1.5856  0.9389  0.3240  0.3240  0.1660  0.1660  0.1049  0.1049  0.0803  0.0803
  0.0811  0.0623  0.0508  0.0427

 Free energy of the ion-electron system (eV)
  ---------------------------------------------------
  alpha Z        PSCENC =        75.25431677
  Ewald energy   TEWEN  =    137007.89730088
  -Hartree energ DENC   =   -181160.72569275
  -exchange      EXHF   =         0.00000000
  -V(xc)+E(xc)   XCENC  =     -1695.15857837
  PAW double counting   =     46078.52932408   -42552.78051753
  entropy T*S    EENTRO =        -0.01993703
  eigenvalues    EBANDS =     -3013.93349456
  atomic energy  EATOM  =     45086.50549395
  Solvation  Ediel_sol  =         0.00000000
  ---------------------------------------------------
  free energy    TOTEN  =      -174.43178454 eV

  energy without entropy =     -174.41184751  energy(sigma->0) =     -174.42680028


--------------------------------------------------------------------------------------------------------




--------------------------------------- Iteration      1(  20)  ---------------------------------------


    POTLOK:  cpu time   18.1225: real time   18.1233
    SETDIJ:  cpu time    0.1528: real time    0.1528
    EDDIAG:  cpu time  106.1138: real time  106.1153
  RMM-DIIS:  cpu time  305.6900: real time  305.6973
    ORTHCH:  cpu time   21.7643: real time   21.7646
       DOS:  cpu time    0.0019: real time    0.0019
    CHARGE:  cpu time   40.0954: real time   40.0961
    MIXING:  cpu time    1.5766: real time    1.5766
    --------------------------------------------
      LOOP:  cpu time  493.5174: real time  493.5280

 eigenvalue-minimisations  :   712
 total energy-change (2. order) : 0.7675584E-02  (-0.2462473E-01)
 number of electron     559.9999889 magnetization 
 augmentation part      241.0953362 magnetization 

 Broyden mixing:
  rms(total) = 0.98575E+00    rms(broyden)= 0.98559E+00
  rms(prec ) = 0.11677E+01
  weight for this iteration     100.00

 eigenvalues of (default mixing * dielectric matrix)
  average eigenvalue GAMMA=   0.2995
  1.5737  1.1045  0.3847  0.3847  0.1692  0.1692  0.1098  0.1098  0.0911  0.0859
  0.0859  0.0678  0.0627  0.0513  0.0417

 Free energy of the ion-electron system (eV)
  ---------------------------------------------------
  alpha Z        PSCENC =        75.25431677
  Ewald energy   TEWEN  =    137007.89730088
  -Hartree energ DENC   =   -181178.64181434
  -exchange      EXHF   =         0.00000000
  -V(xc)+E(xc)   XCENC  =     -1694.95399837
  PAW double counting   =     46087.21483955   -42560.32362134
  entropy T*S    EENTRO =        -0.01273247
  eigenvalues    EBANDS =     -2997.36389359
  atomic energy  EATOM  =     45086.50549395
  Solvation  Ediel_sol  =         0.00000000
  ---------------------------------------------------
  free energy    TOTEN  =      -174.42410895 eV

  energy without entropy =     -174.41137648  energy(sigma->0) =     -174.42092584


--------------------------------------------------------------------------------------------------------




--------------------------------------- Iteration      1(  21)  ---------------------------------------


    POTLOK:  cpu time   18.2262: real time   18.2278
    SETDIJ:  cpu time    0.1639: real time    0.1639
    EDDIAG:  cpu time  107.3257: real time  107.3314
  RMM-DIIS:  cpu time  301.7985: real time  301.8049
    ORTHCH:  cpu time   21.8106: real time   21.8105
       DOS:  cpu time    0.0020: real time    0.0020
    CHARGE:  cpu time   39.5943: real time   39.5942
    MIXING:  cpu time    1.6926: real time    1.6926
    --------------------------------------------
      LOOP:  cpu time  490.6137: real time  490.6274

 eigenvalue-minimisations  :   706
 total energy-change (2. order) : 0.1701173E+00  (-0.2068764E-01)
 number of electron     559.9999886 magnetization 
 augmentation part      241.1458408 magnetization 

 Broyden mixing:
  rms(total) = 0.75419E+00    rms(broyden)= 0.75397E+00
  rms(prec ) = 0.87961E+00
  weight for this iteration     100.00

 eigenvalues of (default mixing * dielectric matrix)
  average eigenvalue GAMMA=   0.3046
  1.5577  1.2686  0.4825  0.3564  0.1685  0.1685  0.1840  0.1100  0.1100  0.0832
  0.0832  0.0845  0.0696  0.0534  0.0513  0.0416

 Free energy of the ion-electron system (eV)
  ---------------------------------------------------
  alpha Z        PSCENC =        75.25431677
  Ewald energy   TEWEN  =    137007.89730088
  -Hartree energ DENC   =   -181193.16719239
  -exchange      EXHF   =         0.00000000
  -V(xc)+E(xc)   XCENC  =     -1694.79660287
  PAW double counting   =     46087.32787764   -42559.63549005
  entropy T*S    EENTRO =        -0.06600263
  eigenvalues    EBANDS =     -2983.57369293
  atomic energy  EATOM  =     45086.50549395
  Solvation  Ediel_sol  =         0.00000000
  ---------------------------------------------------
  free energy    TOTEN  =      -174.25399163 eV

  energy without entropy =     -174.18798900  energy(sigma->0) =     -174.23749097


--------------------------------------------------------------------------------------------------------




--------------------------------------- Iteration      1(  22)  ---------------------------------------


    POTLOK:  cpu time   18.1306: real time   18.1320
    SETDIJ:  cpu time    0.1522: real time    0.1522
    EDDIAG:  cpu time  107.6807: real time  107.6817
  RMM-DIIS:  cpu time  304.4218: real time  304.4281
    ORTHCH:  cpu time   21.8634: real time   21.8634
       DOS:  cpu time    0.0019: real time    0.0019
    CHARGE:  cpu time   39.1274: real time   39.1274
    MIXING:  cpu time    1.7995: real time    1.7995
    --------------------------------------------
      LOOP:  cpu time  493.1775: real time  493.1863

 eigenvalue-minimisations  :   708
 total energy-change (2. order) : 0.7960583E-01  (-0.2144191E-01)
 number of electron     559.9999879 magnetization 
 augmentation part      241.1590688 magnetization 

 Broyden mixing:
  rms(total) = 0.58059E+00    rms(broyden)= 0.58043E+00
  rms(prec ) = 0.66842E+00
  weight for this iteration     100.00

 eigenvalues of (default mixing * dielectric matrix)
  average eigenvalue GAMMA=   0.3314
  1.5617  1.5617  0.6227  0.4898  0.2658  0.1693  0.1693  0.1226  0.1070  0.1070
  0.0817  0.0817  0.0730  0.0730  0.0544  0.0514  0.0415

 Free energy of the ion-electron system (eV)
  ---------------------------------------------------
  alpha Z        PSCENC =        75.25431677
  Ewald energy   TEWEN  =    137007.89730088
  -Hartree energ DENC   =   -181207.71430877
  -exchange      EXHF   =         0.00000000
  -V(xc)+E(xc)   XCENC  =     -1694.64840661
  PAW double counting   =     46088.72046378   -42560.33763547
  entropy T*S    EENTRO =        -0.10193673
  eigenvalues    EBANDS =     -2969.74967361
  atomic energy  EATOM  =     45086.50549395
  Solvation  Ediel_sol  =         0.00000000
  ---------------------------------------------------
  free energy    TOTEN  =      -174.17438580 eV

  energy without entropy =     -174.07244907  energy(sigma->0) =     -174.14890162


--------------------------------------------------------------------------------------------------------




--------------------------------------- Iteration      1(  23)  ---------------------------------------


    POTLOK:  cpu time   18.1342: real time   18.1359
    SETDIJ:  cpu time    0.1590: real time    0.1590
    EDDIAG:  cpu time  108.7066: real time  108.7094
  RMM-DIIS:  cpu time  303.2506: real time  303.2554
    ORTHCH:  cpu time   21.7675: real time   21.7674
       DOS:  cpu time    0.0020: real time    0.0020
    CHARGE:  cpu time   38.2574: real time   38.2574
    MIXING:  cpu time    1.8920: real time    1.8920
    --------------------------------------------
      LOOP:  cpu time  492.1692: real time  492.1785

 eigenvalue-minimisations  :   710
 total energy-change (2. order) :-0.1361500E+00  (-0.2370769E-01)
 number of electron     559.9999875 magnetization 
 augmentation part      241.0796261 magnetization 

 Broyden mixing:
  rms(total) = 0.91597E+00    rms(broyden)= 0.91585E+00
  rms(prec ) = 0.10699E+01
  weight for this iteration     100.00

 eigenvalues of (default mixing * dielectric matrix)
  average eigenvalue GAMMA=   0.3392
  1.6386  1.6386  0.7866  0.5209  0.2819  0.1702  0.1702  0.1079  0.1079  0.1178
[...]
 -0.006  -0.011   0.004   0.003   0.006  -0.006  -0.011   0.004
 -0.011  -0.019   0.006   0.006   0.009  -0.010  -0.018   0.006
 -0.014  -0.004   0.013   0.000   0.023  -0.014  -0.004   0.012
  0.000  -0.023  -0.005  -0.015  -0.000   0.000  -0.022  -0.005
 -0.023   0.000   0.009  -0.004  -0.016  -0.022   0.000   0.008
 -0.017  -0.005   0.015   0.000   0.027  -0.017  -0.005   0.015
  0.000  -0.028  -0.007  -0.018  -0.000   0.000  -0.027  -0.006
 -0.027   0.000   0.010  -0.005  -0.019  -0.026   0.000   0.010
 total augmentation occupancy for first ion, spin component:           1
  1.530  -0.019   0.002   0.013   0.032   0.080  -0.011  -0.002   0.036  -0.013   0.092  -0.031   0.009   0.003   0.002  -0.018
 -0.019   1.414   0.019   0.060   0.009  -0.010   0.064   0.013  -0.011  -0.015   0.228  -0.066   0.010   0.008   0.003  -0.005
  0.002   0.019   1.533   0.006  -0.000  -0.002   0.014   0.078  -0.014   0.018  -0.055   0.019  -0.002  -0.008  -0.005   0.016
  0.013   0.060   0.006   1.332   0.037   0.034  -0.010  -0.013   0.093  -0.021  -0.076   0.018   0.000  -0.010  -0.004   0.001
  0.032   0.009  -0.000   0.037   1.435  -0.013  -0.015   0.017  -0.020   0.066  -0.083   0.029  -0.008  -0.006  -0.009   0.027
  0.080  -0.010  -0.002   0.034  -0.013   0.218   0.020  -0.002  -0.046   0.004  -0.046   0.002   0.017  -0.010   0.035  -0.004
 -0.011   0.064   0.014  -0.010  -0.015   0.020   0.267  -0.024  -0.004   0.008  -0.108   0.008   0.000   0.051  -0.009  -0.000
 -0.002   0.013   0.078  -0.013   0.017  -0.002  -0.024   0.217   0.015  -0.019   0.027  -0.001  -0.012   0.009  -0.018   0.003
  0.036  -0.011  -0.014   0.093  -0.020  -0.046  -0.004   0.015   0.263   0.007   0.043  -0.004  -0.009   0.036   0.004   0.000
 -0.013  -0.015   0.018  -0.021   0.066   0.004   0.008  -0.019   0.007   0.262   0.046  -0.002  -0.037   0.002   0.049   0.007
  0.092   0.228  -0.055  -0.076  -0.083  -0.046  -0.108   0.027   0.043   0.046   0.942  -0.140   0.085   0.012   0.063  -0.013
 -0.031  -0.066   0.019   0.018   0.029   0.002   0.008  -0.001  -0.004  -0.002  -0.140   0.023  -0.014  -0.003  -0.010   0.003
  0.009   0.010  -0.002   0.000  -0.008   0.017   0.000  -0.012  -0.009  -0.037   0.085  -0.014   0.029  -0.008  -0.004  -0.003
  0.003   0.008  -0.008  -0.010  -0.006  -0.010   0.051   0.009   0.036   0.002   0.012  -0.003  -0.008   0.035   0.004   0.000
  0.002   0.003  -0.005  -0.004  -0.009   0.035  -0.009  -0.018   0.004   0.049   0.063  -0.010  -0.004   0.004   0.034  -0.000
 -0.018  -0.005   0.016   0.001   0.027  -0.004  -0.000   0.003   0.000   0.007  -0.013   0.003  -0.003   0.000  -0.000   0.001
  0.001  -0.029  -0.006  -0.018   0.000   0.001  -0.008  -0.001  -0.006   0.000  -0.003   0.001   0.000  -0.003  -0.000   0.000
 -0.029   0.001   0.012  -0.004  -0.019  -0.007   0.001   0.003  -0.001  -0.007  -0.008   0.001  -0.000  -0.000  -0.003   0.000


------------------------ aborting loop because EDIFF is reached ----------------------------------------


    CHARGE:  cpu time   40.7061: real time   40.7061
    FORLOC:  cpu time    9.5616: real time    9.5617
    FORNL :  cpu time   97.1252: real time   97.1253
    STRESS:  cpu time  309.2101: real time  309.2107
    FORCOR:  cpu time   31.9194: real time   31.9196
    FORHAR:  cpu time   14.3853: real time   14.3854
    MIXING:  cpu time    5.4402: real time    5.4403
    OFIELD:  cpu time    0.0000: real time    0.0000

  FORCE on cell =-STRESS in cart. coord.  units (eV):
  Direction    XX          YY          ZZ          XY          YZ          ZX
  --------------------------------------------------------------------------------------
  Alpha Z    75.25432    75.25432    75.25432
  Ewald   43611.78726 49987.48013 43408.52446   926.69728   100.66584    35.19838
  Hartree 58502.66871 64551.33412 58328.15995   831.87657    90.70780    30.61010
  E(xc)   -2904.49610 -2903.04114 -2904.90768     0.66511     0.08112     0.04758
  Local  ************************************ -1750.93730  -190.49622   -65.46082
  n-local  -883.61514  -892.31660  -881.61728    -3.19415    -0.28679    -0.25467
  augment  4103.81124  4103.35064  4104.17315    -0.38816    -0.07263    -0.01199
  Kinetic  7807.73474  7791.88635  7810.28344    -5.29083    -0.67403    -0.24830
  Fock        0.00000     0.00000     0.00000     0.00000     0.00000     0.00000
  -------------------------------------------------------------------------------------
  Total    -114.80640  -111.88220  -113.76257    -0.57149    -0.07491    -0.11972
  in kB      -6.81260    -6.63908    -6.75066    -0.03391    -0.00445    -0.00710
  external pressure =       -6.73 kB  Pullay stress =        0.00 kB


 VOLUME and BASIS-vectors are now :
 -----------------------------------------------------------------------------
  energy-cutoff  :      400.00
  volume of cell :    27000.00
      direct lattice vectors                 reciprocal lattice vectors
    30.000000000  0.000000000  0.000000000     0.033333333  0.000000000  0.000000000
     0.000000000 30.000000000  0.000000000     0.000000000  0.033333333  0.000000000
     0.000000000  0.000000000 30.000000000     0.000000000  0.000000000  0.033333333

  length of vectors
    30.000000000 30.000000000 30.000000000     0.033333333  0.033333333  0.033333333


 FORCES acting on ions
    electron-ion (+dipol)            ewald-force                    non-local-force                 convergence-correction
 -----------------------------------------------------------------------------------------------
   0.391E+03 0.916E+03 0.445E+03   -.389E+03 -.913E+03 -.445E+03   -.144E+01 -.192E+01 -.107E+00   0.127E-03 0.104E-02 0.602E-02
   -.974E+03 -.398E+03 0.417E+03   0.971E+03 0.395E+03 -.416E+03   0.182E+01 0.149E+01 -.223E+00   0.227E-02 -.241E-02 -.642E-03
   -.417E+03 0.942E+03 0.431E+03   0.415E+03 -.939E+03 -.431E+03   0.146E+01 -.188E+01 -.254E+00   -.130E-02 0.972E-03 0.411E-02
   0.973E+03 -.400E+03 0.417E+03   -.970E+03 0.398E+03 -.417E+03   -.182E+01 0.149E+01 -.224E+00   -.236E-02 -.437E-02 0.403E-02
   -.553E+01 0.568E+03 0.977E+03   0.551E+01 -.567E+03 -.974E+03   0.162E-01 -.309E+00 -.235E+01   0.821E-03 -.166E-02 0.333E-02
   -.493E+01 0.570E+03 -.977E+03   0.492E+01 -.569E+03 0.973E+03   0.171E-01 -.306E+00 0.235E+01   -.261E-02 -.973E-03 -.545E-02
   -.837E+02 0.102E+04 -.106E+02   0.830E+02 -.101E+04 0.105E+02   0.137E-01 -.225E+01 0.243E-01   -.118E-02 0.439E-02 0.361E-02
   0.114E+04 -.885E+01 -.256E+00   -.113E+04 0.885E+01 0.253E+00   -.311E+01 0.909E-03 -.325E-04   0.335E-02 -.331E-02 0.289E-02
   -.114E+04 -.467E+01 -.143E+00   0.113E+04 0.468E+01 0.144E+00   0.311E+01 -.430E-04 0.740E-03   -.154E-02 -.108E-03 -.166E-02
   -.109E+01 -.113E+04 -.141E+00   0.109E+01 0.113E+04 0.138E+00   0.104E-02 0.311E+01 -.607E-03   0.123E-02 0.370E-02 0.388E-02
   -.586E+03 0.567E+03 0.819E+03   0.584E+03 -.565E+03 -.816E+03   0.156E+01 -.155E+01 -.220E+01   0.983E-03 0.670E-03 0.223E-02
   -.585E+03 0.568E+03 -.819E+03   0.583E+03 -.566E+03 0.816E+03   0.155E+01 -.156E+01 0.219E+01   -.396E-02 -.206E-02 -.286E-02
   0.578E+03 -.581E+03 0.814E+03   -.576E+03 0.578E+03 -.811E+03   -.156E+01 0.156E+01 -.220E+01   -.476E-02 -.240E-02 -.149E-02
   0.578E+03 -.580E+03 -.814E+03   -.576E+03 0.578E+03 0.811E+03   -.156E+01 0.156E+01 0.220E+01   -.133E-02 -.367E-02 0.139E-02
   0.582E+03 0.560E+03 0.825E+03   -.580E+03 -.558E+03 -.822E+03   -.156E+01 -.155E+01 -.221E+01   0.510E-03 -.232E-02 0.367E-02
   0.582E+03 0.562E+03 -.825E+03   -.579E+03 -.559E+03 0.821E+03   -.156E+01 -.155E+01 0.220E+01   0.263E-02 0.555E-03 -.525E-02
   -.580E+03 -.580E+03 0.813E+03   0.577E+03 0.578E+03 -.810E+03   0.156E+01 0.156E+01 -.220E+01   0.797E-02 -.355E-02 -.142E-02
   -.580E+03 -.580E+03 -.814E+03   0.577E+03 0.577E+03 0.810E+03   0.156E+01 0.156E+01 0.220E+01   0.945E-03 -.158E-02 0.255E-03
   0.392E+03 0.924E+03 -.446E+03   -.389E+03 -.921E+03 0.446E+03   -.146E+01 -.190E+01 0.132E+00   0.117E-02 0.447E-02 -.110E-02
   -.974E+03 -.398E+03 -.417E+03   0.971E+03 0.395E+03 0.417E+03   0.182E+01 0.150E+01 0.221E+00   0.161E-02 -.185E-02 -.174E-02
   -.328E+03 0.306E+03 0.457E+03   0.328E+03 -.306E+03 -.458E+03   -.356E+00 0.392E+00 0.510E+00   0.534E-03 -.295E-02 0.376E-02
   0.977E+03 0.379E+03 0.420E+03   -.974E+03 -.377E+03 -.420E+03   -.182E+01 -.149E+01 -.226E+00   0.145E-02 -.246E-02 0.614E-02
   -.395E+03 -.971E+03 0.417E+03   0.393E+03 0.968E+03 -.416E+03   0.149E+01 0.182E+01 -.224E+00   0.792E-02 -.698E-03 -.698E-03
   -.415E+03 0.944E+03 -.433E+03   0.413E+03 -.941E+03 0.432E+03   0.149E+01 -.187E+01 0.287E+00   -.434E-02 0.195E-02 -.704E-03
   0.973E+03 -.400E+03 -.418E+03   -.970E+03 0.398E+03 0.417E+03   -.182E+01 0.149E+01 0.224E+00   0.118E-03 -.651E-02 0.649E-03
   -.977E+03 0.386E+03 0.418E+03   0.974E+03 -.384E+03 -.418E+03   0.182E+01 -.150E+01 -.226E+00   -.459E-03 0.130E-02 0.671E-03
   0.393E+03 -.971E+03 0.417E+03   -.391E+03 0.968E+03 -.416E+03   -.149E+01 0.182E+01 -.226E+00   -.338E-02 0.523E-03 0.609E-03
   0.320E+03 0.301E+03 0.458E+03   -.321E+03 -.301E+03 -.459E+03   0.368E+00 0.384E+00 0.520E+00   0.236E-03 -.422E-02 0.822E-02
   -.107E+02 0.603E+03 -.136E+01   0.108E+02 -.604E+03 0.137E+01   -.583E-01 0.759E+00 -.880E-02   -.301E-02 -.716E-03 0.509E-02
   -.590E+03 -.615E+01 0.967E+03   0.589E+03 0.616E+01 -.963E+03   0.308E+00 -.618E-02 -.234E+01   0.419E-02 -.884E-03 0.233E-02
   -.589E+03 -.581E+01 -.967E+03   0.589E+03 0.582E+01 0.963E+03   0.310E+00 -.434E-02 0.234E+01   -.111E-02 -.302E-02 -.160E-02
   0.587E+03 -.889E+01 0.968E+03   -.587E+03 0.890E+01 -.965E+03   -.309E+00 -.417E-02 -.234E+01   -.141E-02 -.381E-02 0.260E-02
   0.587E+03 -.830E+01 -.968E+03   -.587E+03 0.831E+01 0.965E+03   -.308E+00 -.517E-02 0.234E+01   0.287E-03 -.567E-02 -.318E-02
   0.770E+03 0.724E+03 -.141E+01   -.768E+03 -.722E+03 0.140E+01   -.114E+01 -.116E+01 -.132E-02   0.299E-02 0.793E-03 0.505E-02
   -.762E+03 -.762E+03 -.124E+00   0.760E+03 0.760E+03 0.123E+00   0.114E+01 0.114E+01 0.761E-03   0.635E-02 -.418E-02 0.778E-03
   -.774E+03 0.744E+03 -.624E+00   0.772E+03 -.742E+03 0.623E+00   0.116E+01 -.112E+01 -.691E-03   -.306E-02 -.707E-03 0.168E-02
   0.761E+03 -.763E+03 -.157E+00   -.759E+03 0.761E+03 0.153E+00   -.114E+01 0.114E+01 0.437E-03   -.475E-02 -.616E-02 0.347E-02
   -.195E+01 -.864E+01 0.107E+04   0.195E+01 0.865E+01 -.107E+04   -.718E-03 -.412E-02 -.160E+01   0.265E-02 -.541E-02 0.148E-02
   -.183E+01 -.806E+01 -.107E+04   0.183E+01 0.807E+01 0.107E+04   -.974E-03 -.667E-02 0.160E+01   -.260E-02 -.568E-02 -.199E-02
   0.976E+03 0.380E+03 -.421E+03   -.973E+03 -.377E+03 0.420E+03   -.182E+01 -.149E+01 0.226E+00   0.493E-02 -.259E-02 -.869E-03
   -.395E+03 -.971E+03 -.417E+03   0.393E+03 0.968E+03 0.416E+03   0.150E+01 0.182E+01 0.224E+00   0.272E-02 -.121E-02 0.327E-02
   -.327E+03 0.306E+03 -.458E+03   0.328E+03 -.307E+03 0.458E+03   -.356E+00 0.391E+00 -.511E+00   -.501E-02 -.533E-02 -.993E-03
   0.320E+03 -.328E+03 0.454E+03   -.321E+03 0.328E+03 -.455E+03   0.367E+00 -.372E+00 0.519E+00   -.212E-02 -.994E-02 0.513E-02
   0.320E+03 0.302E+03 -.459E+03   -.321E+03 -.302E+03 0.460E+03   0.368E+00 0.385E+00 -.517E+00   -.137E-02 -.559E-02 -.123E-02
   -.977E+03 0.386E+03 -.418E+03   0.974E+03 -.384E+03 0.418E+03   0.182E+01 -.150E+01 0.225E+00   -.149E-02 -.141E-02 -.151E-02
   0.393E+03 -.971E+03 -.417E+03   -.391E+03 0.968E+03 0.417E+03   -.149E+01 0.182E+01 0.226E+00   -.176E-02 -.128E-02 0.466E-02
   -.323E+03 -.327E+03 0.454E+03   0.324E+03 0.327E+03 -.455E+03   -.368E+00 -.367E+00 0.521E+00   0.650E-02 -.749E-02 0.125E-02
   0.640E+03 -.128E+02 -.359E+00   -.641E+03 0.128E+02 0.354E+00   0.729E+00 -.726E-03 0.540E-04   0.370E-03 -.835E-02 0.448E-02
   -.643E+03 -.834E+01 -.240E+00   0.644E+03 0.835E+01 0.240E+00   -.731E+00 -.349E-02 0.919E-03   0.134E-02 -.346E-02 -.389E-03
   -.996E+00 -.588E+03 0.966E+03   0.994E+00 0.588E+03 -.962E+03   -.143E-02 0.318E+00 -.235E+01   0.384E-02 -.322E-02 -.404E-02
   -.956E+00 -.588E+03 -.966E+03   0.959E+00 0.588E+03 0.962E+03   -.112E-02 0.318E+00 0.234E+01   -.640E-03 -.295E-02 0.263E-02
   -.277E+01 -.127E+02 -.355E+00   0.277E+01 0.127E+02 0.351E+00   -.405E-02 -.192E-01 -.345E-03   -.239E-02 -.950E-02 0.339E-02
   0.320E+03 -.328E+03 -.455E+03   -.321E+03 0.328E+03 0.455E+03   0.368E+00 -.371E+00 -.520E+00   -.203E-02 -.952E-02 0.176E-02
   -.323E+03 -.326E+03 -.454E+03   0.324E+03 0.327E+03 0.455E+03   -.368E+00 -.365E+00 -.522E+00   0.334E-03 -.603E-02 0.636E-03
   -.121E+01 -.641E+03 -.157E+00   0.121E+01 0.642E+03 0.154E+00   0.289E-02 -.730E+00 -.432E-03   0.135E-02 -.741E-02 0.450E-02
   0.624E+02 0.108E+03 0.536E+01   -.570E+02 -.805E+02 -.469E+01   -.423E+01 -.244E+02 -.529E+00   0.238E-03 0.153E-02 0.653E-03
   0.143E+03 0.577E+03 0.163E+02   -.155E+03 -.639E+03 -.178E+02   0.114E+02 0.596E+02 0.147E+01   0.249E-03 0.183E-02 0.655E-03
 -----------------------------------------------------------------------------------------------
   -.727E+01 -.358E+02 -.106E+01   0.568E-12 -.159E-11 -.135E-12   0.726E+01 0.360E+02 0.100E+01   0.122E-01 -.145E+00 0.721E-01
 
 
 POSITION                                       TOTAL-FORCE (eV/Angst)
 -----------------------------------------------------------------------------------
     13.37281      9.84801     12.50759         0.694179      1.145501      0.247793
     20.15199     16.62719     12.50759        -1.107954     -0.703417      0.291362
     16.62719      9.84801     12.50759        -0.689593      1.130136      0.260197
      9.84801     16.62719     12.50759         1.108580     -0.701688      0.292767
     15.00000     11.47521     10.20639        -0.003608      0.408891      1.287454
     15.00000     11.47521     19.79360        -0.004071      0.407639     -1.287751
     15.00000      8.28283     15.00000        -0.666645      0.726620     -0.056240
      8.28283     15.00000     15.00000         1.516076     -0.000343     -0.000169
     21.71717     15.00000     15.00000        -1.516871      0.000618     -0.000316
     15.00000     21.71717     15.00000        -0.000871     -1.517747      0.000030
     18.35858     11.64142     10.25025        -0.749656      0.756771      1.070367
     18.35858     11.64142     19.74975        -0.747657      0.760991     -1.067672
     11.64142     18.35858     10.25025         0.756172     -0.756324      1.072477
     11.64142     18.35858     19.74975         0.756037     -0.756534     -1.072877
     11.64142     11.64142     10.25025         0.756476      0.754351      1.072522
     11.64142     11.64142     19.74975         0.756134      0.754846     -1.072492
     18.35858     18.35858     10.25025        -0.756437     -0.757253      1.071825
     18.35858     18.35858     19.74975        -0.756341     -0.757268     -1.072206
     13.37281      9.84801     17.49241         0.700118      1.143691     -0.253759
     20.15199     16.62719     17.49241        -1.107814     -0.703745     -0.291611
     16.73751     13.26249     12.54279         0.111494     -0.118025     -0.150023
      9.84801     13.37281     12.50759         1.108603      0.702326      0.292493
     16.62719     20.15199     12.50759        -0.702405     -1.108280      0.292015
     16.62719      9.84801     17.49241        -0.694312      1.124130     -0.277522
      9.84801     16.62719     17.49241         1.108527     -0.701867     -0.292976
     20.15199     13.37281     12.50759        -1.108049      0.705314      0.290814
     13.37281     20.15199     12.50759         0.701762     -1.108926      0.292979
     13.26249     13.26249     12.54279        -0.110745     -0.113426     -0.156821
     15.00000     11.52498     15.00000         0.027843     -0.203552      0.004443
     18.52479     15.00000     10.20639        -0.412412      0.003249      1.281839
     18.52479     15.00000     19.79360        -0.412355      0.001976     -1.282529
     11.47521     15.00000     10.20640         0.415245      0.000863      1.281688
     11.47521     15.00000     19.79360         0.414712      0.001250     -1.282456
     11.49535     11.49535     15.00000         0.826353      0.835698      0.000990
     18.50465     18.50465     15.00000        -0.829301     -0.830267     -0.000308
     18.50465     11.49535     15.00000        -0.836215      0.824985      0.000168
     11.49535     18.50465     15.00000         0.829016     -0.829852     -0.000166
     15.00000     15.00000     10.04368        -0.001363      0.000388      1.180777
     15.00000     15.00000     19.95633        -0.001265      0.001607     -1.181016
      9.84801     13.37281     17.49241         1.108730      0.702525     -0.292772
     16.62719     20.15199     17.49241        -0.703092     -1.107968     -0.292625
     16.73751     13.26249     17.45721         0.111042     -0.119820      0.149496
     13.26249     16.73751     12.54279        -0.113983      0.114498     -0.159209
     13.26249     13.26249     17.45721        -0.110967     -0.112537      0.156694
     20.15199     13.37281     17.49241        -1.108098      0.705322     -0.290992
     13.37281     20.15199     17.49241         0.702372     -1.108795     -0.293398
     16.73751     16.73751     12.54279         0.113445      0.113067     -0.159769
     11.52498     15.00000     15.00000        -0.228893     -0.000742     -0.000208
     18.47502     15.00000     15.00000         0.228594     -0.000700     -0.000080
     15.00000     18.52480     10.20639         0.000617     -0.414053      1.277881
     15.00000     18.52480     19.79360         0.000458     -0.414239     -1.278667
     15.00000     15.00000     15.00000        -0.002329      0.020101     -0.000391
     13.26249     16.73751     17.45721        -0.114150      0.114483      0.158526
     16.73751     16.73751     17.45721         0.113396      0.112475      0.159356
     15.00000     18.47502     15.00000         0.001712      0.229099      0.000163
     13.30424      6.22438     14.78556         1.214815      3.363438      0.137801
     13.09030      5.11718     14.75850        -0.585060     -2.719480     -0.057895
 -----------------------------------------------------------------------------------
    total drift:                               -0.003269      0.000957      0.011491


--------------------------------------------------------------------------------------------------------



  FREE ENERGIE OF THE ION-ELECTRON SYSTEM (eV)
  ---------------------------------------------------
  free  energy   TOTEN  =      -173.88178489 eV

  energy  without entropy=     -173.77888203  energy(sigma->0) =     -173.85605918
 


--------------------------------------------------------------------------------------------------------


    POTLOK:  cpu time   18.7491: real time   18.7493


--------------------------------------------------------------------------------------------------------


     LOOP+:  cpu time29403.2242: real time29404.4776
    4ORBIT:  cpu time    0.0000: real time    0.0000

 total amount of memory used by VASP MPI-rank0  5486942. kBytes
=======================================================================

   base      :      30000. kBytes
   nonlr-proj:      17127. kBytes
   fftplans  :     924480. kBytes
   grid      :    1872000. kBytes
   one-center:        886. kBytes
   wavefun   :    2642449. kBytes
 
  
  
 General timing and accounting informations for this job:
 ========================================================
  
                  Total CPU time used (sec):    29515.402
                            User time (sec):    27476.970
                          System time (sec):     2038.433
                         Elapsed time (sec):    29516.695
  
                   Maximum memory used (kb):     7179104.
                   Average memory used (kb):           0.
  
                          Minor page faults:    838317671
                          Major page faults:            0
                 Voluntary context switches:          554
