 vasp.5.4.4.18Apr17-6-g9f103f2a35 (build Sep 03 2018 23:53:05) complex          
  
 executed on             LinuxIFC date 2021.11.27  09:46:43
 running on    1 total cores
 distrk:  each k-point on    1 cores,    1 groups
 distr:  one band on NCORES_PER_BAND=   1 cores,    1 groups


--------------------------------------------------------------------------------------------------------


 INCAR:
 POTCAR:    PAW_PBE Pd 04Jan2005                  
 POTCAR:    PAW_PBE C 08Apr2002                   
 POTCAR:    PAW_PBE O 08Apr2002                   
 POTCAR:    PAW_PBE Pd 04Jan2005                  
   VRHFIN =Pd : s1 d9                                                           
   LEXCH  = PE                                                                  
   EATOM  =   809.7530 eV,   59.5152 Ry                                         
                                                                                
   TITEL  = PAW_PBE Pd 04Jan2005                                                
   LULTRA =        F    use ultrasoft PP ?                                      
   IUNSCR =        1    unscreen: 0-lin 1-nonlin 2-no                           
   RPACOR =    2.000    partial core radius                                     
   POMASS =  106.420; ZVAL   =   10.000    mass and valenz                      
   RCORE  =    2.600    outmost cutoff radius                                   
   RWIGS  =    2.710; RWIGS  =    1.434    wigner-seitz radius (au A)           
   ENMAX  =  250.925; ENMIN  =  188.194 eV                                      
   ICORE  =        3    local potential                                         
   LCOR   =        T    correct aug charges                                     
   LPAW   =        T    paw PP                                                  
   EAUG   =  416.230                                                            
   DEXC   =    0.000                                                            
   RMAX   =    2.653    core radius for proj-oper                               
   RAUG   =    1.300    factor for augmentation sphere                          
   RDEP   =    2.734    radius for radial grids                                 
   RDEPT  =    2.103    core radius for aug-charge                              
                                                                                
   Atomic configuration                                                         
   12 entries                                                                   
     n  l   j            E        occ.                                          
     1  0  0.50    -24164.6631   2.0000                                         
     2  0  0.50     -3530.9218   2.0000                                         
     2  1  1.50     -3165.6822   6.0000                                         
     3  0  0.50      -639.4577   2.0000                                         
     3  1  1.50      -519.4532   6.0000                                         
     3  2  2.50      -328.9757  10.0000                                         
     4  0  0.50       -88.7014   2.0000                                         
     4  1  1.50       -54.4540   6.0000                                         
     4  2  2.50        -6.6878   9.0000                                         
     5  0  0.50        -4.3543   1.0000                                         
     5  1  0.50        -1.3606   0.0000                                         
     4  3  2.50        -1.3606   0.0000                                         
   Description                                                                  
     l       E           TYP  RCUT    TYP  RCUT                                 
     2     -6.6878251     23  2.400                                             
     2     -8.0484077     23  2.400                                             
     0     -4.3542939     23  2.400                                             
     0      4.3406793     23  2.400                                             
     1     -4.0817478     23  2.600                                             
     1     15.8380318     23  2.600                                             
     3     -4.0817478     23  2.400                                             
  local pseudopotential read in
  partial core-charges read in
  partial kinetic energy density read in
  atomic valenz-charges read in
  non local Contribution for L=           2  read in
    real space projection operators read in
  non local Contribution for L=           2  read in
    real space projection operators read in
  non local Contribution for L=           0  read in
    real space projection operators read in
  non local Contribution for L=           0  read in
    real space projection operators read in
  non local Contribution for L=           1  read in
    real space projection operators read in
  non local Contribution for L=           1  read in
    real space projection operators read in
    PAW grid and wavefunctions read in
 
   number of l-projection  operators is LMAX  =           6
   number of lm-projection operators is LMMAX =          18
 
 POTCAR:    PAW_PBE C 08Apr2002                   
   VRHFIN =C: s2p2                                                              
   LEXCH  = PE                                                                  
   EATOM  =   147.1560 eV,   10.8157 Ry                                         
                                                                                
   TITEL  = PAW_PBE C 08Apr2002                                                 
   LULTRA =        F    use ultrasoft PP ?                                      
   IUNSCR =        1    unscreen: 0-lin 1-nonlin 2-no                           
   RPACOR =    1.200    partial core radius                                     
   POMASS =   12.011; ZVAL   =    4.000    mass and valenz                      
   RCORE  =    1.500    outmost cutoff radius                                   
   RWIGS  =    1.630; RWIGS  =    0.863    wigner-seitz radius (au A)           
   ENMAX  =  400.000; ENMIN  =  300.000 eV                                      
   ICORE  =        2    local potential                                         
   LCOR   =        T    correct aug charges                                     
   LPAW   =        T    paw PP                                                  
   EAUG   =  644.873                                                            
   DEXC   =    0.000                                                            
   RMAX   =    1.529    core radius for proj-oper                               
   RAUG   =    1.300    factor for augmentation sphere                          
   RDEP   =    1.501    radius for radial grids                                 
   RDEPT  =    1.300    core radius for aug-charge                              
                                                                                
   Atomic configuration                                                         
    4 entries                                                                   
     n  l   j            E        occ.                                          
     1  0  0.50      -273.3789   2.0000                                         
     2  0  0.50       -13.7508   2.0000                                         
     2  1  0.50        -5.2854   2.0000                                         
     3  2  1.50        -5.4423   0.0000                                         
   Description                                                                  
     l       E           TYP  RCUT    TYP  RCUT                                 
     0    -13.7508458     23  1.200                                             
     0     -8.2022199     23  1.200                                             
     1     -5.2854383     23  1.500                                             
     1     34.0145650     23  1.500                                             
     2     -5.4423304      7  1.500                                             
  local pseudopotential read in
  partial core-charges read in
  partial kinetic energy density read in
  atomic valenz-charges read in
  non local Contribution for L=           0  read in
    real space projection operators read in
  non local Contribution for L=           0  read in
    real space projection operators read in
  non local Contribution for L=           1  read in
    real space projection operators read in
  non local Contribution for L=           1  read in
    real space projection operators read in
    PAW grid and wavefunctions read in
 
   number of l-projection  operators is LMAX  =           4
   number of lm-projection operators is LMMAX =           8
 
 POTCAR:    PAW_PBE O 08Apr2002                   
   VRHFIN =O: s2p4                                                              
   LEXCH  = PE                                                                  
   EATOM  =   432.3788 eV,   31.7789 Ry                                         
                                                                                
   TITEL  = PAW_PBE O 08Apr2002                                                 
   LULTRA =        F    use ultrasoft PP ?                                      
   IUNSCR =        1    unscreen: 0-lin 1-nonlin 2-no                           
   RPACOR =    1.200    partial core radius                                     
   POMASS =   16.000; ZVAL   =    6.000    mass and valenz                      
   RCORE  =    1.520    outmost cutoff radius                                   
   RWIGS  =    1.550; RWIGS  =    0.820    wigner-seitz radius (au A)           
   ENMAX  =  400.000; ENMIN  =  300.000 eV                                      
   ICORE  =        2    local potential                                         
   LCOR   =        T    correct aug charges                                     
   LPAW   =        T    paw PP                                                  
   EAUG   =  605.392                                                            
   DEXC   =    0.000                                                            
   RMAX   =    1.553    core radius for proj-oper                               
   RAUG   =    1.300    factor for augmentation sphere                          
   RDEP   =    1.550    radius for radial grids                                 
   RDEPT  =    1.329    core radius for aug-charge                              
                                                                                
   Atomic configuration                                                         
    4 entries                                                                   
     n  l   j            E        occ.                                          
     1  0  0.50      -514.6923   2.0000                                         
     2  0  0.50       -23.9615   2.0000                                         
     2  1  0.50        -9.0305   4.0000                                         
     3  2  1.50        -9.5241   0.0000                                         
   Description                                                                  
     l       E           TYP  RCUT    TYP  RCUT                                 
     0    -23.9615318     23  1.200                                             
     0     -9.5240782     23  1.200                                             
     1     -9.0304911     23  1.520                                             
     1      8.1634956     23  1.520                                             
     2     -9.5240782      7  1.500                                             
  local pseudopotential read in
  partial core-charges read in
  partial kinetic energy density read in
  kinetic energy density of atom read in
  atomic valenz-charges read in
  non local Contribution for L=           0  read in
    real space projection operators read in
  non local Contribution for L=           0  read in
    real space projection operators read in
  non local Contribution for L=           1  read in
    real space projection operators read in
  non local Contribution for L=           1  read in
    real space projection operators read in
    PAW grid and wavefunctions read in
 
   number of l-projection  operators is LMAX  =           4
   number of lm-projection operators is LMMAX =           8
 
 Optimization of the real space projectors (new method)

 maximal supplied QI-value         = 14.36
 optimisation between [QCUT,QGAM] = [ 10.20, 20.39] = [ 29.12,116.47] Ry 
 Optimized for a Real-space Cutoff    1.51 Angstroem

   l    n(q)    QCUT    max X(q) W(low)/X(q) W(high)/X(q)  e(spline) 
   2      8    10.197    59.108    0.26E-03    0.14E-03    0.96E-07
   2      8    10.197    58.101    0.27E-03    0.14E-03    0.98E-07
   0      9    10.197   102.235    0.54E-04    0.60E-05    0.72E-07
   0      9    10.197    58.388    0.52E-04    0.60E-05    0.68E-07
   1      9    10.197    22.191    0.18E-03    0.25E-03    0.79E-07
   1      9    10.197    15.590    0.15E-03    0.21E-03    0.69E-07
 Optimization of the real space projectors (new method)

 maximal supplied QI-value         = 25.13
 optimisation between [QCUT,QGAM] = [ 10.05, 20.36] = [ 28.30,116.06] Ry 
 Optimized for a Real-space Cutoff    1.30 Angstroem

   l    n(q)    QCUT    max X(q) W(low)/X(q) W(high)/X(q)  e(spline) 
   0      8    10.053   115.676    0.49E-03    0.72E-03    0.18E-06
   0      8    10.053    87.132    0.49E-03    0.71E-03    0.18E-06
   1      7    10.053     4.429    0.32E-03    0.31E-03    0.18E-06
   1      7    10.053     2.733    0.23E-03    0.19E-03    0.20E-06
 Optimization of the real space projectors (new method)

 maximal supplied QI-value         = 24.76
 optimisation between [QCUT,QGAM] = [ 10.15, 20.30] = [ 28.85,115.39] Ry 
 Optimized for a Real-space Cutoff    1.38 Angstroem

   l    n(q)    QCUT    max X(q) W(low)/X(q) W(high)/X(q)  e(spline) 
   0      8    10.150    20.381    0.22E-03    0.32E-03    0.29E-06
   0      8    10.150    15.268    0.23E-03    0.35E-03    0.30E-06
   1      8    10.150     5.964    0.46E-03    0.53E-03    0.21E-06
   1      8    10.150     5.382    0.38E-03    0.45E-03    0.19E-06

 ----------------------------------------------------------------------------- 
|                                                                             |
|  ADVICE TO THIS USER RUNNING 'VASP/VAMP'   (HEAR YOUR MASTER'S VOICE ...):  |
|                                                                             |
|      You enforced a specific xc-type in the INCAR file,                     |
|      a different type was found on the POTCAR file                          |
|          I HOPE YOU KNOW, WHAT YOU ARE  DOING                               |
|                                                                             |
 ----------------------------------------------------------------------------- 

  PAW_PBE Pd 04Jan2005                  :
 energy of atom  1       EATOM= -809.7530
 kinetic energy error for atom=    0.0091 (will be added to EATOM!!)
  PAW_PBE C 08Apr2002                   :
 energy of atom  2       EATOM= -147.1560
 kinetic energy error for atom=    0.0288 (will be added to EATOM!!)
  PAW_PBE O 08Apr2002                   :
 energy of atom  3       EATOM= -432.3788
 kinetic energy error for atom=    0.1156 (will be added to EATOM!!)
 
 
 POSCAR: Pd55PES                                 
  positions in cartesian coordinates
  No initial velocities read in
 exchange correlation table for  LEXCH =        9
   RHO(1)=    0.500       N(1)  =     2000
   RHO(2)=  100.500       N(2)  =     4000
 


--------------------------------------------------------------------------------------------------------


 ion  position               nearest neighbor table
   1  0.446  0.328  0.417-   3 3.25   5 3.25   7 3.36  15 3.36  29 3.42  28 3.42
   2  0.672  0.554  0.417-  26 3.25  30 3.25  17 3.36   9 3.36  47 3.42  49 3.42
   3  0.554  0.328  0.417-   1 3.25   5 3.25   7 3.36  11 3.36  29 3.42  21 3.42
   4  0.328  0.554  0.417-  32 3.25  22 3.25  13 3.36   8 3.36  43 3.42  48 3.42
   5  0.500  0.383  0.340-   1 3.25   3 3.25  11 3.36  15 3.36  21 3.42  28 3.42
   6  0.500  0.383  0.660-  24 3.25  19 3.25  16 3.36  12 3.36  42 3.42  44 3.42
   7  0.500  0.276  0.500-  29 3.24   3 3.36   1 3.36  19 3.36  24 3.36
   8  0.276  0.500  0.500-  48 3.24  22 3.36  40 3.36   4 3.36  25 3.36
   9  0.724  0.500  0.500-  49 3.24  26 3.36  45 3.36   2 3.36  20 3.36
  10  0.500  0.724  0.500-  55 3.24  27 3.36  23 3.36  46 3.36  41 3.36
  11  0.612  0.388  0.342-  21 3.24   5 3.36   3 3.36  30 3.36  26 3.36
  12  0.612  0.388  0.658-  42 3.24  24 3.36  45 3.36   6 3.36  31 3.36
  13  0.388  0.612  0.342-  43 3.24  32 3.36  50 3.36   4 3.36  27 3.36
  14  0.388  0.612  0.658-  53 3.24  25 3.36  33 3.36  51 3.36  46 3.36
  15  0.388  0.388  0.342-  56 2.26  28 3.24   5 3.36   1 3.36  32 3.36  22 3.36
  16  0.388  0.388  0.658-  44 3.24  19 3.36  40 3.36   6 3.36  33 3.36
  17  0.612  0.612  0.342-  47 3.24  30 3.36  50 3.36   2 3.36  23 3.36
  18  0.612  0.612  0.658-  54 3.24  31 3.36  20 3.36  51 3.36  41 3.36
  19  0.446  0.328  0.583-   6 3.25  24 3.25  16 3.36   7 3.36  44 3.42  29 3.42
  20  0.672  0.554  0.583-  31 3.25  45 3.25  18 3.36   9 3.36  54 3.42  49 3.42
  21  0.558  0.442  0.418-  11 3.24   5 3.42   3 3.42  30 3.42  26 3.42
  22  0.328  0.446  0.417-   4 3.25  32 3.25   8 3.36  15 3.36  48 3.42  28 3.42
  23  0.554  0.672  0.417-  27 3.25  50 3.25  10 3.36  17 3.36  55 3.42  47 3.42
  24  0.554  0.328  0.583-   6 3.25  19 3.25  12 3.36   7 3.36  42 3.42  29 3.42
  25  0.328  0.554  0.583-  33 3.25  40 3.25  14 3.36   8 3.36  53 3.42  48 3.42
  26  0.672  0.446  0.417-   2 3.25  30 3.25   9 3.36  11 3.36  49 3.42  21 3.42
  27  0.446  0.672  0.417-  23 3.25  50 3.25  10 3.36  13 3.36  55 3.42  43 3.42
  28  0.442  0.442  0.418-  15 3.24   5 3.42   1 3.42  32 3.42  22 3.42
  29  0.500  0.384  0.500-   7 3.24   3 3.42   1 3.42  24 3.42  19 3.42
  30  0.617  0.500  0.340-   2 3.25  26 3.25  17 3.36  11 3.36  47 3.42  21 3.42
  31  0.617  0.500  0.660-  20 3.25  45 3.25  18 3.36  12 3.36  54 3.42  42 3.42
  32  0.383  0.500  0.340-   4 3.25  22 3.25  13 3.36  15 3.36  43 3.42  28 3.42
  33  0.383  0.500  0.660-  25 3.25  40 3.25  14 3.36  16 3.36  53 3.42  44 3.42
  34  0.383  0.383  0.500-
  35  0.617  0.617  0.500-
  36  0.617  0.383  0.500-
  37  0.383  0.617  0.500-
  38  0.500  0.500  0.335-
  39  0.500  0.500  0.665-
  40  0.328  0.446  0.583-  33 3.25  25 3.25  16 3.36   8 3.36  44 3.42  48 3.42
  41  0.554  0.672  0.583-  46 3.25  51 3.25  10 3.36  18 3.36  54 3.42  55 3.42
  42  0.558  0.442  0.582-  12 3.24   6 3.42  24 3.42  31 3.42  45 3.42
  43  0.442  0.558  0.418-  13 3.24   4 3.42  32 3.42  27 3.42  50 3.42
  44  0.442  0.442  0.582-  16 3.24   6 3.42  19 3.42  33 3.42  40 3.42
  45  0.672  0.446  0.583-  20 3.25  31 3.25   9 3.36  12 3.36  49 3.42  42 3.42
  46  0.446  0.672  0.583-  41 3.25  51 3.25  10 3.36  14 3.36  53 3.42  55 3.42
  47  0.558  0.558  0.418-  17 3.24   2 3.42  30 3.42  23 3.42  50 3.42
  48  0.384  0.500  0.500-   8 3.24   4 3.42  22 3.42  25 3.42  40 3.42
  49  0.616  0.500  0.500-   9 3.24   2 3.42  26 3.42  20 3.42  45 3.42
  50  0.500  0.617  0.340-  27 3.25  23 3.25  13 3.36  17 3.36  43 3.42  47 3.42
  51  0.500  0.617  0.660-  41 3.25  46 3.25  14 3.36  18 3.36  53 3.42  54 3.42
  52  0.500  0.500  0.500-
  53  0.442  0.558  0.582-  14 3.24  25 3.42  33 3.42  51 3.42  46 3.42
  54  0.558  0.558  0.582-  18 3.24  31 3.42  20 3.42  51 3.42  41 3.42
  55  0.500  0.616  0.500-  10 3.24  23 3.42  27 3.42  41 3.42  46 3.42
  56  0.313  0.384  0.343-  57 1.13  15 2.26
  57  0.287  0.368  0.321-  56 1.13
 
  LATTYP: Found a simple cubic cell.
 ALAT       =    30.0000000000
  
  Lattice vectors:
  
 A1 = (  30.0000000000,   0.0000000000,   0.0000000000)
 A2 = (   0.0000000000,  30.0000000000,   0.0000000000)
 A3 = (   0.0000000000,   0.0000000000,  30.0000000000)


Analysis of symmetry for initial positions (statically):
=====================================================================
 Subroutine PRICEL returns:
 Original cell was already a primitive cell.
 

 Routine SETGRP: Setting up the symmetry group for a 
 simple cubic supercell.


 Subroutine GETGRP returns: Found  1 space group operations
 (whereof  1 operations were pure point group operations)
 out of a pool of 48 trial point group operations.


The static configuration has the point symmetry C_1 .


Analysis of symmetry for dynamics (positions and initial velocities):
=====================================================================
 Subroutine PRICEL returns:
 Original cell was already a primitive cell.
 

 Routine SETGRP: Setting up the symmetry group for a 
 simple cubic supercell.


 Subroutine GETGRP returns: Found  1 space group operations
 (whereof  1 operations were pure point group operations)
 out of a pool of 48 trial point group operations.


The dynamic configuration has the point symmetry C_1 .


Analysis of constrained symmetry for selective dynamics:
=====================================================================
 Subroutine PRICEL returns:
 Original cell was already a primitive cell.
 

 Routine SETGRP: Setting up the symmetry group for a 
 simple cubic supercell.


 Subroutine GETGRP returns: Found  1 space group operations
 (whereof  1 operations were pure point group operations)
 out of a pool of 48 trial point group operations.


The constrained configuration has the point symmetry C_1 .


 Subroutine INISYM returns: Found  1 space group operations
 (whereof  1 operations are pure point group operations),
 and found     1 'primitive' translations

 
 
 KPOINTS: K-points                                

Automatic generation of k-mesh.
Space group operators:
 irot       det(A)        alpha          n_x          n_y          n_z        tau_x        tau_y        tau_z
    1     1.000000     0.000000     1.000000     0.000000     0.000000     0.000000     0.000000     0.000000
 
 Subroutine IBZKPT returns following result:
 ===========================================
 
 Found      1 irreducible k-points:
 
 Following reciprocal coordinates:
            Coordinates               Weight
  0.000000  0.000000  0.000000      1.000000
 
 Following cartesian coordinates:
            Coordinates               Weight
  0.000000  0.000000  0.000000      1.000000
 


--------------------------------------------------------------------------------------------------------




 Dimension of arrays:
   k-points           NKPTS =      1   k-points in BZ     NKDIM =      1   number of bands    NBANDS=    336
   number of dos      NEDOS =    301   number of ions     NIONS =     57
   non local maximal  LDIM  =      6   non local SUM 2l+1 LMDIM =     18
   total plane-waves  NPLWV = ******
   max r-space proj   IRMAX =   1847   max aug-charges    IRDMAX=   6262
   dimension x,y,z NGX =   150 NGY =  150 NGZ =  150
   dimension x,y,z NGXF=   300 NGYF=  300 NGZF=  300
   support grid    NGXF=   300 NGYF=  300 NGZF=  300
   ions per type =              55   1   1
   NGX,Y,Z   is equivalent  to a cutoff of   8.31,  8.31,  8.31 a.u.
   NGXF,Y,Z  is equivalent  to a cutoff of  16.62, 16.62, 16.62 a.u.

 SYSTEM =  6_Pd100_top_free_z(O)                   
 POSCAR =  Pd55PES                                 

 Startparameter for this run:
   NWRITE =      2    write-flag & timer
   PREC   = normal    normal or accurate (medium, high low for compatibility)
   ISTART =      0    job   : 0-new  1-cont  2-samecut
   ICHARG =      2    charge: 1-file 2-atom 10-const
   ISPIN  =      1    spin polarized calculation?
   LNONCOLLINEAR =      F non collinear calculations
   LSORBIT =      F    spin-orbit coupling
   INIWAV =      1    electr: 0-lowe 1-rand  2-diag
   LASPH  =      F    aspherical Exc in radial PAW
   METAGGA=      F    non-selfconsistent MetaGGA calc.

 Electronic Relaxation 1
   ENCUT  =  400.0 eV  29.40 Ry    5.42 a.u.  48.92 48.92 48.92*2*pi/ulx,y,z
   ENINI  =  400.0     initial cutoff
   ENAUG  =  644.9 eV  augmentation charge cutoff
   NELM   =    100;   NELMIN=  6; NELMDL= -5     # of ELM steps 
   EDIFF  = 0.1E-03   stopping-criterion for ELM
   LREAL  =      T    real-space projection
   NLSPLINE    = F    spline interpolate recip. space projectors
   LCOMPAT=      F    compatible to vasp.4.4
   GGA_COMPAT  = T    GGA compatible to vasp.4.4-vasp.4.6
   LMAXPAW     = -100 max onsite density
   LMAXMIX     =    2 max onsite mixed and CHGCAR
   VOSKOWN=      0    Vosko Wilk Nusair interpolation
   ROPT   =   -0.00050  -0.00050  -0.00050
 Ionic relaxation
   EDIFFG = -.5E-01   stopping-criterion for IOM
   NSW    =      0    number of steps for IOM
   NBLOCK =      1;   KBLOCK =      1    inner block; outer block 
   IBRION =     -1    ionic relax: 0-MD 1-quasi-New 2-CG
   NFREE  =      1    steps in history (QN), initial steepest desc. (CG)
   ISIF   =      2    stress and relaxation
   IWAVPR =     10    prediction:  0-non 1-charg 2-wave 3-comb
   ISYM   =      2    0-nonsym 1-usesym 2-fastsym
   LCORR  =      T    Harris-Foulkes like correction to forces

   POTIM  = 0.5000    time-step for ionic-motion
   TEIN   =    0.0    initial temperature
   TEBEG  =    0.0;   TEEND  =   0.0 temperature during run
   SMASS  =  -3.00    Nose mass-parameter (am)
   estimated Nose-frequenzy (Omega)   =  0.10E-29 period in steps =****** mass=  -0.206E-25a.u.
   SCALEE = 1.0000    scale energy and forces
   NPACO  =    256;   APACO  = 16.0  distance and # of slots for P.C.
   PSTRESS=    0.0 pullay stress

  Mass of Ions in am
   POMASS = 106.42 12.01 16.00
  Ionic Valenz
   ZVAL   =  10.00  4.00  6.00
  Atomic Wigner-Seitz radii
   RWIGS  =  -1.00 -1.00 -1.00
  virtual crystal weights 
   VCA    =   1.00  1.00  1.00
   NELECT =     560.0000    total number of electrons
   NUPDOWN=      -1.0000    fix difference up-down

 DOS related values:
   EMIN   =  10.00;   EMAX   =-10.00  energy-range for DOS
   EFERMI =   0.00
   ISMEAR =     2;   SIGMA  =   0.20  broadening in eV -4-tet -1-fermi 0-gaus

 Electronic relaxation 2 (details)
   IALGO  =     68    algorithm
   LDIAG  =      T    sub-space diagonalisation (order eigenvalues)
   LSUBROT=      F    optimize rotation matrix (better conditioning)
   TURBO    =      0    0=normal 1=particle mesh
   IRESTART =      0    0=no restart 2=restart with 2 vectors
   NREBOOT  =      0    no. of reboots
   NMIN     =      0    reboot dimension
   EREF     =   0.00    reference energy to select bands
   IMIX   =      4    mixing-type and parameters
     AMIX     =   0.40;   BMIX     =  1.00
     AMIX_MAG =   1.60;   BMIX_MAG =  1.00
     AMIN     =   0.10
     WC   =   100.;   INIMIX=   1;  MIXPRE=   1;  MAXMIX= -45

 Intra band minimization:
   WEIMIN = 0.0000     energy-eigenvalue tresh-hold
   EBREAK =  0.74E-07  absolut break condition
   DEPER  =   0.30     relativ break condition  

   TIME   =   0.40     timestep for ELM

  volume/ion in A,a.u.               =     473.68      3196.58
  Fermi-wavevector in a.u.,A,eV,Ry     =   0.449797  0.849992  2.752691  0.202317
  Thomas-Fermi vector in A             =   1.430086
 
 Write flags
   LWAVE        =      F    write WAVECAR
   LDOWNSAMPLE  =      F    k-point downsampling of WAVECAR
   LCHARG       =      F    write CHGCAR
   LVTOT        =      F    write LOCPOT, total local potential
   LVHAR        =      F    write LOCPOT, Hartree potential only
   LELF         =      F    write electronic localiz. function (ELF)
   LORBIT       =      0    0 simple, 1 ext, 2 COOP (PROOUT), +10 PAW based schemes


 Dipole corrections
   LMONO  =      F    monopole corrections only (constant potential shift)
   LDIPOL =      F    correct potential (dipole corrections)
   IDIPOL =      0    1-x, 2-y, 3-z, 4-all directions 
   EPSILON=  1.0000000 bulk dielectric constant

 Exchange correlation treatment:
   GGA     =    RP    GGA type
   LEXCH   =     9    internal setting for exchange type
   VOSKOWN=      0    Vosko Wilk Nusair interpolation
   LHFCALC =     F    Hartree Fock is set to
   LHFONE  =     F    Hartree Fock one center treatment
   AEXX    =    0.0000 exact exchange contribution

 Linear response parameters
   LEPSILON=     F    determine dielectric tensor
   LRPA    =     F    only Hartree local field effects (RPA)
   LNABLA  =     F    use nabla operator in PAW spheres
   LVEL    =     F    velocity operator in full k-point grid
   LINTERFAST=   F  fast interpolation
   KINTER  =     0    interpolate to denser k-point grid
   CSHIFT  =0.1000    complex shift for real part using Kramers Kronig
   OMEGAMAX=  -1.0    maximum frequency
   DEG_THRESHOLD= 0.2000000E-02 threshold for treating states as degnerate
   RTIME   =   -0.100 relaxation time in fs
  (WPLASMAI=    0.000 imaginary part of plasma frequency in eV, 0.658/RTIME)
   DFIELD  = 0.0000000 0.0000000 0.0000000 field for delta impulse in time
 
 Orbital magnetization related:
   ORBITALMAG=     F  switch on orbital magnetization
   LCHIMAG   =     F  perturbation theory with respect to B field
   DQ        =  0.001000  dq finite difference perturbation B field
   LLRAUG    =     F  two centre corrections for induced B field



--------------------------------------------------------------------------------------------------------


 Static calculation
 charge density and potential will be updated during run
 non-spin polarized calculation
 RMM-DIIS sequential band-by-band and
  variant of blocked Davidson during initial phase
 perform sub-space diagonalisation
    before iterative eigenvector-optimisation
 modified Broyden-mixing scheme, WC =      100.0
 initial mixing is a Kerker type mixing with AMIX =  0.4000 and BMIX =      1.0000
 Hartree-type preconditioning will be used
 using additional bands           56
 real space projection scheme for non local part
 use partial core corrections
 calculate Harris-corrections to forces 
   (improved forces if not selfconsistent)
 use gradient corrections 
 use of overlap-Matrix (Vanderbilt PP)
 Methfessel and Paxton  Order N= 2 SIGMA  =   0.20


--------------------------------------------------------------------------------------------------------


  energy-cutoff  :      400.00
  volume of cell :    27000.00
      direct lattice vectors                 reciprocal lattice vectors
    30.000000000  0.000000000  0.000000000     0.033333333  0.000000000  0.000000000
     0.000000000 30.000000000  0.000000000     0.000000000  0.033333333  0.000000000
     0.000000000  0.000000000 30.000000000     0.000000000  0.000000000  0.033333333

  length of vectors
    30.000000000 30.000000000 30.000000000     0.033333333  0.033333333  0.033333333


 
 k-points in units of 2pi/SCALE and weight: K-points                                
   0.00000000  0.00000000  0.00000000       1.000
 
 k-points in reciprocal lattice and weights: K-points                                
   0.00000000  0.00000000  0.00000000       1.000
 
 position of ions in fractional coordinates (direct lattice) 
   0.44576020  0.32826710  0.41691983
   0.67173288  0.55423978  0.41691983
   0.55423980  0.32826710  0.41691983
   0.32826712  0.55423978  0.41691983
   0.50000000  0.38250690  0.34021317
   0.50000000  0.38250690  0.65978680
   0.50000000  0.27609440  0.50000000
   0.27609443  0.49999998  0.50000000
   0.72390557  0.49999998  0.50000000
   0.50000000  0.72390555  0.50000000
   0.61195280  0.38804720  0.34167483
   0.61195280  0.38804720  0.65832513
   0.38804722  0.61195278  0.34167483
   0.38804722  0.61195278  0.65832513
   0.38804720  0.38804720  0.34167483
   0.38804720  0.38804720  0.65832513
   0.61195278  0.61195278  0.34167483
   0.61195278  0.61195278  0.65832513
   0.44576020  0.32826710  0.58308023
   0.67173288  0.55423978  0.58308023
   0.55791699  0.44208301  0.41809300
   0.32826705  0.44576024  0.41691983
   0.55423973  0.67173293  0.41691983
   0.55423980  0.32826710  0.58308023
   0.32826712  0.55423978  0.58308023
   0.67173295  0.44576024  0.41691983
   0.44576027  0.67173293  0.41691983
   0.44208301  0.44208301  0.41809300
   0.50000000  0.38416601  0.50000000
   0.61749315  0.50000005  0.34021317
   0.61749315  0.50000005  0.65978680
   0.38250685  0.50000005  0.34021317
   0.38250685  0.50000005  0.65978680
   0.38317830  0.38317830  0.50000000
   0.61682172  0.61682172  0.50000000
   0.61682170  0.38317830  0.50000000
   0.38317828  0.61682172  0.50000000
   0.50000000  0.50000000  0.33478917
   0.50000000  0.50000000  0.66521087
   0.32826705  0.44576024  0.58308023
   0.55423973  0.67173293  0.58308023
   0.55791699  0.44208301  0.58190703
   0.44208298  0.55791702  0.41809300
   0.44208301  0.44208301  0.58190703
   0.67173295  0.44576024  0.58308023
   0.44576027  0.67173293  0.58308023
   0.55791702  0.55791702  0.41809300
   0.38416599  0.50000002  0.50000000
   0.61583401  0.50000002  0.50000000
   0.50000000  0.61749319  0.34021317
   0.50000000  0.61749319  0.65978680
   0.50000000  0.50000000  0.50000000
   0.44208298  0.55791702  0.58190703
   0.55791702  0.55791702  0.58190703
   0.50000000  0.61583404  0.50000000
   0.31277100  0.38420910  0.34286193
   0.28674307  0.36811223  0.32101710
 
 position of ions in cartesian coordinates  (Angst):
  13.37280588  9.84801292 12.50759500
  20.15198637 16.62719342 12.50759500
  16.62719412  9.84801292 12.50759500
   9.84801363 16.62719342 12.50759500
  15.00000000 11.47520705 10.20639500
  15.00000000 11.47520705 19.79360400
  15.00000000  8.28283206 15.00000000
   8.28283277 14.99999929 15.00000000
  21.71716723 14.99999929 15.00000000
  15.00000000 21.71716652 14.99999999
  18.35858397 11.64141603 10.25024500
  18.35858397 11.64141603 19.74975399
  11.64141674 18.35858326 10.25024500
  11.64141674 18.35858326 19.74975400
  11.64141603 11.64141603 10.25024500
  11.64141603 11.64141603 19.74975400
  18.35858326 18.35858326 10.25024500
  18.35858326 18.35858326 19.74975400
  13.37280588  9.84801291 17.49240700
  20.15198638 16.62719341 17.49240700
  16.73750985 13.26249015 12.54279000
   9.84801151 13.37280729 12.50759500
  16.62719200 20.15198779 12.50759500
  16.62719412  9.84801292 17.49240700
   9.84801363 16.62719342 17.49240700
  20.15198849 13.37280729 12.50759500
  13.37280800 20.15198779 12.50759500
  13.26249015 13.26249015 12.54279000
  15.00000000 11.52498029 15.00000000
  18.52479437 15.00000140 10.20639500
  18.52479437 15.00000141 19.79360400
  11.47520562 15.00000141 10.20639501
  11.47520563 15.00000141 19.79360400
  11.49534898 11.49534898 15.00000000
  18.50465172 18.50465172 15.00000000
  18.50465102 11.49534898 15.00000000
  11.49534828 18.50465172 15.00000000
  15.00000000 15.00000000 10.04367500
  15.00000000 15.00000000 19.95632599
   9.84801151 13.37280729 17.49240700
  16.62719200 20.15198779 17.49240700
  16.73750985 13.26249015 17.45721100
  13.26248944 16.73751056 12.54279001
  13.26249015 13.26249015 17.45721100
  20.15198849 13.37280729 17.49240699
  13.37280800 20.15198779 17.49240700
  16.73751056 16.73751056 12.54279000
  11.52497959 15.00000071 15.00000000
  18.47502041 15.00000071 15.00000000
  14.99999999 18.52479579 10.20639500
  15.00000000 18.52479578 19.79360400
  15.00000000 15.00000000 15.00000000
  13.26248944 16.73751057 17.45721101
  16.73751056 16.73751057 17.45721100
  15.00000000 18.47502112 15.00000000
   9.38313000 11.52627300 10.28585800
   8.60229200 11.04336700  9.63051300
 


--------------------------------------------------------------------------------------------------------


 k-point  1 :   0.0000 0.0000 0.0000  plane waves:  490521

 maximum and minimum number of plane-waves per node :    490521   490521

 maximum number of plane-waves:    490521
 maximum index in each direction: 
   IXMAX=   48   IYMAX=   48   IZMAX=   48
   IXMIN=  -48   IYMIN=  -48   IZMIN=  -48


 serial   3D FFT for wavefunctions
 parallel 3D FFT for charge:
    minimum data exchange during FFTs selected (reduces bandwidth)


 total amount of memory used by VASP MPI-rank0  5486940. kBytes
=======================================================================

   base      :      30000. kBytes
   nonlr-proj:      17125. kBytes
   fftplans  :     924480. kBytes
   grid      :    1872000. kBytes
   one-center:        886. kBytes
   wavefun   :    2642449. kBytes
 
     INWAV:  cpu time    0.0001: real time    0.0004
 Broyden mixing: mesh for mixing (old mesh)
   NGX = 97   NGY = 97   NGZ = 97
  (NGX  =300   NGY  =300   NGZ  =300)
  gives a total of 912673 points

 initial charge density was supplied:
 charge density of overlapping atoms calculated
 number of electron     560.0000000 magnetization 
 keeping initial charge density in first step


--------------------------------------------------------------------------------------------------------


 Maximum index for non-local projection operator         1763
 Maximum index for augmentation-charges         5898 (set IRDMAX)


--------------------------------------------------------------------------------------------------------


 First call to EWALD:  gamma=   0.059
 Maximum number of real-space cells 3x 3x 3
 Maximum number of reciprocal cells 3x 3x 3

    FEWALD:  cpu time    0.0151: real time    0.0151


--------------------------------------- Iteration      1(   1)  ---------------------------------------


    POTLOK:  cpu time   14.1053: real time   14.1094
    SETDIJ:  cpu time    0.1167: real time    0.1167
     EDDAV:  cpu time  363.0712: real time  363.1732
       DOS:  cpu time    0.0012: real time    0.0012
    --------------------------------------------
      LOOP:  cpu time  377.2944: real time  377.4005

 eigenvalue-minimisations  :   688
 total energy-change (2. order) : 0.4383667E+04  (-0.1005069E+05)
 number of electron     560.0000000 magnetization 
 augmentation part      560.0000000 magnetization 

 Free energy of the ion-electron system (eV)
  ---------------------------------------------------
  alpha Z        PSCENC =        75.25431677
  Ewald energy   TEWEN  =    137617.45865078
  -Hartree energ DENC   =   -180982.51381045
  -exchange      EXHF   =         0.00000000
  -V(xc)+E(xc)   XCENC  =     -1703.49507288
  PAW double counting   =     44873.02882129   -41398.84523641
  entropy T*S    EENTRO =         0.01694725
  eigenvalues    EBANDS =       816.25712967
  atomic energy  EATOM  =     45086.50549395
  Solvation  Ediel_sol  =         0.00000000
  ---------------------------------------------------
  free energy    TOTEN  =      4383.66723997 eV

  energy without entropy =     4383.65029272  energy(sigma->0) =     4383.66300316


--------------------------------------------------------------------------------------------------------




--------------------------------------- Iteration      1(   2)  ---------------------------------------


     EDDAV:  cpu time  588.8626: real time  588.8830
       DOS:  cpu time    0.0012: real time    0.0012
    --------------------------------------------
      LOOP:  cpu time  588.8639: real time  588.8842

 eigenvalue-minimisations  :  1224
 total energy-change (2. order) :-0.2378086E+04  (-0.2139928E+04)
 number of electron     560.0000000 magnetization 
 augmentation part      560.0000000 magnetization 

 Free energy of the ion-electron system (eV)
  ---------------------------------------------------
  alpha Z        PSCENC =        75.25431677
  Ewald energy   TEWEN  =    137617.45865078
  -Hartree energ DENC   =   -180982.51381045
  -exchange      EXHF   =         0.00000000
  -V(xc)+E(xc)   XCENC  =     -1703.49507288
  PAW double counting   =     44873.02882129   -41398.84523641
  entropy T*S    EENTRO =        -0.02993237
  eigenvalues    EBANDS =     -1561.78187976
  atomic energy  EATOM  =     45086.50549395
  Solvation  Ediel_sol  =         0.00000000
  ---------------------------------------------------
  free energy    TOTEN  =      2005.58135092 eV

  energy without entropy =     2005.61128329  energy(sigma->0) =     2005.58883401


--------------------------------------------------------------------------------------------------------




--------------------------------------- Iteration      1(   3)  ---------------------------------------


     EDDAV:  cpu time  500.4716: real time  500.4757
       DOS:  cpu time    0.0011: real time    0.0011
    --------------------------------------------
      LOOP:  cpu time  500.4726: real time  500.4768

 eigenvalue-minimisations  :  1000
 total energy-change (2. order) :-0.1779014E+04  (-0.1675598E+04)
 number of electron     560.0000000 magnetization 
 augmentation part      560.0000000 magnetization 

 Free energy of the ion-electron system (eV)
  ---------------------------------------------------
  alpha Z        PSCENC =        75.25431677
  Ewald energy   TEWEN  =    137617.45865078
  -Hartree energ DENC   =   -180982.51381045
  -exchange      EXHF   =         0.00000000
  -V(xc)+E(xc)   XCENC  =     -1703.49507288
  PAW double counting   =     44873.02882129   -41398.84523641
  entropy T*S    EENTRO =         0.03285386
  eigenvalues    EBANDS =     -3340.85896129
  atomic energy  EATOM  =     45086.50549395
  Solvation  Ediel_sol  =         0.00000000
  ---------------------------------------------------
  free energy    TOTEN  =       226.56705563 eV

  energy without entropy =      226.53420177  energy(sigma->0) =      226.55884216


--------------------------------------------------------------------------------------------------------




--------------------------------------- Iteration      1(   4)  ---------------------------------------


     EDDAV:  cpu time  427.5425: real time  427.5419
       DOS:  cpu time    0.0011: real time    0.0011
    --------------------------------------------
      LOOP:  cpu time  427.5436: real time  427.5430

 eigenvalue-minimisations  :   824
 total energy-change (2. order) :-0.3616439E+03  (-0.3054488E+03)
 number of electron     560.0000000 magnetization 
 augmentation part      560.0000000 magnetization 

 Free energy of the ion-electron system (eV)
  ---------------------------------------------------
  alpha Z        PSCENC =        75.25431677
  Ewald energy   TEWEN  =    137617.45865078
  -Hartree energ DENC   =   -180982.51381045
  -exchange      EXHF   =         0.00000000
  -V(xc)+E(xc)   XCENC  =     -1703.49507288
  PAW double counting   =     44873.02882129   -41398.84523641
  entropy T*S    EENTRO =        -0.03814232
  eigenvalues    EBANDS =     -3702.43187006
  atomic energy  EATOM  =     45086.50549395
  Solvation  Ediel_sol  =         0.00000000
  ---------------------------------------------------
  free energy    TOTEN  =      -135.07684933 eV

  energy without entropy =     -135.03870701  energy(sigma->0) =     -135.06731375


--------------------------------------------------------------------------------------------------------




--------------------------------------- Iteration      1(   5)  ---------------------------------------


     EDDAV:  cpu time  525.4219: real time  525.4332
       DOS:  cpu time    0.0014: real time    0.0014
    CHARGE:  cpu time   26.3065: real time   26.3064
    MIXING:  cpu time    0.4542: real time    0.4542
    --------------------------------------------
      LOOP:  cpu time  552.1841: real time  552.1952

 eigenvalue-minimisations  :  1048
 total energy-change (2. order) :-0.4406576E+02  (-0.3632900E+02)
 number of electron     559.9999861 magnetization 
 augmentation part      245.1695632 magnetization 

 Broyden mixing:
  rms(total) = 0.13982E+01    rms(broyden)= 0.13972E+01
  rms(prec ) = 0.15034E+01
  weight for this iteration     100.00

 Free energy of the ion-electron system (eV)
  ---------------------------------------------------
  alpha Z        PSCENC =        75.25431677
  Ewald energy   TEWEN  =    137617.45865078
  -Hartree energ DENC   =   -180982.51381045
  -exchange      EXHF   =         0.00000000
  -V(xc)+E(xc)   XCENC  =     -1703.49507288
  PAW double counting   =     44873.02882129   -41398.84523641
  entropy T*S    EENTRO =         0.52605874
  eigenvalues    EBANDS =     -3747.06182953
  atomic energy  EATOM  =     45086.50549395
  Solvation  Ediel_sol  =         0.00000000
  ---------------------------------------------------
  free energy    TOTEN  =      -179.14260774 eV

  energy without entropy =     -179.66866648  energy(sigma->0) =     -179.27412243


--------------------------------------------------------------------------------------------------------




--------------------------------------- Iteration      1(   6)  ---------------------------------------


    POTLOK:  cpu time   13.2335: real time   13.2367
    SETDIJ:  cpu time    0.1212: real time    0.1212
    EDDIAG:  cpu time   68.9626: real time   68.9637
  RMM-DIIS:  cpu time  193.1754: real time  193.1764
    ORTHCH:  cpu time   13.6860: real time   13.6858
       DOS:  cpu time    0.0014: real time    0.0014
    CHARGE:  cpu time   26.0810: real time   26.0823
    MIXING:  cpu time    0.4594: real time    0.4594
    --------------------------------------------
      LOOP:  cpu time  315.7204: real time  315.7270

 eigenvalue-minimisations  :   724
 total energy-change (2. order) :-0.6072206E+00  (-0.5376654E+01)
 number of electron     559.9999885 magnetization 
 augmentation part      240.5655874 magnetization 

 Broyden mixing:
  rms(total) = 0.23945E+01    rms(broyden)= 0.23943E+01
  rms(prec ) = 0.28178E+01
  weight for this iteration     100.00

 eigenvalues of (default mixing * dielectric matrix)
  average eigenvalue GAMMA=   0.2984
  0.2984

 Free energy of the ion-electron system (eV)
  ---------------------------------------------------
  alpha Z        PSCENC =        75.25431677
  Ewald energy   TEWEN  =    137617.45865078
  -Hartree energ DENC   =   -181389.35601042
  -exchange      EXHF   =         0.00000000
  -V(xc)+E(xc)   XCENC  =     -1697.23137946
  PAW double counting   =     45623.29019969   -42122.13674796
  entropy T*S    EENTRO =        -0.15795054
  eigenvalues    EBANDS =     -3373.37640110
  atomic energy  EATOM  =     45086.50549395
  Solvation  Ediel_sol  =         0.00000000
  ---------------------------------------------------
  free energy    TOTEN  =      -179.74982830 eV

  energy without entropy =     -179.59187775  energy(sigma->0) =     -179.71034066


--------------------------------------------------------------------------------------------------------




--------------------------------------- Iteration      1(   7)  ---------------------------------------


    POTLOK:  cpu time   13.2953: real time   13.2981
    SETDIJ:  cpu time    0.1208: real time    0.1208
    EDDIAG:  cpu time   68.9163: real time   68.9174
  RMM-DIIS:  cpu time  227.7774: real time  227.7792
    ORTHCH:  cpu time   13.4130: real time   13.4128
       DOS:  cpu time    0.0015: real time    0.0015
    CHARGE:  cpu time   25.8416: real time   25.8412
    MIXING:  cpu time    0.4939: real time    0.4939
    --------------------------------------------
      LOOP:  cpu time  349.8598: real time  349.8649

 eigenvalue-minimisations  :   855
 total energy-change (2. order) :-0.2176651E+01  (-0.1834081E+01)
 number of electron     559.9999857 magnetization 
 augmentation part      240.5023268 magnetization 

 Broyden mixing:
  rms(total) = 0.25183E+01    rms(broyden)= 0.25180E+01
  rms(prec ) = 0.30659E+01
  weight for this iteration     100.00

 eigenvalues of (default mixing * dielectric matrix)
  average eigenvalue GAMMA=   0.2751
  0.4243  0.1259

 Free energy of the ion-electron system (eV)
  ---------------------------------------------------
  alpha Z        PSCENC =        75.25431677
  Ewald energy   TEWEN  =    137617.45865078
  -Hartree energ DENC   =   -181463.68840582
  -exchange      EXHF   =         0.00000000
  -V(xc)+E(xc)   XCENC  =     -1697.39859620
  PAW double counting   =     45676.56118044   -42173.16998404
  entropy T*S    EENTRO =        -0.10012408
  eigenvalues    EBANDS =     -3303.34901099
  atomic energy  EATOM  =     45086.50549395
  Solvation  Ediel_sol  =         0.00000000
  ---------------------------------------------------
  free energy    TOTEN  =      -181.92647920 eV

  energy without entropy =     -181.82635512  energy(sigma->0) =     -181.90144818


--------------------------------------------------------------------------------------------------------




--------------------------------------- Iteration      1(   8)  ---------------------------------------


    POTLOK:  cpu time   13.5384: real time   13.5391
    SETDIJ:  cpu time    0.1203: real time    0.1203
    EDDIAG:  cpu time   69.2386: real time   69.2386
  RMM-DIIS:  cpu time  211.4714: real time  211.4731
    ORTHCH:  cpu time   13.6300: real time   13.6298
       DOS:  cpu time    0.0014: real time    0.0014
    CHARGE:  cpu time   25.6910: real time   25.6907
    MIXING:  cpu time    0.5321: real time    0.5324
    --------------------------------------------
      LOOP:  cpu time  334.2233: real time  334.2255

 eigenvalue-minimisations  :   791
 total energy-change (2. order) :-0.5055307E+00  (-0.6787304E+00)
 number of electron     559.9999825 magnetization 
 augmentation part      240.2911405 magnetization 

 Broyden mixing:
  rms(total) = 0.23489E+01    rms(broyden)= 0.23486E+01
  rms(prec ) = 0.27316E+01
  weight for this iteration     100.00

 eigenvalues of (default mixing * dielectric matrix)
  average eigenvalue GAMMA=   0.2924
  0.6234  0.1268  0.1268

 Free energy of the ion-electron system (eV)
  ---------------------------------------------------
  alpha Z        PSCENC =        75.25431677
  Ewald energy   TEWEN  =    137617.45865078
  -Hartree energ DENC   =   -181509.34097457
  -exchange      EXHF   =         0.00000000
  -V(xc)+E(xc)   XCENC  =     -1697.45562360
  PAW double counting   =     45724.35539582   -42218.90548526
  entropy T*S    EENTRO =        -0.10857857
  eigenvalues    EBANDS =     -3260.19520523
  atomic energy  EATOM  =     45086.50549395
  Solvation  Ediel_sol  =         0.00000000
  ---------------------------------------------------
  free energy    TOTEN  =      -182.43200991 eV

  energy without entropy =     -182.32343135  energy(sigma->0) =     -182.40486527


--------------------------------------------------------------------------------------------------------




--------------------------------------- Iteration      1(   9)  ---------------------------------------


    POTLOK:  cpu time   13.4267: real time   13.4274
    SETDIJ:  cpu time    0.1220: real time    0.1220
    EDDIAG:  cpu time   69.5060: real time   69.5067
  RMM-DIIS:  cpu time  192.0143: real time  192.0148
    ORTHCH:  cpu time   13.6314: real time   13.6312
       DOS:  cpu time    0.0014: real time    0.0014
    CHARGE:  cpu time   25.7153: real time   25.7152
    MIXING:  cpu time    0.5511: real time    0.5511
    --------------------------------------------
      LOOP:  cpu time  314.9682: real time  314.9698

 eigenvalue-minimisations  :   724
 total energy-change (2. order) : 0.3470664E+00  (-0.5436586E+00)
 number of electron     559.9999862 magnetization 
 augmentation part      240.9128199 magnetization 

 Broyden mixing:
  rms(total) = 0.24791E+01    rms(broyden)= 0.24787E+01
  rms(prec ) = 0.28897E+01
  weight for this iteration     100.00

 eigenvalues of (default mixing * dielectric matrix)
  average eigenvalue GAMMA=   0.2911
  0.7672  0.1504  0.1504  0.0962

 Free energy of the ion-electron system (eV)
  ---------------------------------------------------
  alpha Z        PSCENC =        75.25431677
  Ewald energy   TEWEN  =    137617.45865078
  -Hartree energ DENC   =   -181523.84971848
  -exchange      EXHF   =         0.00000000
  -V(xc)+E(xc)   XCENC  =     -1697.38224861
  PAW double counting   =     45788.96328978   -42280.59952580
  entropy T*S    EENTRO =        -0.08736298
  eigenvalues    EBANDS =     -3248.34783895
  atomic energy  EATOM  =     45086.50549395
  Solvation  Ediel_sol  =         0.00000000
  ---------------------------------------------------
  free energy    TOTEN  =      -182.08494355 eV

  energy without entropy =     -181.99758057  energy(sigma->0) =     -182.06310280


--------------------------------------------------------------------------------------------------------




--------------------------------------- Iteration      1(  10)  ---------------------------------------


    POTLOK:  cpu time   13.4198: real time   13.4205
    SETDIJ:  cpu time    0.1238: real time    0.1238
    EDDIAG:  cpu time   69.8281: real time   69.8288
  RMM-DIIS:  cpu time  195.4663: real time  195.4663
    ORTHCH:  cpu time   13.4637: real time   13.4636
       DOS:  cpu time    0.0014: real time    0.0014
    CHARGE:  cpu time   25.8188: real time   25.8186
    MIXING:  cpu time    0.5748: real time    0.5748
    --------------------------------------------
      LOOP:  cpu time  318.6966: real time  318.6978

 eigenvalue-minimisations  :   737
 total energy-change (2. order) : 0.1203193E+01  (-0.3149904E+00)
 number of electron     559.9999859 magnetization 
 augmentation part      241.1658937 magnetization 

 Broyden mixing:
  rms(total) = 0.23752E+01    rms(broyden)= 0.23748E+01
  rms(prec ) = 0.28197E+01
  weight for this iteration     100.00

 eigenvalues of (default mixing * dielectric matrix)
  average eigenvalue GAMMA=   0.2707
  0.8420  0.1626  0.1626  0.0931  0.0931

 Free energy of the ion-electron system (eV)
  ---------------------------------------------------
  alpha Z        PSCENC =        75.25431677
  Ewald energy   TEWEN  =    137617.45865078
  -Hartree energ DENC   =   -181557.85833572
  -exchange      EXHF   =         0.00000000
  -V(xc)+E(xc)   XCENC  =     -1697.23533519
  PAW double counting   =     45841.01804690   -42330.44423259
  entropy T*S    EENTRO =        -0.08401835
  eigenvalues    EBANDS =     -3215.49633719
  atomic energy  EATOM  =     45086.50549395
  Solvation  Ediel_sol  =         0.00000000
  ---------------------------------------------------
  free energy    TOTEN  =      -180.88175064 eV

  energy without entropy =     -180.79773229  energy(sigma->0) =     -180.86074606


--------------------------------------------------------------------------------------------------------




--------------------------------------- Iteration      1(  11)  ---------------------------------------


    POTLOK:  cpu time   13.4895: real time   13.4902
    SETDIJ:  cpu time    0.1255: real time    0.1255
    EDDIAG:  cpu time   69.5274: real time   69.5283
  RMM-DIIS:  cpu time  193.2131: real time  193.2136
    ORTHCH:  cpu time   13.4459: real time   13.4457
       DOS:  cpu time    0.0015: real time    0.0015
    CHARGE:  cpu time   25.7527: real time   25.7523
    MIXING:  cpu time    0.6054: real time    0.6054
    --------------------------------------------
      LOOP:  cpu time  316.1609: real time  316.1624

 eigenvalue-minimisations  :   727
 total energy-change (2. order) : 0.2171125E+01  (-0.1797917E+00)
 number of electron     559.9999847 magnetization 
 augmentation part      241.4589415 magnetization 

 Broyden mixing:
  rms(total) = 0.18539E+01    rms(broyden)= 0.18536E+01
  rms(prec ) = 0.21457E+01
  weight for this iteration     100.00

 eigenvalues of (default mixing * dielectric matrix)
  average eigenvalue GAMMA=   0.2551
  0.8929  0.1788  0.1788  0.1021  0.1021  0.0758

 Free energy of the ion-electron system (eV)
  ---------------------------------------------------
  alpha Z        PSCENC =        75.25431677
  Ewald energy   TEWEN  =    137617.45865078
  -Hartree energ DENC   =   -181579.75457873
  -exchange      EXHF   =         0.00000000
  -V(xc)+E(xc)   XCENC  =     -1697.11421278
  PAW double counting   =     45874.10007762   -42362.06011346
  entropy T*S    EENTRO =        -0.07287712
  eigenvalues    EBANDS =     -3193.02738270
  atomic energy  EATOM  =     45086.50549395
  Solvation  Ediel_sol  =         0.00000000
  ---------------------------------------------------
  free energy    TOTEN  =      -178.71062568 eV

  energy without entropy =     -178.63774856  energy(sigma->0) =     -178.69240640


--------------------------------------------------------------------------------------------------------




--------------------------------------- Iteration      1(  12)  ---------------------------------------


    POTLOK:  cpu time   13.2044: real time   13.2051
    SETDIJ:  cpu time    0.1216: real time    0.1216
    EDDIAG:  cpu time   69.5337: real time   69.5368
  RMM-DIIS:  cpu time  193.1388: real time  193.1415
    ORTHCH:  cpu time   13.3898: real time   13.3896
       DOS:  cpu time    0.0015: real time    0.0015
    CHARGE:  cpu time   25.4320: real time   25.4318
    MIXING:  cpu time    0.6652: real time    0.6652
    --------------------------------------------
      LOOP:  cpu time  315.4869: real time  315.4931

 eigenvalue-minimisations  :   725
 total energy-change (2. order) : 0.1466151E+01  (-0.1267943E+00)
 number of electron     559.9999840 magnetization 
 augmentation part      241.6071441 magnetization 

 Broyden mixing:
  rms(total) = 0.14699E+01    rms(broyden)= 0.14696E+01
  rms(prec ) = 0.17308E+01
  weight for this iteration     100.00

 eigenvalues of (default mixing * dielectric matrix)
  average eigenvalue GAMMA=   0.2449
  0.9252  0.2048  0.2048  0.1130  0.1007  0.1007  0.0648

 Free energy of the ion-electron system (eV)
  ---------------------------------------------------
  alpha Z        PSCENC =        75.25431677
  Ewald energy   TEWEN  =    137617.45865078
  -Hartree energ DENC   =   -181597.03921658
  -exchange      EXHF   =         0.00000000
  -V(xc)+E(xc)   XCENC  =     -1696.95031639
  PAW double counting   =     45901.38456281   -42388.05670505
  entropy T*S    EENTRO =        -0.15943295
  eigenvalues    EBANDS =     -3175.64182829
  atomic energy  EATOM  =     45086.50549395
  Solvation  Ediel_sol  =         0.00000000
  ---------------------------------------------------
  free energy    TOTEN  =      -177.24447494 eV

  energy without entropy =     -177.08504199  energy(sigma->0) =     -177.20461670


--------------------------------------------------------------------------------------------------------




--------------------------------------- Iteration      1(  13)  ---------------------------------------


    POTLOK:  cpu time   13.4741: real time   13.4747
    SETDIJ:  cpu time    0.1234: real time    0.1234
    EDDIAG:  cpu time   69.1816: real time   69.1833
  RMM-DIIS:  cpu time  192.4927: real time  192.4953
    ORTHCH:  cpu time   13.3042: real time   13.3041
       DOS:  cpu time    0.0016: real time    0.0016
    CHARGE:  cpu time   25.3920: real time   25.3917
    MIXING:  cpu time    0.6766: real time    0.6766
    --------------------------------------------
      LOOP:  cpu time  314.6463: real time  314.6507

 eigenvalue-minimisations  :   723
 total energy-change (2. order) : 0.7919856E+00  (-0.8034368E-01)
 number of electron     559.9999851 magnetization 
 augmentation part      241.6179849 magnetization 

 Broyden mixing:
  rms(total) = 0.13868E+01    rms(broyden)= 0.13865E+01
  rms(prec ) = 0.16509E+01
  weight for this iteration     100.00

 eigenvalues of (default mixing * dielectric matrix)
  average eigenvalue GAMMA=   0.2441
  0.9673  0.2560  0.2560  0.1178  0.1178  0.0918  0.0918  0.0541

 Free energy of the ion-electron system (eV)
  ---------------------------------------------------
  alpha Z        PSCENC =        75.25431677
  Ewald energy   TEWEN  =    137617.45865078
  -Hartree energ DENC   =   -181612.66623899
  -exchange      EXHF   =         0.00000000
  -V(xc)+E(xc)   XCENC  =     -1696.77151310
  PAW double counting   =     45923.47925801   -42409.02633749
  entropy T*S    EENTRO =        -0.06548298
  eigenvalues    EBANDS =     -3160.62063628
  atomic energy  EATOM  =     45086.50549395
  Solvation  Ediel_sol  =         0.00000000
  ---------------------------------------------------
  free energy    TOTEN  =      -176.45248933 eV

  energy without entropy =     -176.38700635  energy(sigma->0) =     -176.43611859


--------------------------------------------------------------------------------------------------------




--------------------------------------- Iteration      1(  14)  ---------------------------------------


    POTLOK:  cpu time   13.2667: real time   13.2673
    SETDIJ:  cpu time    0.1240: real time    0.1240
    EDDIAG:  cpu time   69.6389: real time   69.6389
  RMM-DIIS:  cpu time  188.4048: real time  188.4062
    ORTHCH:  cpu time   13.2198: real time   13.2197
       DOS:  cpu time    0.0015: real time    0.0015
    CHARGE:  cpu time   25.5636: real time   25.5633
    MIXING:  cpu time    0.7053: real time    0.7054
    --------------------------------------------
      LOOP:  cpu time  310.9247: real time  310.9263

 eigenvalue-minimisations  :   711
 total energy-change (2. order) : 0.3746584E+00  (-0.7464166E-01)
 number of electron     559.9999851 magnetization 
 augmentation part      241.6973651 magnetization 

 Broyden mixing:
  rms(total) = 0.11986E+01    rms(broyden)= 0.11983E+01
  rms(prec ) = 0.13805E+01
  weight for this iteration     100.00

 eigenvalues of (default mixing * dielectric matrix)
  average eigenvalue GAMMA=   0.2777
  1.1282  0.4649  0.3148  0.1275  0.1275  0.0972  0.0947  0.0947  0.0499

 Free energy of the ion-electron system (eV)
  ---------------------------------------------------
  alpha Z        PSCENC =        75.25431677
  Ewald energy   TEWEN  =    137617.45865078
  -Hartree energ DENC   =   -181626.68709611
  -exchange      EXHF   =         0.00000000
  -V(xc)+E(xc)   XCENC  =     -1696.51179613
  PAW double counting   =     45948.92082726   -42433.09640784
  entropy T*S    EENTRO =        -0.12258349
  eigenvalues    EBANDS =     -3147.79923608
  atomic energy  EATOM  =     45086.50549395
  Solvation  Ediel_sol  =         0.00000000
  ---------------------------------------------------
  free energy    TOTEN  =      -176.07783090 eV

  energy without entropy =     -175.95524741  energy(sigma->0) =     -176.04718503


--------------------------------------------------------------------------------------------------------




--------------------------------------- Iteration      1(  15)  ---------------------------------------


    POTLOK:  cpu time   13.4781: real time   13.4787
    SETDIJ:  cpu time    0.1286: real time    0.1286
    EDDIAG:  cpu time   70.0365: real time   70.0381
  RMM-DIIS:  cpu time  186.2647: real time  186.2674
    ORTHCH:  cpu time   13.3370: real time   13.3368
       DOS:  cpu time    0.0015: real time    0.0015
    CHARGE:  cpu time   25.5669: real time   25.5666
    MIXING:  cpu time    0.7858: real time    0.7858
    --------------------------------------------
      LOOP:  cpu time  309.5990: real time  309.6035

 eigenvalue-minimisations  :   705
 total energy-change (2. order) :-0.1536185E+00  (-0.1160094E+00)
 number of electron     559.9999871 magnetization 
 augmentation part      241.2710770 magnetization 

 Broyden mixing:
  rms(total) = 0.17064E+01    rms(broyden)= 0.17061E+01
  rms(prec ) = 0.20202E+01
  weight for this iteration     100.00

 eigenvalues of (default mixing * dielectric matrix)
  average eigenvalue GAMMA=   0.2808
  1.2236  0.6310  0.2544  0.1413  0.1413  0.0986  0.0986  0.1030  0.0663  0.0503

 Free energy of the ion-electron system (eV)
  ---------------------------------------------------
  alpha Z        PSCENC =        75.25431677
  Ewald energy   TEWEN  =    137617.45865078
  -Hartree energ DENC   =   -181686.42958094
  -exchange      EXHF   =         0.00000000
  -V(xc)+E(xc)   XCENC  =     -1695.66772515
  PAW double counting   =     46028.67676858   -42508.50463568
  entropy T*S    EENTRO =         0.00576124
  eigenvalues    EBANDS =     -3093.53049898
  atomic energy  EATOM  =     45086.50549395
  Solvation  Ediel_sol  =         0.00000000
  ---------------------------------------------------
  free energy    TOTEN  =      -176.23144943 eV

  energy without entropy =     -176.23721067  energy(sigma->0) =     -176.23288974


--------------------------------------------------------------------------------------------------------




--------------------------------------- Iteration      1(  16)  ---------------------------------------


    POTLOK:  cpu time   13.5710: real time   13.5717
    SETDIJ:  cpu time    0.1270: real time    0.1270
    EDDIAG:  cpu time   69.6163: real time   69.6171
  RMM-DIIS:  cpu time  189.0385: real time  189.0389
    ORTHCH:  cpu time   13.6370: real time   13.6369
       DOS:  cpu time    0.0015: real time    0.0015
    CHARGE:  cpu time   25.7746: real time   25.7745
    MIXING:  cpu time    0.8468: real time    0.8467
    --------------------------------------------
      LOOP:  cpu time  312.6128: real time  312.6142

 eigenvalue-minimisations  :   718
 total energy-change (2. order) : 0.6243915E+00  (-0.6295540E-01)
 number of electron     559.9999859 magnetization 
 augmentation part      241.0823264 magnetization 

 Broyden mixing:
  rms(total) = 0.10899E+01    rms(broyden)= 0.10896E+01
  rms(prec ) = 0.13065E+01
  weight for this iteration     100.00

 eigenvalues of (default mixing * dielectric matrix)
  average eigenvalue GAMMA=   0.2911
  1.3701  0.7134  0.2099  0.2099  0.1859  0.1130  0.1130  0.0900  0.0900  0.0579
  0.0486

 Free energy of the ion-electron system (eV)
  ---------------------------------------------------
  alpha Z        PSCENC =        75.25431677
  Ewald energy   TEWEN  =    137617.45865078
  -Hartree energ DENC   =   -181715.50875721
  -exchange      EXHF   =         0.00000000
  -V(xc)+E(xc)   XCENC  =     -1695.26614417
  PAW double counting   =     46062.11664398   -42540.08180626
  entropy T*S    EENTRO =        -0.07423469
  eigenvalues    EBANDS =     -3066.01122106
  atomic energy  EATOM  =     45086.50549395
  Solvation  Ediel_sol  =         0.00000000
  ---------------------------------------------------
  free energy    TOTEN  =      -175.60705791 eV

  energy without entropy =     -175.53282321  energy(sigma->0) =     -175.58849923


--------------------------------------------------------------------------------------------------------




--------------------------------------- Iteration      1(  17)  ---------------------------------------


    POTLOK:  cpu time   13.6947: real time   13.6954
    SETDIJ:  cpu time    0.1255: real time    0.1254
    EDDIAG:  cpu time   69.1116: real time   69.1122
  RMM-DIIS:  cpu time  186.8334: real time  186.8366
    ORTHCH:  cpu time   13.5074: real time   13.5072
       DOS:  cpu time    0.0015: real time    0.0015
    CHARGE:  cpu time   25.7559: real time   25.7556
    MIXING:  cpu time    0.8842: real time    0.8842
    --------------------------------------------
      LOOP:  cpu time  309.9141: real time  309.9181

 eigenvalue-minimisations  :   710
 total energy-change (2. order) : 0.2383851E+00  (-0.6039793E-01)
 number of electron     559.9999850 magnetization 
 augmentation part      241.1274774 magnetization 

 Broyden mixing:
  rms(total) = 0.11125E+01    rms(broyden)= 0.11123E+01
  rms(prec ) = 0.13043E+01
  weight for this iteration     100.00

 eigenvalues of (default mixing * dielectric matrix)
  average eigenvalue GAMMA=   0.3051
  1.4804  0.7933  0.3077  0.3077  0.1628  0.1214  0.1214  0.0911  0.0911  0.0797
  0.0566  0.0484

 Free energy of the ion-electron system (eV)
  ---------------------------------------------------
  alpha Z        PSCENC =        75.25431677
  Ewald energy   TEWEN  =    137617.45865078
  -Hartree energ DENC   =   -181736.74385102
  -exchange      EXHF   =         0.00000000
  -V(xc)+E(xc)   XCENC  =     -1694.92035915
  PAW double counting   =     46090.27292478   -42566.43123258
  entropy T*S    EENTRO =        -0.04969936
  eigenvalues    EBANDS =     -3046.71491701
  atomic energy  EATOM  =     45086.50549395
  Solvation  Ediel_sol  =         0.00000000
  ---------------------------------------------------
  free energy    TOTEN  =      -175.36867285 eV

  energy without entropy =     -175.31897349  energy(sigma->0) =     -175.35624801


--------------------------------------------------------------------------------------------------------




--------------------------------------- Iteration      1(  18)  ---------------------------------------


    POTLOK:  cpu time   13.4727: real time   13.4733
    SETDIJ:  cpu time    0.1222: real time    0.1222
    EDDIAG:  cpu time   68.9350: real time   68.9351
  RMM-DIIS:  cpu time  184.4795: real time  184.4906
    ORTHCH:  cpu time   13.5550: real time   13.5564
       DOS:  cpu time    0.0015: real time    0.0015
    CHARGE:  cpu time   25.8140: real time   25.8155
    MIXING:  cpu time    0.9548: real time    0.9548
    --------------------------------------------
      LOOP:  cpu time  307.3347: real time  307.3496

 eigenvalue-minimisations  :   698
 total energy-change (2. order) : 0.7054119E-01  (-0.4849672E-01)
 number of electron     559.9999871 magnetization 
 augmentation part      241.1715930 magnetization 

 Broyden mixing:
  rms(total) = 0.11808E+01    rms(broyden)= 0.11806E+01
  rms(prec ) = 0.13466E+01
  weight for this iteration     100.00

 eigenvalues of (default mixing * dielectric matrix)
  average eigenvalue GAMMA=   0.3145
  1.5432  0.9524  0.3700  0.3700  0.1301  0.1301  0.1005  0.1005  0.1052  0.1052
  0.0780  0.0550  0.0481

 Free energy of the ion-electron system (eV)
  ---------------------------------------------------
  alpha Z        PSCENC =        75.25431677
  Ewald energy   TEWEN  =    137617.45865078
  -Hartree energ DENC   =   -181753.32775284
  -exchange      EXHF   =         0.00000000
  -V(xc)+E(xc)   XCENC  =     -1694.68237344
  PAW double counting   =     46106.54891218   -42581.39473420
  entropy T*S    EENTRO =         0.01139744
  eigenvalues    EBANDS =     -3031.67204230
  atomic energy  EATOM  =     45086.50549395
  Solvation  Ediel_sol  =         0.00000000
  ---------------------------------------------------
  free energy    TOTEN  =      -175.29813165 eV

  energy without entropy =     -175.30952910  energy(sigma->0) =     -175.30098102


--------------------------------------------------------------------------------------------------------




--------------------------------------- Iteration      1(  19)  ---------------------------------------


    POTLOK:  cpu time   13.5776: real time   13.5885
    SETDIJ:  cpu time    0.1259: real time    0.1258
    EDDIAG:  cpu time   69.5739: real time   69.5860
  RMM-DIIS:  cpu time  184.0987: real time  184.1098
    ORTHCH:  cpu time   13.5156: real time   13.5155
       DOS:  cpu time    0.0015: real time    0.0015
    CHARGE:  cpu time   25.7835: real time   25.7833
    MIXING:  cpu time    1.0112: real time    1.0112
    --------------------------------------------
      LOOP:  cpu time  307.6878: real time  307.7216

 eigenvalue-minimisations  :   698
 total energy-change (2. order) : 0.1242098E+00  (-0.3918639E-01)
 number of electron     559.9999867 magnetization 
 augmentation part      241.1075226 magnetization 

 Broyden mixing:
  rms(total) = 0.89126E+00    rms(broyden)= 0.89111E+00
  rms(prec ) = 0.10152E+01
  weight for this iteration     100.00

 eigenvalues of (default mixing * dielectric matrix)
  average eigenvalue GAMMA=   0.3236
  1.6101  1.0872  0.4176  0.4176  0.1613  0.1613  0.1151  0.1151  0.0929  0.0929
  0.0776  0.0776  0.0554  0.0480

 Free energy of the ion-electron system (eV)
  ---------------------------------------------------
  alpha Z        PSCENC =        75.25431677
  Ewald energy   TEWEN  =    137617.45865078
  -Hartree energ DENC   =   -181772.63877070
  -exchange      EXHF   =         0.00000000
  -V(xc)+E(xc)   XCENC  =     -1694.48694231
  PAW double counting   =     46117.41128752   -42591.18759242
  entropy T*S    EENTRO =         0.00244254
  eigenvalues    EBANDS =     -3013.49280801
  atomic energy  EATOM  =     45086.50549395
  Solvation  Ediel_sol  =         0.00000000
  ---------------------------------------------------
  free energy    TOTEN  =      -175.17392188 eV

  energy without entropy =     -175.17636441  energy(sigma->0) =     -175.17453251


--------------------------------------------------------------------------------------------------------




--------------------------------------- Iteration      1(  20)  ---------------------------------------


    POTLOK:  cpu time   13.4490: real time   13.4496
    SETDIJ:  cpu time    0.1219: real time    0.1219
    EDDIAG:  cpu time   68.8329: real time   68.8327
  RMM-DIIS:  cpu time  184.2191: real time  184.2191
    ORTHCH:  cpu time   13.4090: real time   13.4089
       DOS:  cpu time    0.0015: real time    0.0015
    CHARGE:  cpu time   25.7296: real time   25.7296
    MIXING:  cpu time    1.0581: real time    1.0581
    --------------------------------------------
      LOOP:  cpu time  306.8211: real time  306.8216

 eigenvalue-minimisations  :   702
 total energy-change (2. order) : 0.8463611E-01  (-0.2777961E-01)
 number of electron     559.9999865 magnetization 
 augmentation part      241.1487499 magnetization 

 Broyden mixing:
  rms(total) = 0.88229E+00    rms(broyden)= 0.88213E+00
  rms(prec ) = 0.10147E+01
  weight for this iteration     100.00

 eigenvalues of (default mixing * dielectric matrix)
  average eigenvalue GAMMA=   0.3253
  1.6557  1.1844  0.4446  0.4446  0.1897  0.1897  0.1188  0.1188  0.0943  0.0943
  0.0826  0.0826  0.0757  0.0551  0.0481

 Free energy of the ion-electron system (eV)
  ---------------------------------------------------
  alpha Z        PSCENC =        75.25431677
  Ewald energy   TEWEN  =    137617.45865078
  -Hartree energ DENC   =   -181789.02500940
  -exchange      EXHF   =         0.00000000
  -V(xc)+E(xc)   XCENC  =     -1694.32838096
  PAW double counting   =     46123.31581174   -42596.24484757
  entropy T*S    EENTRO =        -0.00886830
  eigenvalues    EBANDS =     -2998.01645278
  atomic energy  EATOM  =     45086.50549395
  Solvation  Ediel_sol  =         0.00000000
  ---------------------------------------------------
  free energy    TOTEN  =      -175.08928577 eV

  energy without entropy =     -175.08041747  energy(sigma->0) =     -175.08706870


--------------------------------------------------------------------------------------------------------




--------------------------------------- Iteration      1(  21)  ---------------------------------------


    POTLOK:  cpu time   13.2966: real time   13.2975
    SETDIJ:  cpu time    0.1203: real time    0.1203
    EDDIAG:  cpu time   69.1510: real time   69.1507
  RMM-DIIS:  cpu time  184.0777: real time  184.0817
    ORTHCH:  cpu time   13.4910: real time   13.4909
       DOS:  cpu time    0.0015: real time    0.0015
    CHARGE:  cpu time   25.6489: real time   25.6488
    MIXING:  cpu time    1.1322: real time    1.1322
    --------------------------------------------
      LOOP:  cpu time  306.9193: real time  306.9235

 eigenvalue-minimisations  :   701
 total energy-change (2. order) : 0.1571947E+00  (-0.2021119E-01)
 number of electron     559.9999873 magnetization 
 augmentation part      241.1697526 magnetization 

 Broyden mixing:
  rms(total) = 0.81292E+00    rms(broyden)= 0.81277E+00
  rms(prec ) = 0.95231E+00
  weight for this iteration     100.00

 eigenvalues of (default mixing * dielectric matrix)
  average eigenvalue GAMMA=   0.3317
  1.7083  1.2836  0.4887  0.4887  0.2274  0.2274  0.1241  0.1241  0.1003  0.1003
  0.0949  0.0949  0.0777  0.0481  0.0552  0.0628

 Free energy of the ion-electron system (eV)
  ---------------------------------------------------
  alpha Z        PSCENC =        75.25431677
  Ewald energy   TEWEN  =    137617.45865078
  -Hartree energ DENC   =   -181801.88988045
  -exchange      EXHF   =         0.00000000
  -V(xc)+E(xc)   XCENC  =     -1694.20539286
  PAW double counting   =     46126.52212924   -42598.82390126
  entropy T*S    EENTRO =        -0.01791354
  eigenvalues    EBANDS =     -2985.73559374
  atomic energy  EATOM  =     45086.50549395
  Solvation  Ediel_sol  =         0.00000000
  ---------------------------------------------------
  free energy    TOTEN  =      -174.93209111 eV

  energy without entropy =     -174.91417757  energy(sigma->0) =     -174.92761272


--------------------------------------------------------------------------------------------------------




--------------------------------------- Iteration      1(  22)  ---------------------------------------


    POTLOK:  cpu time   13.4777: real time   13.4809
    SETDIJ:  cpu time    0.1294: real time    0.1294
    EDDIAG:  cpu time   69.6233: real time   69.6243
  RMM-DIIS:  cpu time  183.5219: real time  183.5312
    ORTHCH:  cpu time   13.8079: real time   13.8079
       DOS:  cpu time    0.0015: real time    0.0015
    CHARGE:  cpu time   25.8994: real time   25.8994
    MIXING:  cpu time    1.1890: real time    1.1890
    --------------------------------------------
      LOOP:  cpu time  307.6501: real time  307.6637

 eigenvalue-minimisations  :   702
 total energy-change (2. order) : 0.5777304E-01  (-0.1994971E-01)
 number of electron     559.9999871 magnetization 
 augmentation part      241.1366134 magnetization 

 Broyden mixing:
  rms(total) = 0.62563E+00    rms(broyden)= 0.62545E+00
  rms(prec ) = 0.71824E+00
  weight for this iteration     100.00

 eigenvalues of (default mixing * dielectric matrix)
  average eigenvalue GAMMA=   0.3424
  1.8725  1.2997  0.5974  0.4181  0.4181  0.1750  0.1750  0.1207  0.1207  0.0981
  0.0981  0.0955  0.0955  0.0750  0.0481  0.0550  0.0586

 Free energy of the ion-electron system (eV)
  ---------------------------------------------------
  alpha Z        PSCENC =        75.25431677
  Ewald energy   TEWEN  =    137617.45865078
  -Hartree energ DENC   =   -181818.64283906
  -exchange      EXHF   =         0.00000000
  -V(xc)+E(xc)   XCENC  =     -1694.05319423
  PAW double counting   =     46128.84015276   -42600.47232476
  entropy T*S    EENTRO =        -0.08939746
  eigenvalues    EBANDS =     -2969.67517683
  atomic energy  EATOM  =     45086.50549395
  Solvation  Ediel_sol  =         0.00000000
  ---------------------------------------------------
  free energy    TOTEN  =      -174.87431807 eV

  energy without entropy =     -174.78492061  energy(sigma->0) =     -174.85196871


--------------------------------------------------------------------------------------------------------




--------------------------------------- Iteration      1(  23)  ---------------------------------------


    POTLOK:  cpu time   13.2424: real time   13.2446
    SETDIJ:  cpu time    0.1192: real time    0.1192
    EDDIAG:  cpu time   68.8531: real time   68.8539
  RMM-DIIS:  cpu time  183.2647: real time  183.2686
    ORTHCH:  cpu time   13.3390: real time   13.3389
       DOS:  cpu time    0.0015: real time    0.0015
    CHARGE:  cpu time   25.4387: real time   25.4384
    MIXING:  cpu time    1.2442: real time    1.2441
    --------------------------------------------
      LOOP:  cpu time  305.5027: real time  305.5091

 eigenvalue-minimisations  :   695
 total energy-change (2. order) : 0.5073785E-01  (-0.2029641E-01)
 number of electron     559.9999861 magnetization 
 augmentation part      241.1611453 magnetization 

 Broyden mixing:
  rms(total) = 0.57702E+00    rms(broyden)= 0.57686E+00
  rms(prec ) = 0.65190E+00
  weight for this iteration     100.00

 eigenvalues of (default mixing * dielectric matrix)
  average eigenvalue GAMMA=   0.3502
  1.9148  1.4558  0.7267  0.4236  0.4236  0.1916  0.1916  0.1206  0.1206  0.1238
[...]
 -0.004  -0.011   0.004   0.001   0.004  -0.004  -0.011   0.004
 -0.007  -0.019   0.007   0.003   0.007  -0.007  -0.018   0.007
 -0.016  -0.006   0.012   0.000   0.022  -0.016  -0.006   0.012
  0.000  -0.022  -0.007  -0.017  -0.000   0.000  -0.021  -0.007
 -0.022   0.000   0.009  -0.006  -0.017  -0.021   0.000   0.009
 -0.019  -0.007   0.015   0.001   0.026  -0.019  -0.007   0.014
  0.001  -0.027  -0.008  -0.020  -0.000   0.001  -0.026  -0.008
 -0.026   0.001   0.011  -0.007  -0.020  -0.025   0.001   0.011
 total augmentation occupancy for first ion, spin component:           1
  1.536  -0.023   0.002  -0.012   0.016   0.081  -0.007  -0.002   0.043  -0.007   0.058  -0.019   0.011   0.003  -0.001  -0.021
 -0.023   1.370   0.045   0.052  -0.021  -0.007   0.081   0.006  -0.010  -0.003   0.193  -0.059   0.017   0.005   0.002  -0.007
  0.002   0.045   1.510  -0.000   0.011  -0.002   0.008   0.085  -0.009   0.015  -0.048   0.019  -0.002  -0.010  -0.008   0.015
 -0.012   0.052  -0.000   1.360   0.046   0.041  -0.009  -0.009   0.086  -0.023  -0.061   0.011  -0.001  -0.005   0.003   0.001
  0.016  -0.021   0.011   0.046   1.408  -0.007  -0.003   0.015  -0.022   0.077  -0.091   0.026  -0.004  -0.007  -0.006   0.026
  0.081  -0.007  -0.002   0.041  -0.007   0.221   0.021  -0.001  -0.049   0.003  -0.046   0.003   0.018  -0.011   0.035  -0.004
 -0.007   0.081   0.008  -0.009  -0.003   0.021   0.266  -0.022  -0.007   0.005  -0.109   0.008  -0.001   0.051  -0.010  -0.001
 -0.002   0.006   0.085  -0.009   0.015  -0.001  -0.022   0.217   0.014  -0.020   0.028  -0.001  -0.012   0.010  -0.017   0.003
  0.043  -0.010  -0.009   0.086  -0.022  -0.049  -0.007   0.014   0.270   0.009   0.042  -0.006  -0.010   0.037   0.004   0.000
 -0.007  -0.003   0.015  -0.023   0.077   0.003   0.005  -0.020   0.009   0.260   0.045  -0.003  -0.039   0.002   0.049   0.007
  0.058   0.193  -0.048  -0.061  -0.091  -0.046  -0.109   0.028   0.042   0.045   0.944  -0.139   0.083   0.015   0.067  -0.012
 -0.019  -0.059   0.019   0.011   0.026   0.003   0.008  -0.001  -0.006  -0.003  -0.139   0.022  -0.014  -0.003  -0.010   0.003
  0.011   0.017  -0.002  -0.001  -0.004   0.018  -0.001  -0.012  -0.010  -0.039   0.083  -0.014   0.029  -0.008  -0.003  -0.003
  0.003   0.005  -0.010  -0.005  -0.007  -0.011   0.051   0.010   0.037   0.002   0.015  -0.003  -0.008   0.035   0.004   0.000
 -0.001   0.002  -0.008   0.003  -0.006   0.035  -0.010  -0.017   0.004   0.049   0.067  -0.010  -0.003   0.004   0.034  -0.000
 -0.021  -0.007   0.015   0.001   0.026  -0.004  -0.001   0.003   0.000   0.007  -0.012   0.003  -0.003   0.000  -0.000   0.001
  0.001  -0.027  -0.008  -0.020   0.001   0.001  -0.008  -0.002  -0.006  -0.000  -0.003   0.001   0.000  -0.003  -0.000   0.000
 -0.027   0.001   0.013  -0.006  -0.021  -0.006   0.001   0.003  -0.002  -0.007  -0.008   0.001  -0.000  -0.000  -0.003   0.000


------------------------ aborting loop because EDIFF is reached ----------------------------------------


    CHARGE:  cpu time   25.3577: real time   25.3574
    FORLOC:  cpu time    6.7769: real time    6.7769
    FORNL :  cpu time   66.1708: real time   66.1714
    STRESS:  cpu time  203.1273: real time  203.1266
    FORCOR:  cpu time   22.0858: real time   22.0856
    FORHAR:  cpu time    9.7333: real time    9.7331
    MIXING:  cpu time    3.8231: real time    3.8231
    OFIELD:  cpu time    0.0000: real time    0.0000

  FORCE on cell =-STRESS in cart. coord.  units (eV):
  Direction    XX          YY          ZZ          XY          YZ          ZX
  --------------------------------------------------------------------------------------
  Alpha Z    75.25432    75.25432    75.25432
  Ewald   47005.85769 44875.20014 45736.29521  1319.72886  1230.08034  1767.52611
  Hartree 61685.62547 59736.24981 60557.08078  1211.27113  1127.06099  1632.81132
  E(xc)   -2903.39353 -2904.99075 -2904.74060     0.65686     0.55034     0.59060
  Local  ************************************ -2520.13383 -2348.68996 -3388.88286
  n-local  -886.08956  -884.40457  -886.02564    -1.83592    -3.43131    -2.26872
  augment  4101.44557  4104.93567  4104.96184    -1.17765     0.00097    -0.24858
  Kinetic  7795.40778  7809.68514  7806.78408    -7.48457    -5.09314    -7.50606
  Fock        0.00000     0.00000     0.00000     0.00000     0.00000     0.00000
  -------------------------------------------------------------------------------------
  Total    -114.83626  -113.21069  -112.86670     1.02487     0.47823     2.02181
  in kB      -6.81437    -6.71791    -6.69750     0.06082     0.02838     0.11997
  external pressure =       -6.74 kB  Pullay stress =        0.00 kB


 VOLUME and BASIS-vectors are now :
 -----------------------------------------------------------------------------
  energy-cutoff  :      400.00
  volume of cell :    27000.00
      direct lattice vectors                 reciprocal lattice vectors
    30.000000000  0.000000000  0.000000000     0.033333333  0.000000000  0.000000000
     0.000000000 30.000000000  0.000000000     0.000000000  0.033333333  0.000000000
     0.000000000  0.000000000 30.000000000     0.000000000  0.000000000  0.033333333

  length of vectors
    30.000000000 30.000000000 30.000000000     0.033333333  0.033333333  0.033333333


 FORCES acting on ions
    electron-ion (+dipol)            ewald-force                    non-local-force                 convergence-correction
 -----------------------------------------------------------------------------------------------
   0.353E+03 0.984E+03 0.392E+03   -.350E+03 -.981E+03 -.391E+03   -.162E+01 -.185E+01 -.251E+00   0.332E-02 0.106E-02 -.142E-02
   -.975E+03 -.397E+03 0.414E+03   0.972E+03 0.395E+03 -.413E+03   0.182E+01 0.151E+01 -.213E+00   -.540E-02 0.160E-02 -.770E-03
   -.411E+03 0.974E+03 0.409E+03   0.409E+03 -.971E+03 -.409E+03   0.155E+01 -.181E+01 -.224E+00   0.250E-02 0.309E-02 -.134E-02
   0.965E+03 -.427E+03 0.399E+03   -.962E+03 0.425E+03 -.399E+03   -.185E+01 0.148E+01 -.273E+00   0.319E-02 0.449E-02 -.324E-03
   -.377E+02 0.584E+03 0.962E+03   0.374E+02 -.584E+03 -.958E+03   0.256E+00 -.375E+00 -.242E+01   0.349E-02 0.306E-02 -.967E-04
   -.476E+01 0.585E+03 -.970E+03   0.476E+01 -.585E+03 0.966E+03   -.190E-02 -.302E+00 0.235E+01   -.650E-03 0.292E-02 -.486E-03
   -.131E+02 0.114E+04 -.111E+02   0.131E+02 -.113E+04 0.111E+02   -.127E-01 -.309E+01 0.109E-01   0.746E-03 0.643E-05 -.390E-02
   0.114E+04 -.202E+02 -.273E+02   -.113E+04 0.202E+02 0.273E+02   -.317E+01 0.112E-01 0.300E-01   -.126E-02 0.336E-02 0.318E-02
   -.113E+04 -.179E+01 -.235E+01   0.113E+04 0.178E+01 0.235E+01   0.311E+01 -.101E-02 0.325E-02   -.352E-02 0.325E-02 -.435E-02
   -.319E+01 -.114E+04 -.274E+01   0.318E+01 0.113E+04 0.274E+01   0.140E-02 0.311E+01 -.223E-02   0.266E-02 -.491E-02 -.154E-02
   -.591E+03 0.577E+03 0.811E+03   0.588E+03 -.574E+03 -.808E+03   0.150E+01 -.156E+01 -.220E+01   0.694E-03 0.508E-02 0.242E-02
   -.581E+03 0.577E+03 -.815E+03   0.579E+03 -.575E+03 0.812E+03   0.156E+01 -.155E+01 0.220E+01   0.442E-02 0.282E-02 -.600E-04
   0.569E+03 -.599E+03 0.811E+03   -.567E+03 0.596E+03 -.807E+03   -.156E+01 0.160E+01 -.218E+01   0.581E-02 0.201E-02 0.132E-02
   0.576E+03 -.582E+03 -.817E+03   -.573E+03 0.579E+03 0.813E+03   -.156E+01 0.155E+01 0.220E+01   0.720E-03 0.284E-02 -.225E-02
   0.378E+03 0.555E+03 0.796E+03   -.380E+03 -.553E+03 -.793E+03   0.129E+01 -.884E+00 -.145E+01   0.130E-02 0.709E-03 -.318E-02
   0.574E+03 0.577E+03 -.822E+03   -.572E+03 -.575E+03 0.819E+03   -.156E+01 -.156E+01 0.220E+01   -.359E-02 -.144E-04 0.128E-03
   -.583E+03 -.582E+03 0.811E+03   0.581E+03 0.580E+03 -.808E+03   0.156E+01 0.155E+01 -.220E+01   -.150E-02 -.201E-02 0.458E-02
   -.580E+03 -.580E+03 -.814E+03   0.577E+03 0.577E+03 0.811E+03   0.156E+01 0.156E+01 0.220E+01   -.229E-02 0.269E-02 -.524E-02
   0.385E+03 0.973E+03 -.429E+03   -.383E+03 -.970E+03 0.429E+03   -.149E+01 -.182E+01 0.225E+00   -.337E-02 -.697E-04 -.300E-02
   -.973E+03 -.396E+03 -.418E+03   0.970E+03 0.393E+03 0.418E+03   0.183E+01 0.151E+01 0.222E+00   -.325E-02 0.500E-02 -.532E-02
   -.337E+03 0.316E+03 0.447E+03   0.337E+03 -.316E+03 -.447E+03   -.321E+00 0.383E+00 0.532E+00   0.254E-02 0.686E-02 0.612E-03
   0.941E+03 0.317E+03 0.323E+03   -.939E+03 -.316E+03 -.323E+03   -.139E+01 -.149E+01 -.411E+00   0.243E-03 0.615E-03 -.168E-02
   -.399E+03 -.976E+03 0.414E+03   0.396E+03 0.973E+03 -.413E+03   0.149E+01 0.182E+01 -.228E+00   0.649E-03 -.501E-02 0.194E-02
   -.401E+03 0.971E+03 -.423E+03   0.398E+03 -.969E+03 0.422E+03   0.150E+01 -.181E+01 0.200E+00   0.179E-02 0.176E-02 -.455E-02
   0.969E+03 -.402E+03 -.427E+03   -.966E+03 0.400E+03 0.427E+03   -.181E+01 0.150E+01 0.220E+00   0.179E-03 0.509E-02 0.589E-03
   -.977E+03 0.392E+03 0.413E+03   0.974E+03 -.390E+03 -.413E+03   0.182E+01 -.151E+01 -.211E+00   -.198E-02 0.568E-02 -.165E-02
   0.388E+03 -.980E+03 0.413E+03   -.386E+03 0.977E+03 -.412E+03   -.151E+01 0.181E+01 -.223E+00   0.575E-02 -.200E-02 0.118E-02
   0.282E+03 0.303E+03 0.429E+03   -.282E+03 -.303E+03 -.430E+03   0.167E+00 0.332E+00 0.467E+00   0.787E-02 0.562E-02 0.548E-04
   -.163E+02 0.637E+03 -.138E+02   0.163E+02 -.638E+03 0.138E+02   0.303E-01 0.724E+00 0.355E-01   0.328E-02 0.763E-02 -.394E-02
   -.595E+03 -.448E+01 0.963E+03   0.595E+03 0.447E+01 -.959E+03   0.298E+00 0.215E-02 -.235E+01   0.992E-04 0.499E-02 0.429E-02
   -.589E+03 -.161E+01 -.967E+03   0.588E+03 0.160E+01 0.963E+03   0.314E+00 -.232E-02 0.235E+01   0.380E-03 0.532E-02 -.388E-02
   0.547E+03 -.574E+02 0.960E+03   -.546E+03 0.578E+02 -.956E+03   -.440E+00 -.253E+00 -.230E+01   0.465E-02 0.334E-02 -.206E-02
   0.583E+03 -.378E+01 -.972E+03   -.582E+03 0.377E+01 0.968E+03   -.317E+00 0.142E-02 0.234E+01   -.152E-02 0.574E-02 -.240E-02
   0.740E+03 0.758E+03 -.387E+02   -.738E+03 -.756E+03 0.388E+02   -.119E+01 -.115E+01 -.535E-01   0.161E-02 0.598E-03 0.582E-03
   -.764E+03 -.763E+03 -.276E+01   0.762E+03 0.761E+03 0.276E+01   0.115E+01 0.114E+01 0.379E-02   -.315E-02 0.919E-04 -.267E-02
   -.768E+03 0.759E+03 -.504E+01   0.766E+03 -.757E+03 0.506E+01   0.114E+01 -.115E+01 -.953E-02   0.428E-03 0.573E-02 -.598E-02
   0.755E+03 -.771E+03 -.846E+01   -.753E+03 0.769E+03 0.843E+01   -.112E+01 0.116E+01 0.185E-01   0.506E-02 0.241E-02 0.369E-03
   -.227E+02 -.142E+02 0.107E+04   0.227E+02 0.142E+02 -.106E+04   0.195E-01 0.301E-01 -.163E+01   0.506E-02 0.500E-02 0.280E-02
   -.391E+01 -.253E+01 -.107E+04   0.390E+01 0.253E+01 0.107E+04   0.656E-02 -.347E-02 0.161E+01   0.181E-02 0.730E-02 -.416E-02
   0.968E+03 0.388E+03 -.436E+03   -.965E+03 -.386E+03 0.435E+03   -.182E+01 -.149E+01 0.231E+00   -.123E-02 0.330E-02 0.150E-03
   -.397E+03 -.973E+03 -.419E+03   0.394E+03 0.970E+03 0.418E+03   0.151E+01 0.182E+01 0.234E+00   0.627E-03 -.313E-02 -.471E-02
   -.327E+03 0.318E+03 -.459E+03   0.328E+03 -.319E+03 0.460E+03   -.373E+00 0.369E+00 -.526E+00   0.107E-03 0.910E-02 -.839E-02
   0.306E+03 -.338E+03 0.444E+03   -.307E+03 0.339E+03 -.444E+03   0.391E+00 -.340E+00 0.537E+00   0.911E-02 0.472E-02 0.964E-03
   0.312E+03 0.317E+03 -.466E+03   -.313E+03 -.317E+03 0.467E+03   0.371E+00 0.369E+00 -.517E+00   0.316E-02 0.535E-02 -.583E-02
   -.974E+03 0.392E+03 -.419E+03   0.971E+03 -.390E+03 0.418E+03   0.182E+01 -.150E+01 0.227E+00   0.145E-03 0.398E-02 -.399E-02
   0.391E+03 -.975E+03 -.420E+03   -.389E+03 0.972E+03 0.419E+03   -.151E+01 0.183E+01 0.220E+00   0.391E-02 -.139E-02 -.180E-02
   -.330E+03 -.328E+03 0.449E+03   0.331E+03 0.328E+03 -.450E+03   -.370E+00 -.377E+00 0.520E+00   0.216E-02 0.335E-02 0.108E-02
   0.626E+03 -.164E+02 -.222E+02   -.627E+03 0.164E+02 0.221E+02   0.800E+00 0.162E-01 0.657E-01   0.577E-02 0.560E-02 0.163E-02
   -.644E+03 -.319E+01 -.423E+01   0.645E+03 0.318E+01 0.424E+01   -.737E+00 0.484E-02 -.344E-02   -.311E-02 0.668E-02 -.503E-02
   -.909E+01 -.596E+03 0.963E+03   0.909E+01 0.596E+03 -.959E+03   -.199E-02 0.316E+00 -.234E+01   0.424E-02 -.680E-04 0.467E-02
   -.277E+01 -.589E+03 -.967E+03   0.274E+01 0.588E+03 0.963E+03   0.150E-01 0.318E+00 0.235E+01   0.140E-02 0.323E-02 -.405E-02
   -.118E+02 -.744E+01 -.999E+01   0.118E+02 0.744E+01 0.100E+02   -.129E-01 -.391E-02 -.262E-02   0.563E-02 0.589E-02 -.250E-02
   0.315E+03 -.327E+03 -.461E+03   -.316E+03 0.327E+03 0.461E+03   0.346E+00 -.376E+00 -.547E+00   0.396E-02 0.520E-02 -.373E-02
   -.325E+03 -.324E+03 -.457E+03   0.326E+03 0.325E+03 0.458E+03   -.360E+00 -.354E+00 -.515E+00   0.261E-03 0.557E-02 -.767E-02
   -.605E+01 -.645E+03 -.515E+01   0.606E+01 0.646E+03 0.517E+01   -.151E-01 -.738E+00 -.129E-01   0.579E-02 -.437E-04 -.272E-02
   0.181E+03 0.918E+02 0.886E+02   -.163E+03 -.810E+02 -.740E+02   -.133E+02 -.883E+01 -.122E+02   -.495E-03 -.577E-03 -.129E-02
   0.514E+03 0.316E+03 0.402E+03   -.559E+03 -.343E+03 -.439E+03   0.415E+02 0.260E+02 0.354E+02   -.353E-03 -.512E-03 -.111E-02
 -----------------------------------------------------------------------------------------------
   -.314E+02 -.178E+02 -.237E+02   0.000E+00 -.568E-12 -.284E-11   0.313E+02 0.177E+02 0.237E+02   0.798E-01 0.160E+00 -.865E-01
 
 
 POSITION                                       TOTAL-FORCE (eV/Angst)
 -----------------------------------------------------------------------------------
     13.37281      9.84801     12.50759         0.784271      1.074960      0.322466
     20.15199     16.62719     12.50759        -1.108089     -0.706399      0.287669
     16.62719      9.84801     12.50759        -0.735185      1.100904      0.284756
      9.84801     16.62719     12.50759         1.117575     -0.690320      0.315521
     15.00000     11.47521     10.20639        -0.004825      0.388374      1.276607
     15.00000     11.47521     19.79360        -0.000069      0.412580     -1.281964
     15.00000      8.28283     15.00000         0.004483      1.514497      0.003251
      8.28283     15.00000     15.00000         1.525735     -0.002640     -0.004370
     21.71717     15.00000     15.00000        -1.517937     -0.001075     -0.002746
     15.00000     21.71717     15.00000        -0.000285     -1.516806      0.001221
     18.35858     11.64142     10.25025        -0.722257      0.768402      1.071126
     18.35858     11.64142     19.74975        -0.757949      0.753816     -1.072212
     11.64142     18.35858     10.25025         0.758255     -0.780663      1.060122
     11.64142     18.35858     19.74975         0.761414     -0.755073     -1.072154
     11.64142     11.64142     10.25025        -0.986530      0.608112      1.071900
     11.64142     11.64142     19.74975         0.756864      0.755123     -1.072557
     18.35858     18.35858     10.25025        -0.755844     -0.758398      1.073876
     18.35858     18.35858     19.74975        -0.756354     -0.756476     -1.069426
     13.37281      9.84801     17.49241         0.706639      1.109906     -0.288817
     20.15199     16.62719     17.49241        -1.106709     -0.706929     -0.292849
     16.73751     13.26249     12.54279         0.102914     -0.106642     -0.157592
      9.84801     13.37281     12.50759         0.872517      0.423964     -0.069706
     16.62719     20.15199     12.50759        -0.702327     -1.107900      0.293084
     16.62719      9.84801     17.49241        -0.707118      1.112050     -0.285283
      9.84801     16.62719     17.49241         1.110055     -0.703458     -0.296882
     20.15199     13.37281     12.50759        -1.110521      0.708981      0.287791
     13.37281     20.15199     12.50759         0.705596     -1.105418      0.295422
     13.26249     13.26249     12.54279        -0.009014     -0.075833     -0.080830
     15.00000     11.52498     15.00000         0.001886     -0.225929     -0.001970
     18.52479     15.00000     10.20639        -0.410190     -0.000718      1.285486
     18.52479     15.00000     19.79360        -0.414366     -0.002408     -1.282346
     11.47521     15.00000     10.20640         0.407100      0.129241      1.275167
     11.47521     15.00000     19.79360         0.416143     -0.000605     -1.279220
     11.49535     11.49535     15.00000         0.840436      0.822818      0.029746
     18.50465     18.50465     15.00000        -0.829297     -0.828200     -0.001185
     18.50465     11.49535     15.00000        -0.826772      0.832139      0.006388
     11.49535     18.50465     15.00000         0.821338     -0.840022     -0.009803
     15.00000     15.00000     10.04368         0.005276     -0.000688      1.178998
     15.00000     15.00000     19.95633        -0.000657     -0.001481     -1.177114
      9.84801     13.37281     17.49241         1.109732      0.705877     -0.293133
     16.62719     20.15199     17.49241        -0.709238     -1.105449     -0.300947
     16.73751     13.26249     17.45721         0.110280     -0.109419      0.162974
     13.26249     16.73751     12.54279        -0.109318      0.108999     -0.154386
     13.26249     13.26249     17.45721        -0.113195     -0.112140      0.153841
     20.15199     13.37281     17.49241        -1.105199      0.703360     -0.290012
     13.37281     20.15199     17.49241         0.705949     -1.102697     -0.285430
     16.73751     16.73751     12.54279         0.110885      0.108757     -0.159023
     11.52498     15.00000     15.00000        -0.230444     -0.010365     -0.008292
     18.47502     15.00000     15.00000         0.229273      0.000686     -0.000653
     15.00000     18.52480     10.20639         0.000803     -0.412111      1.281832
     15.00000     18.52480     19.79360        -0.010676     -0.417095     -1.281957
     15.00000     15.00000     15.00000         0.000663      0.007666      0.006362
     13.26249     16.73751     17.45721        -0.106394      0.125740      0.174088
     16.73751     16.73751     17.45721         0.115271      0.107225      0.152007
     15.00000     18.47502     15.00000         0.004638      0.232841      0.006013
      9.38313     11.52627     10.28586         4.803763      1.957088      2.368923
      8.60229     11.04337      9.63051        -3.042991     -1.630747     -2.153776
 -----------------------------------------------------------------------------------
    total drift:                               -0.001971     -0.001461     -0.004005


--------------------------------------------------------------------------------------------------------



  FREE ENERGIE OF THE ION-ELECTRON SYSTEM (eV)
  ---------------------------------------------------
  free  energy   TOTEN  =      -174.55773258 eV

  energy  without entropy=     -174.45908097  energy(sigma->0) =     -174.53306968
 


--------------------------------------------------------------------------------------------------------


    POTLOK:  cpu time   13.9341: real time   13.9340


--------------------------------------------------------------------------------------------------------


     LOOP+:  cpu time18203.6848: real time18204.5312
    4ORBIT:  cpu time    0.0000: real time    0.0000

 total amount of memory used by VASP MPI-rank0  5486940. kBytes
=======================================================================

   base      :      30000. kBytes
   nonlr-proj:      17125. kBytes
   fftplans  :     924480. kBytes
   grid      :    1872000. kBytes
   one-center:        886. kBytes
   wavefun   :    2642449. kBytes
 
  
  
 General timing and accounting informations for this job:
 ========================================================
  
                  Total CPU time used (sec):    18278.359
                            User time (sec):    17261.278
                          System time (sec):     1017.081
                         Elapsed time (sec):    18279.258
  
                   Maximum memory used (kb):     7178668.
                   Average memory used (kb):           0.
  
                          Minor page faults:    813464737
                          Major page faults:            0
                 Voluntary context switches:          487
