   57   57    1    1
  0.4736842E+03  0.3000000E-08  0.3000000E-08  0.3000000E-08  0.5000000E-15
  1.000000000000000E-004
  CAR 
 6_Pd100_top_free_z(O)                   
    560      1    336
 
  0.0000000E+00  0.0000000E+00  0.0000000E+00  0.1000000E+01
    1      -28.114190   1.000000
    2      -13.236434   1.000000
    3      -11.014582   1.000000
    4      -10.809208   1.000000
    5      -10.409716   1.000000
    6       -6.661839   1.000000
    7       -6.172130   1.000000
    8       -6.143696   1.000000
    9       -6.143526   1.000000
   10       -6.037204   1.000000
   11       -5.985198   1.000000
   12       -5.875109   1.000000
   13       -5.832729   1.000000
   14       -5.830614   1.000000
   15       -5.795444   1.000000
   16       -5.766207   1.000000
   17       -5.716633   1.000000
   18       -5.705553   1.000000
   19       -5.701298   1.000000
   20       -5.695306   1.000000
   21       -5.669836   1.000000
   22       -5.653440   1.000000
   23       -5.647724   1.000000
   24       -5.637174   1.000000
   25       -5.611862   1.000000
   26       -5.606802   1.000000
   27       -5.601571   1.000000
   28       -5.581293   1.000000
   29       -5.577712   1.000000
   30       -5.563196   1.000000
   31       -5.560768   1.000000
   32       -5.551422   1.000000
   33       -5.543280   1.000000
   34       -5.538079   1.000000
   35       -5.533546   1.000000
   36       -5.530842   1.000000
   37       -5.526297   1.000000
   38       -5.519287   1.000000
   39       -5.516554   1.000000
   40       -5.500515   1.000000
   41       -5.497130   1.000000
   42       -5.486991   1.000000
   43       -5.486051   1.000000
   44       -5.482036   1.000000
   45       -5.479333   1.000000
   46       -5.471496   1.000000
   47       -5.463884   1.000000
   48       -5.458706   1.000000
   49       -5.449910   1.000000
   50       -5.443323   1.000000
   51       -5.442790   1.000000
   52       -5.437768   1.000000
   53       -5.420086   1.000000
   54       -5.417675   1.000000
   55       -5.416511   1.000000
   56       -5.406733   1.000000
   57       -5.399899   1.000000
   58       -5.391357   1.000000
   59       -5.372101   1.000000
   60       -5.354132   1.000000
   61       -5.341986   1.000000
   62       -5.339635   1.000000
   63       -5.329507   1.000000
   64       -5.326987   1.000000
   65       -5.323959   1.000000
   66       -5.314313   1.000000
   67       -5.312010   1.000000
   68       -5.305819   1.000000
   69       -5.283727   1.000000
   70       -5.279311   1.000000
   71       -5.230212   1.000000
   72       -5.225471   1.000000
   73       -5.223233   1.000000
   74       -5.213170   1.000000
   75       -5.208762   1.000000
   76       -5.207619   1.000000
   77       -5.190686   1.000000
   78       -5.189139   1.000000
   79       -5.187225   1.000000
   80       -5.176699   1.000000
   81       -5.175190   1.000000
   82       -5.173231   1.000000
   83       -5.164371   1.000000
   84       -5.152383   1.000000
   85       -5.143433   1.000000
   86       -5.139516   1.000000
   87       -5.132486   1.000000
   88       -5.118061   1.000000
   89       -5.116190   1.000000
   90       -5.097401   1.000000
   91       -5.083991   1.000000
   92       -5.081763   1.000000
   93       -5.070081   1.000000
   94       -5.069333   1.000000
   95       -5.066509   1.000000
   96       -5.064784   1.000000
   97       -5.062743   1.000000
   98       -5.060304   1.000000
   99       -5.048638   1.000000
  100       -5.046085   1.000000
  101       -5.045185   1.000000
  102       -5.042691   1.000000
  103       -5.034333   1.000000
  104       -5.029728   1.000000
  105       -5.018474   1.000000
  106       -5.017036   1.000000
  107       -5.010435   1.000000
  108       -5.008013   1.000000
  109       -5.002889   1.000000
  110       -4.997162   1.000000
  111       -4.994212   1.000000
  112       -4.988600   1.000000
  113       -4.978528   1.000000
  114       -4.978039   1.000000
  115       -4.972696   0.999999
  116       -4.964173   0.999999
  117       -4.958530   0.999999
  118       -4.950889   0.999999
  119       -4.949321   0.999999
  120       -4.936074   0.999998
  121       -4.930486   0.999997
  122       -4.926150   0.999997
  123       -4.921573   0.999997
  124       -4.921131   0.999997
  125       -4.915773   0.999996
  126       -4.900975   0.999993
  127       -4.897796   0.999993
  128       -4.885653   0.999989
  129       -4.879002   0.999987
  130       -4.874338   0.999985
  131       -4.866387   0.999981
  132       -4.857004   0.999974
  133       -4.853230   0.999972
  134       -4.849207   0.999968
  135       -4.847934   0.999967
  136       -4.841062   0.999960
  137       -4.820096   0.999928
  138       -4.818595   0.999925
  139       -4.810539   0.999907
  140       -4.796980   0.999868
  141       -4.786931   0.999830
  142       -4.781921   0.999808
  143       -4.780303   0.999800
  144       -4.776404   0.999780
  145       -4.760029   0.999677
  146       -4.755443   0.999641
  147       -4.754128   0.999630
  148       -4.750214   0.999596
  149       -4.738899   0.999483
  150       -4.728610   0.999358
  151       -4.715711   0.999167
  152       -4.710371   0.999076
  153       -4.704635   0.998970
  154       -4.695243   0.998775
  155       -4.691397   0.998688
  156       -4.689563   0.998645
  157       -4.683413   0.998493
  158       -4.678817   0.998372
  159       -4.678778   0.998371
  160       -4.675869   0.998291
  161       -4.674812   0.998262
  162       -4.663024   0.997909
  163       -4.658047   0.997748
  164       -4.657884   0.997742
  165       -4.655665   0.997669
  166       -4.654888   0.997643
  167       -4.653623   0.997600
  168       -4.652872   0.997574
  169       -4.646095   0.997337
  170       -4.643035   0.997227
  171       -4.629933   0.996742
  172       -4.620340   0.996381
  173       -4.620071   0.996371
  174       -4.616535   0.996240
  175       -4.611438   0.996054
  176       -4.611046   0.996040
  177       -4.607383   0.995912
  178       -4.600700   0.995689
  179       -4.597182   0.995580
  180       -4.594091   0.995489
  181       -4.591424   0.995417
  182       -4.584424   0.995252
  183       -4.582604   0.995216
  184       -4.574033   0.995095
  185       -4.572648   0.995084
  186       -4.568781   0.995066
  187       -4.563659   0.995077
  188       -4.561892   0.995091
  189       -4.559441   0.995119
  190       -4.558483   0.995133
  191       -4.556173   0.995173
  192       -4.536227   0.996021
  193       -4.522495   0.997244
  194       -4.520596   0.997462
  195       -4.519583   0.997583
  196       -4.509038   0.999073
  197       -4.504996   0.999759
  198       -4.502302   1.000253
  199       -4.500904   1.000522
  200       -4.494299   1.001904
  201       -4.485805   1.003966
  202       -4.480776   1.005340
  203       -4.480010   1.005560
  204       -4.469503   1.008841
  205       -4.466152   1.009992
  206       -4.465157   1.010343
  207       -4.460053   1.012213
  208       -4.457643   1.013134
  209       -4.454860   1.014227
  210       -4.446498   1.017689
  211       -4.437695   1.021588
  212       -4.437652   1.021608
  213       -4.433084   1.023714
  214       -4.425449   1.027324
  215       -4.419923   1.029978
  216       -4.418756   1.030540
  217       -4.416038   1.031849
  218       -4.413153   1.033234
  219       -4.409047   1.035190
  220       -4.405026   1.037075
  221       -4.395863   1.041188
  222       -4.388688   1.044137
  223       -4.380340   1.047131
  224       -4.378138   1.047822
  225       -4.374666   1.048817
  226       -4.362024   1.051250
  227       -4.359133   1.051499
  228       -4.353127   1.051586
  229       -4.352009   1.051534
  230       -4.346963   1.051007
  231       -4.346578   1.050947
  232       -4.345813   1.050818
  233       -4.345135   1.050694
  234       -4.338653   1.049015
  235       -4.337990   1.048791
  236       -4.336973   1.048428
  237       -4.335553   1.047880
  238       -4.335096   1.047693
  239       -4.330977   1.045781
  240       -4.323675   1.041320
  241       -4.321102   1.039401
  242       -4.320961   1.039290
  243       -4.303976   1.021555
  244       -4.302917   1.020143
  245       -4.300725   1.017099
  246       -4.299957   1.015994
  247       -4.298742   1.014203
  248       -4.294806   1.008048
  249       -4.285622   0.991524
  250       -4.283156   0.986555
  251       -4.282564   0.985329
  252       -4.278093   0.975639
  253       -4.277267   0.973766
  254       -4.275305   0.969210
  255       -4.270607   0.957702
  256       -4.266893   0.947999
  257       -4.265368   0.943862
  258       -4.264591   0.941718
  259       -4.260074   0.928794
  260       -4.257502   0.921083
  261       -4.256752   0.918785
  262       -4.255440   0.914715
  263       -4.252789   0.906288
  264       -4.251309   0.901467
  265       -4.249148   0.894279
  266       -4.239014   0.858251
  267       -4.238288   0.855526
  268       -4.237849   0.853869
  269       -4.231894   0.830720
  270       -4.229092   0.819407
  271       -4.228200   0.815752
  272       -4.213427   0.751562
  273       -4.210975   0.740292
  274       -4.206011   0.716997
  275       -4.196877   0.672623
  276       -4.194096   0.658774
  277       -4.193246   0.654510
  278       -4.187188   0.623781
  279       -4.187047   0.623061
  280       -4.185476   0.614997
  281       -4.172819   0.549052
  282       -4.153929   0.449309
  283       -4.148532   0.421018
  284       -4.143291   0.393797
  285       -4.142350   0.388947
  286       -4.138966   0.371589
  287       -4.130770   0.330287
  288       -4.130456   0.328727
  289       -4.121393   0.284641
  290       -3.972661  -0.051619
  291       -3.844162  -0.004746
  292       -3.843592  -0.004590
  293       -3.827868  -0.000862
  294       -3.673554   0.002404
  295       -3.515704   0.000091
  296       -3.508121   0.000074
  297       -3.282543   0.000000
  298       -3.098897   0.000000
  299       -3.079545   0.000000
  300       -3.068517   0.000000
  301       -3.045953   0.000000
  302       -3.044733   0.000000
  303       -2.955467   0.000000
  304       -2.953087   0.000000
  305       -2.673584   0.000000
  306       -2.599845   0.000000
  307       -2.561023   0.000000
  308       -2.529503   0.000000
  309       -2.267944   0.000000
  310       -2.123764   0.000000
  311       -2.123045   0.000000
  312       -2.076550   0.000000
  313       -2.055441   0.000000
  314       -2.028245   0.000000
  315       -1.924347   0.000000
  316       -1.902700   0.000000
  317       -1.819465   0.000000
  318       -1.670592   0.000000
  319       -1.657804   0.000000
  320       -1.652513   0.000000
  321       -1.606569   0.000000
  322       -1.583965   0.000000
  323       -1.564617   0.000000
  324       -1.377017   0.000000
  325       -1.295826   0.000000
  326       -1.112403   0.000000
  327       -1.091280   0.000000
  328       -0.996228   0.000000
  329       -0.988850   0.000000
  330       -0.966733   0.000000
  331       -0.945624   0.000000
  332       -0.937509   0.000000
  333       -0.930630   0.000000
  334       -0.911089   0.000000
  335       -0.808326   0.000000
  336       -0.689940   0.000000
