<?xml version="1.0" encoding="ISO-8859-1"?>
<modeling>
 <generator>
  <i name="program" type="string">vasp </i>
  <i name="version" type="string">5.4.4.18Apr17-6-g9f103f2a35  </i>
  <i name="subversion" type="string">(build Sep 03 2018 23:53:05) complex            parallel </i>
  <i name="platform" type="string">LinuxIFC </i>
  <i name="date" type="string">2021 12 01 </i>
  <i name="time" type="string">10:27:28 </i>
 </generator>
 <incar>
  <i type="string" name="SYSTEM"> 6_Pd100_top_free_z(O)</i>
  <i type="int" name="ISTART">     0</i>
  <i type="string" name="PREC">normal   			! encut=max(enmax), ngx,y,z</i>
  <i type="string" name="ALGO"> Fast     			! Mix RMM-DIIS and Dav</i>
  <i type="logical" name="ADDGRID"> F  </i>
  <i type="int" name="ISPIN">     1</i>
  <i type="int" name="ICHARG">     2</i>
  <i type="int" name="NELM">   100</i>
  <i type="int" name="NELMIN">     6</i>
  <i type="int" name="IBRION">     2</i>
  <i name="EDIFF">      0.00010000</i>
  <i name="EDIFFG">     -0.05000000</i>
  <i type="int" name="NSW">     0</i>
  <i type="int" name="ISIF">     2</i>
  <i type="int" name="ISYM">     2</i>
  <i name="ENCUT">    400.00000000</i>
  <i type="string" name="LREAL"> Auto     			! Auto or A projection done</i>
  <i type="int" name="ISMEAR">     2</i>
  <i name="SIGMA">      0.20000000</i>
  <i type="logical" name="LWAVE"> F  </i>
  <i type="logical" name="LCHARG"> F  </i>
  <v type="int" name="KPOINT_BSE">    -1     0     0     0</v>
  <i type="int" name="MAXMEM"> 10000</i>
  <i type="int" name="NELM">   100</i>
  <i type="string" name="GGA"> RP         			! Revised PBE</i>
 </incar>
 <structure name="primitive_cell" >
  <crystal>
   <varray name="basis" >
    <v>      30.00000000       0.00000000       0.00000000 </v>
    <v>       0.00000000      30.00000000       0.00000000 </v>
    <v>       0.00000000       0.00000000      30.00000000 </v>
   </varray>
   <i name="volume">  27000.00000000 </i>
   <varray name="rec_basis" >
    <v>       0.03333333       0.00000000       0.00000000 </v>
    <v>       0.00000000       0.03333333       0.00000000 </v>
    <v>       0.00000000       0.00000000       0.03333333 </v>
   </varray>
  </crystal>
  <varray name="positions" >
   <v>       0.44576020       0.32826710       0.41691983 </v>
   <v>      -0.44576020       0.32826710       0.41691983 </v>
   <v>      -0.50000000       0.38250690       0.34021317 </v>
   <v>      -0.50000000       0.27609440      -0.50000000 </v>
   <v>       0.38804720       0.38804720       0.34167483 </v>
   <v>      -0.50000000       0.38416601      -0.50000000 </v>
   <v>       0.44208300       0.44208300       0.41809300 </v>
   <v>       0.38317830       0.38317830      -0.50000000 </v>
   <v>      -0.44208300       0.44208300       0.41809300 </v>
   <v>       0.44576020       0.32826710      -0.41691977 </v>
   <v>       0.32826705       0.44576024       0.41691983 </v>
   <v>      -0.38804720       0.38804720       0.34167483 </v>
   <v>      -0.38317830       0.38317830      -0.50000000 </v>
   <v>      -0.50000000      -0.50000000       0.33478917 </v>
   <v>      -0.50000000      -0.50000000      -0.50000000 </v>
   <v>      -0.44576020       0.32826710      -0.41691977 </v>
   <v>       0.38250685      -0.49999995       0.34021317 </v>
   <v>       0.44208300       0.44208300      -0.41809297 </v>
   <v>       0.38416599      -0.49999998      -0.50000000 </v>
   <v>       0.49799080       0.30511840      -0.37933290 </v>
   <v>      -0.44208300       0.44208300      -0.41809297 </v>
   <v>       0.44208298      -0.44208298       0.41809300 </v>
   <v>       0.32826705       0.44576024      -0.41691977 </v>
   <v>       0.49766123       0.27315160      -0.35953963 </v>
   <v>      -0.50000000       0.38250690      -0.34021320 </v>
   <v>       0.32826712      -0.44576022       0.41691983 </v>
   <v>      -0.38250685      -0.49999995       0.34021317 </v>
   <v>      -0.32826705       0.44576024       0.41691983 </v>
   <v>       0.27609443       0.49999998      -0.50000000 </v>
   <v>       0.38804720       0.38804720      -0.34167487 </v>
   <v>      -0.38416599      -0.49999998      -0.50000000 </v>
   <v>      -0.44208298      -0.44208298       0.41809300 </v>
   <v>       0.44208298      -0.44208298      -0.41809297 </v>
   <v>      -0.38804720       0.38804720      -0.34167487 </v>
   <v>       0.38804722      -0.38804722       0.34167483 </v>
   <v>       0.38250685      -0.49999995      -0.34021320 </v>
   <v>       0.32826712      -0.44576022      -0.41691977 </v>
   <v>      -0.32826705       0.44576024      -0.41691977 </v>
   <v>       0.50000000      -0.38250681       0.34021317 </v>
   <v>      -0.50000000      -0.38416596      -0.50000000 </v>
   <v>      -0.44208298      -0.44208298      -0.41809297 </v>
   <v>      -0.50000000      -0.50000000      -0.33478913 </v>
   <v>       0.38317828      -0.38317828      -0.50000000 </v>
   <v>      -0.32826712      -0.44576022       0.41691983 </v>
   <v>      -0.27609443       0.49999998      -0.50000000 </v>
   <v>      -0.38804722      -0.38804722       0.34167483 </v>
   <v>      -0.38250685      -0.49999995      -0.34021320 </v>
   <v>       0.44576027      -0.32826707       0.41691983 </v>
   <v>      -0.38317828      -0.38317828      -0.50000000 </v>
   <v>      -0.32826712      -0.44576022      -0.41691977 </v>
   <v>      -0.44576027      -0.32826707       0.41691983 </v>
   <v>       0.38804722      -0.38804722      -0.34167487 </v>
   <v>      -0.50000000      -0.38250681      -0.34021320 </v>
   <v>       0.44576027      -0.32826707      -0.41691977 </v>
   <v>      -0.44576027      -0.32826707      -0.41691977 </v>
   <v>      -0.50000000      -0.27609445       0.50000000 </v>
   <v>      -0.38804722      -0.38804722      -0.34167487 </v>
  </varray>
 </structure>
 <varray name="primitive_index" >
  <v type="int" >        1 </v>
  <v type="int" >        3 </v>
  <v type="int" >        5 </v>
  <v type="int" >        7 </v>
  <v type="int" >       15 </v>
  <v type="int" >       29 </v>
  <v type="int" >       28 </v>
  <v type="int" >       34 </v>
  <v type="int" >       21 </v>
  <v type="int" >       19 </v>
  <v type="int" >       22 </v>
  <v type="int" >       11 </v>
  <v type="int" >       36 </v>
  <v type="int" >       38 </v>
  <v type="int" >       52 </v>
  <v type="int" >       24 </v>
  <v type="int" >       32 </v>
  <v type="int" >       44 </v>
  <v type="int" >       48 </v>
  <v type="int" >       56 </v>
  <v type="int" >       42 </v>
  <v type="int" >       43 </v>
  <v type="int" >       40 </v>
  <v type="int" >       57 </v>
  <v type="int" >        6 </v>
  <v type="int" >        4 </v>
  <v type="int" >       30 </v>
  <v type="int" >       26 </v>
  <v type="int" >        8 </v>
  <v type="int" >       16 </v>
  <v type="int" >       49 </v>
  <v type="int" >       47 </v>
  <v type="int" >       53 </v>
  <v type="int" >       12 </v>
  <v type="int" >       13 </v>
  <v type="int" >       33 </v>
  <v type="int" >       25 </v>
  <v type="int" >       45 </v>
  <v type="int" >       50 </v>
  <v type="int" >       55 </v>
  <v type="int" >       54 </v>
  <v type="int" >       39 </v>
  <v type="int" >       37 </v>
  <v type="int" >        2 </v>
  <v type="int" >        9 </v>
  <v type="int" >       17 </v>
  <v type="int" >       31 </v>
  <v type="int" >       27 </v>
  <v type="int" >       35 </v>
  <v type="int" >       20 </v>
  <v type="int" >       23 </v>
  <v type="int" >       14 </v>
  <v type="int" >       51 </v>
  <v type="int" >       46 </v>
  <v type="int" >       41 </v>
  <v type="int" >       10 </v>
  <v type="int" >       18 </v>
 </varray>
 <kpoints>
  <generation param="Monkhorst-Pack">
   <v type="int" name="divisions">       1        1        1 </v>
   <v name="usershift">      0.00000000       0.00000000       0.00000000 </v>
   <v name="genvec1">      1.00000000       0.00000000       0.00000000 </v>
   <v name="genvec2">      0.00000000       1.00000000       0.00000000 </v>
   <v name="genvec3">      0.00000000       0.00000000       1.00000000 </v>
   <v name="shift">      0.00000000       0.00000000       0.00000000 </v>
  </generation>
  <varray name="kpointlist" >
   <v>       0.00000000       0.00000000       0.00000000 </v>
  </varray>
  <varray name="weights" >
   <v>       1.00000000 </v>
  </varray>
 </kpoints>
 <parameters>
  <separator name="general" >
   <i type="string" name="SYSTEM">6_Pd100_top_free_z(O)</i>
   <i type="logical" name="LCOMPAT"> F  </i>
  </separator>
  <separator name="electronic" >
   <i type="string" name="PREC">normal</i>
   <i name="ENMAX">    400.00000000</i>
   <i name="ENAUG">    644.87300000</i>
   <i name="EDIFF">      0.00010000</i>
   <i type="int" name="IALGO">    68</i>
   <i type="int" name="IWAVPR">    10</i>
   <i type="int" name="NBANDS">   336</i>
   <i name="NELECT">    560.00000000</i>
   <i type="int" name="TURBO">     0</i>
   <i type="int" name="IRESTART">     0</i>
   <i type="int" name="NREBOOT">     0</i>
   <i type="int" name="NMIN">     0</i>
   <i name="EREF">      0.00000000</i>
   <separator name="electronic smearing" >
    <i type="int" name="ISMEAR">     2</i>
    <i name="SIGMA">      0.20000000</i>
    <i name="KSPACING">      0.50000000</i>
    <i type="logical" name="KGAMMA"> T  </i>
   </separator>
   <separator name="electronic projectors" >
    <i type="logical" name="LREAL"> T  </i>
    <v name="ROPT">     -0.00050000     -0.00050000     -0.00050000</v>
    <i type="int" name="LMAXPAW">  -100</i>
    <i type="int" name="LMAXMIX">     2</i>
    <i type="logical" name="NLSPLINE"> F  </i>
   </separator>
   <separator name="electronic startup" >
    <i type="int" name="ISTART">     0</i>
    <i type="int" name="ICHARG">     2</i>
    <i type="int" name="INIWAV">     1</i>
   </separator>
   <separator name="electronic spin" >
    <i type="int" name="ISPIN">     1</i>
    <i type="logical" name="LNONCOLLINEAR"> F  </i>
    <v name="MAGMOM">      1.00000000      1.00000000      1.00000000      1.00000000      1.00000000      1.00000000      1.00000000      1.00000000      1.00000000      1.00000000      1.00000000      1.00000000      1.00000000      1.00000000      1.00000000      1.00000000      1.00000000      1.00000000      1.00000000      1.00000000
      1.00000000      1.00000000      1.00000000      1.00000000      1.00000000      1.00000000      1.00000000      1.00000000      1.00000000      1.00000000      1.00000000      1.00000000      1.00000000      1.00000000      1.00000000      1.00000000      1.00000000      1.00000000      1.00000000      1.00000000
      1.00000000      1.00000000      1.00000000      1.00000000      1.00000000      1.00000000      1.00000000      1.00000000      1.00000000      1.00000000      1.00000000      1.00000000      1.00000000      1.00000000      1.00000000      1.00000000      1.00000000</v>
    <i name="NUPDOWN">     -1.00000000</i>
    <i type="logical" name="LSORBIT"> F  </i>
    <v name="SAXIS">      0.00000000      0.00000000      1.00000000</v>
    <i type="logical" name="LSPIRAL"> F  </i>
    <v name="QSPIRAL">      0.00000000      0.00000000      0.00000000</v>
    <i type="logical" name="LZEROZ"> F  </i>
   </separator>
   <separator name="electronic exchange-correlation" >
    <i type="logical" name="LASPH"> F  </i>
    <i type="logical" name="LMETAGGA"> F  </i>
   </separator>
   <separator name="electronic convergence" >
    <i type="int" name="NELM">   100</i>
    <i type="int" name="NELMDL">    -5</i>
    <i type="int" name="NELMIN">     6</i>
    <i name="ENINI">    400.00000000</i>
    <separator name="electronic convergence detail" >
     <i type="logical" name="LDIAG"> T  </i>
     <i type="logical" name="LSUBROT"> F  </i>
     <i name="WEIMIN">      0.00000000</i>
     <i name="EBREAK">      0.00000007</i>
     <i name="DEPER">      0.30000000</i>
     <i type="int" name="NRMM">     4</i>
     <i name="TIME">      0.40000000</i>
    </separator>
   </separator>
   <separator name="electronic mixer" >
    <i name="AMIX">      0.40000000</i>
    <i name="BMIX">      1.00000000</i>
    <i name="AMIN">      0.10000000</i>
    <i name="AMIX_MAG">      1.60000000</i>
    <i name="BMIX_MAG">      1.00000000</i>
    <separator name="electronic mixer details" >
     <i type="int" name="IMIX">     4</i>
     <i type="logical" name="MIXFIRST"> F  </i>
     <i type="int" name="MAXMIX">   -45</i>
     <i name="WC">    100.00000000</i>
     <i type="int" name="INIMIX">     1</i>
     <i type="int" name="MIXPRE">     1</i>
     <i type="int" name="MREMOVE">     5</i>
    </separator>
   </separator>
   <separator name="electronic dipolcorrection" >
    <i type="logical" name="LDIPOL"> F  </i>
    <i type="logical" name="LMONO"> F  </i>
    <i type="int" name="IDIPOL">     0</i>
    <i name="EPSILON">      1.00000000</i>
    <v name="DIPOL">   -100.00000000   -100.00000000   -100.00000000</v>
    <i name="EFIELD">      0.00000000</i>
   </separator>
  </separator>
  <separator name="grids" >
   <i type="int" name="NGX">   150</i>
   <i type="int" name="NGY">   150</i>
   <i type="int" name="NGZ">   150</i>
   <i type="int" name="NGXF">   300</i>
   <i type="int" name="NGYF">   300</i>
   <i type="int" name="NGZF">   300</i>
   <i type="logical" name="ADDGRID"> F  </i>
  </separator>
  <separator name="ionic" >
   <i type="int" name="NSW">     0</i>
   <i type="int" name="IBRION">    -1</i>
   <i type="int" name="MDALGO">     0</i>
   <i type="int" name="ISIF">     2</i>
   <i name="PSTRESS">      0.00000000</i>
   <i name="EDIFFG">     -0.05000000</i>
   <i type="int" name="NFREE">     1</i>
   <i name="POTIM">      0.50000000</i>
   <i name="SMASS">     -3.00000000</i>
   <i name="SCALEE">      1.00000000</i>
  </separator>
  <separator name="ionic md" >
   <i name="TEBEG">      0.00010000</i>
   <i name="TEEND">      0.00010000</i>
   <i type="int" name="NBLOCK">     1</i>
   <i type="int" name="KBLOCK">     1</i>
   <i type="int" name="NPACO">   256</i>
   <i name="APACO">     16.00000000</i>
  </separator>
  <separator name="symmetry" >
   <i type="int" name="ISYM">     2</i>
   <i name="SYMPREC">      0.00001000</i>
  </separator>
  <separator name="dos" >
   <i type="int" name="LORBIT">     0</i>
   <v name="RWIGS">     -1.00000000     -1.00000000     -1.00000000</v>
   <i type="int" name="NEDOS">   301</i>
   <i name="EMIN">     10.00000000</i>
   <i name="EMAX">    -10.00000000</i>
   <i name="EFERMI">      0.00000000</i>
  </separator>
  <separator name="writing" >
   <i type="int" name="NWRITE">     2</i>
   <i type="logical" name="LWAVE"> F  </i>
   <i type="logical" name="LDOWNSAMPLE"> F  </i>
   <i type="logical" name="LCHARG"> F  </i>
   <i type="logical" name="LPARD"> F  </i>
   <i type="logical" name="LVTOT"> F  </i>
   <i type="logical" name="LVHAR"> F  </i>
   <i type="logical" name="LELF"> F  </i>
   <i type="logical" name="LOPTICS"> F  </i>
   <v name="STM">      0.00000000      0.00000000      0.00000000      0.00000000      0.00000000      0.00000000      0.00000000</v>
  </separator>
  <separator name="performance" >
   <i type="int" name="NPAR">     1</i>
   <i type="int" name="NSIM">     4</i>
   <i type="int" name="NBLK">    -1</i>
   <i type="logical" name="LPLANE"> T  </i>
   <i type="logical" name="LSCALAPACK"> T  </i>
   <i type="logical" name="LSCAAWARE"> F  </i>
   <i type="logical" name="LSCALU"> F  </i>
   <i type="logical" name="LASYNC"> F  </i>
   <i type="logical" name="LORBITALREAL"> F  </i>
  </separator>
  <separator name="miscellaneous" >
   <i type="int" name="IDIOT">     3</i>
   <i type="int" name="ISPECIAL">     0</i>
   <i type="logical" name="LMUSIC"> F  </i>
   <v name="POMASS">    106.42000000     12.01100000     16.00000000</v>
   <v name="DARWINR">      0.00000000      0.00000000      0.00000000</v>
   <v name="DARWINV">      1.00000000      1.00000000      1.00000000</v>
   <i type="logical" name="LCORR"> T  </i>
  </separator>
  <i type="logical" name="GGA_COMPAT"> T  </i>
  <i type="logical" name="LBERRY"> F  </i>
  <i type="int" name="ICORELEVEL">     0</i>
  <i type="logical" name="LDAU"> F  </i>
  <i type="int" name="I_CONSTRAINED_M">     0</i>
  <separator name="electronic exchange-correlation" >
   <i type="string" name="GGA">RP</i>
   <i type="int" name="VOSKOWN">     0</i>
   <i type="logical" name="LHFCALC"> F  </i>
   <i type="string" name="PRECFOCK"></i>
   <i type="logical" name="LSYMGRAD"> F  </i>
   <i type="logical" name="LHFONE"> F  </i>
   <i type="logical" name="LRHFCALC"> F  </i>
   <i type="logical" name="LTHOMAS"> F  </i>
   <i type="logical" name="LMODELHF"> F  </i>
   <i name="ENCUT4O">     -1.00000000</i>
   <i type="int" name="EXXOEP">     0</i>
   <i type="int" name="FOURORBIT">     0</i>
   <i name="AEXX">      0.00000000</i>
   <i name="HFALPHA">      0.00000000</i>
   <i name="MCALPHA">      0.00000000</i>
   <i name="ALDAX">      1.00000000</i>
   <i name="AGGAX">      1.00000000</i>
   <i name="ALDAC">      1.00000000</i>
   <i name="AGGAC">      1.00000000</i>
   <i type="int" name="NKREDX">     1</i>
   <i type="int" name="NKREDY">     1</i>
   <i type="int" name="NKREDZ">     1</i>
   <i type="logical" name="SHIFTRED"> F  </i>
   <i type="logical" name="ODDONLY"> F  </i>
   <i type="logical" name="EVENONLY"> F  </i>
   <i type="int" name="LMAXFOCK">     0</i>
   <i type="int" name="NMAXFOCKAE">     0</i>
   <i type="logical" name="LFOCKAEDFT"> F  </i>
   <i name="HFSCREEN">      0.00000000</i>
   <i name="HFSCREENC">      0.00000000</i>
   <i type="int" name="NBANDSGWLOW">     0</i>
  </separator>
  <separator name="vdW DFT" >
   <i type="logical" name="LUSE_VDW"> F  </i>
   <i name="Zab_VDW">     -0.84910000</i>
   <i name="PARAM1">      0.12340000</i>
   <i name="PARAM2">      1.00000000</i>
   <i name="PARAM3">      0.00000000</i>
  </separator>
  <separator name="model GW" >
   <i type="int" name="MODEL_GW">     0</i>
   <i name="MODEL_EPS0">    284.21052632</i>
   <i name="MODEL_ALPHA">      1.00000000</i>
  </separator>
  <separator name="linear response parameters" >
   <i type="logical" name="LEPSILON"> F  </i>
   <i type="logical" name="LRPA"> F  </i>
   <i type="logical" name="LNABLA"> F  </i>
   <i type="logical" name="LVEL"> F  </i>
   <i type="int" name="KINTER">     0</i>
   <i name="CSHIFT">      0.10000000</i>
   <i name="OMEGAMAX">     -1.00000000</i>
   <i name="DEG_THRESHOLD">      0.00200000</i>
   <i name="RTIME">     -0.10000000</i>
   <i name="WPLASMAI">      0.00000000</i>
   <v name="DFIELD">      0.00000000      0.00000000      0.00000000</v>
   <v name="WPLASMA">      0.00000000      0.00000000      0.00000000      0.00000000      0.00000000      0.00000000      0.00000000      0.00000000      0.00000000</v>
  </separator>
  <separator name="orbital magnetization" >
   <i type="logical" name="NUCIND"> F  </i>
   <v name="MAGPOS">      0.00000000      0.00000000      0.00000000</v>
   <i type="logical" name="LNICSALL"> T  </i>
   <i type="logical" name="ORBITALMAG"> F  </i>
   <i type="logical" name="LMAGBLOCH"> F  </i>
   <i type="logical" name="LCHIMAG"> F  </i>
   <i type="logical" name="LGAUGE"> T  </i>
   <i type="int" name="MAGATOM">     0</i>
   <v name="MAGDIPOL">      0.00000000      0.00000000      0.00000000</v>
   <v name="AVECCONST">      0.00000000      0.00000000      0.00000000</v>
  </separator>
  <separator name="response functions" >
   <i type="logical" name="LADDER"> F  </i>
   <i type="logical" name="LRPAFORCE"> F  </i>
   <i type="logical" name="LFXC"> F  </i>
   <i type="logical" name="LHARTREE"> T  </i>
   <i type="int" name="IBSE">     0</i>
   <v type="int" name="KPOINT">    -1     0     0     0</v>
   <i type="logical" name="LTCTE"> F  </i>
   <i type="logical" name="LTETE"> F  </i>
   <i type="logical" name="LTRIPLET"> F  </i>
   <i type="logical" name="LFXCEPS"> F  </i>
   <i type="logical" name="LFXHEG"> F  </i>
   <i type="int" name="NATURALO">     2</i>
   <i type="logical" name="L2ORDER"> F  </i>
   <i type="logical" name="LMP2LT"> F  </i>
   <i type="logical" name="LUSEW"> F  </i>
   <i name="ENCUTGW">     -2.00000000</i>
   <i name="ENCUTGWSOFT">     -2.00000000</i>
   <i name="ENCUTLF">     -1.00000000</i>
   <i type="int" name="LMAXMP2">    -1</i>
   <i name="SCISSOR">      0.00000000</i>
   <i type="int" name="NOMEGA">     0</i>
   <i type="int" name="NOMEGAR">     0</i>
   <i type="int" name="NBANDSGW">    -1</i>
   <i type="int" name="NBANDSO">    -1</i>
   <i type="int" name="NBANDSV">    -1</i>
   <i type="int" name="NELM">   100</i>
   <i type="int" name="NELMHF">     1</i>
   <i type="int" name="DIM">     3</i>
   <i type="int" name="ANTIRES">     0</i>
   <i name="OMEGAMAX">    -30.00000000</i>
   <i name="OMEGAMIN">    -30.00000000</i>
   <i name="OMEGATL">   -200.00000000</i>
   <i type="int" name="OMEGAGRID">   140</i>
   <i name="CSHIFT">     -0.10000000</i>
   <i type="logical" name="SELFENERGY"> F  </i>
   <i type="logical" name="LSPECTRAL"> F  </i>
   <i type="logical" name="LSPECTRALGW"> F  </i>
   <i type="logical" name="LSINGLES"> F  </i>
   <i type="logical" name="LFERMIGW"> F  </i>
   <i type="logical" name="ODDONLYGW"> F  </i>
   <i type="logical" name="EVENONLYGW"> F  </i>
   <i type="int" name="NKREDLFX">     1</i>
   <i type="int" name="NKREDLFY">     1</i>
   <i type="int" name="NKREDLFZ">     1</i>
   <i type="int" name="MAXMEM"> 10000</i>
   <i type="int" name="TELESCOPE">     0</i>
   <i type="int" name="TAUPAR">     1</i>
   <i type="int" name="OMEGAPAR">    -1</i>
   <i name="LAMBDA">      1.00000000</i>
  </separator>
  <separator name="External order field" >
   <i name="OFIELD_KAPPA">      0.00000000</i>
   <v name="OFIELD_K">      0.00000000      0.00000000      0.00000000</v>
   <i name="OFIELD_Q6_NEAR">      0.00000000</i>
   <i name="OFIELD_Q6_FAR">      0.00000000</i>
   <i name="OFIELD_A">      0.00000000</i>
  </separator>
 </parameters>
 <atominfo>
  <atoms>      57 </atoms>
  <types>       3 </types>
  <array name="atoms" >
   <dimension dim="1">ion</dimension>
   <field type="string">element</field>
   <field type="int">atomtype</field>
   <set>
    <rc><c>Pd</c><c>   1</c></rc>
    <rc><c>Pd</c><c>   1</c></rc>
    <rc><c>Pd</c><c>   1</c></rc>
    <rc><c>Pd</c><c>   1</c></rc>
    <rc><c>Pd</c><c>   1</c></rc>
    <rc><c>Pd</c><c>   1</c></rc>
    <rc><c>Pd</c><c>   1</c></rc>
    <rc><c>Pd</c><c>   1</c></rc>
    <rc><c>Pd</c><c>   1</c></rc>
    <rc><c>Pd</c><c>   1</c></rc>
    <rc><c>Pd</c><c>   1</c></rc>
    <rc><c>Pd</c><c>   1</c></rc>
    <rc><c>Pd</c><c>   1</c></rc>
    <rc><c>Pd</c><c>   1</c></rc>
    <rc><c>Pd</c><c>   1</c></rc>
    <rc><c>Pd</c><c>   1</c></rc>
    <rc><c>Pd</c><c>   1</c></rc>
    <rc><c>Pd</c><c>   1</c></rc>
    <rc><c>Pd</c><c>   1</c></rc>
    <rc><c>Pd</c><c>   1</c></rc>
    <rc><c>Pd</c><c>   1</c></rc>
    <rc><c>Pd</c><c>   1</c></rc>
    <rc><c>Pd</c><c>   1</c></rc>
    <rc><c>Pd</c><c>   1</c></rc>
    <rc><c>Pd</c><c>   1</c></rc>
    <rc><c>Pd</c><c>   1</c></rc>
    <rc><c>Pd</c><c>   1</c></rc>
    <rc><c>Pd</c><c>   1</c></rc>
    <rc><c>Pd</c><c>   1</c></rc>
    <rc><c>Pd</c><c>   1</c></rc>
    <rc><c>Pd</c><c>   1</c></rc>
    <rc><c>Pd</c><c>   1</c></rc>
    <rc><c>Pd</c><c>   1</c></rc>
    <rc><c>Pd</c><c>   1</c></rc>
    <rc><c>Pd</c><c>   1</c></rc>
    <rc><c>Pd</c><c>   1</c></rc>
    <rc><c>Pd</c><c>   1</c></rc>
    <rc><c>Pd</c><c>   1</c></rc>
    <rc><c>Pd</c><c>   1</c></rc>
    <rc><c>Pd</c><c>   1</c></rc>
    <rc><c>Pd</c><c>   1</c></rc>
    <rc><c>Pd</c><c>   1</c></rc>
    <rc><c>Pd</c><c>   1</c></rc>
    <rc><c>Pd</c><c>   1</c></rc>
    <rc><c>Pd</c><c>   1</c></rc>
    <rc><c>Pd</c><c>   1</c></rc>
    <rc><c>Pd</c><c>   1</c></rc>
    <rc><c>Pd</c><c>   1</c></rc>
    <rc><c>Pd</c><c>   1</c></rc>
    <rc><c>Pd</c><c>   1</c></rc>
    <rc><c>Pd</c><c>   1</c></rc>
    <rc><c>Pd</c><c>   1</c></rc>
    <rc><c>Pd</c><c>   1</c></rc>
    <rc><c>Pd</c><c>   1</c></rc>
    <rc><c>Pd</c><c>   1</c></rc>
    <rc><c>C </c><c>   2</c></rc>
    <rc><c>O </c><c>   3</c></rc>
   </set>
  </array>
  <array name="atomtypes" >
   <dimension dim="1">type</dimension>
   <field type="int">atomspertype</field>
   <field type="string">element</field>
   <field>mass</field>
   <field>valence</field>
   <field type="string">pseudopotential</field>
   <set>
    <rc><c>  55</c><c>Pd</c><c>    106.42000000</c><c>     10.00000000</c><c>  PAW_PBE Pd 04Jan2005                  </c></rc>
    <rc><c>   1</c><c>C </c><c>     12.01100000</c><c>      4.00000000</c><c>  PAW_PBE C 08Apr2002                   </c></rc>
    <rc><c>   1</c><c>O </c><c>     16.00000000</c><c>      6.00000000</c><c>  PAW_PBE O 08Apr2002                   </c></rc>
   </set>
  </array>
 </atominfo>
 <structure name="initialpos" >
  <crystal>
   <varray name="basis" >
    <v>      30.00000000       0.00000000       0.00000000 </v>
    <v>       0.00000000      30.00000000       0.00000000 </v>
    <v>       0.00000000       0.00000000      30.00000000 </v>
   </varray>
   <i name="volume">  27000.00000000 </i>
   <varray name="rec_basis" >
    <v>       0.03333333       0.00000000       0.00000000 </v>
    <v>       0.00000000       0.03333333       0.00000000 </v>
    <v>       0.00000000       0.00000000       0.03333333 </v>
   </varray>
  </crystal>
  <varray name="positions" >
   <v>       0.44576020       0.32826710       0.41691983 </v>
   <v>       0.67173288       0.55423978       0.41691983 </v>
   <v>       0.55423980       0.32826710       0.41691983 </v>
   <v>       0.32826712       0.55423978       0.41691983 </v>
   <v>       0.50000000       0.38250690       0.34021317 </v>
   <v>       0.50000000       0.38250690       0.65978680 </v>
   <v>       0.50000000       0.27609440       0.50000000 </v>
   <v>       0.27609443       0.49999998       0.50000000 </v>
   <v>       0.72390557       0.49999998       0.50000000 </v>
   <v>       0.50000000       0.72390555       0.50000000 </v>
   <v>       0.61195280       0.38804720       0.34167483 </v>
   <v>       0.61195280       0.38804720       0.65832513 </v>
   <v>       0.38804722       0.61195278       0.34167483 </v>
   <v>       0.38804722       0.61195278       0.65832513 </v>
   <v>       0.38804720       0.38804720       0.34167483 </v>
   <v>       0.38804720       0.38804720       0.65832513 </v>
   <v>       0.61195278       0.61195278       0.34167483 </v>
   <v>       0.61195278       0.61195278       0.65832513 </v>
   <v>       0.44576020       0.32826710       0.58308023 </v>
   <v>       0.67173288       0.55423978       0.58308023 </v>
   <v>       0.55791699       0.44208301       0.41809300 </v>
   <v>       0.32826705       0.44576024       0.41691983 </v>
   <v>       0.55423973       0.67173293       0.41691983 </v>
   <v>       0.55423980       0.32826710       0.58308023 </v>
   <v>       0.32826712       0.55423978       0.58308023 </v>
   <v>       0.67173295       0.44576024       0.41691983 </v>
   <v>       0.44576027       0.67173293       0.41691983 </v>
   <v>       0.44208301       0.44208301       0.41809300 </v>
   <v>       0.50000000       0.38416601       0.50000000 </v>
   <v>       0.61749315       0.50000005       0.34021317 </v>
   <v>       0.61749315       0.50000005       0.65978680 </v>
   <v>       0.38250685       0.50000005       0.34021317 </v>
   <v>       0.38250685       0.50000005       0.65978680 </v>
   <v>       0.38317830       0.38317830       0.50000000 </v>
   <v>       0.61682172       0.61682172       0.50000000 </v>
   <v>       0.61682170       0.38317830       0.50000000 </v>
   <v>       0.38317828       0.61682172       0.50000000 </v>
   <v>       0.50000000       0.50000000       0.33478917 </v>
   <v>       0.50000000       0.50000000       0.66521087 </v>
   <v>       0.32826705       0.44576024       0.58308023 </v>
   <v>       0.55423973       0.67173293       0.58308023 </v>
   <v>       0.55791699       0.44208301       0.58190703 </v>
   <v>       0.44208298       0.55791702       0.41809300 </v>
   <v>       0.44208301       0.44208301       0.58190703 </v>
   <v>       0.67173295       0.44576024       0.58308023 </v>
   <v>       0.44576027       0.67173293       0.58308023 </v>
   <v>       0.55791702       0.55791702       0.41809300 </v>
   <v>       0.38416599       0.50000002       0.50000000 </v>
   <v>       0.61583401       0.50000002       0.50000000 </v>
   <v>       0.50000000       0.61749319       0.34021317 </v>
   <v>       0.50000000       0.61749319       0.65978680 </v>
   <v>       0.50000000       0.50000000       0.50000000 </v>
   <v>       0.44208298       0.55791702       0.58190703 </v>
   <v>       0.55791702       0.55791702       0.58190703 </v>
   <v>       0.50000000       0.61583404       0.50000000 </v>
   <v>       0.49799080       0.30511840       0.62066710 </v>
   <v>       0.49766123       0.27315160       0.64046037 </v>
  </varray>
  <varray name="selective"  type="logical" >
   <v type="logical" >  F  F  F </v>
   <v type="logical" >  F  F  F </v>
   <v type="logical" >  F  F  F </v>
   <v type="logical" >  F  F  F </v>
   <v type="logical" >  F  F  F </v>
   <v type="logical" >  F  F  F </v>
   <v type="logical" >  F  F  F </v>
   <v type="logical" >  F  F  F </v>
   <v type="logical" >  F  F  F </v>
   <v type="logical" >  F  F  F </v>
   <v type="logical" >  F  F  F </v>
   <v type="logical" >  F  F  F </v>
   <v type="logical" >  F  F  F </v>
   <v type="logical" >  F  F  F </v>
   <v type="logical" >  F  F  F </v>
   <v type="logical" >  F  F  F </v>
   <v type="logical" >  F  F  F </v>
   <v type="logical" >  F  F  F </v>
   <v type="logical" >  F  F  F </v>
   <v type="logical" >  F  F  F </v>
   <v type="logical" >  F  F  F </v>
   <v type="logical" >  F  F  F </v>
   <v type="logical" >  F  F  F </v>
   <v type="logical" >  F  F  F </v>
   <v type="logical" >  F  F  F </v>
   <v type="logical" >  F  F  F </v>
   <v type="logical" >  F  F  F </v>
   <v type="logical" >  F  F  F </v>
   <v type="logical" >  F  F  F </v>
   <v type="logical" >  F  F  F </v>
   <v type="logical" >  F  F  F </v>
   <v type="logical" >  F  F  F </v>
   <v type="logical" >  F  F  F </v>
   <v type="logical" >  F  F  F </v>
   <v type="logical" >  F  F  F </v>
   <v type="logical" >  F  F  F </v>
   <v type="logical" >  F  F  F </v>
   <v type="logical" >  F  F  F </v>
   <v type="logical" >  F  F  F </v>
   <v type="logical" >  F  F  F </v>
   <v type="logical" >  F  F  F </v>
   <v type="logical" >  F  F  F </v>
   <v type="logical" >  F  F  F </v>
   <v type="logical" >  F  F  F </v>
   <v type="logical" >  F  F  F </v>
   <v type="logical" >  F  F  F </v>
   <v type="logical" >  F  F  F </v>
   <v type="logical" >  F  F  F </v>
   <v type="logical" >  F  F  F </v>
   <v type="logical" >  F  F  F </v>
   <v type="logical" >  F  F  F </v>
   <v type="logical" >  F  F  F </v>
   <v type="logical" >  F  F  F </v>
   <v type="logical" >  F  F  F </v>
   <v type="logical" >  F  F  F </v>
   <v type="logical" >  F  F  F </v>
   <v type="logical" >  F  F  F </v>
  </varray>
  <nose>
   <v>      -3.00000000       0.00000000       0.00010000       0.00010000 </v>
  </nose>
 </structure>
 <calculation>
  <scstep>
   <time name="dav">  433.70  433.79</time>
   <time name="total">  448.03  448.12</time>
   <energy>
    <i name="alphaZ">     75.25431677 </i>
    <i name="ewald"> 138961.42979320 </i>
    <i name="hartreedc">-182317.73205680 </i>
    <i name="XCdc">  -1702.25949828 </i>
    <i name="pawpsdc">  44873.02882129 </i>
    <i name="pawaedc"> -41398.84523641 </i>
    <i name="eentropy">     -0.01487742 </i>
    <i name="bandstr">    814.64904014 </i>
    <i name="atom">  45086.50549395 </i>
    <i name="e_fr_energy">   4392.01579643 </i>
    <i name="e_wo_entrp">   4392.03067385 </i>
    <i name="e_0_energy">   4392.01951578 </i>
   </energy>
  </scstep>
  <scstep>
   <time name="dav">  725.90  725.95</time>
   <time name="total">  725.90  725.95</time>
   <energy>
    <i name="e_fr_energy">   2008.10948741 </i>
    <i name="e_wo_entrp">   2008.16429079 </i>
    <i name="e_0_energy">   2008.12318826 </i>
   </energy>
  </scstep>
  <scstep>
   <time name="dav">  566.09  566.12</time>
   <time name="total">  566.09  566.12</time>
   <energy>
    <i name="e_fr_energy">    232.26941187 </i>
    <i name="e_wo_entrp">    232.26742323 </i>
    <i name="e_0_energy">    232.26891471 </i>
   </energy>
  </scstep>
  <scstep>
   <time name="dav">  486.57  486.61</time>
   <time name="total">  486.57  486.61</time>
   <energy>
    <i name="e_fr_energy">   -135.26919962 </i>
    <i name="e_wo_entrp">   -135.29703900 </i>
    <i name="e_0_energy">   -135.27615947 </i>
   </energy>
  </scstep>
  <scstep>
   <time name="dav">  602.84  602.87</time>
   <time name="total">  630.83  630.86</time>
   <energy>
    <i name="e_fr_energy">   -180.87440807 </i>
    <i name="e_wo_entrp">   -181.35781744 </i>
    <i name="e_0_energy">   -180.99526041 </i>
   </energy>
  </scstep>
  <scstep>
   <time name="diag">   87.19   87.19</time>
   <time name="diis">  208.18  208.19</time>
   <time name="orth">   23.28   23.28</time>
   <time name="total">  363.71  363.73</time>
   <energy>
    <i name="e_fr_energy">   -181.38545609 </i>
    <i name="e_wo_entrp">   -181.10203775 </i>
    <i name="e_0_energy">   -181.31460151 </i>
   </energy>
  </scstep>
  <scstep>
   <time name="diag">   93.49   93.50</time>
   <time name="diis">  261.76  261.77</time>
   <time name="orth">   21.91   21.91</time>
   <time name="total">  418.46  418.49</time>
   <energy>
    <i name="e_fr_energy">   -184.24615640 </i>
    <i name="e_wo_entrp">   -184.13010603 </i>
    <i name="e_0_energy">   -184.21714380 </i>
   </energy>
  </scstep>
  <scstep>
   <time name="diag">   80.82   80.83</time>
   <time name="diis">  208.86  208.87</time>
   <time name="orth">   21.95   21.95</time>
   <time name="total">  351.01  351.02</time>
   <energy>
    <i name="e_fr_energy">   -184.73212216 </i>
    <i name="e_wo_entrp">   -184.69822772 </i>
    <i name="e_0_energy">   -184.72364855 </i>
   </energy>
  </scstep>
  <scstep>
   <time name="diag">   81.51   81.51</time>
   <time name="diis">  193.75  193.76</time>
   <time name="orth">   22.02   22.02</time>
   <time name="total">  337.59  337.60</time>
   <energy>
    <i name="e_fr_energy">   -183.03352688 </i>
    <i name="e_wo_entrp">   -182.84497412 </i>
    <i name="e_0_energy">   -182.98638869 </i>
   </energy>
  </scstep>
  <scstep>
   <time name="diag">   81.90   81.91</time>
   <time name="diis">  191.61  191.64</time>
   <time name="orth">   22.03   22.03</time>
   <time name="total">  335.74  335.78</time>
   <energy>
    <i name="e_fr_energy">   -180.69459111 </i>
    <i name="e_wo_entrp">   -180.58213378 </i>
    <i name="e_0_energy">   -180.66647678 </i>
   </energy>
  </scstep>
  <scstep>
   <time name="diag">   81.93   81.94</time>
   <time name="diis">  196.90  196.93</time>
   <time name="orth">   22.03   22.03</time>
   <time name="total">  341.18  341.22</time>
   <energy>
    <i name="e_fr_energy">   -178.76981711 </i>
    <i name="e_wo_entrp">   -178.69150566 </i>
    <i name="e_0_energy">   -178.75023925 </i>
   </energy>
  </scstep>
  <scstep>
   <time name="diag">   82.41   82.41</time>
   <time name="diis">  193.41  193.43</time>
   <time name="orth">   21.99   21.99</time>
   <time name="total">  338.09  338.13</time>
   <energy>
    <i name="e_fr_energy">   -178.00891072 </i>
    <i name="e_wo_entrp">   -177.88700342 </i>
    <i name="e_0_energy">   -177.97843389 </i>
   </energy>
  </scstep>
  <scstep>
   <time name="diag">   80.97   80.98</time>
   <time name="diis">  193.85  193.87</time>
   <time name="orth">   22.03   22.03</time>
   <time name="total">  337.43  337.44</time>
   <energy>
    <i name="e_fr_energy">   -177.32583810 </i>
    <i name="e_wo_entrp">   -177.18312945 </i>
    <i name="e_0_energy">   -177.29016094 </i>
   </energy>
  </scstep>
  <scstep>
   <time name="diag">   83.52   83.53</time>
   <time name="diis">  201.64  201.66</time>
   <time name="orth">   23.05   23.05</time>
   <time name="total">  349.43  349.46</time>
   <energy>
    <i name="e_fr_energy">   -177.32976386 </i>
    <i name="e_wo_entrp">   -177.36374626 </i>
    <i name="e_0_energy">   -177.33825946 </i>
   </energy>
  </scstep>
  <scstep>
   <time name="diag">   85.40   85.41</time>
   <time name="diis">  206.05  206.06</time>
   <time name="orth">   23.02   23.02</time>
   <time name="total">  358.14  358.15</time>
   <energy>
    <i name="e_fr_energy">   -177.16420885 </i>
    <i name="e_wo_entrp">   -177.19865929 </i>
    <i name="e_0_energy">   -177.17282146 </i>
   </energy>
  </scstep>
  <scstep>
   <time name="diag">   86.89   86.90</time>
   <time name="diis">  225.06  225.07</time>
   <time name="orth">   23.37   23.37</time>
   <time name="total">  378.39  378.41</time>
   <energy>
    <i name="e_fr_energy">   -176.59255485 </i>
    <i name="e_wo_entrp">   -176.56232084 </i>
    <i name="e_0_energy">   -176.58499634 </i>
   </energy>
  </scstep>
  <scstep>
   <time name="diag">   88.08   88.09</time>
   <time name="diis">  196.88  196.89</time>
   <time name="orth">   21.97   21.97</time>
   <time name="total">  347.35  347.37</time>
   <energy>
    <i name="e_fr_energy">   -176.70904816 </i>
    <i name="e_wo_entrp">   -176.70945107 </i>
    <i name="e_0_energy">   -176.70914888 </i>
   </energy>
  </scstep>
  <scstep>
   <time name="diag">   80.98   80.99</time>
   <time name="diis">  185.46  185.47</time>
   <time name="orth">   22.00   22.00</time>
   <time name="total">  328.30  328.32</time>
   <energy>
    <i name="e_fr_energy">   -176.46743552 </i>
    <i name="e_wo_entrp">   -176.48154076 </i>
    <i name="e_0_energy">   -176.47096183 </i>
   </energy>
  </scstep>
  <scstep>
   <time name="diag">   81.02   81.02</time>
   <time name="diis">  185.40  185.41</time>
   <time name="orth">   22.04   22.04</time>
   <time name="total">  328.72  328.74</time>
   <energy>
    <i name="e_fr_energy">   -176.49878636 </i>
    <i name="e_wo_entrp">   -176.44522235 </i>
    <i name="e_0_energy">   -176.48539535 </i>
   </energy>
  </scstep>
  <scstep>
   <time name="diag">   81.29   81.29</time>
   <time name="diis">  188.66  188.67</time>
   <time name="orth">   21.80   21.80</time>
   <time name="total">  331.64  331.66</time>
   <energy>
    <i name="e_fr_energy">   -176.30582582 </i>
    <i name="e_wo_entrp">   -176.22550730 </i>
    <i name="e_0_energy">   -176.28574619 </i>
   </energy>
  </scstep>
  <scstep>
   <time name="diag">   80.91   80.91</time>
   <time name="diis">  182.13  182.14</time>
   <time name="orth">   21.99   21.99</time>
   <time name="total">  325.34  325.36</time>
   <energy>
    <i name="e_fr_energy">   -175.89039683 </i>
    <i name="e_wo_entrp">   -175.82332569 </i>
    <i name="e_0_energy">   -175.87362905 </i>
   </energy>
  </scstep>
  <scstep>
   <time name="diag">   81.20   81.21</time>
   <time name="diis">  181.86  181.87</time>
   <time name="orth">   22.03   22.03</time>
   <time name="total">  325.55  325.57</time>
   <energy>
    <i name="e_fr_energy">   -175.80463649 </i>
    <i name="e_wo_entrp">   -175.73895107 </i>
    <i name="e_0_energy">   -175.78821513 </i>
   </energy>
  </scstep>
  <scstep>
   <time name="diag">   80.96   80.97</time>
   <time name="diis">  181.12  181.14</time>
   <time name="orth">   21.81   21.81</time>
   <time name="total">  324.28  324.31</time>
   <energy>
    <i name="e_fr_energy">   -175.77544801 </i>
    <i name="e_wo_entrp">   -175.70185805 </i>
    <i name="e_0_energy">   -175.75705052 </i>
   </energy>
  </scstep>
  <scstep>
   <time name="diag">   80.58   80.59</time>
   <time name="diis">  181.21  181.23</time>
   <time name="orth">   21.81   21.81</time>
   <time name="total">  323.84  323.86</time>
   <energy>
    <i name="e_fr_energy">   -175.66629865 </i>
    <i name="e_wo_entrp">   -175.57528287 </i>
    <i name="e_0_energy">   -175.64354470 </i>
   </energy>
  </scstep>
  <scstep>
   <time name="diag">   80.53   80.53</time>
   <time name="diis">  181.25  181.26</time>
   <time name="orth">   21.98   21.98</time>
   <time name="total">  324.79  324.81</time>
   <energy>
    <i name="e_fr_energy">   -175.61897982 </i>
    <i name="e_wo_entrp">   -175.51698001 </i>
    <i name="e_0_energy">   -175.59347987 </i>
   </energy>
  </scstep>
  <scstep>
   <time name="diag">   82.49   82.50</time>
   <time name="diis">  184.23  184.24</time>
   <time name="orth">   21.97   21.97</time>
   <time name="total">  329.34  329.37</time>
   <energy>
    <i name="e_fr_energy">   -175.60374152 </i>
    <i name="e_wo_entrp">   -175.51026354 </i>
    <i name="e_0_energy">   -175.58037203 </i>
   </energy>
  </scstep>
  <scstep>
   <time name="diag">   80.94   80.94</time>
   <time name="diis">  186.98  186.99</time>
   <time name="orth">   22.01   22.01</time>
   <time name="total">  331.62  331.64</time>
   <energy>
    <i name="e_fr_energy">   -175.57882839 </i>
    <i name="e_wo_entrp">   -175.46936075 </i>
    <i name="e_0_energy">   -175.55146148 </i>
   </energy>
  </scstep>
  <scstep>
   <time name="diag">   81.89   81.90</time>
   <time name="diis">  193.42  193.44</time>
   <time name="orth">   22.75   22.75</time>
   <time name="total">  341.67  341.70</time>
   <energy>
    <i name="e_fr_energy">   -175.56790102 </i>
    <i name="e_wo_entrp">   -175.44676919 </i>
    <i name="e_0_energy">   -175.53761806 </i>
   </energy>
  </scstep>
  <scstep>
   <time name="diag">   86.82   86.82</time>
   <time name="diis">  311.04  311.07</time>
   <time name="orth">   26.25   26.25</time>
   <time name="total">  470.04  470.08</time>
   <energy>
    <i name="e_fr_energy">   -175.55027853 </i>
    <i name="e_wo_entrp">   -175.44747585 </i>
    <i name="e_0_energy">   -175.52457786 </i>
   </energy>
  </scstep>
  <scstep>
   <time name="diag">   82.44   82.45</time>
   <time name="diis">  212.87  212.89</time>
   <time name="orth">   21.75   21.75</time>
   <time name="total">  358.06  358.08</time>
   <energy>
    <i name="e_fr_energy">   -175.54543300 </i>
    <i name="e_wo_entrp">   -175.44890802 </i>
    <i name="e_0_energy">   -175.52130175 </i>
   </energy>
  </scstep>
  <scstep>
   <time name="diag">   86.23   86.24</time>
   <time name="diis">  212.41  212.43</time>
   <time name="orth">   21.75   21.75</time>
   <time name="total">  363.40  363.43</time>
   <energy>
    <i name="e_fr_energy">   -175.54006699 </i>
    <i name="e_wo_entrp">   -175.44036698 </i>
    <i name="e_0_energy">   -175.51514198 </i>
   </energy>
  </scstep>
  <scstep>
   <time name="diag">   88.78   88.79</time>
   <time name="diis">  208.29  208.31</time>
   <time name="orth">   21.81   21.81</time>
   <time name="total">  360.31  360.34</time>
   <energy>
    <i name="e_fr_energy">   -175.53803836 </i>
    <i name="e_wo_entrp">   -175.43715682 </i>
    <i name="e_0_energy">   -175.51281797 </i>
   </energy>
  </scstep>
  <scstep>
   <time name="diag">   82.50   82.50</time>
   <time name="diis">  213.59  213.61</time>
   <time name="orth">   23.32   23.32</time>
   <time name="total">  365.37  365.40</time>
   <energy>
    <i name="e_fr_energy">   -175.53654310 </i>
    <i name="e_wo_entrp">   -175.42772995 </i>
    <i name="e_0_energy">   -175.50933981 </i>
   </energy>
  </scstep>
  <scstep>
   <time name="diag">   83.02   83.03</time>
   <time name="diis">  187.11  187.12</time>
   <time name="orth">   22.09   22.10</time>
   <time name="total">  336.17  336.19</time>
   <energy>
    <i name="e_fr_energy">   -175.53584398 </i>
    <i name="e_wo_entrp">   -175.42476970 </i>
    <i name="e_0_energy">   -175.50807541 </i>
   </energy>
  </scstep>
  <scstep>
   <time name="diag">   88.46   88.47</time>
   <time name="diis">  208.55  208.56</time>
   <time name="orth">   21.92   21.93</time>
   <time name="total">  361.51  361.53</time>
   <energy>
    <i name="e_fr_energy">   -175.53637475 </i>
    <i name="e_wo_entrp">   -175.42840744 </i>
    <i name="e_0_energy">   -175.50938292 </i>
   </energy>
  </scstep>
  <scstep>
   <time name="diag">   82.07   82.07</time>
   <time name="diis">  189.08  189.09</time>
   <time name="orth">   22.07   22.07</time>
   <time name="total">  335.80  335.83</time>
   <energy>
    <i name="e_fr_energy">   -175.53671655 </i>
    <i name="e_wo_entrp">   -175.42909142 </i>
    <i name="e_0_energy">   -175.50981027 </i>
   </energy>
  </scstep>
  <scstep>
   <time name="diag">   83.33   83.34</time>
   <time name="diis">  211.69  211.70</time>
   <time name="orth">   23.16   23.16</time>
   <time name="total">  363.55  363.57</time>
   <energy>
    <i name="e_fr_energy">   -175.53892531 </i>
    <i name="e_wo_entrp">   -175.43232022 </i>
    <i name="e_0_energy">   -175.51227404 </i>
   </energy>
  </scstep>
  <scstep>
   <time name="diag">   88.14   88.15</time>
   <time name="diis">  185.66  185.66</time>
   <time name="orth">   21.83   21.83</time>
   <time name="total">  338.84  338.86</time>
   <energy>
    <i name="e_fr_energy">   -175.54034783 </i>
    <i name="e_wo_entrp">   -175.43584211 </i>
    <i name="e_0_energy">   -175.51422140 </i>
   </energy>
  </scstep>
  <scstep>
   <time name="diag">   81.98   81.99</time>
   <time name="diis">  155.44  155.46</time>
   <time name="orth">   22.11   22.11</time>
   <time name="total">  302.31  302.34</time>
   <energy>
    <i name="e_fr_energy">   -175.54208359 </i>
    <i name="e_wo_entrp">   -175.43619886 </i>
    <i name="e_0_energy">   -175.51561241 </i>
   </energy>
  </scstep>
  <scstep>
   <time name="diag">   82.16   82.17</time>
   <time name="diis">  191.79  191.80</time>
   <time name="orth">   22.73   22.73</time>
   <time name="total">  341.82  341.84</time>
   <energy>
    <i name="e_fr_energy">   -175.54572441 </i>
    <i name="e_wo_entrp">   -175.44017503 </i>
    <i name="e_0_energy">   -175.51933707 </i>
   </energy>
  </scstep>
  <scstep>
   <time name="diag">   86.55   86.55</time>
   <time name="diis">  162.12  162.13</time>
   <time name="orth">   23.40   23.40</time>
   <time name="total">  320.83  320.85</time>
   <energy>
    <i name="e_fr_energy">   -175.54801871 </i>
    <i name="e_wo_entrp">   -175.44173908 </i>
    <i name="e_0_energy">   -175.52144880 </i>
   </energy>
  </scstep>
  <scstep>
   <time name="diag">   84.15   84.16</time>
   <time name="diis">  122.75  122.76</time>
   <time name="orth">   22.03   22.03</time>
   <time name="total">  273.37  273.38</time>
   <energy>
    <i name="e_fr_energy">   -175.54999819 </i>
    <i name="e_wo_entrp">   -175.44335931 </i>
    <i name="e_0_energy">   -175.52333847 </i>
   </energy>
  </scstep>
  <scstep>
   <time name="diag">   82.73   82.73</time>
   <time name="diis">  162.07  162.07</time>
   <time name="orth">   22.25   22.25</time>
   <time name="total">  310.67  310.68</time>
   <energy>
    <i name="e_fr_energy">   -175.55381072 </i>
    <i name="e_wo_entrp">   -175.44787542 </i>
    <i name="e_0_energy">   -175.52732689 </i>
   </energy>
  </scstep>
  <scstep>
   <time name="diag">   82.29   82.30</time>
   <time name="diis">  122.99  123.00</time>
   <time name="orth">   22.01   22.01</time>
   <time name="total">  270.61  270.63</time>
   <energy>
    <i name="e_fr_energy">   -175.55473331 </i>
    <i name="e_wo_entrp">   -175.44963523 </i>
    <i name="e_0_energy">   -175.52845879 </i>
   </energy>
  </scstep>
  <scstep>
   <time name="diag">   84.73   84.73</time>
   <time name="diis">  132.87  132.88</time>
   <time name="orth">   22.87   22.87</time>
   <time name="total">  286.33  286.36</time>
   <energy>
    <i name="e_fr_energy">   -175.55628567 </i>
    <i name="e_wo_entrp">   -175.45106346 </i>
    <i name="e_0_energy">   -175.52998012 </i>
   </energy>
  </scstep>
  <scstep>
   <time name="diag">   86.90   86.91</time>
   <time name="diis">  131.03  131.05</time>
   <time name="orth">   23.99   23.99</time>
   <time name="total">  289.75  289.79</time>
   <energy>
    <i name="e_fr_energy">   -175.55754661 </i>
    <i name="e_wo_entrp">   -175.45186472 </i>
    <i name="e_0_energy">   -175.53112614 </i>
   </energy>
  </scstep>
  <scstep>
   <time name="diag">   88.43   88.44</time>
   <time name="diis">  113.89  113.91</time>
   <time name="orth">   21.84   21.84</time>
   <time name="total">  268.51  268.53</time>
   <energy>
    <i name="e_fr_energy">   -175.55830409 </i>
    <i name="e_wo_entrp">   -175.45239017 </i>
    <i name="e_0_energy">   -175.53182561 </i>
   </energy>
  </scstep>
  <scstep>
   <time name="diag">   81.42   81.43</time>
   <time name="diis">  114.63  114.64</time>
   <time name="orth">   22.00   22.01</time>
   <time name="total">  261.86  261.89</time>
   <energy>
    <i name="e_fr_energy">   -175.55968289 </i>
    <i name="e_wo_entrp">   -175.45379695 </i>
    <i name="e_0_energy">   -175.53321140 </i>
   </energy>
  </scstep>
  <scstep>
   <time name="diag">   82.86   82.86</time>
   <time name="diis">  115.87  115.88</time>
   <time name="orth">   22.06   22.06</time>
   <time name="total">  264.48  264.51</time>
   <energy>
    <i name="e_fr_energy">   -175.56009539 </i>
    <i name="e_wo_entrp">   -175.45432664 </i>
    <i name="e_0_energy">   -175.53365320 </i>
   </energy>
  </scstep>
  <scstep>
   <time name="diag">   82.18   82.19</time>
   <time name="diis">  116.01  116.01</time>
   <time name="orth">   22.25   22.25</time>
   <time name="total">  264.58  264.60</time>
   <energy>
    <i name="e_fr_energy">   -175.56128055 </i>
    <i name="e_wo_entrp">   -175.45570517 </i>
    <i name="e_0_energy">   -175.53488671 </i>
   </energy>
  </scstep>
  <scstep>
   <time name="diag">   82.80   82.81</time>
   <time name="diis">  114.31  114.32</time>
   <time name="orth">   22.08   22.09</time>
   <time name="total">  263.35  263.36</time>
   <energy>
    <i name="e_fr_energy">   -175.56142378 </i>
    <i name="e_wo_entrp">   -175.45569304 </i>
    <i name="e_0_energy">   -175.53499109 </i>
   </energy>
  </scstep>
  <scstep>
   <time name="diag">   84.25   84.26</time>
   <time name="diis">  122.92  122.93</time>
   <time name="orth">   23.07   23.07</time>
   <time name="total">  275.72  275.73</time>
   <energy>
    <i name="e_fr_energy">   -175.56206492 </i>
    <i name="e_wo_entrp">   -175.45638813 </i>
    <i name="e_0_energy">   -175.53564572 </i>
   </energy>
  </scstep>
  <scstep>
   <time name="diag">   88.05   88.05</time>
   <time name="diis">  104.24  104.24</time>
   <time name="orth">   23.45   23.45</time>
   <time name="total">  264.91  264.92</time>
   <energy>
    <i name="e_fr_energy">   -175.56243596 </i>
    <i name="e_wo_entrp">   -175.45680170 </i>
    <i name="e_0_energy">   -175.53602739 </i>
   </energy>
  </scstep>
  <scstep>
   <time name="diag">   94.88   94.89</time>
   <time name="diis">  111.08  111.09</time>
   <time name="orth">   24.46   24.46</time>
   <time name="total">  285.41  285.43</time>
   <energy>
    <i name="e_fr_energy">   -175.56287098 </i>
    <i name="e_wo_entrp">   -175.45722584 </i>
    <i name="e_0_energy">   -175.53645969 </i>
   </energy>
  </scstep>
  <scstep>
   <time name="diag">   82.13   82.13</time>
   <time name="diis">   82.20   82.21</time>
   <time name="orth">   21.76   21.76</time>
   <time name="total">  232.04  232.05</time>
   <energy>
    <i name="e_fr_energy">   -175.56306568 </i>
    <i name="e_wo_entrp">   -175.45737836 </i>
    <i name="e_0_energy">   -175.53664385 </i>
   </energy>
  </scstep>
  <scstep>
   <time name="diag">   81.42   81.42</time>
   <time name="diis">  101.81  101.82</time>
   <time name="orth">   21.83   21.83</time>
   <time name="total">  248.40  248.42</time>
   <energy>
    <i name="e_fr_energy">   -175.56352837 </i>
    <i name="e_wo_entrp">   -175.45783074 </i>
    <i name="e_0_energy">   -175.53710397 </i>
   </energy>
  </scstep>
  <scstep>
   <time name="diag">   81.37   81.38</time>
   <time name="diis">   82.43   82.43</time>
   <time name="orth">   22.05   22.05</time>
   <time name="total">  229.91  229.93</time>
   <energy>
    <i name="e_fr_energy">   -175.56364953 </i>
    <i name="e_wo_entrp">   -175.45800994 </i>
    <i name="e_0_energy">   -175.53723963 </i>
   </energy>
  </scstep>
  <scstep>
   <time name="diag">   81.76   81.76</time>
   <time name="diis">   86.23   86.24</time>
   <time name="orth">   21.99   21.99</time>
   <time name="total">  234.00  234.02</time>
   <energy>
    <i name="e_fr_energy">   -175.56379065 </i>
    <i name="e_wo_entrp">   -175.45808843 </i>
    <i name="e_0_energy">   -175.53736510 </i>
   </energy>
  </scstep>
  <scstep>
   <time name="diag">   81.63   81.63</time>
   <time name="diis">   83.16   83.17</time>
   <time name="orth">   22.04   22.04</time>
   <time name="total">  200.83  200.84</time>
   <energy>
    <i name="alphaZ">     75.25431677 </i>
    <i name="ewald"> 138961.42979320 </i>
    <i name="hartreedc">-183312.87431758 </i>
    <i name="XCdc">  -1691.64134408 </i>
    <i name="pawpsdc">  46198.82909115 </i>
    <i name="pawaedc"> -42669.76038956 </i>
    <i name="eentropy">     -0.10567257 </i>
    <i name="bandstr">  -2823.20084268 </i>
    <i name="atom">  45086.50549395 </i>
    <i name="e_fr_energy">   -175.56387139 </i>
    <i name="e_wo_entrp">   -175.45819882 </i>
    <i name="e_0_energy">   -175.53745325 </i>
   </energy>
  </scstep>
  <structure>
   <crystal>
    <varray name="basis" >
     <v>      30.00000000       0.00000000       0.00000000 </v>
     <v>       0.00000000      30.00000000       0.00000000 </v>
     <v>       0.00000000       0.00000000      30.00000000 </v>
    </varray>
    <i name="volume">  27000.00000000 </i>
    <varray name="rec_basis" >
     <v>       0.03333333       0.00000000       0.00000000 </v>
     <v>       0.00000000       0.03333333       0.00000000 </v>
     <v>       0.00000000       0.00000000       0.03333333 </v>
    </varray>
   </crystal>
   <varray name="positions" >
    <v>       0.44576020       0.32826710       0.41691983 </v>
    <v>       0.67173288       0.55423978       0.41691983 </v>
    <v>       0.55423980       0.32826710       0.41691983 </v>
    <v>       0.32826712       0.55423978       0.41691983 </v>
    <v>       0.50000000       0.38250690       0.34021317 </v>
    <v>       0.50000000       0.38250690       0.65978680 </v>
    <v>       0.50000000       0.27609440       0.50000000 </v>
    <v>       0.27609443       0.49999998       0.50000000 </v>
    <v>       0.72390557       0.49999998       0.50000000 </v>
    <v>       0.50000000       0.72390555       0.50000000 </v>
    <v>       0.61195280       0.38804720       0.34167483 </v>
    <v>       0.61195280       0.38804720       0.65832513 </v>
    <v>       0.38804722       0.61195278       0.34167483 </v>
    <v>       0.38804722       0.61195278       0.65832513 </v>
    <v>       0.38804720       0.38804720       0.34167483 </v>
    <v>       0.38804720       0.38804720       0.65832513 </v>
    <v>       0.61195278       0.61195278       0.34167483 </v>
    <v>       0.61195278       0.61195278       0.65832513 </v>
    <v>       0.44576020       0.32826710       0.58308023 </v>
    <v>       0.67173288       0.55423978       0.58308023 </v>
    <v>       0.55791699       0.44208301       0.41809300 </v>
    <v>       0.32826705       0.44576024       0.41691983 </v>
    <v>       0.55423973       0.67173293       0.41691983 </v>
    <v>       0.55423980       0.32826710       0.58308023 </v>
    <v>       0.32826712       0.55423978       0.58308023 </v>
    <v>       0.67173295       0.44576024       0.41691983 </v>
    <v>       0.44576027       0.67173293       0.41691983 </v>
    <v>       0.44208301       0.44208301       0.41809300 </v>
    <v>       0.50000000       0.38416601       0.50000000 </v>
    <v>       0.61749315       0.50000005       0.34021317 </v>
    <v>       0.61749315       0.50000005       0.65978680 </v>
    <v>       0.38250685       0.50000005       0.34021317 </v>
    <v>       0.38250685       0.50000005       0.65978680 </v>
    <v>       0.38317830       0.38317830       0.50000000 </v>
    <v>       0.61682172       0.61682172       0.50000000 </v>
    <v>       0.61682170       0.38317830       0.50000000 </v>
    <v>       0.38317828       0.61682172       0.50000000 </v>
    <v>       0.50000000       0.50000000       0.33478917 </v>
    <v>       0.50000000       0.50000000       0.66521087 </v>
    <v>       0.32826705       0.44576024       0.58308023 </v>
    <v>       0.55423973       0.67173293       0.58308023 </v>
    <v>       0.55791699       0.44208301       0.58190703 </v>
    <v>       0.44208298       0.55791702       0.41809300 </v>
    <v>       0.44208301       0.44208301       0.58190703 </v>
    <v>       0.67173295       0.44576024       0.58308023 </v>
    <v>       0.44576027       0.67173293       0.58308023 </v>
    <v>       0.55791702       0.55791702       0.41809300 </v>
    <v>       0.38416599       0.50000002       0.50000000 </v>
    <v>       0.61583401       0.50000002       0.50000000 </v>
    <v>       0.50000000       0.61749319       0.34021317 </v>
    <v>       0.50000000       0.61749319       0.65978680 </v>
    <v>       0.50000000       0.50000000       0.50000000 </v>
    <v>       0.44208298       0.55791702       0.58190703 </v>
    <v>       0.55791702       0.55791702       0.58190703 </v>
    <v>       0.50000000       0.61583404       0.50000000 </v>
    <v>       0.49799080       0.30511840       0.62066710 </v>
    <v>       0.49766123       0.27315160       0.64046037 </v>
   </varray>
  </structure>
  <varray name="forces" >
   <v>       0.71042344       1.10802065       0.28504468 </v>
   <v>      -1.10796371      -0.71268088       0.28603630 </v>
   <v>      -0.71071944       1.10817736       0.28495938 </v>
   <v>       1.10832792      -0.71262484       0.28542527 </v>
   <v>      -0.00019561       0.41024349       1.28734327 </v>
   <v>      -0.00820908      -0.04867039      -1.38341121 </v>
   <v>       0.00032812       1.45864299      -0.08246393 </v>
   <v>       1.51953994       0.00361941      -0.00463420 </v>
   <v>      -1.51951858       0.00337740      -0.00517858 </v>
   <v>      -0.00000189      -1.52047638       0.00909411 </v>
   <v>      -0.75548222       0.76222869       1.07082244 </v>
   <v>      -0.70061191       0.79526569      -1.05364070 </v>
   <v>       0.75175059      -0.76497254       1.07494747 </v>
   <v>       0.76130205      -0.75187717      -1.07649876 </v>
   <v>       0.75593469       0.76182120       1.07071611 </v>
   <v>       0.69480212       0.79565283      -1.04930145 </v>
   <v>      -0.75188242      -0.76501826       1.07505300 </v>
   <v>      -0.76145633      -0.75198701      -1.07661404 </v>
   <v>       1.21841304       0.87363285       0.11804007 </v>
   <v>      -1.11004256      -0.70580016      -0.29326078 </v>
   <v>       0.11499524      -0.11184291      -0.15924545 </v>
   <v>       1.10632713       0.74102170       0.26533596 </v>
   <v>      -0.70726474      -1.10868499       0.28894573 </v>
   <v>      -1.43803084       0.75008344       0.26978198 </v>
   <v>       1.11001246      -0.70658947      -0.29310254 </v>
   <v>      -1.10715541       0.73913672       0.26716359 </v>
   <v>       0.70709731      -1.10858841       0.28899886 </v>
   <v>      -0.11366634      -0.11318009      -0.15835972 </v>
   <v>      -0.00022829      -0.15618920      -0.07418461 </v>
   <v>      -0.40492452      -0.00058154       1.28767545 </v>
   <v>      -0.41122625      -0.00964531      -1.28083754 </v>
   <v>       0.40477176       0.00013158       1.28803259 </v>
   <v>       0.41070638      -0.00883520      -1.28132328 </v>
   <v>       0.80711000       0.85971170      -0.02603541 </v>
   <v>      -0.82725385      -0.82938676      -0.00001843 </v>
   <v>      -0.80748704       0.85921946      -0.02443869 </v>
   <v>       0.82719980      -0.82926571      -0.00020501 </v>
   <v>      -0.00005139      -0.00020854       1.17808984 </v>
   <v>       0.00103558       0.02095365      -1.18142317 </v>
   <v>       1.11156602       0.70077538      -0.28567805 </v>
   <v>      -0.70867074      -1.11146475      -0.28340913 </v>
   <v>       0.12955313      -0.05818669       0.13188052 </v>
   <v>      -0.11277843       0.10635521      -0.15451225 </v>
   <v>      -0.13019397      -0.05317205       0.12779702 </v>
   <v>      -1.11177197       0.70004341      -0.28528591 </v>
   <v>       0.70852977      -1.11106128      -0.28330738 </v>
   <v>       0.11264497       0.10681177      -0.15484817 </v>
   <v>      -0.23266611      -0.00361477       0.00311277 </v>
   <v>       0.23263560      -0.00344551       0.00225438 </v>
   <v>      -0.00001184      -0.41066057       1.28378340 </v>
   <v>      -0.00001266      -0.38906838      -1.29996309 </v>
   <v>       0.00054150      -0.00406245       0.00464860 </v>
   <v>      -0.10982481       0.12002672       0.16016697 </v>
   <v>       0.11009741       0.11898873       0.16020944 </v>
   <v>      -0.00006186       0.22666744       0.00151949 </v>
   <v>       0.20628087       6.51249365      -4.50613418 </v>
   <v>       0.02743798      -5.78126092       3.90043697 </v>
  </varray>
  <varray name="stress" >
   <v>      -6.84925098      -0.01289131       0.01499024 </v>
   <v>      -0.01289133      -6.44867185      -0.22242325 </v>
   <v>       0.01499026      -0.22242328      -6.63695260 </v>
  </varray>
  <energy>
   <i name="e_fr_energy">   -175.56387139 </i>
   <i name="e_wo_entrp">   -175.53745325 </i>
   <i name="e_0_energy">     -0.10567257 </i>
  </energy>
  <time name="totalsc">20434.1220435.60</time>
  <eigenvalues>
   <array>
    <dimension dim="1">band</dimension>
    <dimension dim="2">kpoint</dimension>
    <dimension dim="3">spin</dimension>
    <field>eigene</field>
    <field>occ</field>
    <set>
     <set comment="spin 1">
      <set comment="kpoint 1">
       <r>  -28.1142    1.0000 </r>
       <r>  -13.2364    1.0000 </r>
       <r>  -11.0146    1.0000 </r>
       <r>  -10.8092    1.0000 </r>
       <r>  -10.4097    1.0000 </r>
       <r>   -6.6618    1.0000 </r>
       <r>   -6.1721    1.0000 </r>
       <r>   -6.1437    1.0000 </r>
       <r>   -6.1435    1.0000 </r>
       <r>   -6.0372    1.0000 </r>
       <r>   -5.9852    1.0000 </r>
       <r>   -5.8751    1.0000 </r>
       <r>   -5.8327    1.0000 </r>
       <r>   -5.8306    1.0000 </r>
       <r>   -5.7954    1.0000 </r>
       <r>   -5.7662    1.0000 </r>
       <r>   -5.7166    1.0000 </r>
       <r>   -5.7056    1.0000 </r>
       <r>   -5.7013    1.0000 </r>
       <r>   -5.6953    1.0000 </r>
       <r>   -5.6698    1.0000 </r>
       <r>   -5.6534    1.0000 </r>
       <r>   -5.6477    1.0000 </r>
       <r>   -5.6372    1.0000 </r>
       <r>   -5.6119    1.0000 </r>
       <r>   -5.6068    1.0000 </r>
       <r>   -5.6016    1.0000 </r>
       <r>   -5.5813    1.0000 </r>
       <r>   -5.5777    1.0000 </r>
       <r>   -5.5632    1.0000 </r>
       <r>   -5.5608    1.0000 </r>
       <r>   -5.5514    1.0000 </r>
       <r>   -5.5433    1.0000 </r>
       <r>   -5.5381    1.0000 </r>
       <r>   -5.5335    1.0000 </r>
       <r>   -5.5308    1.0000 </r>
       <r>   -5.5263    1.0000 </r>
       <r>   -5.5193    1.0000 </r>
       <r>   -5.5166    1.0000 </r>
       <r>   -5.5005    1.0000 </r>
       <r>   -5.4971    1.0000 </r>
       <r>   -5.4870    1.0000 </r>
       <r>   -5.4861    1.0000 </r>
       <r>   -5.4820    1.0000 </r>
       <r>   -5.4793    1.0000 </r>
       <r>   -5.4715    1.0000 </r>
       <r>   -5.4639    1.0000 </r>
       <r>   -5.4587    1.0000 </r>
       <r>   -5.4499    1.0000 </r>
       <r>   -5.4433    1.0000 </r>
       <r>   -5.4428    1.0000 </r>
       <r>   -5.4378    1.0000 </r>
       <r>   -5.4201    1.0000 </r>
       <r>   -5.4177    1.0000 </r>
       <r>   -5.4165    1.0000 </r>
       <r>   -5.4067    1.0000 </r>
       <r>   -5.3999    1.0000 </r>
       <r>   -5.3914    1.0000 </r>
       <r>   -5.3721    1.0000 </r>
       <r>   -5.3541    1.0000 </r>
       <r>   -5.3420    1.0000 </r>
       <r>   -5.3396    1.0000 </r>
       <r>   -5.3295    1.0000 </r>
       <r>   -5.3270    1.0000 </r>
       <r>   -5.3240    1.0000 </r>
       <r>   -5.3143    1.0000 </r>
       <r>   -5.3120    1.0000 </r>
       <r>   -5.3058    1.0000 </r>
       <r>   -5.2837    1.0000 </r>
       <r>   -5.2793    1.0000 </r>
       <r>   -5.2302    1.0000 </r>
       <r>   -5.2255    1.0000 </r>
       <r>   -5.2232    1.0000 </r>
       <r>   -5.2132    1.0000 </r>
       <r>   -5.2088    1.0000 </r>
       <r>   -5.2076    1.0000 </r>
       <r>   -5.1907    1.0000 </r>
       <r>   -5.1891    1.0000 </r>
       <r>   -5.1872    1.0000 </r>
       <r>   -5.1767    1.0000 </r>
       <r>   -5.1752    1.0000 </r>
       <r>   -5.1732    1.0000 </r>
       <r>   -5.1644    1.0000 </r>
       <r>   -5.1524    1.0000 </r>
       <r>   -5.1434    1.0000 </r>
       <r>   -5.1395    1.0000 </r>
       <r>   -5.1325    1.0000 </r>
       <r>   -5.1181    1.0000 </r>
       <r>   -5.1162    1.0000 </r>
       <r>   -5.0974    1.0000 </r>
       <r>   -5.0840    1.0000 </r>
       <r>   -5.0818    1.0000 </r>
       <r>   -5.0701    1.0000 </r>
       <r>   -5.0693    1.0000 </r>
       <r>   -5.0665    1.0000 </r>
       <r>   -5.0648    1.0000 </r>
       <r>   -5.0627    1.0000 </r>
       <r>   -5.0603    1.0000 </r>
       <r>   -5.0486    1.0000 </r>
       <r>   -5.0461    1.0000 </r>
       <r>   -5.0452    1.0000 </r>
       <r>   -5.0427    1.0000 </r>
       <r>   -5.0343    1.0000 </r>
       <r>   -5.0297    1.0000 </r>
       <r>   -5.0185    1.0000 </r>
       <r>   -5.0170    1.0000 </r>
       <r>   -5.0104    1.0000 </r>
       <r>   -5.0080    1.0000 </r>
       <r>   -5.0029    1.0000 </r>
       <r>   -4.9972    1.0000 </r>
       <r>   -4.9942    1.0000 </r>
       <r>   -4.9886    1.0000 </r>
       <r>   -4.9785    1.0000 </r>
       <r>   -4.9780    1.0000 </r>
       <r>   -4.9727    1.0000 </r>
       <r>   -4.9642    1.0000 </r>
       <r>   -4.9585    1.0000 </r>
       <r>   -4.9509    1.0000 </r>
       <r>   -4.9493    1.0000 </r>
       <r>   -4.9361    1.0000 </r>
       <r>   -4.9305    1.0000 </r>
       <r>   -4.9262    1.0000 </r>
       <r>   -4.9216    1.0000 </r>
       <r>   -4.9211    1.0000 </r>
       <r>   -4.9158    1.0000 </r>
       <r>   -4.9010    1.0000 </r>
       <r>   -4.8978    1.0000 </r>
       <r>   -4.8857    1.0000 </r>
       <r>   -4.8790    1.0000 </r>
       <r>   -4.8743    1.0000 </r>
       <r>   -4.8664    1.0000 </r>
       <r>   -4.8570    1.0000 </r>
       <r>   -4.8532    1.0000 </r>
       <r>   -4.8492    1.0000 </r>
       <r>   -4.8479    1.0000 </r>
       <r>   -4.8411    1.0000 </r>
       <r>   -4.8201    0.9999 </r>
       <r>   -4.8186    0.9999 </r>
       <r>   -4.8105    0.9999 </r>
       <r>   -4.7970    0.9999 </r>
       <r>   -4.7869    0.9998 </r>
       <r>   -4.7819    0.9998 </r>
       <r>   -4.7803    0.9998 </r>
       <r>   -4.7764    0.9998 </r>
       <r>   -4.7600    0.9997 </r>
       <r>   -4.7554    0.9996 </r>
       <r>   -4.7541    0.9996 </r>
       <r>   -4.7502    0.9996 </r>
       <r>   -4.7389    0.9995 </r>
       <r>   -4.7286    0.9994 </r>
       <r>   -4.7157    0.9992 </r>
       <r>   -4.7104    0.9991 </r>
       <r>   -4.7046    0.9990 </r>
       <r>   -4.6952    0.9988 </r>
       <r>   -4.6914    0.9987 </r>
       <r>   -4.6896    0.9986 </r>
       <r>   -4.6834    0.9985 </r>
       <r>   -4.6788    0.9984 </r>
       <r>   -4.6788    0.9984 </r>
       <r>   -4.6759    0.9983 </r>
       <r>   -4.6748    0.9983 </r>
       <r>   -4.6630    0.9979 </r>
       <r>   -4.6580    0.9977 </r>
       <r>   -4.6579    0.9977 </r>
       <r>   -4.6557    0.9977 </r>
       <r>   -4.6549    0.9976 </r>
       <r>   -4.6536    0.9976 </r>
       <r>   -4.6529    0.9976 </r>
       <r>   -4.6461    0.9973 </r>
       <r>   -4.6430    0.9972 </r>
       <r>   -4.6299    0.9967 </r>
       <r>   -4.6203    0.9964 </r>
       <r>   -4.6201    0.9964 </r>
       <r>   -4.6165    0.9962 </r>
       <r>   -4.6114    0.9961 </r>
       <r>   -4.6110    0.9960 </r>
       <r>   -4.6074    0.9959 </r>
       <r>   -4.6007    0.9957 </r>
       <r>   -4.5972    0.9956 </r>
       <r>   -4.5941    0.9955 </r>
       <r>   -4.5914    0.9954 </r>
       <r>   -4.5844    0.9953 </r>
       <r>   -4.5826    0.9952 </r>
       <r>   -4.5740    0.9951 </r>
       <r>   -4.5726    0.9951 </r>
       <r>   -4.5688    0.9951 </r>
       <r>   -4.5637    0.9951 </r>
       <r>   -4.5619    0.9951 </r>
       <r>   -4.5594    0.9951 </r>
       <r>   -4.5585    0.9951 </r>
       <r>   -4.5562    0.9952 </r>
       <r>   -4.5362    0.9960 </r>
       <r>   -4.5225    0.9972 </r>
       <r>   -4.5206    0.9975 </r>
       <r>   -4.5196    0.9976 </r>
       <r>   -4.5090    0.9991 </r>
       <r>   -4.5050    0.9998 </r>
       <r>   -4.5023    1.0003 </r>
       <r>   -4.5009    1.0005 </r>
       <r>   -4.4943    1.0019 </r>
       <r>   -4.4858    1.0040 </r>
       <r>   -4.4808    1.0053 </r>
       <r>   -4.4800    1.0056 </r>
       <r>   -4.4695    1.0088 </r>
       <r>   -4.4662    1.0100 </r>
       <r>   -4.4652    1.0103 </r>
       <r>   -4.4601    1.0122 </r>
       <r>   -4.4576    1.0131 </r>
       <r>   -4.4549    1.0142 </r>
       <r>   -4.4465    1.0177 </r>
       <r>   -4.4377    1.0216 </r>
       <r>   -4.4377    1.0216 </r>
       <r>   -4.4331    1.0237 </r>
       <r>   -4.4254    1.0273 </r>
       <r>   -4.4199    1.0300 </r>
       <r>   -4.4188    1.0305 </r>
       <r>   -4.4160    1.0318 </r>
       <r>   -4.4132    1.0332 </r>
       <r>   -4.4090    1.0352 </r>
       <r>   -4.4050    1.0371 </r>
       <r>   -4.3959    1.0412 </r>
       <r>   -4.3887    1.0441 </r>
       <r>   -4.3803    1.0471 </r>
       <r>   -4.3781    1.0478 </r>
       <r>   -4.3747    1.0488 </r>
       <r>   -4.3620    1.0513 </r>
       <r>   -4.3591    1.0515 </r>
       <r>   -4.3531    1.0516 </r>
       <r>   -4.3520    1.0515 </r>
       <r>   -4.3470    1.0510 </r>
       <r>   -4.3466    1.0509 </r>
       <r>   -4.3458    1.0508 </r>
       <r>   -4.3451    1.0507 </r>
       <r>   -4.3387    1.0490 </r>
       <r>   -4.3380    1.0488 </r>
       <r>   -4.3370    1.0484 </r>
       <r>   -4.3356    1.0479 </r>
       <r>   -4.3351    1.0477 </r>
       <r>   -4.3310    1.0458 </r>
       <r>   -4.3237    1.0413 </r>
       <r>   -4.3211    1.0394 </r>
       <r>   -4.3210    1.0393 </r>
       <r>   -4.3040    1.0216 </r>
       <r>   -4.3029    1.0201 </r>
       <r>   -4.3007    1.0171 </r>
       <r>   -4.3000    1.0160 </r>
       <r>   -4.2987    1.0142 </r>
       <r>   -4.2948    1.0080 </r>
       <r>   -4.2856    0.9915 </r>
       <r>   -4.2832    0.9866 </r>
       <r>   -4.2826    0.9853 </r>
       <r>   -4.2781    0.9756 </r>
       <r>   -4.2773    0.9738 </r>
       <r>   -4.2753    0.9692 </r>
       <r>   -4.2706    0.9577 </r>
       <r>   -4.2669    0.9480 </r>
       <r>   -4.2654    0.9439 </r>
       <r>   -4.2646    0.9417 </r>
       <r>   -4.2601    0.9288 </r>
       <r>   -4.2575    0.9211 </r>
       <r>   -4.2568    0.9188 </r>
       <r>   -4.2554    0.9147 </r>
       <r>   -4.2528    0.9063 </r>
       <r>   -4.2513    0.9015 </r>
       <r>   -4.2491    0.8943 </r>
       <r>   -4.2390    0.8583 </r>
       <r>   -4.2383    0.8555 </r>
       <r>   -4.2378    0.8539 </r>
       <r>   -4.2319    0.8307 </r>
       <r>   -4.2291    0.8194 </r>
       <r>   -4.2282    0.8158 </r>
       <r>   -4.2134    0.7516 </r>
       <r>   -4.2110    0.7403 </r>
       <r>   -4.2060    0.7170 </r>
       <r>   -4.1969    0.6726 </r>
       <r>   -4.1941    0.6588 </r>
       <r>   -4.1932    0.6545 </r>
       <r>   -4.1872    0.6238 </r>
       <r>   -4.1870    0.6231 </r>
       <r>   -4.1855    0.6150 </r>
       <r>   -4.1728    0.5491 </r>
       <r>   -4.1539    0.4493 </r>
       <r>   -4.1485    0.4210 </r>
       <r>   -4.1433    0.3938 </r>
       <r>   -4.1424    0.3889 </r>
       <r>   -4.1390    0.3716 </r>
       <r>   -4.1308    0.3303 </r>
       <r>   -4.1305    0.3287 </r>
       <r>   -4.1214    0.2846 </r>
       <r>   -3.9727   -0.0516 </r>
       <r>   -3.8442   -0.0047 </r>
       <r>   -3.8436   -0.0046 </r>
       <r>   -3.8279   -0.0009 </r>
       <r>   -3.6736    0.0024 </r>
       <r>   -3.5157    0.0001 </r>
       <r>   -3.5081    0.0001 </r>
       <r>   -3.2825    0.0000 </r>
       <r>   -3.0989    0.0000 </r>
       <r>   -3.0795    0.0000 </r>
       <r>   -3.0685    0.0000 </r>
       <r>   -3.0460    0.0000 </r>
       <r>   -3.0447    0.0000 </r>
       <r>   -2.9555    0.0000 </r>
       <r>   -2.9531    0.0000 </r>
       <r>   -2.6736    0.0000 </r>
       <r>   -2.5998    0.0000 </r>
       <r>   -2.5610    0.0000 </r>
       <r>   -2.5295    0.0000 </r>
       <r>   -2.2679    0.0000 </r>
       <r>   -2.1238    0.0000 </r>
       <r>   -2.1230    0.0000 </r>
       <r>   -2.0765    0.0000 </r>
       <r>   -2.0554    0.0000 </r>
       <r>   -2.0282    0.0000 </r>
       <r>   -1.9243    0.0000 </r>
       <r>   -1.9027    0.0000 </r>
       <r>   -1.8195    0.0000 </r>
       <r>   -1.6706    0.0000 </r>
       <r>   -1.6578    0.0000 </r>
       <r>   -1.6525    0.0000 </r>
       <r>   -1.6066    0.0000 </r>
       <r>   -1.5840    0.0000 </r>
       <r>   -1.5646    0.0000 </r>
       <r>   -1.3770    0.0000 </r>
       <r>   -1.2958    0.0000 </r>
       <r>   -1.1124    0.0000 </r>
       <r>   -1.0913    0.0000 </r>
       <r>   -0.9962    0.0000 </r>
       <r>   -0.9888    0.0000 </r>
       <r>   -0.9667    0.0000 </r>
       <r>   -0.9456    0.0000 </r>
       <r>   -0.9375    0.0000 </r>
       <r>   -0.9306    0.0000 </r>
       <r>   -0.9111    0.0000 </r>
       <r>   -0.8083    0.0000 </r>
       <r>   -0.6899    0.0000 </r>
      </set>
     </set>
    </set>
   </array>
  </eigenvalues>
  <separator name="orbital magnetization" >
   <v name="MAGDIPOLOUT">      0.00000000      0.00000000      0.00000000</v>
  </separator>
  <dos>
   <i name="efermi">     -4.16352990 </i>
   <total>
    <array>
     <dimension dim="1">gridpoints</dimension>
     <dimension dim="2">spin</dimension>
     <field>energy</field>
     <field>total</field>
     <field>integrated</field>
     <set>
      <set comment="spin 1">
       <r>   -30.1142     0.0000     0.0000 </r>
       <r>   -30.0094     0.0000     0.0000 </r>
       <r>   -29.9047     0.0000     0.0000 </r>
       <r>   -29.7999     0.0000     0.0000 </r>
       <r>   -29.6952     0.0000     0.0000 </r>
       <r>   -29.5905     0.0000     0.0000 </r>
       <r>   -29.4857     0.0000     0.0000 </r>
       <r>   -29.3810     0.0000     0.0000 </r>
       <r>   -29.2762     0.0000     0.0000 </r>
       <r>   -29.1715     0.0000     0.0000 </r>
       <r>   -29.0667     0.0000     0.0000 </r>
       <r>   -28.9620     0.0000     0.0000 </r>
       <r>   -28.8572     0.0001     0.0000 </r>
       <r>   -28.7525     0.0021     0.0002 </r>
       <r>   -28.6477     0.0204     0.0024 </r>
       <r>   -28.5430     0.0644     0.0091 </r>
       <r>   -28.4382    -0.1541    -0.0070 </r>
       <r>   -28.3335    -0.8170    -0.0926 </r>
       <r>   -28.2287     1.3499     0.0488 </r>
       <r>   -28.1240     8.0932     0.8965 </r>
       <r>   -28.0192     9.0841     1.8481 </r>
       <r>   -27.9145     2.4261     2.1022 </r>
       <r>   -27.8097    -0.7972     2.0187 </r>
       <r>   -27.7050    -0.2726     1.9902 </r>
       <r>   -27.6003     0.0621     1.9967 </r>
       <r>   -27.4955     0.0281     1.9996 </r>
       <r>   -27.3908     0.0035     2.0000 </r>
       <r>   -27.2860     0.0002     2.0000 </r>
       <r>   -27.1813     0.0000     2.0000 </r>
       <r>   -27.0765     0.0000     2.0000 </r>
       <r>   -26.9718     0.0000     2.0000 </r>
       <r>   -26.8670     0.0000     2.0000 </r>
       <r>   -26.7623     0.0000     2.0000 </r>
       <r>   -26.6575     0.0000     2.0000 </r>
       <r>   -26.5528     0.0000     2.0000 </r>
       <r>   -26.4480     0.0000     2.0000 </r>
       <r>   -26.3433     0.0000     2.0000 </r>
       <r>   -26.2385     0.0000     2.0000 </r>
       <r>   -26.1338     0.0000     2.0000 </r>
       <r>   -26.0290     0.0000     2.0000 </r>
       <r>   -25.9243     0.0000     2.0000 </r>
       <r>   -25.8195     0.0000     2.0000 </r>
       <r>   -25.7148     0.0000     2.0000 </r>
       <r>   -25.6100     0.0000     2.0000 </r>
       <r>   -25.5053     0.0000     2.0000 </r>
       <r>   -25.4006     0.0000     2.0000 </r>
       <r>   -25.2958     0.0000     2.0000 </r>
       <r>   -25.1911     0.0000     2.0000 </r>
       <r>   -25.0863     0.0000     2.0000 </r>
       <r>   -24.9816     0.0000     2.0000 </r>
       <r>   -24.8768     0.0000     2.0000 </r>
       <r>   -24.7721     0.0000     2.0000 </r>
       <r>   -24.6673     0.0000     2.0000 </r>
       <r>   -24.5626     0.0000     2.0000 </r>
       <r>   -24.4578     0.0000     2.0000 </r>
       <r>   -24.3531     0.0000     2.0000 </r>
       <r>   -24.2483     0.0000     2.0000 </r>
       <r>   -24.1436     0.0000     2.0000 </r>
       <r>   -24.0388     0.0000     2.0000 </r>
       <r>   -23.9341     0.0000     2.0000 </r>
       <r>   -23.8293     0.0000     2.0000 </r>
       <r>   -23.7246     0.0000     2.0000 </r>
       <r>   -23.6198     0.0000     2.0000 </r>
       <r>   -23.5151     0.0000     2.0000 </r>
       <r>   -23.4104     0.0000     2.0000 </r>
       <r>   -23.3056     0.0000     2.0000 </r>
       <r>   -23.2009     0.0000     2.0000 </r>
       <r>   -23.0961     0.0000     2.0000 </r>
       <r>   -22.9914     0.0000     2.0000 </r>
       <r>   -22.8866     0.0000     2.0000 </r>
       <r>   -22.7819     0.0000     2.0000 </r>
       <r>   -22.6771     0.0000     2.0000 </r>
       <r>   -22.5724     0.0000     2.0000 </r>
       <r>   -22.4676     0.0000     2.0000 </r>
       <r>   -22.3629     0.0000     2.0000 </r>
       <r>   -22.2581     0.0000     2.0000 </r>
       <r>   -22.1534     0.0000     2.0000 </r>
       <r>   -22.0486     0.0000     2.0000 </r>
       <r>   -21.9439     0.0000     2.0000 </r>
       <r>   -21.8391     0.0000     2.0000 </r>
       <r>   -21.7344     0.0000     2.0000 </r>
       <r>   -21.6296     0.0000     2.0000 </r>
       <r>   -21.5249     0.0000     2.0000 </r>
       <r>   -21.4201     0.0000     2.0000 </r>
       <r>   -21.3154     0.0000     2.0000 </r>
       <r>   -21.2107     0.0000     2.0000 </r>
       <r>   -21.1059     0.0000     2.0000 </r>
       <r>   -21.0012     0.0000     2.0000 </r>
       <r>   -20.8964     0.0000     2.0000 </r>
       <r>   -20.7917     0.0000     2.0000 </r>
       <r>   -20.6869     0.0000     2.0000 </r>
       <r>   -20.5822     0.0000     2.0000 </r>
       <r>   -20.4774     0.0000     2.0000 </r>
       <r>   -20.3727     0.0000     2.0000 </r>
       <r>   -20.2679     0.0000     2.0000 </r>
       <r>   -20.1632     0.0000     2.0000 </r>
       <r>   -20.0584     0.0000     2.0000 </r>
       <r>   -19.9537     0.0000     2.0000 </r>
       <r>   -19.8489     0.0000     2.0000 </r>
       <r>   -19.7442     0.0000     2.0000 </r>
       <r>   -19.6394     0.0000     2.0000 </r>
       <r>   -19.5347     0.0000     2.0000 </r>
       <r>   -19.4299     0.0000     2.0000 </r>
       <r>   -19.3252     0.0000     2.0000 </r>
       <r>   -19.2205     0.0000     2.0000 </r>
       <r>   -19.1157     0.0000     2.0000 </r>
       <r>   -19.0110     0.0000     2.0000 </r>
       <r>   -18.9062     0.0000     2.0000 </r>
       <r>   -18.8015     0.0000     2.0000 </r>
       <r>   -18.6967     0.0000     2.0000 </r>
       <r>   -18.5920     0.0000     2.0000 </r>
       <r>   -18.4872     0.0000     2.0000 </r>
       <r>   -18.3825     0.0000     2.0000 </r>
       <r>   -18.2777     0.0000     2.0000 </r>
       <r>   -18.1730     0.0000     2.0000 </r>
       <r>   -18.0682     0.0000     2.0000 </r>
       <r>   -17.9635     0.0000     2.0000 </r>
       <r>   -17.8587     0.0000     2.0000 </r>
       <r>   -17.7540     0.0000     2.0000 </r>
       <r>   -17.6492     0.0000     2.0000 </r>
       <r>   -17.5445     0.0000     2.0000 </r>
       <r>   -17.4397     0.0000     2.0000 </r>
       <r>   -17.3350     0.0000     2.0000 </r>
       <r>   -17.2302     0.0000     2.0000 </r>
       <r>   -17.1255     0.0000     2.0000 </r>
       <r>   -17.0208     0.0000     2.0000 </r>
       <r>   -16.9160     0.0000     2.0000 </r>
       <r>   -16.8113     0.0000     2.0000 </r>
       <r>   -16.7065     0.0000     2.0000 </r>
       <r>   -16.6018     0.0000     2.0000 </r>
       <r>   -16.4970     0.0000     2.0000 </r>
       <r>   -16.3923     0.0000     2.0000 </r>
       <r>   -16.2875     0.0000     2.0000 </r>
       <r>   -16.1828     0.0000     2.0000 </r>
       <r>   -16.0780     0.0000     2.0000 </r>
       <r>   -15.9733     0.0000     2.0000 </r>
       <r>   -15.8685     0.0000     2.0000 </r>
       <r>   -15.7638     0.0000     2.0000 </r>
       <r>   -15.6590     0.0000     2.0000 </r>
       <r>   -15.5543     0.0000     2.0000 </r>
       <r>   -15.4495     0.0000     2.0000 </r>
       <r>   -15.3448     0.0000     2.0000 </r>
       <r>   -15.2400     0.0000     2.0000 </r>
       <r>   -15.1353     0.0000     2.0000 </r>
       <r>   -15.0306     0.0000     2.0000 </r>
       <r>   -14.9258     0.0000     2.0000 </r>
       <r>   -14.8211     0.0000     2.0000 </r>
       <r>   -14.7163     0.0000     2.0000 </r>
       <r>   -14.6116     0.0000     2.0000 </r>
       <r>   -14.5068     0.0000     2.0000 </r>
       <r>   -14.4021     0.0000     2.0000 </r>
       <r>   -14.2973     0.0000     2.0000 </r>
       <r>   -14.1926     0.0000     2.0000 </r>
       <r>   -14.0878     0.0000     2.0000 </r>
       <r>   -13.9831     0.0001     2.0000 </r>
       <r>   -13.8783     0.0019     2.0002 </r>
       <r>   -13.7736     0.0192     2.0022 </r>
       <r>   -13.6688     0.0639     2.0089 </r>
       <r>   -13.5641    -0.1352     1.9948 </r>
       <r>   -13.4593    -0.8091     1.9100 </r>
       <r>   -13.3546     1.1745     2.0330 </r>
       <r>   -13.2498     7.8820     2.8586 </r>
       <r>   -13.1451     9.2336     3.8258 </r>
       <r>   -13.0403     2.6453     4.1029 </r>
       <r>   -12.9356    -0.7798     4.0213 </r>
       <r>   -12.8309    -0.2971     3.9901 </r>
       <r>   -12.7261     0.0605     3.9965 </r>
       <r>   -12.6214     0.0297     3.9996 </r>
       <r>   -12.5166     0.0038     4.0000 </r>
       <r>   -12.4119     0.0002     4.0000 </r>
       <r>   -12.3071     0.0000     4.0000 </r>
       <r>   -12.2024     0.0000     4.0000 </r>
       <r>   -12.0976     0.0000     4.0000 </r>
       <r>   -11.9929     0.0000     4.0000 </r>
       <r>   -11.8881     0.0000     4.0000 </r>
       <r>   -11.7834     0.0000     4.0000 </r>
       <r>   -11.6786     0.0011     4.0001 </r>
       <r>   -11.5739     0.0127     4.0015 </r>
       <r>   -11.4691     0.0581     4.0075 </r>
       <r>   -11.3644    -0.0267     4.0047 </r>
       <r>   -11.2596    -0.6477     3.9369 </r>
       <r>   -11.1549     0.2126     3.9592 </r>
       <r>   -11.0501     5.7211     4.5584 </r>
       <r>   -10.9454    10.3153     5.6389 </r>
       <r>   -10.8407    10.8924     6.7799 </r>
       <r>   -10.7359     9.1008     7.7332 </r>
       <r>   -10.6312     2.5432     7.9996 </r>
       <r>   -10.5264     0.6712     8.0699 </r>
       <r>   -10.4217     7.5801     8.8639 </r>
       <r>   -10.3169     9.2259     9.8303 </r>
       <r>   -10.2122     2.5945    10.1021 </r>
       <r>   -10.1074    -0.7817    10.0202 </r>
       <r>   -10.0027    -0.2867     9.9901 </r>
       <r>    -9.8979     0.0612     9.9966 </r>
       <r>    -9.7932     0.0291     9.9996 </r>
       <r>    -9.6884     0.0036    10.0000 </r>
       <r>    -9.5837     0.0002    10.0000 </r>
       <r>    -9.4789     0.0000    10.0000 </r>
       <r>    -9.3742     0.0000    10.0000 </r>
       <r>    -9.2694     0.0000    10.0000 </r>
       <r>    -9.1647     0.0000    10.0000 </r>
       <r>    -9.0599     0.0000    10.0000 </r>
       <r>    -8.9552     0.0000    10.0000 </r>
       <r>    -8.8504     0.0000    10.0000 </r>
       <r>    -8.7457     0.0000    10.0000 </r>
       <r>    -8.6410     0.0000    10.0000 </r>
       <r>    -8.5362     0.0000    10.0000 </r>
       <r>    -8.4315     0.0000    10.0000 </r>
       <r>    -8.3267     0.0000    10.0000 </r>
       <r>    -8.2220     0.0000    10.0000 </r>
       <r>    -8.1172     0.0000    10.0000 </r>
       <r>    -8.0125     0.0000    10.0000 </r>
       <r>    -7.9077     0.0000    10.0000 </r>
       <r>    -7.8030     0.0000    10.0000 </r>
       <r>    -7.6982     0.0000    10.0000 </r>
       <r>    -7.5935     0.0000    10.0000 </r>
       <r>    -7.4887     0.0000    10.0000 </r>
       <r>    -7.3840     0.0002    10.0000 </r>
       <r>    -7.2792     0.0036    10.0004 </r>
       <r>    -7.1745     0.0287    10.0034 </r>
       <r>    -7.0697     0.0616    10.0098 </r>
       <r>    -6.9650    -0.2812     9.9804 </r>
       <r>    -6.8602    -0.7905     9.8976 </r>
       <r>    -6.7555     2.5200    10.1616 </r>
       <r>    -6.6508     9.2515    11.1306 </r>
       <r>    -6.5460     8.2042    11.9900 </r>
       <r>    -6.4413     0.2523    12.0164 </r>
       <r>    -6.3365    -2.9033    11.7123 </r>
       <r>    -6.2318     9.1905    12.6750 </r>
       <r>    -6.1270    30.9292    15.9147 </r>
       <r>    -6.0223    34.2028    19.4974 </r>
       <r>    -5.9175    27.5182    22.3799 </r>
       <r>    -5.8128    41.9317    26.7721 </r>
       <r>    -5.7080    84.3130    35.6037 </r>
       <r>    -5.6033   167.9508    53.1961 </r>
       <r>    -5.4985   267.6369    81.2304 </r>
       <r>    -5.3938   284.0780   110.9869 </r>
       <r>    -5.2890   224.2615   134.4777 </r>
       <r>    -5.1843   218.9522   157.4124 </r>
       <r>    -5.0795   296.3755   188.4570 </r>
       <r>    -4.9748   353.5463   225.4901 </r>
       <r>    -4.8700   320.8452   259.0978 </r>
       <r>    -4.7653   292.6155   289.7485 </r>
       <r>    -4.6605   362.9162   327.7631 </r>
       <r>    -4.5558   423.9132   372.1669 </r>
       <r>    -4.4511   425.2567   416.7115 </r>
       <r>    -4.3463   494.3818   468.4968 </r>
       <r>    -4.2416   554.6423   526.5942 </r>
       <r>    -4.1368   391.9171   567.6465 </r>
       <r>    -4.0321   122.4096   580.4686 </r>
       <r>    -3.9273     5.6236   581.0577 </r>
       <r>    -3.8226    20.4231   583.1969 </r>
       <r>    -3.7178    28.2042   586.1513 </r>
       <r>    -3.6131    18.1862   588.0562 </r>
       <r>    -3.5083    19.7438   590.1243 </r>
       <r>    -3.4036    16.7779   591.8818 </r>
       <r>    -3.2988     6.9119   592.6058 </r>
       <r>    -3.1941    10.9467   593.7524 </r>
       <r>    -3.0893    39.8717   597.9289 </r>
       <r>    -2.9846    59.6068   604.1725 </r>
       <r>    -2.8798    34.0553   607.7397 </r>
       <r>    -2.7751     4.3647   608.1969 </r>
       <r>    -2.6703    11.7090   609.4234 </r>
       <r>    -2.5656    32.4047   612.8177 </r>
       <r>    -2.4609    26.4934   615.5929 </r>
       <r>    -2.3561     6.3973   616.2630 </r>
       <r>    -2.2514     6.3262   616.9256 </r>
       <r>    -2.1466    27.9138   619.8495 </r>
       <r>    -2.0419    48.3185   624.9108 </r>
       <r>    -1.9371    43.5490   629.4724 </r>
       <r>    -1.8324    26.0953   632.2058 </r>
       <r>    -1.7276    26.4371   634.9751 </r>
       <r>    -1.6229    48.5650   640.0621 </r>
       <r>    -1.5181    46.6166   644.9451 </r>
       <r>    -1.4134    20.8965   647.1339 </r>
       <r>    -1.3086    12.6155   648.4554 </r>
       <r>    -1.2039    11.6027   649.6707 </r>
       <r>    -1.0991    21.8935   651.9640 </r>
       <r>    -0.9944    56.9713   657.9316 </r>
       <r>    -0.8896    72.4152   665.5169 </r>
       <r>    -0.7849    42.0741   669.9241 </r>
       <r>    -0.6801    14.1754   671.4089 </r>
       <r>    -0.5754     5.4712   671.9820 </r>
       <r>    -0.4706     0.6960   672.0549 </r>
       <r>    -0.3659    -0.5986   671.9922 </r>
       <r>    -0.2612    -0.0352   671.9886 </r>
       <r>    -0.1564     0.0849   671.9974 </r>
       <r>    -0.0517     0.0221   671.9998 </r>
       <r>     0.0531     0.0022   672.0000 </r>
       <r>     0.1578     0.0001   672.0000 </r>
       <r>     0.2626     0.0000   672.0000 </r>
       <r>     0.3673     0.0000   672.0000 </r>
       <r>     0.4721     0.0000   672.0000 </r>
       <r>     0.5768     0.0000   672.0000 </r>
       <r>     0.6816     0.0000   672.0000 </r>
       <r>     0.7863     0.0000   672.0000 </r>
       <r>     0.8911     0.0000   672.0000 </r>
       <r>     0.9958     0.0000   672.0000 </r>
       <r>     1.1006     0.0000   672.0000 </r>
       <r>     1.2053     0.0000   672.0000 </r>
       <r>     1.3101     0.0000   672.0000 </r>
      </set>
     </set>
    </array>
   </total>
  </dos>
 </calculation>
 <structure name="finalpos" >
  <crystal>
   <varray name="basis" >
    <v>      30.00000000       0.00000000       0.00000000 </v>
    <v>       0.00000000      30.00000000       0.00000000 </v>
    <v>       0.00000000       0.00000000      30.00000000 </v>
   </varray>
   <i name="volume">  27000.00000000 </i>
   <varray name="rec_basis" >
    <v>       0.03333333       0.00000000       0.00000000 </v>
    <v>       0.00000000       0.03333333       0.00000000 </v>
    <v>       0.00000000       0.00000000       0.03333333 </v>
   </varray>
  </crystal>
  <varray name="positions" >
   <v>       0.44576020       0.32826710       0.41691983 </v>
   <v>       0.67173288       0.55423978       0.41691983 </v>
   <v>       0.55423980       0.32826710       0.41691983 </v>
   <v>       0.32826712       0.55423978       0.41691983 </v>
   <v>       0.50000000       0.38250690       0.34021317 </v>
   <v>       0.50000000       0.38250690       0.65978680 </v>
   <v>       0.50000000       0.27609440       0.50000000 </v>
   <v>       0.27609443       0.49999998       0.50000000 </v>
   <v>       0.72390557       0.49999998       0.50000000 </v>
   <v>       0.50000000       0.72390555       0.50000000 </v>
   <v>       0.61195280       0.38804720       0.34167483 </v>
   <v>       0.61195280       0.38804720       0.65832513 </v>
   <v>       0.38804722       0.61195278       0.34167483 </v>
   <v>       0.38804722       0.61195278       0.65832513 </v>
   <v>       0.38804720       0.38804720       0.34167483 </v>
   <v>       0.38804720       0.38804720       0.65832513 </v>
   <v>       0.61195278       0.61195278       0.34167483 </v>
   <v>       0.61195278       0.61195278       0.65832513 </v>
   <v>       0.44576020       0.32826710       0.58308023 </v>
   <v>       0.67173288       0.55423978       0.58308023 </v>
   <v>       0.55791699       0.44208301       0.41809300 </v>
   <v>       0.32826705       0.44576024       0.41691983 </v>
   <v>       0.55423973       0.67173293       0.41691983 </v>
   <v>       0.55423980       0.32826710       0.58308023 </v>
   <v>       0.32826712       0.55423978       0.58308023 </v>
   <v>       0.67173295       0.44576024       0.41691983 </v>
   <v>       0.44576027       0.67173293       0.41691983 </v>
   <v>       0.44208301       0.44208301       0.41809300 </v>
   <v>       0.50000000       0.38416601       0.50000000 </v>
   <v>       0.61749315       0.50000005       0.34021317 </v>
   <v>       0.61749315       0.50000005       0.65978680 </v>
   <v>       0.38250685       0.50000005       0.34021317 </v>
   <v>       0.38250685       0.50000005       0.65978680 </v>
   <v>       0.38317830       0.38317830       0.50000000 </v>
   <v>       0.61682172       0.61682172       0.50000000 </v>
   <v>       0.61682170       0.38317830       0.50000000 </v>
   <v>       0.38317828       0.61682172       0.50000000 </v>
   <v>       0.50000000       0.50000000       0.33478917 </v>
   <v>       0.50000000       0.50000000       0.66521087 </v>
   <v>       0.32826705       0.44576024       0.58308023 </v>
   <v>       0.55423973       0.67173293       0.58308023 </v>
   <v>       0.55791699       0.44208301       0.58190703 </v>
   <v>       0.44208298       0.55791702       0.41809300 </v>
   <v>       0.44208301       0.44208301       0.58190703 </v>
   <v>       0.67173295       0.44576024       0.58308023 </v>
   <v>       0.44576027       0.67173293       0.58308023 </v>
   <v>       0.55791702       0.55791702       0.41809300 </v>
   <v>       0.38416599       0.50000002       0.50000000 </v>
   <v>       0.61583401       0.50000002       0.50000000 </v>
   <v>       0.50000000       0.61749319       0.34021317 </v>
   <v>       0.50000000       0.61749319       0.65978680 </v>
   <v>       0.50000000       0.50000000       0.50000000 </v>
   <v>       0.44208298       0.55791702       0.58190703 </v>
   <v>       0.55791702       0.55791702       0.58190703 </v>
   <v>       0.50000000       0.61583404       0.50000000 </v>
   <v>       0.49799080       0.30511840       0.62066710 </v>
   <v>       0.49766123       0.27315160       0.64046037 </v>
  </varray>
  <varray name="selective"  type="logical" >
   <v type="logical" >  F  F  F </v>
   <v type="logical" >  F  F  F </v>
   <v type="logical" >  F  F  F </v>
   <v type="logical" >  F  F  F </v>
   <v type="logical" >  F  F  F </v>
   <v type="logical" >  F  F  F </v>
   <v type="logical" >  F  F  F </v>
   <v type="logical" >  F  F  F </v>
   <v type="logical" >  F  F  F </v>
   <v type="logical" >  F  F  F </v>
   <v type="logical" >  F  F  F </v>
   <v type="logical" >  F  F  F </v>
   <v type="logical" >  F  F  F </v>
   <v type="logical" >  F  F  F </v>
   <v type="logical" >  F  F  F </v>
   <v type="logical" >  F  F  F </v>
   <v type="logical" >  F  F  F </v>
   <v type="logical" >  F  F  F </v>
   <v type="logical" >  F  F  F </v>
   <v type="logical" >  F  F  F </v>
   <v type="logical" >  F  F  F </v>
   <v type="logical" >  F  F  F </v>
   <v type="logical" >  F  F  F </v>
   <v type="logical" >  F  F  F </v>
   <v type="logical" >  F  F  F </v>
   <v type="logical" >  F  F  F </v>
   <v type="logical" >  F  F  F </v>
   <v type="logical" >  F  F  F </v>
   <v type="logical" >  F  F  F </v>
   <v type="logical" >  F  F  F </v>
   <v type="logical" >  F  F  F </v>
   <v type="logical" >  F  F  F </v>
   <v type="logical" >  F  F  F </v>
   <v type="logical" >  F  F  F </v>
   <v type="logical" >  F  F  F </v>
   <v type="logical" >  F  F  F </v>
   <v type="logical" >  F  F  F </v>
   <v type="logical" >  F  F  F </v>
   <v type="logical" >  F  F  F </v>
   <v type="logical" >  F  F  F </v>
   <v type="logical" >  F  F  F </v>
   <v type="logical" >  F  F  F </v>
   <v type="logical" >  F  F  F </v>
   <v type="logical" >  F  F  F </v>
   <v type="logical" >  F  F  F </v>
   <v type="logical" >  F  F  F </v>
   <v type="logical" >  F  F  F </v>
   <v type="logical" >  F  F  F </v>
   <v type="logical" >  F  F  F </v>
   <v type="logical" >  F  F  F </v>
   <v type="logical" >  F  F  F </v>
   <v type="logical" >  F  F  F </v>
   <v type="logical" >  F  F  F </v>
   <v type="logical" >  F  F  F </v>
   <v type="logical" >  F  F  F </v>
   <v type="logical" >  F  F  F </v>
   <v type="logical" >  F  F  F </v>
  </varray>
  <nose>
   <v>      -3.00000000       0.00000000       0.00010000       0.00010000 </v>
  </nose>
 </structure>
</modeling>
