       N       E                     dE             d eps       ncg     rms          rms(c)
DAV:   1     0.438810334517E+04    0.43881E+04   -0.10048E+05   688   0.815E+02
DAV:   2     0.202784638829E+04   -0.23603E+04   -0.21202E+04  1208   0.105E+02
DAV:   3     0.243687057735E+03   -0.17842E+04   -0.16745E+04  1000   0.920E+01
DAV:   4    -0.132943995833E+03   -0.37663E+03   -0.31961E+03   824   0.438E+01
DAV:   5    -0.179002903410E+03   -0.46059E+02   -0.37604E+02  1048   0.146E+01    0.141E+01
RMM:   6    -0.179513587326E+03   -0.51068E+00   -0.56376E+01   719   0.881E+00    0.252E+01
RMM:   7    -0.181103398335E+03   -0.15898E+01   -0.19215E+01   875   0.418E+00    0.209E+01
RMM:   8    -0.183147287682E+03   -0.20439E+01   -0.67322E+00   767   0.342E+00    0.248E+01
RMM:   9    -0.182267918928E+03    0.87937E+00   -0.47769E+00   730   0.305E+00    0.268E+01
RMM:  10    -0.181012942540E+03    0.12550E+01   -0.30311E+00   734   0.249E+00    0.245E+01
RMM:  11    -0.178907532822E+03    0.21054E+01   -0.19274E+00   730   0.203E+00    0.195E+01
RMM:  12    -0.177140148424E+03    0.17674E+01   -0.15379E+00   718   0.187E+00    0.126E+01
RMM:  13    -0.176364669064E+03    0.77548E+00   -0.12213E+00   713   0.164E+00    0.139E+01
RMM:  14    -0.176515747196E+03   -0.15108E+00   -0.80700E-01   716   0.132E+00    0.155E+01
RMM:  15    -0.177233376608E+03   -0.71763E+00   -0.11896E+00   716   0.160E+00    0.193E+01
RMM:  16    -0.176302896421E+03    0.93048E+00   -0.78093E-01   715   0.135E+00    0.176E+01
RMM:  17    -0.175761772541E+03    0.54112E+00   -0.69582E-01   703   0.126E+00    0.150E+01
RMM:  18    -0.175373085577E+03    0.38869E+00   -0.48613E-01   705   0.103E+00    0.963E+00
RMM:  19    -0.175443611550E+03   -0.70526E-01   -0.39651E-01   701   0.928E-01    0.116E+01
RMM:  20    -0.175373810695E+03    0.69801E-01   -0.22728E-01   714   0.726E-01    0.130E+01
RMM:  21    -0.175124444771E+03    0.24937E+00   -0.16955E-01   713   0.632E-01    0.953E+00
RMM:  22    -0.174934232100E+03    0.19021E+00   -0.17158E-01   700   0.637E-01    0.674E+00
RMM:  23    -0.175026484377E+03   -0.92252E-01   -0.16731E-01   697   0.621E-01    0.986E+00
RMM:  24    -0.174907553404E+03    0.11893E+00   -0.16564E-01   701   0.632E-01    0.691E+00
RMM:  25    -0.174782657675E+03    0.12490E+00   -0.14706E-01   696   0.588E-01    0.548E+00
RMM:  26    -0.174727554717E+03    0.55103E-01   -0.10237E-01   697   0.490E-01    0.398E+00
RMM:  27    -0.174697941155E+03    0.29614E-01   -0.76150E-02   696   0.435E-01    0.374E+00
RMM:  28    -0.174674632681E+03    0.23308E-01   -0.47844E-02   695   0.356E-01    0.360E+00
RMM:  29    -0.174647266811E+03    0.27366E-01   -0.27833E-02   697   0.283E-01    0.282E+00
RMM:  30    -0.174619948280E+03    0.27319E-01   -0.21313E-02   696   0.237E-01    0.202E+00
RMM:  31    -0.174603540678E+03    0.16408E-01   -0.14180E-02   696   0.192E-01    0.137E+00
RMM:  32    -0.174598897047E+03    0.46436E-02   -0.96499E-03   696   0.154E-01    0.120E+00
RMM:  33    -0.174594146894E+03    0.47502E-02   -0.60485E-03   695   0.128E-01    0.101E+00
RMM:  34    -0.174590821113E+03    0.33258E-02   -0.45698E-03   695   0.111E-01    0.771E-01
RMM:  35    -0.174589780718E+03    0.10404E-02   -0.37568E-03   693   0.991E-02    0.622E-01
RMM:  36    -0.174589382903E+03    0.39781E-03   -0.26760E-03   692   0.848E-02    0.531E-01
RMM:  37    -0.174591508908E+03   -0.21260E-02   -0.24540E-03   691   0.780E-02    0.592E-01
RMM:  38    -0.174591986431E+03   -0.47752E-03   -0.15447E-03   692   0.645E-02    0.459E-01
RMM:  39    -0.174593549906E+03   -0.15635E-02   -0.10521E-03   691   0.515E-02    0.488E-01
RMM:  40    -0.174596014846E+03   -0.24649E-02   -0.11449E-03   688   0.510E-02    0.394E-01
RMM:  41    -0.174596940528E+03   -0.92568E-03   -0.55812E-04   592   0.378E-02    0.242E-01
RMM:  42    -0.174600349698E+03   -0.34092E-02   -0.62458E-04   606   0.351E-02    0.290E-01
RMM:  43    -0.174601898127E+03   -0.15484E-02   -0.33636E-04   446   0.289E-02    0.132E-01
RMM:  44    -0.174603891814E+03   -0.19937E-02   -0.30745E-04   438   0.259E-02    0.168E-01
RMM:  45    -0.174606986975E+03   -0.30952E-02   -0.45830E-04   523   0.285E-02    0.119E-01
RMM:  46    -0.174608039745E+03   -0.10528E-02   -0.17270E-04   421   0.183E-02    0.116E-01
RMM:  47    -0.174611070617E+03   -0.30309E-02   -0.38125E-04   471   0.220E-02    0.120E-01
RMM:  48    -0.174612104217E+03   -0.10336E-02   -0.16941E-04   427   0.162E-02    0.677E-02
RMM:  49    -0.174613211037E+03   -0.11068E-02   -0.11367E-04   413   0.130E-02    0.766E-02
RMM:  50    -0.174613979796E+03   -0.76876E-03   -0.77365E-05   415   0.107E-02    0.394E-02
RMM:  51    -0.174614511719E+03   -0.53192E-03   -0.45528E-05   401   0.805E-03    0.454E-02
RMM:  52    -0.174615408061E+03   -0.89634E-03   -0.49311E-05   407   0.806E-03    0.356E-02
RMM:  53    -0.174615694213E+03   -0.28615E-03   -0.23855E-05   363   0.573E-03    0.259E-02
RMM:  54    -0.174616256275E+03   -0.56206E-03   -0.21382E-05   340   0.548E-03    0.283E-02
RMM:  55    -0.174616467131E+03   -0.21086E-03   -0.63351E-06   175   0.421E-03    0.143E-02
RMM:  56    -0.174616714851E+03   -0.24772E-03   -0.84140E-06   261   0.457E-03    0.196E-02
RMM:  57    -0.174616956114E+03   -0.24126E-03   -0.28526E-06   140   0.390E-03    0.819E-03
RMM:  58    -0.174617171364E+03   -0.21525E-03   -0.74128E-06   202   0.424E-03    0.118E-02
RMM:  59    -0.174617351246E+03   -0.17988E-03   -0.58837E-06   175   0.372E-03    0.573E-03
RMM:  60    -0.174617507958E+03   -0.15671E-03   -0.37213E-06   144   0.361E-03    0.803E-03
RMM:  61    -0.174617647293E+03   -0.13933E-03   -0.67403E-06   166   0.371E-03    0.901E-03
RMM:  62    -0.174617689397E+03   -0.42105E-04   -0.27941E-06   107   0.324E-03
   1 F= -.17461769E+03 E0= -.17460459E+03  d E =-.523873E-01
