<?xml version="1.0" encoding="ISO-8859-1"?>
<modeling>
 <generator>
  <i name="program" type="string">vasp </i>
  <i name="version" type="string">5.4.4.18Apr17-6-g9f103f2a35  </i>
  <i name="subversion" type="string">(build Sep 03 2018 23:53:05) complex            parallel </i>
  <i name="platform" type="string">LinuxIFC </i>
  <i name="date" type="string">2021 11 25 </i>
  <i name="time" type="string">16:48:01 </i>
 </generator>
 <incar>
  <i type="string" name="SYSTEM"> 6_Pd100_top_free_z(O)</i>
  <i type="int" name="ISTART">     0</i>
  <i type="string" name="PREC">normal   			! encut=max(enmax), ngx,y,z</i>
  <i type="string" name="ALGO"> Fast     			! Mix RMM-DIIS and Dav</i>
  <i type="logical" name="ADDGRID"> F  </i>
  <i type="int" name="ISPIN">     1</i>
  <i type="int" name="ICHARG">     2</i>
  <i type="int" name="NELM">   100</i>
  <i type="int" name="NELMIN">     6</i>
  <i type="int" name="IBRION">     2</i>
  <i name="EDIFF">      0.00010000</i>
  <i name="EDIFFG">     -0.05000000</i>
  <i type="int" name="NSW">     0</i>
  <i type="int" name="ISIF">     2</i>
  <i type="int" name="ISYM">     2</i>
  <i name="ENCUT">    400.00000000</i>
  <i type="string" name="LREAL"> Auto     			! Auto or A projection done</i>
  <i type="int" name="ISMEAR">     2</i>
  <i name="SIGMA">      0.20000000</i>
  <i type="logical" name="LWAVE"> F  </i>
  <i type="logical" name="LCHARG"> F  </i>
  <v type="int" name="KPOINT_BSE">    -1     0     0     0</v>
  <i type="int" name="MAXMEM"> 10000</i>
  <i type="int" name="NELM">   100</i>
  <i type="string" name="GGA"> RP         			! Revised PBE</i>
 </incar>
 <structure name="primitive_cell" >
  <crystal>
   <varray name="basis" >
    <v>      30.00000000       0.00000000       0.00000000 </v>
    <v>       0.00000000      30.00000000       0.00000000 </v>
    <v>       0.00000000       0.00000000      30.00000000 </v>
   </varray>
   <i name="volume">  27000.00000000 </i>
   <varray name="rec_basis" >
    <v>       0.03333333       0.00000000       0.00000000 </v>
    <v>       0.00000000       0.03333333       0.00000000 </v>
    <v>       0.00000000       0.00000000       0.03333333 </v>
   </varray>
  </crystal>
  <varray name="positions" >
   <v>       0.44576020       0.32826710       0.41691983 </v>
   <v>      -0.44576020       0.32826710       0.41691983 </v>
   <v>      -0.50000000       0.38250690       0.34021317 </v>
   <v>      -0.50000000       0.27609440      -0.50000000 </v>
   <v>       0.38804720       0.38804720       0.34167483 </v>
   <v>      -0.50000000       0.38416601      -0.50000000 </v>
   <v>       0.44208300       0.44208300       0.41809300 </v>
   <v>       0.38317830       0.38317830      -0.50000000 </v>
   <v>       0.44446983       0.33946623       0.29803830 </v>
   <v>       0.43655800       0.31659370       0.26926313 </v>
   <v>      -0.44208300       0.44208300       0.41809300 </v>
   <v>       0.44576020       0.32826710      -0.41691977 </v>
   <v>       0.32826705       0.44576024       0.41691983 </v>
   <v>      -0.38804720       0.38804720       0.34167483 </v>
   <v>      -0.38317830       0.38317830      -0.50000000 </v>
   <v>      -0.50000000      -0.50000000       0.33478917 </v>
   <v>      -0.50000000      -0.50000000      -0.50000000 </v>
   <v>      -0.44576020       0.32826710      -0.41691977 </v>
   <v>       0.38250685      -0.49999995       0.34021317 </v>
   <v>       0.44208300       0.44208300      -0.41809297 </v>
   <v>       0.38416599      -0.49999998      -0.50000000 </v>
   <v>      -0.44208300       0.44208300      -0.41809297 </v>
   <v>       0.44208298      -0.44208298       0.41809300 </v>
   <v>       0.32826705       0.44576024      -0.41691977 </v>
   <v>      -0.50000000       0.38250690      -0.34021320 </v>
   <v>       0.32826712      -0.44576022       0.41691983 </v>
   <v>      -0.38250685      -0.49999995       0.34021317 </v>
   <v>      -0.32826705       0.44576024       0.41691983 </v>
   <v>       0.27609443       0.49999998      -0.50000000 </v>
   <v>       0.38804720       0.38804720      -0.34167487 </v>
   <v>      -0.38416599      -0.49999998      -0.50000000 </v>
   <v>      -0.44208298      -0.44208298       0.41809300 </v>
   <v>       0.44208298      -0.44208298      -0.41809297 </v>
   <v>      -0.38804720       0.38804720      -0.34167487 </v>
   <v>       0.38804722      -0.38804722       0.34167483 </v>
   <v>       0.38250685      -0.49999995      -0.34021320 </v>
   <v>       0.32826712      -0.44576022      -0.41691977 </v>
   <v>      -0.32826705       0.44576024      -0.41691977 </v>
   <v>       0.50000000      -0.38250681       0.34021317 </v>
   <v>      -0.50000000      -0.38416596      -0.50000000 </v>
   <v>      -0.44208298      -0.44208298      -0.41809297 </v>
   <v>      -0.50000000      -0.50000000      -0.33478913 </v>
   <v>       0.38317828      -0.38317828      -0.50000000 </v>
   <v>      -0.32826712      -0.44576022       0.41691983 </v>
   <v>      -0.27609443       0.49999998      -0.50000000 </v>
   <v>      -0.38804722      -0.38804722       0.34167483 </v>
   <v>      -0.38250685      -0.49999995      -0.34021320 </v>
   <v>       0.44576027      -0.32826707       0.41691983 </v>
   <v>      -0.38317828      -0.38317828      -0.50000000 </v>
   <v>      -0.32826712      -0.44576022      -0.41691977 </v>
   <v>      -0.44576027      -0.32826707       0.41691983 </v>
   <v>       0.38804722      -0.38804722      -0.34167487 </v>
   <v>      -0.50000000      -0.38250681      -0.34021320 </v>
   <v>       0.44576027      -0.32826707      -0.41691977 </v>
   <v>      -0.44576027      -0.32826707      -0.41691977 </v>
   <v>      -0.50000000      -0.27609445       0.50000000 </v>
   <v>      -0.38804722      -0.38804722      -0.34167487 </v>
  </varray>
 </structure>
 <varray name="primitive_index" >
  <v type="int" >        1 </v>
  <v type="int" >        3 </v>
  <v type="int" >        5 </v>
  <v type="int" >        7 </v>
  <v type="int" >       15 </v>
  <v type="int" >       29 </v>
  <v type="int" >       28 </v>
  <v type="int" >       34 </v>
  <v type="int" >       56 </v>
  <v type="int" >       57 </v>
  <v type="int" >       21 </v>
  <v type="int" >       19 </v>
  <v type="int" >       22 </v>
  <v type="int" >       11 </v>
  <v type="int" >       36 </v>
  <v type="int" >       38 </v>
  <v type="int" >       52 </v>
  <v type="int" >       24 </v>
  <v type="int" >       32 </v>
  <v type="int" >       44 </v>
  <v type="int" >       48 </v>
  <v type="int" >       42 </v>
  <v type="int" >       43 </v>
  <v type="int" >       40 </v>
  <v type="int" >        6 </v>
  <v type="int" >        4 </v>
  <v type="int" >       30 </v>
  <v type="int" >       26 </v>
  <v type="int" >        8 </v>
  <v type="int" >       16 </v>
  <v type="int" >       49 </v>
  <v type="int" >       47 </v>
  <v type="int" >       53 </v>
  <v type="int" >       12 </v>
  <v type="int" >       13 </v>
  <v type="int" >       33 </v>
  <v type="int" >       25 </v>
  <v type="int" >       45 </v>
  <v type="int" >       50 </v>
  <v type="int" >       55 </v>
  <v type="int" >       54 </v>
  <v type="int" >       39 </v>
  <v type="int" >       37 </v>
  <v type="int" >        2 </v>
  <v type="int" >        9 </v>
  <v type="int" >       17 </v>
  <v type="int" >       31 </v>
  <v type="int" >       27 </v>
  <v type="int" >       35 </v>
  <v type="int" >       20 </v>
  <v type="int" >       23 </v>
  <v type="int" >       14 </v>
  <v type="int" >       51 </v>
  <v type="int" >       46 </v>
  <v type="int" >       41 </v>
  <v type="int" >       10 </v>
  <v type="int" >       18 </v>
 </varray>
 <kpoints>
  <generation param="Monkhorst-Pack">
   <v type="int" name="divisions">       1        1        1 </v>
   <v name="usershift">      0.00000000       0.00000000       0.00000000 </v>
   <v name="genvec1">      1.00000000       0.00000000       0.00000000 </v>
   <v name="genvec2">      0.00000000       1.00000000       0.00000000 </v>
   <v name="genvec3">      0.00000000       0.00000000       1.00000000 </v>
   <v name="shift">      0.00000000       0.00000000       0.00000000 </v>
  </generation>
  <varray name="kpointlist" >
   <v>       0.00000000       0.00000000       0.00000000 </v>
  </varray>
  <varray name="weights" >
   <v>       1.00000000 </v>
  </varray>
 </kpoints>
 <parameters>
  <separator name="general" >
   <i type="string" name="SYSTEM">6_Pd100_top_free_z(O)</i>
   <i type="logical" name="LCOMPAT"> F  </i>
  </separator>
  <separator name="electronic" >
   <i type="string" name="PREC">normal</i>
   <i name="ENMAX">    400.00000000</i>
   <i name="ENAUG">    644.87300000</i>
   <i name="EDIFF">      0.00010000</i>
   <i type="int" name="IALGO">    68</i>
   <i type="int" name="IWAVPR">    10</i>
   <i type="int" name="NBANDS">   336</i>
   <i name="NELECT">    560.00000000</i>
   <i type="int" name="TURBO">     0</i>
   <i type="int" name="IRESTART">     0</i>
   <i type="int" name="NREBOOT">     0</i>
   <i type="int" name="NMIN">     0</i>
   <i name="EREF">      0.00000000</i>
   <separator name="electronic smearing" >
    <i type="int" name="ISMEAR">     2</i>
    <i name="SIGMA">      0.20000000</i>
    <i name="KSPACING">      0.50000000</i>
    <i type="logical" name="KGAMMA"> T  </i>
   </separator>
   <separator name="electronic projectors" >
    <i type="logical" name="LREAL"> T  </i>
    <v name="ROPT">     -0.00050000     -0.00050000     -0.00050000</v>
    <i type="int" name="LMAXPAW">  -100</i>
    <i type="int" name="LMAXMIX">     2</i>
    <i type="logical" name="NLSPLINE"> F  </i>
   </separator>
   <separator name="electronic startup" >
    <i type="int" name="ISTART">     0</i>
    <i type="int" name="ICHARG">     2</i>
    <i type="int" name="INIWAV">     1</i>
   </separator>
   <separator name="electronic spin" >
    <i type="int" name="ISPIN">     1</i>
    <i type="logical" name="LNONCOLLINEAR"> F  </i>
    <v name="MAGMOM">      1.00000000      1.00000000      1.00000000      1.00000000      1.00000000      1.00000000      1.00000000      1.00000000      1.00000000      1.00000000      1.00000000      1.00000000      1.00000000      1.00000000      1.00000000      1.00000000      1.00000000      1.00000000      1.00000000      1.00000000
      1.00000000      1.00000000      1.00000000      1.00000000      1.00000000      1.00000000      1.00000000      1.00000000      1.00000000      1.00000000      1.00000000      1.00000000      1.00000000      1.00000000      1.00000000      1.00000000      1.00000000      1.00000000      1.00000000      1.00000000
      1.00000000      1.00000000      1.00000000      1.00000000      1.00000000      1.00000000      1.00000000      1.00000000      1.00000000      1.00000000      1.00000000      1.00000000      1.00000000      1.00000000      1.00000000      1.00000000      1.00000000</v>
    <i name="NUPDOWN">     -1.00000000</i>
    <i type="logical" name="LSORBIT"> F  </i>
    <v name="SAXIS">      0.00000000      0.00000000      1.00000000</v>
    <i type="logical" name="LSPIRAL"> F  </i>
    <v name="QSPIRAL">      0.00000000      0.00000000      0.00000000</v>
    <i type="logical" name="LZEROZ"> F  </i>
   </separator>
   <separator name="electronic exchange-correlation" >
    <i type="logical" name="LASPH"> F  </i>
    <i type="logical" name="LMETAGGA"> F  </i>
   </separator>
   <separator name="electronic convergence" >
    <i type="int" name="NELM">   100</i>
    <i type="int" name="NELMDL">    -5</i>
    <i type="int" name="NELMIN">     6</i>
    <i name="ENINI">    400.00000000</i>
    <separator name="electronic convergence detail" >
     <i type="logical" name="LDIAG"> T  </i>
     <i type="logical" name="LSUBROT"> F  </i>
     <i name="WEIMIN">      0.00000000</i>
     <i name="EBREAK">      0.00000007</i>
     <i name="DEPER">      0.30000000</i>
     <i type="int" name="NRMM">     4</i>
     <i name="TIME">      0.40000000</i>
    </separator>
   </separator>
   <separator name="electronic mixer" >
    <i name="AMIX">      0.40000000</i>
    <i name="BMIX">      1.00000000</i>
    <i name="AMIN">      0.10000000</i>
    <i name="AMIX_MAG">      1.60000000</i>
    <i name="BMIX_MAG">      1.00000000</i>
    <separator name="electronic mixer details" >
     <i type="int" name="IMIX">     4</i>
     <i type="logical" name="MIXFIRST"> F  </i>
     <i type="int" name="MAXMIX">   -45</i>
     <i name="WC">    100.00000000</i>
     <i type="int" name="INIMIX">     1</i>
     <i type="int" name="MIXPRE">     1</i>
     <i type="int" name="MREMOVE">     5</i>
    </separator>
   </separator>
   <separator name="electronic dipolcorrection" >
    <i type="logical" name="LDIPOL"> F  </i>
    <i type="logical" name="LMONO"> F  </i>
    <i type="int" name="IDIPOL">     0</i>
    <i name="EPSILON">      1.00000000</i>
    <v name="DIPOL">   -100.00000000   -100.00000000   -100.00000000</v>
    <i name="EFIELD">      0.00000000</i>
   </separator>
  </separator>
  <separator name="grids" >
   <i type="int" name="NGX">   150</i>
   <i type="int" name="NGY">   150</i>
   <i type="int" name="NGZ">   150</i>
   <i type="int" name="NGXF">   300</i>
   <i type="int" name="NGYF">   300</i>
   <i type="int" name="NGZF">   300</i>
   <i type="logical" name="ADDGRID"> F  </i>
  </separator>
  <separator name="ionic" >
   <i type="int" name="NSW">     0</i>
   <i type="int" name="IBRION">    -1</i>
   <i type="int" name="MDALGO">     0</i>
   <i type="int" name="ISIF">     2</i>
   <i name="PSTRESS">      0.00000000</i>
   <i name="EDIFFG">     -0.05000000</i>
   <i type="int" name="NFREE">     1</i>
   <i name="POTIM">      0.50000000</i>
   <i name="SMASS">     -3.00000000</i>
   <i name="SCALEE">      1.00000000</i>
  </separator>
  <separator name="ionic md" >
   <i name="TEBEG">      0.00010000</i>
   <i name="TEEND">      0.00010000</i>
   <i type="int" name="NBLOCK">     1</i>
   <i type="int" name="KBLOCK">     1</i>
   <i type="int" name="NPACO">   256</i>
   <i name="APACO">     16.00000000</i>
  </separator>
  <separator name="symmetry" >
   <i type="int" name="ISYM">     2</i>
   <i name="SYMPREC">      0.00001000</i>
  </separator>
  <separator name="dos" >
   <i type="int" name="LORBIT">     0</i>
   <v name="RWIGS">     -1.00000000     -1.00000000     -1.00000000</v>
   <i type="int" name="NEDOS">   301</i>
   <i name="EMIN">     10.00000000</i>
   <i name="EMAX">    -10.00000000</i>
   <i name="EFERMI">      0.00000000</i>
  </separator>
  <separator name="writing" >
   <i type="int" name="NWRITE">     2</i>
   <i type="logical" name="LWAVE"> F  </i>
   <i type="logical" name="LDOWNSAMPLE"> F  </i>
   <i type="logical" name="LCHARG"> F  </i>
   <i type="logical" name="LPARD"> F  </i>
   <i type="logical" name="LVTOT"> F  </i>
   <i type="logical" name="LVHAR"> F  </i>
   <i type="logical" name="LELF"> F  </i>
   <i type="logical" name="LOPTICS"> F  </i>
   <v name="STM">      0.00000000      0.00000000      0.00000000      0.00000000      0.00000000      0.00000000      0.00000000</v>
  </separator>
  <separator name="performance" >
   <i type="int" name="NPAR">     1</i>
   <i type="int" name="NSIM">     4</i>
   <i type="int" name="NBLK">    -1</i>
   <i type="logical" name="LPLANE"> T  </i>
   <i type="logical" name="LSCALAPACK"> T  </i>
   <i type="logical" name="LSCAAWARE"> F  </i>
   <i type="logical" name="LSCALU"> F  </i>
   <i type="logical" name="LASYNC"> F  </i>
   <i type="logical" name="LORBITALREAL"> F  </i>
  </separator>
  <separator name="miscellaneous" >
   <i type="int" name="IDIOT">     3</i>
   <i type="int" name="ISPECIAL">     0</i>
   <i type="logical" name="LMUSIC"> F  </i>
   <v name="POMASS">    106.42000000     12.01100000     16.00000000</v>
   <v name="DARWINR">      0.00000000      0.00000000      0.00000000</v>
   <v name="DARWINV">      1.00000000      1.00000000      1.00000000</v>
   <i type="logical" name="LCORR"> T  </i>
  </separator>
  <i type="logical" name="GGA_COMPAT"> T  </i>
  <i type="logical" name="LBERRY"> F  </i>
  <i type="int" name="ICORELEVEL">     0</i>
  <i type="logical" name="LDAU"> F  </i>
  <i type="int" name="I_CONSTRAINED_M">     0</i>
  <separator name="electronic exchange-correlation" >
   <i type="string" name="GGA">RP</i>
   <i type="int" name="VOSKOWN">     0</i>
   <i type="logical" name="LHFCALC"> F  </i>
   <i type="string" name="PRECFOCK"></i>
   <i type="logical" name="LSYMGRAD"> F  </i>
   <i type="logical" name="LHFONE"> F  </i>
   <i type="logical" name="LRHFCALC"> F  </i>
   <i type="logical" name="LTHOMAS"> F  </i>
   <i type="logical" name="LMODELHF"> F  </i>
   <i name="ENCUT4O">     -1.00000000</i>
   <i type="int" name="EXXOEP">     0</i>
   <i type="int" name="FOURORBIT">     0</i>
   <i name="AEXX">      0.00000000</i>
   <i name="HFALPHA">      0.00000000</i>
   <i name="MCALPHA">      0.00000000</i>
   <i name="ALDAX">      1.00000000</i>
   <i name="AGGAX">      1.00000000</i>
   <i name="ALDAC">      1.00000000</i>
   <i name="AGGAC">      1.00000000</i>
   <i type="int" name="NKREDX">     1</i>
   <i type="int" name="NKREDY">     1</i>
   <i type="int" name="NKREDZ">     1</i>
   <i type="logical" name="SHIFTRED"> F  </i>
   <i type="logical" name="ODDONLY"> F  </i>
   <i type="logical" name="EVENONLY"> F  </i>
   <i type="int" name="LMAXFOCK">     0</i>
   <i type="int" name="NMAXFOCKAE">     0</i>
   <i type="logical" name="LFOCKAEDFT"> F  </i>
   <i name="HFSCREEN">      0.00000000</i>
   <i name="HFSCREENC">      0.00000000</i>
   <i type="int" name="NBANDSGWLOW">     0</i>
  </separator>
  <separator name="vdW DFT" >
   <i type="logical" name="LUSE_VDW"> F  </i>
   <i name="Zab_VDW">     -0.84910000</i>
   <i name="PARAM1">      0.12340000</i>
   <i name="PARAM2">      1.00000000</i>
   <i name="PARAM3">      0.00000000</i>
  </separator>
  <separator name="model GW" >
   <i type="int" name="MODEL_GW">     0</i>
   <i name="MODEL_EPS0">    284.21052632</i>
   <i name="MODEL_ALPHA">      1.00000000</i>
  </separator>
  <separator name="linear response parameters" >
   <i type="logical" name="LEPSILON"> F  </i>
   <i type="logical" name="LRPA"> F  </i>
   <i type="logical" name="LNABLA"> F  </i>
   <i type="logical" name="LVEL"> F  </i>
   <i type="int" name="KINTER">     0</i>
   <i name="CSHIFT">      0.10000000</i>
   <i name="OMEGAMAX">     -1.00000000</i>
   <i name="DEG_THRESHOLD">      0.00200000</i>
   <i name="RTIME">     -0.10000000</i>
   <i name="WPLASMAI">      0.00000000</i>
   <v name="DFIELD">      0.00000000      0.00000000      0.00000000</v>
   <v name="WPLASMA">      0.00000000      0.00000000      0.00000000      0.00000000      0.00000000      0.00000000      0.00000000      0.00000000      0.00000000</v>
  </separator>
  <separator name="orbital magnetization" >
   <i type="logical" name="NUCIND"> F  </i>
   <v name="MAGPOS">      0.00000000      0.00000000      0.00000000</v>
   <i type="logical" name="LNICSALL"> T  </i>
   <i type="logical" name="ORBITALMAG"> F  </i>
   <i type="logical" name="LMAGBLOCH"> F  </i>
   <i type="logical" name="LCHIMAG"> F  </i>
   <i type="logical" name="LGAUGE"> T  </i>
   <i type="int" name="MAGATOM">     0</i>
   <v name="MAGDIPOL">      0.00000000      0.00000000      0.00000000</v>
   <v name="AVECCONST">      0.00000000      0.00000000      0.00000000</v>
  </separator>
  <separator name="response functions" >
   <i type="logical" name="LADDER"> F  </i>
   <i type="logical" name="LRPAFORCE"> F  </i>
   <i type="logical" name="LFXC"> F  </i>
   <i type="logical" name="LHARTREE"> T  </i>
   <i type="int" name="IBSE">     0</i>
   <v type="int" name="KPOINT">    -1     0     0     0</v>
   <i type="logical" name="LTCTE"> F  </i>
   <i type="logical" name="LTETE"> F  </i>
   <i type="logical" name="LTRIPLET"> F  </i>
   <i type="logical" name="LFXCEPS"> F  </i>
   <i type="logical" name="LFXHEG"> F  </i>
   <i type="int" name="NATURALO">     2</i>
   <i type="logical" name="L2ORDER"> F  </i>
   <i type="logical" name="LMP2LT"> F  </i>
   <i type="logical" name="LUSEW"> F  </i>
   <i name="ENCUTGW">     -2.00000000</i>
   <i name="ENCUTGWSOFT">     -2.00000000</i>
   <i name="ENCUTLF">     -1.00000000</i>
   <i type="int" name="LMAXMP2">    -1</i>
   <i name="SCISSOR">      0.00000000</i>
   <i type="int" name="NOMEGA">     0</i>
   <i type="int" name="NOMEGAR">     0</i>
   <i type="int" name="NBANDSGW">    -1</i>
   <i type="int" name="NBANDSO">    -1</i>
   <i type="int" name="NBANDSV">    -1</i>
   <i type="int" name="NELM">   100</i>
   <i type="int" name="NELMHF">     1</i>
   <i type="int" name="DIM">     3</i>
   <i type="int" name="ANTIRES">     0</i>
   <i name="OMEGAMAX">    -30.00000000</i>
   <i name="OMEGAMIN">    -30.00000000</i>
   <i name="OMEGATL">   -200.00000000</i>
   <i type="int" name="OMEGAGRID">   140</i>
   <i name="CSHIFT">     -0.10000000</i>
   <i type="logical" name="SELFENERGY"> F  </i>
   <i type="logical" name="LSPECTRAL"> F  </i>
   <i type="logical" name="LSPECTRALGW"> F  </i>
   <i type="logical" name="LSINGLES"> F  </i>
   <i type="logical" name="LFERMIGW"> F  </i>
   <i type="logical" name="ODDONLYGW"> F  </i>
   <i type="logical" name="EVENONLYGW"> F  </i>
   <i type="int" name="NKREDLFX">     1</i>
   <i type="int" name="NKREDLFY">     1</i>
   <i type="int" name="NKREDLFZ">     1</i>
   <i type="int" name="MAXMEM"> 10000</i>
   <i type="int" name="TELESCOPE">     0</i>
   <i type="int" name="TAUPAR">     1</i>
   <i type="int" name="OMEGAPAR">    -1</i>
   <i name="LAMBDA">      1.00000000</i>
  </separator>
  <separator name="External order field" >
   <i name="OFIELD_KAPPA">      0.00000000</i>
   <v name="OFIELD_K">      0.00000000      0.00000000      0.00000000</v>
   <i name="OFIELD_Q6_NEAR">      0.00000000</i>
   <i name="OFIELD_Q6_FAR">      0.00000000</i>
   <i name="OFIELD_A">      0.00000000</i>
  </separator>
 </parameters>
 <atominfo>
  <atoms>      57 </atoms>
  <types>       3 </types>
  <array name="atoms" >
   <dimension dim="1">ion</dimension>
   <field type="string">element</field>
   <field type="int">atomtype</field>
   <set>
    <rc><c>Pd</c><c>   1</c></rc>
    <rc><c>Pd</c><c>   1</c></rc>
    <rc><c>Pd</c><c>   1</c></rc>
    <rc><c>Pd</c><c>   1</c></rc>
    <rc><c>Pd</c><c>   1</c></rc>
    <rc><c>Pd</c><c>   1</c></rc>
    <rc><c>Pd</c><c>   1</c></rc>
    <rc><c>Pd</c><c>   1</c></rc>
    <rc><c>Pd</c><c>   1</c></rc>
    <rc><c>Pd</c><c>   1</c></rc>
    <rc><c>Pd</c><c>   1</c></rc>
    <rc><c>Pd</c><c>   1</c></rc>
    <rc><c>Pd</c><c>   1</c></rc>
    <rc><c>Pd</c><c>   1</c></rc>
    <rc><c>Pd</c><c>   1</c></rc>
    <rc><c>Pd</c><c>   1</c></rc>
    <rc><c>Pd</c><c>   1</c></rc>
    <rc><c>Pd</c><c>   1</c></rc>
    <rc><c>Pd</c><c>   1</c></rc>
    <rc><c>Pd</c><c>   1</c></rc>
    <rc><c>Pd</c><c>   1</c></rc>
    <rc><c>Pd</c><c>   1</c></rc>
    <rc><c>Pd</c><c>   1</c></rc>
    <rc><c>Pd</c><c>   1</c></rc>
    <rc><c>Pd</c><c>   1</c></rc>
    <rc><c>Pd</c><c>   1</c></rc>
    <rc><c>Pd</c><c>   1</c></rc>
    <rc><c>Pd</c><c>   1</c></rc>
    <rc><c>Pd</c><c>   1</c></rc>
    <rc><c>Pd</c><c>   1</c></rc>
    <rc><c>Pd</c><c>   1</c></rc>
    <rc><c>Pd</c><c>   1</c></rc>
    <rc><c>Pd</c><c>   1</c></rc>
    <rc><c>Pd</c><c>   1</c></rc>
    <rc><c>Pd</c><c>   1</c></rc>
    <rc><c>Pd</c><c>   1</c></rc>
    <rc><c>Pd</c><c>   1</c></rc>
    <rc><c>Pd</c><c>   1</c></rc>
    <rc><c>Pd</c><c>   1</c></rc>
    <rc><c>Pd</c><c>   1</c></rc>
    <rc><c>Pd</c><c>   1</c></rc>
    <rc><c>Pd</c><c>   1</c></rc>
    <rc><c>Pd</c><c>   1</c></rc>
    <rc><c>Pd</c><c>   1</c></rc>
    <rc><c>Pd</c><c>   1</c></rc>
    <rc><c>Pd</c><c>   1</c></rc>
    <rc><c>Pd</c><c>   1</c></rc>
    <rc><c>Pd</c><c>   1</c></rc>
    <rc><c>Pd</c><c>   1</c></rc>
    <rc><c>Pd</c><c>   1</c></rc>
    <rc><c>Pd</c><c>   1</c></rc>
    <rc><c>Pd</c><c>   1</c></rc>
    <rc><c>Pd</c><c>   1</c></rc>
    <rc><c>Pd</c><c>   1</c></rc>
    <rc><c>Pd</c><c>   1</c></rc>
    <rc><c>C </c><c>   2</c></rc>
    <rc><c>O </c><c>   3</c></rc>
   </set>
  </array>
  <array name="atomtypes" >
   <dimension dim="1">type</dimension>
   <field type="int">atomspertype</field>
   <field type="string">element</field>
   <field>mass</field>
   <field>valence</field>
   <field type="string">pseudopotential</field>
   <set>
    <rc><c>  55</c><c>Pd</c><c>    106.42000000</c><c>     10.00000000</c><c>  PAW_PBE Pd 04Jan2005                  </c></rc>
    <rc><c>   1</c><c>C </c><c>     12.01100000</c><c>      4.00000000</c><c>  PAW_PBE C 08Apr2002                   </c></rc>
    <rc><c>   1</c><c>O </c><c>     16.00000000</c><c>      6.00000000</c><c>  PAW_PBE O 08Apr2002                   </c></rc>
   </set>
  </array>
 </atominfo>
 <structure name="initialpos" >
  <crystal>
   <varray name="basis" >
    <v>      30.00000000       0.00000000       0.00000000 </v>
    <v>       0.00000000      30.00000000       0.00000000 </v>
    <v>       0.00000000       0.00000000      30.00000000 </v>
   </varray>
   <i name="volume">  27000.00000000 </i>
   <varray name="rec_basis" >
    <v>       0.03333333       0.00000000       0.00000000 </v>
    <v>       0.00000000       0.03333333       0.00000000 </v>
    <v>       0.00000000       0.00000000       0.03333333 </v>
   </varray>
  </crystal>
  <varray name="positions" >
   <v>       0.44576020       0.32826710       0.41691983 </v>
   <v>       0.67173288       0.55423978       0.41691983 </v>
   <v>       0.55423980       0.32826710       0.41691983 </v>
   <v>       0.32826712       0.55423978       0.41691983 </v>
   <v>       0.50000000       0.38250690       0.34021317 </v>
   <v>       0.50000000       0.38250690       0.65978680 </v>
   <v>       0.50000000       0.27609440       0.50000000 </v>
   <v>       0.27609443       0.49999998       0.50000000 </v>
   <v>       0.72390557       0.49999998       0.50000000 </v>
   <v>       0.50000000       0.72390555       0.50000000 </v>
   <v>       0.61195280       0.38804720       0.34167483 </v>
   <v>       0.61195280       0.38804720       0.65832513 </v>
   <v>       0.38804722       0.61195278       0.34167483 </v>
   <v>       0.38804722       0.61195278       0.65832513 </v>
   <v>       0.38804720       0.38804720       0.34167483 </v>
   <v>       0.38804720       0.38804720       0.65832513 </v>
   <v>       0.61195278       0.61195278       0.34167483 </v>
   <v>       0.61195278       0.61195278       0.65832513 </v>
   <v>       0.44576020       0.32826710       0.58308023 </v>
   <v>       0.67173288       0.55423978       0.58308023 </v>
   <v>       0.55791699       0.44208301       0.41809300 </v>
   <v>       0.32826705       0.44576024       0.41691983 </v>
   <v>       0.55423973       0.67173293       0.41691983 </v>
   <v>       0.55423980       0.32826710       0.58308023 </v>
   <v>       0.32826712       0.55423978       0.58308023 </v>
   <v>       0.67173295       0.44576024       0.41691983 </v>
   <v>       0.44576027       0.67173293       0.41691983 </v>
   <v>       0.44208301       0.44208301       0.41809300 </v>
   <v>       0.50000000       0.38416601       0.50000000 </v>
   <v>       0.61749315       0.50000005       0.34021317 </v>
   <v>       0.61749315       0.50000005       0.65978680 </v>
   <v>       0.38250685       0.50000005       0.34021317 </v>
   <v>       0.38250685       0.50000005       0.65978680 </v>
   <v>       0.38317830       0.38317830       0.50000000 </v>
   <v>       0.61682172       0.61682172       0.50000000 </v>
   <v>       0.61682170       0.38317830       0.50000000 </v>
   <v>       0.38317828       0.61682172       0.50000000 </v>
   <v>       0.50000000       0.50000000       0.33478917 </v>
   <v>       0.50000000       0.50000000       0.66521087 </v>
   <v>       0.32826705       0.44576024       0.58308023 </v>
   <v>       0.55423973       0.67173293       0.58308023 </v>
   <v>       0.55791699       0.44208301       0.58190703 </v>
   <v>       0.44208298       0.55791702       0.41809300 </v>
   <v>       0.44208301       0.44208301       0.58190703 </v>
   <v>       0.67173295       0.44576024       0.58308023 </v>
   <v>       0.44576027       0.67173293       0.58308023 </v>
   <v>       0.55791702       0.55791702       0.41809300 </v>
   <v>       0.38416599       0.50000002       0.50000000 </v>
   <v>       0.61583401       0.50000002       0.50000000 </v>
   <v>       0.50000000       0.61749319       0.34021317 </v>
   <v>       0.50000000       0.61749319       0.65978680 </v>
   <v>       0.50000000       0.50000000       0.50000000 </v>
   <v>       0.44208298       0.55791702       0.58190703 </v>
   <v>       0.55791702       0.55791702       0.58190703 </v>
   <v>       0.50000000       0.61583404       0.50000000 </v>
   <v>       0.44446983       0.33946623       0.29803830 </v>
   <v>       0.43655800       0.31659370       0.26926313 </v>
  </varray>
  <varray name="selective"  type="logical" >
   <v type="logical" >  F  F  F </v>
   <v type="logical" >  F  F  F </v>
   <v type="logical" >  F  F  F </v>
   <v type="logical" >  F  F  F </v>
   <v type="logical" >  F  F  F </v>
   <v type="logical" >  F  F  F </v>
   <v type="logical" >  F  F  F </v>
   <v type="logical" >  F  F  F </v>
   <v type="logical" >  F  F  F </v>
   <v type="logical" >  F  F  F </v>
   <v type="logical" >  F  F  F </v>
   <v type="logical" >  F  F  F </v>
   <v type="logical" >  F  F  F </v>
   <v type="logical" >  F  F  F </v>
   <v type="logical" >  F  F  F </v>
   <v type="logical" >  F  F  F </v>
   <v type="logical" >  F  F  F </v>
   <v type="logical" >  F  F  F </v>
   <v type="logical" >  F  F  F </v>
   <v type="logical" >  F  F  F </v>
   <v type="logical" >  F  F  F </v>
   <v type="logical" >  F  F  F </v>
   <v type="logical" >  F  F  F </v>
   <v type="logical" >  F  F  F </v>
   <v type="logical" >  F  F  F </v>
   <v type="logical" >  F  F  F </v>
   <v type="logical" >  F  F  F </v>
   <v type="logical" >  F  F  F </v>
   <v type="logical" >  F  F  F </v>
   <v type="logical" >  F  F  F </v>
   <v type="logical" >  F  F  F </v>
   <v type="logical" >  F  F  F </v>
   <v type="logical" >  F  F  F </v>
   <v type="logical" >  F  F  F </v>
   <v type="logical" >  F  F  F </v>
   <v type="logical" >  F  F  F </v>
   <v type="logical" >  F  F  F </v>
   <v type="logical" >  F  F  F </v>
   <v type="logical" >  F  F  F </v>
   <v type="logical" >  F  F  F </v>
   <v type="logical" >  F  F  F </v>
   <v type="logical" >  F  F  F </v>
   <v type="logical" >  F  F  F </v>
   <v type="logical" >  F  F  F </v>
   <v type="logical" >  F  F  F </v>
   <v type="logical" >  F  F  F </v>
   <v type="logical" >  F  F  F </v>
   <v type="logical" >  F  F  F </v>
   <v type="logical" >  F  F  F </v>
   <v type="logical" >  F  F  F </v>
   <v type="logical" >  F  F  F </v>
   <v type="logical" >  F  F  F </v>
   <v type="logical" >  F  F  F </v>
   <v type="logical" >  F  F  F </v>
   <v type="logical" >  F  F  F </v>
   <v type="logical" >  F  F  F </v>
   <v type="logical" >  F  F  F </v>
  </varray>
  <nose>
   <v>      -3.00000000       0.00000000       0.00010000       0.00010000 </v>
  </nose>
 </structure>
 <calculation>
  <scstep>
   <time name="dav">  308.71  308.72</time>
   <time name="total">  321.04  321.06</time>
   <energy>
    <i name="alphaZ">     75.25431677 </i>
    <i name="ewald"> 137810.38805210 </i>
    <i name="hartreedc">-181175.92603156 </i>
    <i name="XCdc">  -1703.49937432 </i>
    <i name="pawpsdc">  44873.02882129 </i>
    <i name="pawaedc"> -41398.84523641 </i>
    <i name="eentropy">      0.02787194 </i>
    <i name="bandstr">    817.55692083 </i>
    <i name="atom">  45086.50549395 </i>
    <i name="e_fr_energy">   4384.49083459 </i>
    <i name="e_wo_entrp">   4384.46296265 </i>
    <i name="e_0_energy">   4384.48386660 </i>
   </energy>
  </scstep>
  <scstep>
   <time name="dav">  491.85  491.84</time>
   <time name="total">  491.85  491.84</time>
   <energy>
    <i name="e_fr_energy">   2027.16043332 </i>
    <i name="e_wo_entrp">   2027.21514837 </i>
    <i name="e_0_energy">   2027.17411208 </i>
   </energy>
  </scstep>
  <scstep>
   <time name="dav">  419.60  419.60</time>
   <time name="total">  419.60  419.60</time>
   <energy>
    <i name="e_fr_energy">    239.34644783 </i>
    <i name="e_wo_entrp">    239.40557626 </i>
    <i name="e_0_energy">    239.36122994 </i>
   </energy>
  </scstep>
  <scstep>
   <time name="dav">  356.06  356.06</time>
   <time name="total">  356.06  356.06</time>
   <energy>
    <i name="e_fr_energy">   -132.76278305 </i>
    <i name="e_wo_entrp">   -132.76255774 </i>
    <i name="e_0_energy">   -132.76272672 </i>
   </energy>
  </scstep>
  <scstep>
   <time name="dav">  440.14  440.14</time>
   <time name="total">  462.21  462.21</time>
   <energy>
    <i name="e_fr_energy">   -178.82716106 </i>
    <i name="e_wo_entrp">   -179.31548320 </i>
    <i name="e_0_energy">   -178.94924160 </i>
   </energy>
  </scstep>
  <scstep>
   <time name="diag">   56.95   56.95</time>
   <time name="diis">  159.20  159.20</time>
   <time name="orth">   11.05   11.05</time>
   <time name="total">  259.65  259.65</time>
   <energy>
    <i name="e_fr_energy">   -178.33550425 </i>
    <i name="e_wo_entrp">   -178.13049315 </i>
    <i name="e_0_energy">   -178.28425148 </i>
   </energy>
  </scstep>
  <scstep>
   <time name="diag">   56.82   56.82</time>
   <time name="diis">  188.72  188.72</time>
   <time name="orth">   11.07   11.07</time>
   <time name="total">  289.04  289.04</time>
   <energy>
    <i name="e_fr_energy">   -179.78243018 </i>
    <i name="e_wo_entrp">   -179.69809307 </i>
    <i name="e_0_energy">   -179.76134591 </i>
   </energy>
  </scstep>
  <scstep>
   <time name="diag">   56.85   56.85</time>
   <time name="diis">  169.78  169.78</time>
   <time name="orth">   10.99   10.99</time>
   <time name="total">  270.31  270.31</time>
   <energy>
    <i name="e_fr_energy">   -184.40054557 </i>
    <i name="e_wo_entrp">   -184.34956018 </i>
    <i name="e_0_energy">   -184.38779922 </i>
   </energy>
  </scstep>
  <scstep>
   <time name="diag">   56.91   56.91</time>
   <time name="diis">  169.75  169.75</time>
   <time name="orth">   11.32   11.32</time>
   <time name="total">  270.93  270.93</time>
   <energy>
    <i name="e_fr_energy">   -182.46924562 </i>
    <i name="e_wo_entrp">   -182.34790154 </i>
    <i name="e_0_energy">   -182.43890960 </i>
   </energy>
  </scstep>
  <scstep>
   <time name="diag">   57.83   57.83</time>
   <time name="diis">  165.93  165.95</time>
   <time name="orth">   11.33   11.33</time>
   <time name="total">  268.56  268.57</time>
   <energy>
    <i name="e_fr_energy">   -179.78148331 </i>
    <i name="e_wo_entrp">   -179.55079847 </i>
    <i name="e_0_energy">   -179.72381210 </i>
   </energy>
  </scstep>
  <scstep>
   <time name="diag">   58.28   58.29</time>
   <time name="diis">  161.97  161.98</time>
   <time name="orth">   11.19   11.19</time>
   <time name="total">  264.82  264.84</time>
   <energy>
    <i name="e_fr_energy">   -177.53617102 </i>
    <i name="e_wo_entrp">   -177.42029602 </i>
    <i name="e_0_energy">   -177.50720227 </i>
   </energy>
  </scstep>
  <scstep>
   <time name="diag">   57.09   57.10</time>
   <time name="diis">  159.14  159.15</time>
   <time name="orth">   11.15   11.15</time>
   <time name="total">  259.95  259.98</time>
   <energy>
    <i name="e_fr_energy">   -176.18863348 </i>
    <i name="e_wo_entrp">   -176.13967631 </i>
    <i name="e_0_energy">   -176.17639418 </i>
   </energy>
  </scstep>
  <scstep>
   <time name="diag">   57.24   57.25</time>
   <time name="diis">  161.23  161.24</time>
   <time name="orth">   11.14   11.14</time>
   <time name="total">  262.27  262.30</time>
   <energy>
    <i name="e_fr_energy">   -176.10906179 </i>
    <i name="e_wo_entrp">   -175.97326127 </i>
    <i name="e_0_energy">   -176.07511166 </i>
   </energy>
  </scstep>
  <scstep>
   <time name="diag">   57.13   57.14</time>
   <time name="diis">  160.55  160.56</time>
   <time name="orth">   11.08   11.08</time>
   <time name="total">  261.43  261.44</time>
   <energy>
    <i name="e_fr_energy">   -176.84639665 </i>
    <i name="e_wo_entrp">   -176.78527091 </i>
    <i name="e_0_energy">   -176.83111522 </i>
   </energy>
  </scstep>
  <scstep>
   <time name="diag">   57.62   57.63</time>
   <time name="diis">  157.46  157.47</time>
   <time name="orth">   11.14   11.14</time>
   <time name="total">  258.91  258.93</time>
   <energy>
    <i name="e_fr_energy">   -176.16133295 </i>
    <i name="e_wo_entrp">   -176.09970122 </i>
    <i name="e_0_energy">   -176.14592502 </i>
   </energy>
  </scstep>
  <scstep>
   <time name="diag">   57.42   57.42</time>
   <time name="diis">  157.19  157.19</time>
   <time name="orth">   11.42   11.42</time>
   <time name="total">  259.37  259.37</time>
   <energy>
    <i name="e_fr_energy">   -175.66489787 </i>
    <i name="e_wo_entrp">   -175.54663863 </i>
    <i name="e_0_energy">   -175.63533306 </i>
   </energy>
  </scstep>
  <scstep>
   <time name="diag">   58.13   58.13</time>
   <time name="diis">  160.69  160.69</time>
   <time name="orth">   11.46   11.46</time>
   <time name="total">  263.86  263.86</time>
   <energy>
    <i name="e_fr_energy">   -175.42568382 </i>
    <i name="e_wo_entrp">   -175.35174632 </i>
    <i name="e_0_energy">   -175.40719945 </i>
   </energy>
  </scstep>
  <scstep>
   <time name="diag">   58.22   58.22</time>
   <time name="diis">  164.84  164.84</time>
   <time name="orth">   11.09   11.09</time>
   <time name="total">  267.65  267.66</time>
   <energy>
    <i name="e_fr_energy">   -175.67787733 </i>
    <i name="e_wo_entrp">   -175.78962962 </i>
    <i name="e_0_energy">   -175.70581541 </i>
   </energy>
  </scstep>
  <scstep>
   <time name="diag">   57.17   57.17</time>
   <time name="diis">  155.43  155.44</time>
   <time name="orth">   11.15   11.15</time>
   <time name="total">  256.52  256.53</time>
   <energy>
    <i name="e_fr_energy">   -175.45395706 </i>
    <i name="e_wo_entrp">   -175.52481826 </i>
    <i name="e_0_energy">   -175.47167236 </i>
   </energy>
  </scstep>
  <scstep>
   <time name="diag">   57.18   57.18</time>
   <time name="diis">  155.92  155.92</time>
   <time name="orth">   11.16   11.16</time>
   <time name="total">  257.16  257.16</time>
   <energy>
    <i name="e_fr_energy">   -175.18116292 </i>
    <i name="e_wo_entrp">   -175.14247062 </i>
    <i name="e_0_energy">   -175.17148985 </i>
   </energy>
  </scstep>
  <scstep>
   <time name="diag">   57.31   57.31</time>
   <time name="diis">  154.98  154.98</time>
   <time name="orth">   11.09   11.09</time>
   <time name="total">  256.33  256.33</time>
   <energy>
    <i name="e_fr_energy">   -175.04734193 </i>
    <i name="e_wo_entrp">   -175.00207629 </i>
    <i name="e_0_energy">   -175.03602552 </i>
   </energy>
  </scstep>
  <scstep>
   <time name="diag">   57.73   57.73</time>
   <time name="diis">  154.30  154.30</time>
   <time name="orth">   11.15   11.15</time>
   <time name="total">  256.22  256.22</time>
   <energy>
    <i name="e_fr_energy">   -174.86376027 </i>
    <i name="e_wo_entrp">   -174.80278624 </i>
    <i name="e_0_energy">   -174.84851676 </i>
   </energy>
  </scstep>
  <scstep>
   <time name="diag">   57.11   57.11</time>
   <time name="diis">  154.40  154.40</time>
   <time name="orth">   11.15   11.15</time>
   <time name="total">  255.74  255.74</time>
   <energy>
    <i name="e_fr_energy">   -174.69396507 </i>
    <i name="e_wo_entrp">   -174.60018431 </i>
    <i name="e_0_energy">   -174.67051988 </i>
   </energy>
  </scstep>
  <scstep>
   <time name="diag">   57.20   57.20</time>
   <time name="diis">  153.89  153.89</time>
   <time name="orth">   11.15   11.15</time>
   <time name="total">  255.37  255.37</time>
   <energy>
    <i name="e_fr_energy">   -174.66008867 </i>
    <i name="e_wo_entrp">   -174.56418047 </i>
    <i name="e_0_energy">   -174.63611162 </i>
   </energy>
  </scstep>
  <scstep>
   <time name="diag">   57.12   57.12</time>
   <time name="diis">  154.24  154.24</time>
   <time name="orth">   11.39   11.39</time>
   <time name="total">  256.51  256.51</time>
   <energy>
    <i name="e_fr_energy">   -174.60508951 </i>
    <i name="e_wo_entrp">   -174.49907162 </i>
    <i name="e_0_energy">   -174.57858504 </i>
   </energy>
  </scstep>
  <scstep>
   <time name="diag">   58.02   58.02</time>
   <time name="diis">  158.15  158.16</time>
   <time name="orth">   11.42   11.42</time>
   <time name="total">  261.84  261.85</time>
   <energy>
    <i name="e_fr_energy">   -174.55134023 </i>
    <i name="e_wo_entrp">   -174.45410183 </i>
    <i name="e_0_energy">   -174.52703063 </i>
   </energy>
  </scstep>
  <scstep>
   <time name="diag">   57.95   57.95</time>
   <time name="diis">  158.77  158.77</time>
   <time name="orth">   11.39   11.39</time>
   <time name="total">  262.61  262.61</time>
   <energy>
    <i name="e_fr_energy">   -174.52117857 </i>
    <i name="e_wo_entrp">   -174.41557087 </i>
    <i name="e_0_energy">   -174.49477664 </i>
   </energy>
  </scstep>
  <scstep>
   <time name="diag">   58.30   58.30</time>
   <time name="diis">  152.71  152.71</time>
   <time name="orth">   10.96   10.96</time>
   <time name="total">  256.20  256.20</time>
   <energy>
    <i name="e_fr_energy">   -174.51750016 </i>
    <i name="e_wo_entrp">   -174.42348539 </i>
    <i name="e_0_energy">   -174.49399647 </i>
   </energy>
  </scstep>
  <scstep>
   <time name="diag">   57.20   57.20</time>
   <time name="diis">  152.71  152.71</time>
   <time name="orth">   10.90   10.89</time>
   <time name="total">  254.13  254.13</time>
   <energy>
    <i name="e_fr_energy">   -174.49856590 </i>
    <i name="e_wo_entrp">   -174.40948760 </i>
    <i name="e_0_energy">   -174.47629633 </i>
   </energy>
  </scstep>
  <scstep>
   <time name="diag">   57.54   57.54</time>
   <time name="diis">  152.64  152.64</time>
   <time name="orth">   10.90   10.90</time>
   <time name="total">  254.40  254.40</time>
   <energy>
    <i name="e_fr_energy">   -174.48420008 </i>
    <i name="e_wo_entrp">   -174.39079242 </i>
    <i name="e_0_energy">   -174.46084816 </i>
   </energy>
  </scstep>
  <scstep>
   <time name="diag">   57.31   57.31</time>
   <time name="diis">  152.59  152.59</time>
   <time name="orth">   11.06   11.06</time>
   <time name="total">  254.53  254.53</time>
   <energy>
    <i name="e_fr_energy">   -174.48084688 </i>
    <i name="e_wo_entrp">   -174.38110716 </i>
    <i name="e_0_energy">   -174.45591195 </i>
   </energy>
  </scstep>
  <scstep>
   <time name="diag">   57.38   57.38</time>
   <time name="diis">  152.27  152.27</time>
   <time name="orth">   11.14   11.14</time>
   <time name="total">  254.27  254.28</time>
   <energy>
    <i name="e_fr_energy">   -174.46836258 </i>
    <i name="e_wo_entrp">   -174.36679411 </i>
    <i name="e_0_energy">   -174.44297046 </i>
   </energy>
  </scstep>
  <scstep>
   <time name="diag">   57.56   57.56</time>
   <time name="diis">  151.53  151.53</time>
   <time name="orth">   11.15   11.15</time>
   <time name="total">  253.76  253.77</time>
   <energy>
    <i name="e_fr_energy">   -174.46611432 </i>
    <i name="e_wo_entrp">   -174.35904386 </i>
    <i name="e_0_energy">   -174.43934670 </i>
   </energy>
  </scstep>
  <scstep>
   <time name="diag">   57.43   57.43</time>
   <time name="diis">  151.63  151.63</time>
   <time name="orth">   11.23   11.23</time>
   <time name="total">  254.28  254.28</time>
   <energy>
    <i name="e_fr_energy">   -174.46809569 </i>
    <i name="e_wo_entrp">   -174.35925696 </i>
    <i name="e_0_energy">   -174.44088601 </i>
   </energy>
  </scstep>
  <scstep>
   <time name="diag">   57.40   57.40</time>
   <time name="diis">  151.51  151.51</time>
   <time name="orth">   11.27   11.27</time>
   <time name="total">  254.16  254.16</time>
   <energy>
    <i name="e_fr_energy">   -174.46562396 </i>
    <i name="e_wo_entrp">   -174.35907970 </i>
    <i name="e_0_energy">   -174.43898790 </i>
   </energy>
  </scstep>
  <scstep>
   <time name="diag">   57.44   57.44</time>
   <time name="diis">  151.47  151.47</time>
   <time name="orth">   11.24   11.24</time>
   <time name="total">  254.05  254.05</time>
   <energy>
    <i name="e_fr_energy">   -174.46663129 </i>
    <i name="e_wo_entrp">   -174.35885047 </i>
    <i name="e_0_energy">   -174.43968608 </i>
   </energy>
  </scstep>
  <scstep>
   <time name="diag">   57.48   57.48</time>
   <time name="diis">  151.52  151.52</time>
   <time name="orth">   11.24   11.24</time>
   <time name="total">  254.24  254.24</time>
   <energy>
    <i name="e_fr_energy">   -174.47000687 </i>
    <i name="e_wo_entrp">   -174.36139075 </i>
    <i name="e_0_energy">   -174.44285284 </i>
   </energy>
  </scstep>
  <scstep>
   <time name="diag">   57.35   57.35</time>
   <time name="diis">  150.85  150.85</time>
   <time name="orth">   11.22   11.22</time>
   <time name="total">  253.51  253.51</time>
   <energy>
    <i name="e_fr_energy">   -174.47063844 </i>
    <i name="e_wo_entrp">   -174.36387785 </i>
    <i name="e_0_energy">   -174.44394829 </i>
   </energy>
  </scstep>
  <scstep>
   <time name="diag">   57.32   57.32</time>
   <time name="diis">  146.69  146.69</time>
   <time name="orth">   11.20   11.20</time>
   <time name="total">  249.47  249.47</time>
   <energy>
    <i name="e_fr_energy">   -174.47243329 </i>
    <i name="e_wo_entrp">   -174.36498376 </i>
    <i name="e_0_energy">   -174.44557090 </i>
   </energy>
  </scstep>
  <scstep>
   <time name="diag">   60.42   60.42</time>
   <time name="diis">  130.05  130.05</time>
   <time name="orth">   11.46   11.46</time>
   <time name="total">  237.40  237.40</time>
   <energy>
    <i name="e_fr_energy">   -174.47513196 </i>
    <i name="e_wo_entrp">   -174.36821465 </i>
    <i name="e_0_energy">   -174.44840263 </i>
   </energy>
  </scstep>
  <scstep>
   <time name="diag">   57.79   57.79</time>
   <time name="diis">  109.05  109.05</time>
   <time name="orth">   11.46   11.46</time>
   <time name="total">  214.24  214.24</time>
   <energy>
    <i name="e_fr_energy">   -174.47698824 </i>
    <i name="e_wo_entrp">   -174.36861187 </i>
    <i name="e_0_energy">   -174.44989414 </i>
   </energy>
  </scstep>
  <scstep>
   <time name="diag">   57.92   57.92</time>
   <time name="diis">   99.84   99.84</time>
   <time name="orth">   11.44   11.44</time>
   <time name="total">  204.31  204.32</time>
   <energy>
    <i name="e_fr_energy">   -174.47875432 </i>
    <i name="e_wo_entrp">   -174.37070688 </i>
    <i name="e_0_energy">   -174.45174246 </i>
   </energy>
  </scstep>
  <scstep>
   <time name="diag">   57.43   57.43</time>
   <time name="diis">  112.29  112.29</time>
   <time name="orth">   11.38   11.38</time>
   <time name="total">  216.78  216.78</time>
   <energy>
    <i name="e_fr_energy">   -174.48175917 </i>
    <i name="e_wo_entrp">   -174.37522329 </i>
    <i name="e_0_energy">   -174.45512520 </i>
   </energy>
  </scstep>
  <scstep>
   <time name="diag">   57.96   57.96</time>
   <time name="diis">   98.28   98.28</time>
   <time name="orth">   11.26   11.26</time>
   <time name="total">  203.45  203.45</time>
   <energy>
    <i name="e_fr_energy">   -174.48317082 </i>
    <i name="e_wo_entrp">   -174.37613293 </i>
    <i name="e_0_energy">   -174.45641135 </i>
   </energy>
  </scstep>
  <scstep>
   <time name="diag">   57.66   57.66</time>
   <time name="diis">  110.29  110.29</time>
   <time name="orth">   11.48   11.48</time>
   <time name="total">  215.53  215.53</time>
   <energy>
    <i name="e_fr_energy">   -174.48580146 </i>
    <i name="e_wo_entrp">   -174.37827248 </i>
    <i name="e_0_energy">   -174.45891922 </i>
   </energy>
  </scstep>
  <scstep>
   <time name="diag">   58.14   58.14</time>
   <time name="diis">  107.51  107.52</time>
   <time name="orth">   11.27   11.27</time>
   <time name="total">  213.45  213.45</time>
   <energy>
    <i name="e_fr_energy">   -174.48781787 </i>
    <i name="e_wo_entrp">   -174.38042329 </i>
    <i name="e_0_energy">   -174.46096923 </i>
   </energy>
  </scstep>
  <scstep>
   <time name="diag">   57.24   57.25</time>
   <time name="diis">  100.29  100.29</time>
   <time name="orth">   11.48   11.48</time>
   <time name="total">  205.71  205.72</time>
   <energy>
    <i name="e_fr_energy">   -174.48845582 </i>
    <i name="e_wo_entrp">   -174.38109948 </i>
    <i name="e_0_energy">   -174.46161673 </i>
   </energy>
  </scstep>
  <scstep>
   <time name="diag">   58.32   58.32</time>
   <time name="diis">  100.08  100.08</time>
   <time name="orth">   11.18   11.18</time>
   <time name="total">  206.17  206.18</time>
   <energy>
    <i name="e_fr_energy">   -174.48993265 </i>
    <i name="e_wo_entrp">   -174.38317321 </i>
    <i name="e_0_energy">   -174.46324279 </i>
   </energy>
  </scstep>
  <scstep>
   <time name="diag">   57.22   57.22</time>
   <time name="diis">   98.59   98.59</time>
   <time name="orth">   11.25   11.25</time>
   <time name="total">  203.47  203.48</time>
   <energy>
    <i name="e_fr_energy">   -174.49052172 </i>
    <i name="e_wo_entrp">   -174.38350105 </i>
    <i name="e_0_energy">   -174.46376655 </i>
   </energy>
  </scstep>
  <scstep>
   <time name="diag">   57.20   57.20</time>
   <time name="diis">   97.29   97.30</time>
   <time name="orth">   11.19   11.19</time>
   <time name="total">  201.74  201.75</time>
   <energy>
    <i name="e_fr_energy">   -174.49135500 </i>
    <i name="e_wo_entrp">   -174.38426093 </i>
    <i name="e_0_energy">   -174.46458149 </i>
   </energy>
  </scstep>
  <scstep>
   <time name="diag">   58.02   58.02</time>
   <time name="diis">   96.15   96.15</time>
   <time name="orth">   11.48   11.48</time>
   <time name="total">  202.37  202.38</time>
   <energy>
    <i name="e_fr_energy">   -174.49171846 </i>
    <i name="e_wo_entrp">   -174.38459784 </i>
    <i name="e_0_energy">   -174.46493831 </i>
   </energy>
  </scstep>
  <scstep>
   <time name="diag">   58.37   58.37</time>
   <time name="diis">   88.36   88.36</time>
   <time name="orth">   11.18   11.18</time>
   <time name="total">  194.66  194.67</time>
   <energy>
    <i name="e_fr_energy">   -174.49215753 </i>
    <i name="e_wo_entrp">   -174.38515022 </i>
    <i name="e_0_energy">   -174.46540570 </i>
   </energy>
  </scstep>
  <scstep>
   <time name="diag">   57.80   57.80</time>
   <time name="diis">   87.04   87.04</time>
   <time name="orth">   11.18   11.18</time>
   <time name="total">  192.15  192.16</time>
   <energy>
    <i name="e_fr_energy">   -174.49268772 </i>
    <i name="e_wo_entrp">   -174.38574792 </i>
    <i name="e_0_energy">   -174.46595277 </i>
   </energy>
  </scstep>
  <scstep>
   <time name="diag">   58.10   58.10</time>
   <time name="diis">   69.75   69.75</time>
   <time name="orth">   11.15   11.15</time>
   <time name="total">  175.21  175.21</time>
   <energy>
    <i name="e_fr_energy">   -174.49285670 </i>
    <i name="e_wo_entrp">   -174.38593591 </i>
    <i name="e_0_energy">   -174.46612651 </i>
   </energy>
  </scstep>
  <scstep>
   <time name="diag">   58.00   58.01</time>
   <time name="diis">   76.24   76.24</time>
   <time name="orth">   11.08   11.08</time>
   <time name="total">  181.28  181.29</time>
   <energy>
    <i name="e_fr_energy">   -174.49319195 </i>
    <i name="e_wo_entrp">   -174.38627997 </i>
    <i name="e_0_energy">   -174.46646395 </i>
   </energy>
  </scstep>
  <scstep>
   <time name="diag">   57.59   57.59</time>
   <time name="diis">   60.13   60.13</time>
   <time name="orth">   11.18   11.18</time>
   <time name="total">  140.08  140.09</time>
   <energy>
    <i name="alphaZ">     75.25431677 </i>
    <i name="ewald"> 137810.38805210 </i>
    <i name="hartreedc">-182171.84830145 </i>
    <i name="XCdc">  -1692.91868322 </i>
    <i name="pawpsdc">  46060.44356447 </i>
    <i name="pawaedc"> -42530.27758568 </i>
    <i name="eentropy">     -0.10699902 </i>
    <i name="bandstr">  -2811.93303295 </i>
    <i name="atom">  45086.50549395 </i>
    <i name="e_fr_energy">   -174.49317503 </i>
    <i name="e_wo_entrp">   -174.38617601 </i>
    <i name="e_0_energy">   -174.46642527 </i>
   </energy>
  </scstep>
  <structure>
   <crystal>
    <varray name="basis" >
     <v>      30.00000000       0.00000000       0.00000000 </v>
     <v>       0.00000000      30.00000000       0.00000000 </v>
     <v>       0.00000000       0.00000000      30.00000000 </v>
    </varray>
    <i name="volume">  27000.00000000 </i>
    <varray name="rec_basis" >
     <v>       0.03333333       0.00000000       0.00000000 </v>
     <v>       0.00000000       0.03333333       0.00000000 </v>
     <v>       0.00000000       0.00000000       0.03333333 </v>
    </varray>
   </crystal>
   <varray name="positions" >
    <v>       0.44576020       0.32826710       0.41691983 </v>
    <v>       0.67173288       0.55423978       0.41691983 </v>
    <v>       0.55423980       0.32826710       0.41691983 </v>
    <v>       0.32826712       0.55423978       0.41691983 </v>
    <v>       0.50000000       0.38250690       0.34021317 </v>
    <v>       0.50000000       0.38250690       0.65978680 </v>
    <v>       0.50000000       0.27609440       0.50000000 </v>
    <v>       0.27609443       0.49999998       0.50000000 </v>
    <v>       0.72390557       0.49999998       0.50000000 </v>
    <v>       0.50000000       0.72390555       0.50000000 </v>
    <v>       0.61195280       0.38804720       0.34167483 </v>
    <v>       0.61195280       0.38804720       0.65832513 </v>
    <v>       0.38804722       0.61195278       0.34167483 </v>
    <v>       0.38804722       0.61195278       0.65832513 </v>
    <v>       0.38804720       0.38804720       0.34167483 </v>
    <v>       0.38804720       0.38804720       0.65832513 </v>
    <v>       0.61195278       0.61195278       0.34167483 </v>
    <v>       0.61195278       0.61195278       0.65832513 </v>
    <v>       0.44576020       0.32826710       0.58308023 </v>
    <v>       0.67173288       0.55423978       0.58308023 </v>
    <v>       0.55791699       0.44208301       0.41809300 </v>
    <v>       0.32826705       0.44576024       0.41691983 </v>
    <v>       0.55423973       0.67173293       0.41691983 </v>
    <v>       0.55423980       0.32826710       0.58308023 </v>
    <v>       0.32826712       0.55423978       0.58308023 </v>
    <v>       0.67173295       0.44576024       0.41691983 </v>
    <v>       0.44576027       0.67173293       0.41691983 </v>
    <v>       0.44208301       0.44208301       0.41809300 </v>
    <v>       0.50000000       0.38416601       0.50000000 </v>
    <v>       0.61749315       0.50000005       0.34021317 </v>
    <v>       0.61749315       0.50000005       0.65978680 </v>
    <v>       0.38250685       0.50000005       0.34021317 </v>
    <v>       0.38250685       0.50000005       0.65978680 </v>
    <v>       0.38317830       0.38317830       0.50000000 </v>
    <v>       0.61682172       0.61682172       0.50000000 </v>
    <v>       0.61682170       0.38317830       0.50000000 </v>
    <v>       0.38317828       0.61682172       0.50000000 </v>
    <v>       0.50000000       0.50000000       0.33478917 </v>
    <v>       0.50000000       0.50000000       0.66521087 </v>
    <v>       0.32826705       0.44576024       0.58308023 </v>
    <v>       0.55423973       0.67173293       0.58308023 </v>
    <v>       0.55791699       0.44208301       0.58190703 </v>
    <v>       0.44208298       0.55791702       0.41809300 </v>
    <v>       0.44208301       0.44208301       0.58190703 </v>
    <v>       0.67173295       0.44576024       0.58308023 </v>
    <v>       0.44576027       0.67173293       0.58308023 </v>
    <v>       0.55791702       0.55791702       0.41809300 </v>
    <v>       0.38416599       0.50000002       0.50000000 </v>
    <v>       0.61583401       0.50000002       0.50000000 </v>
    <v>       0.50000000       0.61749319       0.34021317 </v>
    <v>       0.50000000       0.61749319       0.65978680 </v>
    <v>       0.50000000       0.50000000       0.50000000 </v>
    <v>       0.44208298       0.55791702       0.58190703 </v>
    <v>       0.55791702       0.55791702       0.58190703 </v>
    <v>       0.50000000       0.61583404       0.50000000 </v>
    <v>       0.44446983       0.33946623       0.29803830 </v>
    <v>       0.43655800       0.31659370       0.26926313 </v>
   </varray>
  </structure>
  <varray name="forces" >
   <v>       0.72280197       1.02886542       0.36855217 </v>
   <v>      -1.10893931      -0.70223645       0.29245666 </v>
   <v>      -0.65377648       1.11488960       0.34339577 </v>
   <v>       1.11072009      -0.72379473       0.27134748 </v>
   <v>      -0.85394525      -0.47105282       0.42330110 </v>
   <v>       0.00045801       0.41520593      -1.27974769 </v>
   <v>      -0.02175468       1.52981939      -0.01530424 </v>
   <v>       1.51130487       0.00781632       0.02614171 </v>
   <v>      -1.52138769       0.00285962       0.00772060 </v>
   <v>      -0.00074193      -1.51724342      -0.00584612 </v>
   <v>      -0.76461145       0.76933946       1.08476579 </v>
   <v>      -0.75479294       0.75867498      -1.07347427 </v>
   <v>       0.75780063      -0.75136421       1.07655975 </v>
   <v>       0.75362159      -0.75995909      -1.07499502 </v>
   <v>       1.34999328       0.14505473       0.53273469 </v>
   <v>       0.75451703       0.76119821      -1.07481749 </v>
   <v>      -0.75941015      -0.75498738       1.07408931 </v>
   <v>      -0.75435295      -0.75478634      -1.07128763 </v>
   <v>       0.70578771       1.10616705      -0.29163870 </v>
   <v>      -1.10308316      -0.71158279      -0.30213334 </v>
   <v>       0.08364652      -0.12810373      -0.19651445 </v>
   <v>       1.08214099       0.72857954       0.28293187 </v>
   <v>      -0.70869537      -1.10865181       0.28949150 </v>
   <v>      -0.70187301       1.10822342      -0.29263019 </v>
   <v>       1.10940436      -0.71389885      -0.29274507 </v>
   <v>      -1.11306747       0.69986449       0.29112989 </v>
   <v>       0.71350591      -1.10843933       0.29036243 </v>
   <v>      -0.11291344      -0.03261163      -0.07536900 </v>
   <v>      -0.00050061      -0.22592783       0.00069078 </v>
   <v>      -0.41456998      -0.00388782       1.28547738 </v>
   <v>      -0.41544695      -0.01221049      -1.28562957 </v>
   <v>       0.38300598       0.04987493       1.29706570 </v>
   <v>       0.40796437      -0.00304896      -1.28494751 </v>
   <v>       0.82861009       0.82830342       0.00989352 </v>
   <v>      -0.82852627      -0.82770213      -0.00215452 </v>
   <v>      -0.83891802       0.81886380      -0.01351676 </v>
   <v>       0.83182276      -0.82413322       0.00433975 </v>
   <v>       0.01368702       0.04160161       1.18423931 </v>
   <v>      -0.00069310      -0.00083168      -1.17762650 </v>
   <v>       1.10908435       0.71291783      -0.28803311 </v>
   <v>      -0.70718992      -1.10953795      -0.29265257 </v>
   <v>       0.11614992      -0.10604596       0.16340556 </v>
   <v>      -0.11315126       0.10890879      -0.15666047 </v>
   <v>      -0.11463836      -0.11338108       0.15507838 </v>
   <v>      -1.10271180       0.71079673      -0.28591976 </v>
   <v>       0.70475637      -1.10639618      -0.28998666 </v>
   <v>       0.11133733       0.10700548      -0.16241307 </v>
   <v>      -0.22675925      -0.00068176       0.00599080 </v>
   <v>       0.25282368       0.00892992       0.01905272 </v>
   <v>       0.00249892      -0.40244895       1.29134042 </v>
   <v>      -0.00188436      -0.41159933      -1.28376664 </v>
   <v>       0.00166439      -0.00810858      -0.00311959 </v>
   <v>      -0.11159792       0.11054606       0.15850705 </v>
   <v>       0.10314632       0.11335811       0.15512278 </v>
   <v>       0.00489250       0.22900490      -0.00120136 </v>
   <v>       0.98017875       3.88893338       4.19402077 </v>
   <v>      -0.69739258      -2.51094863      -3.00507435 </v>
  </varray>
  <varray name="stress" >
   <v>      -6.88395186       0.00632204       0.01431912 </v>
   <v>       0.00632202      -6.73819138       0.02963360 </v>
   <v>       0.01431910       0.02963355      -6.67610337 </v>
  </varray>
  <energy>
   <i name="e_fr_energy">   -174.49317503 </i>
   <i name="e_wo_entrp">   -174.46642527 </i>
   <i name="e_0_energy">     -0.10699902 </i>
  </energy>
  <time name="totalsc">14582.4914582.80</time>
  <eigenvalues>
   <array>
    <dimension dim="1">band</dimension>
    <dimension dim="2">kpoint</dimension>
    <dimension dim="3">spin</dimension>
    <field>eigene</field>
    <field>occ</field>
    <set>
     <set comment="spin 1">
      <set comment="kpoint 1">
       <r>  -28.8239    1.0000 </r>
       <r>  -13.4356    1.0000 </r>
       <r>  -11.2219    1.0000 </r>
       <r>  -11.1852    1.0000 </r>
       <r>   -9.7694    1.0000 </r>
       <r>   -6.6450    1.0000 </r>
       <r>   -6.1323    1.0000 </r>
       <r>   -6.1282    1.0000 </r>
       <r>   -6.1129    1.0000 </r>
       <r>   -5.8283    1.0000 </r>
       <r>   -5.8143    1.0000 </r>
       <r>   -5.8073    1.0000 </r>
       <r>   -5.7508    1.0000 </r>
       <r>   -5.7130    1.0000 </r>
       <r>   -5.6931    1.0000 </r>
       <r>   -5.6873    1.0000 </r>
       <r>   -5.6797    1.0000 </r>
       <r>   -5.6458    1.0000 </r>
       <r>   -5.6256    1.0000 </r>
       <r>   -5.6183    1.0000 </r>
       <r>   -5.6177    1.0000 </r>
       <r>   -5.6035    1.0000 </r>
       <r>   -5.5982    1.0000 </r>
       <r>   -5.5801    1.0000 </r>
       <r>   -5.5592    1.0000 </r>
       <r>   -5.5517    1.0000 </r>
       <r>   -5.5494    1.0000 </r>
       <r>   -5.5439    1.0000 </r>
       <r>   -5.5305    1.0000 </r>
       <r>   -5.5238    1.0000 </r>
       <r>   -5.5211    1.0000 </r>
       <r>   -5.5197    1.0000 </r>
       <r>   -5.5180    1.0000 </r>
       <r>   -5.5152    1.0000 </r>
       <r>   -5.5079    1.0000 </r>
       <r>   -5.4956    1.0000 </r>
       <r>   -5.4893    1.0000 </r>
       <r>   -5.4795    1.0000 </r>
       <r>   -5.4759    1.0000 </r>
       <r>   -5.4736    1.0000 </r>
       <r>   -5.4714    1.0000 </r>
       <r>   -5.4699    1.0000 </r>
       <r>   -5.4682    1.0000 </r>
       <r>   -5.4426    1.0000 </r>
       <r>   -5.4377    1.0000 </r>
       <r>   -5.4354    1.0000 </r>
       <r>   -5.4322    1.0000 </r>
       <r>   -5.4298    1.0000 </r>
       <r>   -5.4270    1.0000 </r>
       <r>   -5.4235    1.0000 </r>
       <r>   -5.4220    1.0000 </r>
       <r>   -5.4159    1.0000 </r>
       <r>   -5.4075    1.0000 </r>
       <r>   -5.4062    1.0000 </r>
       <r>   -5.3944    1.0000 </r>
       <r>   -5.3515    1.0000 </r>
       <r>   -5.3432    1.0000 </r>
       <r>   -5.3312    1.0000 </r>
       <r>   -5.3296    1.0000 </r>
       <r>   -5.3278    1.0000 </r>
       <r>   -5.3225    1.0000 </r>
       <r>   -5.3193    1.0000 </r>
       <r>   -5.3098    1.0000 </r>
       <r>   -5.3029    1.0000 </r>
       <r>   -5.3023    1.0000 </r>
       <r>   -5.2945    1.0000 </r>
       <r>   -5.2922    1.0000 </r>
       <r>   -5.2323    1.0000 </r>
       <r>   -5.2255    1.0000 </r>
       <r>   -5.2161    1.0000 </r>
       <r>   -5.2075    1.0000 </r>
       <r>   -5.2029    1.0000 </r>
       <r>   -5.1909    1.0000 </r>
       <r>   -5.1865    1.0000 </r>
       <r>   -5.1835    1.0000 </r>
       <r>   -5.1824    1.0000 </r>
       <r>   -5.1801    1.0000 </r>
       <r>   -5.1670    1.0000 </r>
       <r>   -5.1632    1.0000 </r>
       <r>   -5.1576    1.0000 </r>
       <r>   -5.1427    1.0000 </r>
       <r>   -5.1411    1.0000 </r>
       <r>   -5.1276    1.0000 </r>
       <r>   -5.1208    1.0000 </r>
       <r>   -5.1124    1.0000 </r>
       <r>   -5.1098    1.0000 </r>
       <r>   -5.1075    1.0000 </r>
       <r>   -5.1050    1.0000 </r>
       <r>   -5.0662    1.0000 </r>
       <r>   -5.0645    1.0000 </r>
       <r>   -5.0592    1.0000 </r>
       <r>   -5.0572    1.0000 </r>
       <r>   -5.0560    1.0000 </r>
       <r>   -5.0524    1.0000 </r>
       <r>   -5.0517    1.0000 </r>
       <r>   -5.0368    1.0000 </r>
       <r>   -5.0350    1.0000 </r>
       <r>   -5.0310    1.0000 </r>
       <r>   -5.0272    1.0000 </r>
       <r>   -5.0229    1.0000 </r>
       <r>   -5.0188    1.0000 </r>
       <r>   -5.0133    1.0000 </r>
       <r>   -5.0059    1.0000 </r>
       <r>   -5.0037    1.0000 </r>
       <r>   -5.0012    1.0000 </r>
       <r>   -4.9965    1.0000 </r>
       <r>   -4.9912    1.0000 </r>
       <r>   -4.9868    1.0000 </r>
       <r>   -4.9846    1.0000 </r>
       <r>   -4.9745    1.0000 </r>
       <r>   -4.9731    1.0000 </r>
       <r>   -4.9685    1.0000 </r>
       <r>   -4.9637    1.0000 </r>
       <r>   -4.9589    1.0000 </r>
       <r>   -4.9573    1.0000 </r>
       <r>   -4.9523    1.0000 </r>
       <r>   -4.9445    1.0000 </r>
       <r>   -4.9309    1.0000 </r>
       <r>   -4.9282    1.0000 </r>
       <r>   -4.9214    1.0000 </r>
       <r>   -4.9142    1.0000 </r>
       <r>   -4.9118    1.0000 </r>
       <r>   -4.9072    1.0000 </r>
       <r>   -4.9045    1.0000 </r>
       <r>   -4.9029    1.0000 </r>
       <r>   -4.9006    1.0000 </r>
       <r>   -4.8607    1.0000 </r>
       <r>   -4.8569    1.0000 </r>
       <r>   -4.8489    1.0000 </r>
       <r>   -4.8457    1.0000 </r>
       <r>   -4.8429    1.0000 </r>
       <r>   -4.8418    1.0000 </r>
       <r>   -4.8362    1.0000 </r>
       <r>   -4.8319    1.0000 </r>
       <r>   -4.8286    1.0000 </r>
       <r>   -4.8161    0.9999 </r>
       <r>   -4.8020    0.9999 </r>
       <r>   -4.7963    0.9999 </r>
       <r>   -4.7945    0.9999 </r>
       <r>   -4.7864    0.9999 </r>
       <r>   -4.7736    0.9998 </r>
       <r>   -4.7660    0.9998 </r>
       <r>   -4.7596    0.9998 </r>
       <r>   -4.7480    0.9997 </r>
       <r>   -4.7422    0.9996 </r>
       <r>   -4.7411    0.9996 </r>
       <r>   -4.7268    0.9995 </r>
       <r>   -4.7226    0.9994 </r>
       <r>   -4.7176    0.9994 </r>
       <r>   -4.7044    0.9992 </r>
       <r>   -4.6991    0.9991 </r>
       <r>   -4.6935    0.9990 </r>
       <r>   -4.6879    0.9989 </r>
       <r>   -4.6853    0.9988 </r>
       <r>   -4.6803    0.9987 </r>
       <r>   -4.6787    0.9987 </r>
       <r>   -4.6755    0.9986 </r>
       <r>   -4.6738    0.9986 </r>
       <r>   -4.6687    0.9984 </r>
       <r>   -4.6616    0.9982 </r>
       <r>   -4.6600    0.9982 </r>
       <r>   -4.6540    0.9980 </r>
       <r>   -4.6520    0.9980 </r>
       <r>   -4.6498    0.9979 </r>
       <r>   -4.6477    0.9978 </r>
       <r>   -4.6475    0.9978 </r>
       <r>   -4.6464    0.9978 </r>
       <r>   -4.6420    0.9976 </r>
       <r>   -4.6325    0.9973 </r>
       <r>   -4.6303    0.9972 </r>
       <r>   -4.6185    0.9968 </r>
       <r>   -4.6122    0.9966 </r>
       <r>   -4.6051    0.9963 </r>
       <r>   -4.6001    0.9961 </r>
       <r>   -4.5975    0.9960 </r>
       <r>   -4.5960    0.9960 </r>
       <r>   -4.5937    0.9959 </r>
       <r>   -4.5906    0.9958 </r>
       <r>   -4.5809    0.9955 </r>
       <r>   -4.5773    0.9954 </r>
       <r>   -4.5744    0.9953 </r>
       <r>   -4.5693    0.9952 </r>
       <r>   -4.5657    0.9951 </r>
       <r>   -4.5633    0.9951 </r>
       <r>   -4.5578    0.9951 </r>
       <r>   -4.5538    0.9951 </r>
       <r>   -4.5534    0.9951 </r>
       <r>   -4.5498    0.9951 </r>
       <r>   -4.5484    0.9951 </r>
       <r>   -4.5455    0.9951 </r>
       <r>   -4.5238    0.9960 </r>
       <r>   -4.5132    0.9969 </r>
       <r>   -4.5086    0.9974 </r>
       <r>   -4.5068    0.9976 </r>
       <r>   -4.5046    0.9979 </r>
       <r>   -4.5002    0.9985 </r>
       <r>   -4.4890    1.0004 </r>
       <r>   -4.4876    1.0006 </r>
       <r>   -4.4835    1.0015 </r>
       <r>   -4.4775    1.0029 </r>
       <r>   -4.4722    1.0042 </r>
       <r>   -4.4696    1.0049 </r>
       <r>   -4.4633    1.0068 </r>
       <r>   -4.4611    1.0075 </r>
       <r>   -4.4577    1.0086 </r>
       <r>   -4.4529    1.0102 </r>
       <r>   -4.4496    1.0114 </r>
       <r>   -4.4470    1.0124 </r>
       <r>   -4.4456    1.0129 </r>
       <r>   -4.4384    1.0158 </r>
       <r>   -4.4257    1.0213 </r>
       <r>   -4.4228    1.0226 </r>
       <r>   -4.4187    1.0245 </r>
       <r>   -4.4118    1.0278 </r>
       <r>   -4.4094    1.0290 </r>
       <r>   -4.4080    1.0297 </r>
       <r>   -4.4073    1.0300 </r>
       <r>   -4.4037    1.0317 </r>
       <r>   -4.3986    1.0341 </r>
       <r>   -4.3869    1.0396 </r>
       <r>   -4.3685    1.0469 </r>
       <r>   -4.3675    1.0472 </r>
       <r>   -4.3624    1.0487 </r>
       <r>   -4.3563    1.0502 </r>
       <r>   -4.3472    1.0515 </r>
       <r>   -4.3424    1.0516 </r>
       <r>   -4.3389    1.0515 </r>
       <r>   -4.3373    1.0514 </r>
       <r>   -4.3352    1.0511 </r>
       <r>   -4.3342    1.0510 </r>
       <r>   -4.3330    1.0508 </r>
       <r>   -4.3316    1.0505 </r>
       <r>   -4.3288    1.0498 </r>
       <r>   -4.3270    1.0493 </r>
       <r>   -4.3255    1.0488 </r>
       <r>   -4.3237    1.0482 </r>
       <r>   -4.3211    1.0471 </r>
       <r>   -4.3188    1.0460 </r>
       <r>   -4.3184    1.0458 </r>
       <r>   -4.3128    1.0425 </r>
       <r>   -4.3048    1.0363 </r>
       <r>   -4.3003    1.0320 </r>
       <r>   -4.2919    1.0222 </r>
       <r>   -4.2894    1.0189 </r>
       <r>   -4.2864    1.0147 </r>
       <r>   -4.2855    1.0132 </r>
       <r>   -4.2848    1.0122 </r>
       <r>   -4.2820    1.0078 </r>
       <r>   -4.2793    1.0032 </r>
       <r>   -4.2687    0.9828 </r>
       <r>   -4.2655    0.9757 </r>
       <r>   -4.2616    0.9666 </r>
       <r>   -4.2599    0.9626 </r>
       <r>   -4.2557    0.9517 </r>
       <r>   -4.2546    0.9488 </r>
       <r>   -4.2512    0.9396 </r>
       <r>   -4.2487    0.9323 </r>
       <r>   -4.2474    0.9285 </r>
       <r>   -4.2445    0.9197 </r>
       <r>   -4.2441    0.9187 </r>
       <r>   -4.2432    0.9158 </r>
       <r>   -4.2404    0.9071 </r>
       <r>   -4.2396    0.9045 </r>
       <r>   -4.2388    0.9019 </r>
       <r>   -4.2362    0.8933 </r>
       <r>   -4.2301    0.8718 </r>
       <r>   -4.2259    0.8563 </r>
       <r>   -4.2230    0.8453 </r>
       <r>   -4.2215    0.8396 </r>
       <r>   -4.2198    0.8326 </r>
       <r>   -4.2186    0.8278 </r>
       <r>   -4.2114    0.7982 </r>
       <r>   -4.2017    0.7556 </r>
       <r>   -4.1959    0.7286 </r>
       <r>   -4.1843    0.6726 </r>
       <r>   -4.1799    0.6508 </r>
       <r>   -4.1772    0.6374 </r>
       <r>   -4.1751    0.6265 </r>
       <r>   -4.1734    0.6178 </r>
       <r>   -4.1723    0.6123 </r>
       <r>   -4.1655    0.5766 </r>
       <r>   -4.1577    0.5360 </r>
       <r>   -4.1321    0.4013 </r>
       <r>   -4.1291    0.3857 </r>
       <r>   -4.1279    0.3794 </r>
       <r>   -4.1273    0.3762 </r>
       <r>   -4.1152    0.3156 </r>
       <r>   -4.1147    0.3132 </r>
       <r>   -4.1073    0.2777 </r>
       <r>   -3.9655   -0.0513 </r>
       <r>   -3.8784   -0.0223 </r>
       <r>   -3.8174   -0.0013 </r>
       <r>   -3.8142   -0.0007 </r>
       <r>   -3.7221    0.0046 </r>
       <r>   -3.4981    0.0001 </r>
       <r>   -3.4880    0.0001 </r>
       <r>   -3.4283    0.0000 </r>
       <r>   -3.0764    0.0000 </r>
       <r>   -3.0568    0.0000 </r>
       <r>   -3.0493    0.0000 </r>
       <r>   -3.0377    0.0000 </r>
       <r>   -3.0125    0.0000 </r>
       <r>   -2.9551    0.0000 </r>
       <r>   -2.9327    0.0000 </r>
       <r>   -2.8260    0.0000 </r>
       <r>   -2.5470    0.0000 </r>
       <r>   -2.5214    0.0000 </r>
       <r>   -2.4611    0.0000 </r>
       <r>   -2.3329    0.0000 </r>
       <r>   -2.2484    0.0000 </r>
       <r>   -2.1132    0.0000 </r>
       <r>   -2.0835    0.0000 </r>
       <r>   -2.0662    0.0000 </r>
       <r>   -1.9714    0.0000 </r>
       <r>   -1.9257    0.0000 </r>
       <r>   -1.8786    0.0000 </r>
       <r>   -1.8092    0.0000 </r>
       <r>   -1.7692    0.0000 </r>
       <r>   -1.7094    0.0000 </r>
       <r>   -1.6415    0.0000 </r>
       <r>   -1.6205    0.0000 </r>
       <r>   -1.5638    0.0000 </r>
       <r>   -1.5218    0.0000 </r>
       <r>   -1.4078    0.0000 </r>
       <r>   -1.3305    0.0000 </r>
       <r>   -1.2351    0.0000 </r>
       <r>   -1.1874    0.0000 </r>
       <r>   -1.1134    0.0000 </r>
       <r>   -0.9817    0.0000 </r>
       <r>   -0.9748    0.0000 </r>
       <r>   -0.9504    0.0000 </r>
       <r>   -0.9339    0.0000 </r>
       <r>   -0.9212    0.0000 </r>
       <r>   -0.8628    0.0000 </r>
       <r>   -0.8040    0.0000 </r>
       <r>   -0.6982    0.0000 </r>
      </set>
     </set>
    </set>
   </array>
  </eigenvalues>
  <separator name="orbital magnetization" >
   <v name="MAGDIPOLOUT">      0.00000000      0.00000000      0.00000000</v>
  </separator>
  <dos>
   <i name="efermi">     -4.15091853 </i>
   <total>
    <array>
     <dimension dim="1">gridpoints</dimension>
     <dimension dim="2">spin</dimension>
     <field>energy</field>
     <field>total</field>
     <field>integrated</field>
     <set>
      <set comment="spin 1">
       <r>   -30.8239     0.0000     0.0000 </r>
       <r>   -30.7169     0.0000     0.0000 </r>
       <r>   -30.6098     0.0000     0.0000 </r>
       <r>   -30.5027     0.0000     0.0000 </r>
       <r>   -30.3956     0.0000     0.0000 </r>
       <r>   -30.2885     0.0000     0.0000 </r>
       <r>   -30.1814     0.0000     0.0000 </r>
       <r>   -30.0743     0.0000     0.0000 </r>
       <r>   -29.9673     0.0000     0.0000 </r>
       <r>   -29.8602     0.0000     0.0000 </r>
       <r>   -29.7531     0.0000     0.0000 </r>
       <r>   -29.6460     0.0000     0.0000 </r>
       <r>   -29.5389     0.0002     0.0000 </r>
       <r>   -29.4318     0.0044     0.0005 </r>
       <r>   -29.3247     0.0337     0.0041 </r>
       <r>   -29.2177     0.0522     0.0097 </r>
       <r>   -29.1106    -0.3920    -0.0323 </r>
       <r>   -29.0035    -0.6372    -0.1005 </r>
       <r>   -28.8964     3.8006     0.3065 </r>
       <r>   -28.7893     9.8187     1.3579 </r>
       <r>   -28.6822     6.4292     2.0464 </r>
       <r>   -28.5751     0.1948     2.0673 </r>
       <r>   -28.4681    -0.6728     1.9952 </r>
       <r>   -28.3610    -0.0185     1.9932 </r>
       <r>   -28.2539     0.0525     1.9988 </r>
       <r>   -28.1468     0.0100     1.9999 </r>
       <r>   -28.0397     0.0007     2.0000 </r>
       <r>   -27.9326     0.0000     2.0000 </r>
       <r>   -27.8255     0.0000     2.0000 </r>
       <r>   -27.7185     0.0000     2.0000 </r>
       <r>   -27.6114     0.0000     2.0000 </r>
       <r>   -27.5043     0.0000     2.0000 </r>
       <r>   -27.3972     0.0000     2.0000 </r>
       <r>   -27.2901     0.0000     2.0000 </r>
       <r>   -27.1830     0.0000     2.0000 </r>
       <r>   -27.0759     0.0000     2.0000 </r>
       <r>   -26.9689     0.0000     2.0000 </r>
       <r>   -26.8618     0.0000     2.0000 </r>
       <r>   -26.7547     0.0000     2.0000 </r>
       <r>   -26.6476     0.0000     2.0000 </r>
       <r>   -26.5405     0.0000     2.0000 </r>
       <r>   -26.4334     0.0000     2.0000 </r>
       <r>   -26.3263     0.0000     2.0000 </r>
       <r>   -26.2193     0.0000     2.0000 </r>
       <r>   -26.1122     0.0000     2.0000 </r>
       <r>   -26.0051     0.0000     2.0000 </r>
       <r>   -25.8980     0.0000     2.0000 </r>
       <r>   -25.7909     0.0000     2.0000 </r>
       <r>   -25.6838     0.0000     2.0000 </r>
       <r>   -25.5767     0.0000     2.0000 </r>
       <r>   -25.4697     0.0000     2.0000 </r>
       <r>   -25.3626     0.0000     2.0000 </r>
       <r>   -25.2555     0.0000     2.0000 </r>
       <r>   -25.1484     0.0000     2.0000 </r>
       <r>   -25.0413     0.0000     2.0000 </r>
       <r>   -24.9342     0.0000     2.0000 </r>
       <r>   -24.8271     0.0000     2.0000 </r>
       <r>   -24.7201     0.0000     2.0000 </r>
       <r>   -24.6130     0.0000     2.0000 </r>
       <r>   -24.5059     0.0000     2.0000 </r>
       <r>   -24.3988     0.0000     2.0000 </r>
       <r>   -24.2917     0.0000     2.0000 </r>
       <r>   -24.1846     0.0000     2.0000 </r>
       <r>   -24.0775     0.0000     2.0000 </r>
       <r>   -23.9705     0.0000     2.0000 </r>
       <r>   -23.8634     0.0000     2.0000 </r>
       <r>   -23.7563     0.0000     2.0000 </r>
       <r>   -23.6492     0.0000     2.0000 </r>
       <r>   -23.5421     0.0000     2.0000 </r>
       <r>   -23.4350     0.0000     2.0000 </r>
       <r>   -23.3279     0.0000     2.0000 </r>
       <r>   -23.2209     0.0000     2.0000 </r>
       <r>   -23.1138     0.0000     2.0000 </r>
       <r>   -23.0067     0.0000     2.0000 </r>
       <r>   -22.8996     0.0000     2.0000 </r>
       <r>   -22.7925     0.0000     2.0000 </r>
       <r>   -22.6854     0.0000     2.0000 </r>
       <r>   -22.5783     0.0000     2.0000 </r>
       <r>   -22.4713     0.0000     2.0000 </r>
       <r>   -22.3642     0.0000     2.0000 </r>
       <r>   -22.2571     0.0000     2.0000 </r>
       <r>   -22.1500     0.0000     2.0000 </r>
       <r>   -22.0429     0.0000     2.0000 </r>
       <r>   -21.9358     0.0000     2.0000 </r>
       <r>   -21.8287     0.0000     2.0000 </r>
       <r>   -21.7217     0.0000     2.0000 </r>
       <r>   -21.6146     0.0000     2.0000 </r>
       <r>   -21.5075     0.0000     2.0000 </r>
       <r>   -21.4004     0.0000     2.0000 </r>
       <r>   -21.2933     0.0000     2.0000 </r>
       <r>   -21.1862     0.0000     2.0000 </r>
       <r>   -21.0791     0.0000     2.0000 </r>
       <r>   -20.9721     0.0000     2.0000 </r>
       <r>   -20.8650     0.0000     2.0000 </r>
       <r>   -20.7579     0.0000     2.0000 </r>
       <r>   -20.6508     0.0000     2.0000 </r>
       <r>   -20.5437     0.0000     2.0000 </r>
       <r>   -20.4366     0.0000     2.0000 </r>
       <r>   -20.3295     0.0000     2.0000 </r>
       <r>   -20.2225     0.0000     2.0000 </r>
       <r>   -20.1154     0.0000     2.0000 </r>
       <r>   -20.0083     0.0000     2.0000 </r>
       <r>   -19.9012     0.0000     2.0000 </r>
       <r>   -19.7941     0.0000     2.0000 </r>
       <r>   -19.6870     0.0000     2.0000 </r>
       <r>   -19.5799     0.0000     2.0000 </r>
       <r>   -19.4729     0.0000     2.0000 </r>
       <r>   -19.3658     0.0000     2.0000 </r>
       <r>   -19.2587     0.0000     2.0000 </r>
       <r>   -19.1516     0.0000     2.0000 </r>
       <r>   -19.0445     0.0000     2.0000 </r>
       <r>   -18.9374     0.0000     2.0000 </r>
       <r>   -18.8303     0.0000     2.0000 </r>
       <r>   -18.7233     0.0000     2.0000 </r>
       <r>   -18.6162     0.0000     2.0000 </r>
       <r>   -18.5091     0.0000     2.0000 </r>
       <r>   -18.4020     0.0000     2.0000 </r>
       <r>   -18.2949     0.0000     2.0000 </r>
       <r>   -18.1878     0.0000     2.0000 </r>
       <r>   -18.0807     0.0000     2.0000 </r>
       <r>   -17.9737     0.0000     2.0000 </r>
       <r>   -17.8666     0.0000     2.0000 </r>
       <r>   -17.7595     0.0000     2.0000 </r>
       <r>   -17.6524     0.0000     2.0000 </r>
       <r>   -17.5453     0.0000     2.0000 </r>
       <r>   -17.4382     0.0000     2.0000 </r>
       <r>   -17.3311     0.0000     2.0000 </r>
       <r>   -17.2241     0.0000     2.0000 </r>
       <r>   -17.1170     0.0000     2.0000 </r>
       <r>   -17.0099     0.0000     2.0000 </r>
       <r>   -16.9028     0.0000     2.0000 </r>
       <r>   -16.7957     0.0000     2.0000 </r>
       <r>   -16.6886     0.0000     2.0000 </r>
       <r>   -16.5815     0.0000     2.0000 </r>
       <r>   -16.4745     0.0000     2.0000 </r>
       <r>   -16.3674     0.0000     2.0000 </r>
       <r>   -16.2603     0.0000     2.0000 </r>
       <r>   -16.1532     0.0000     2.0000 </r>
       <r>   -16.0461     0.0000     2.0000 </r>
       <r>   -15.9390     0.0000     2.0000 </r>
       <r>   -15.8319     0.0000     2.0000 </r>
       <r>   -15.7249     0.0000     2.0000 </r>
       <r>   -15.6178     0.0000     2.0000 </r>
       <r>   -15.5107     0.0000     2.0000 </r>
       <r>   -15.4036     0.0000     2.0000 </r>
       <r>   -15.2965     0.0000     2.0000 </r>
       <r>   -15.1894     0.0000     2.0000 </r>
       <r>   -15.0823     0.0000     2.0000 </r>
       <r>   -14.9753     0.0000     2.0000 </r>
       <r>   -14.8682     0.0000     2.0000 </r>
       <r>   -14.7611     0.0000     2.0000 </r>
       <r>   -14.6540     0.0000     2.0000 </r>
       <r>   -14.5469     0.0000     2.0000 </r>
       <r>   -14.4398     0.0000     2.0000 </r>
       <r>   -14.3327     0.0000     2.0000 </r>
       <r>   -14.2257     0.0000     2.0000 </r>
       <r>   -14.1186     0.0006     2.0001 </r>
       <r>   -14.0115     0.0089     2.0010 </r>
       <r>   -13.9044     0.0496     2.0063 </r>
       <r>   -13.7973    -0.0021     2.0061 </r>
       <r>   -13.6902    -0.6324     1.9384 </r>
       <r>   -13.5831     0.0130     1.9398 </r>
       <r>   -13.4761     6.0248     2.5849 </r>
       <r>   -13.3690     9.9192     3.6472 </r>
       <r>   -13.2619     4.2010     4.0970 </r>
       <r>   -13.1548    -0.5578     4.0373 </r>
       <r>   -13.0477    -0.4362     3.9906 </r>
       <r>   -12.9406     0.0461     3.9955 </r>
       <r>   -12.8335     0.0365     3.9994 </r>
       <r>   -12.7265     0.0050     4.0000 </r>
       <r>   -12.6194     0.0003     4.0000 </r>
       <r>   -12.5123     0.0000     4.0000 </r>
       <r>   -12.4052     0.0000     4.0000 </r>
       <r>   -12.2981     0.0000     4.0000 </r>
       <r>   -12.1910     0.0000     4.0000 </r>
       <r>   -12.0839     0.0000     4.0000 </r>
       <r>   -11.9769     0.0001     4.0000 </r>
       <r>   -11.8698     0.0022     4.0002 </r>
       <r>   -11.7627     0.0263     4.0031 </r>
       <r>   -11.6556     0.1120     4.0151 </r>
       <r>   -11.5485    -0.1345     4.0007 </r>
       <r>   -11.4414    -1.4310     3.8474 </r>
       <r>   -11.3343     1.3790     3.9951 </r>
       <r>   -11.2273    14.1828     5.5139 </r>
       <r>   -11.1202    18.7514     7.5219 </r>
       <r>   -11.0131     6.2826     8.1947 </r>
       <r>   -10.9060    -1.3501     8.0501 </r>
       <r>   -10.7989    -0.6425     7.9813 </r>
       <r>   -10.6918     0.1085     7.9929 </r>
       <r>   -10.5847     0.0586     7.9992 </r>
       <r>   -10.4777     0.0076     8.0000 </r>
       <r>   -10.3706     0.0055     8.0006 </r>
       <r>   -10.2635     0.0369     8.0045 </r>
       <r>   -10.1564     0.0451     8.0094 </r>
       <r>   -10.0493    -0.4424     7.9620 </r>
       <r>    -9.9422    -0.5454     7.9036 </r>
       <r>    -9.8351     4.2575     8.3595 </r>
       <r>    -9.7281     9.9304     9.4229 </r>
       <r>    -9.6210     5.9678    10.0620 </r>
       <r>    -9.5139    -0.0107    10.0608 </r>
       <r>    -9.4068    -0.6266     9.9937 </r>
       <r>    -9.2997     0.0000     9.9937 </r>
       <r>    -9.1926     0.0492     9.9990 </r>
       <r>    -9.0855     0.0087     9.9999 </r>
       <r>    -8.9785     0.0006    10.0000 </r>
       <r>    -8.8714     0.0000    10.0000 </r>
       <r>    -8.7643     0.0000    10.0000 </r>
       <r>    -8.6572     0.0000    10.0000 </r>
       <r>    -8.5501     0.0000    10.0000 </r>
       <r>    -8.4430     0.0000    10.0000 </r>
       <r>    -8.3359     0.0000    10.0000 </r>
       <r>    -8.2289     0.0000    10.0000 </r>
       <r>    -8.1218     0.0000    10.0000 </r>
       <r>    -8.0147     0.0000    10.0000 </r>
       <r>    -7.9076     0.0000    10.0000 </r>
       <r>    -7.8005     0.0000    10.0000 </r>
       <r>    -7.6934     0.0000    10.0000 </r>
       <r>    -7.5863     0.0000    10.0000 </r>
       <r>    -7.4793     0.0000    10.0000 </r>
       <r>    -7.3722     0.0002    10.0000 </r>
       <r>    -7.2651     0.0033    10.0004 </r>
       <r>    -7.1580     0.0281    10.0034 </r>
       <r>    -7.0509     0.0606    10.0099 </r>
       <r>    -6.9438    -0.3040     9.9773 </r>
       <r>    -6.8367    -0.7515     9.8968 </r>
       <r>    -6.7297     3.0119    10.2194 </r>
       <r>    -6.6226     9.6015    11.2475 </r>
       <r>    -6.5155     7.3873    12.0386 </r>
       <r>    -6.4084    -0.5780    11.9767 </r>
       <r>    -6.3013    -2.3427    11.7259 </r>
       <r>    -6.1942    12.2740    13.0402 </r>
       <r>    -6.0871    28.6467    16.1079 </r>
       <r>    -5.9801    16.3710    17.8610 </r>
       <r>    -5.8730    10.0423    18.9364 </r>
       <r>    -5.7659    39.5319    23.1697 </r>
       <r>    -5.6588    97.9588    33.6596 </r>
       <r>    -5.5517   206.6104    55.7847 </r>
       <r>    -5.4446   301.3022    88.0498 </r>
       <r>    -5.3375   273.1923   117.3048 </r>
       <r>    -5.2305   210.6649   139.8640 </r>
       <r>    -5.1234   247.3001   166.3463 </r>
       <r>    -5.0163   340.0924   202.7654 </r>
       <r>    -4.9092   356.6543   240.9579 </r>
       <r>    -4.8021   302.0787   273.3062 </r>
       <r>    -4.6950   330.3690   308.6840 </r>
       <r>    -4.5879   412.4837   352.8552 </r>
       <r>    -4.4809   420.5116   397.8859 </r>
       <r>    -4.3738   451.1562   446.1983 </r>
       <r>    -4.2667   552.6373   505.3779 </r>
       <r>    -4.1596   482.3483   557.0305 </r>
       <r>    -4.0525   204.4166   578.9206 </r>
       <r>    -3.9454    21.6432   581.2383 </r>
       <r>    -3.8383    15.1174   582.8571 </r>
       <r>    -3.7313    31.0148   586.1784 </r>
       <r>    -3.6242    16.5364   587.9492 </r>
       <r>    -3.5171    17.7427   589.8492 </r>
       <r>    -3.4100    27.1649   592.7581 </r>
       <r>    -3.3029    10.6578   593.8994 </r>
       <r>    -3.1958    -1.3518   593.7547 </r>
       <r>    -3.0887    27.7563   596.7270 </r>
       <r>    -2.9817    60.9257   603.2513 </r>
       <r>    -2.8746    46.8833   608.2718 </r>
       <r>    -2.7675    14.3184   609.8051 </r>
       <r>    -2.6604     2.1860   610.0392 </r>
       <r>    -2.5533    15.3486   611.6828 </r>
       <r>    -2.4462    28.2228   614.7051 </r>
       <r>    -2.3391    22.5908   617.1242 </r>
       <r>    -2.2321    17.6133   619.0103 </r>
       <r>    -2.1250    25.2089   621.7099 </r>
       <r>    -2.0179    36.0041   625.5654 </r>
       <r>    -1.9108    37.5721   629.5888 </r>
       <r>    -1.8037    36.1329   633.4581 </r>
       <r>    -1.6966    38.3851   637.5686 </r>
       <r>    -1.5895    40.9739   641.9563 </r>
       <r>    -1.4825    33.3563   645.5283 </r>
       <r>    -1.3754    22.9701   647.9881 </r>
       <r>    -1.2683    23.3370   650.4872 </r>
       <r>    -1.1612    24.8835   653.1518 </r>
       <r>    -1.0541    28.8145   656.2374 </r>
       <r>    -0.9470    49.6875   661.5583 </r>
       <r>    -0.8399    55.0591   667.4543 </r>
       <r>    -0.7329    30.8299   670.7557 </r>
       <r>    -0.6258    10.7341   671.9052 </r>
       <r>    -0.5187     1.7174   672.0891 </r>
       <r>    -0.4116    -0.7964   672.0038 </r>
       <r>    -0.3045    -0.1892   671.9836 </r>
       <r>    -0.1974     0.1087   671.9952 </r>
       <r>    -0.0903     0.0396   671.9995 </r>
       <r>     0.0167     0.0047   672.0000 </r>
       <r>     0.1238     0.0003   672.0000 </r>
       <r>     0.2309     0.0000   672.0000 </r>
       <r>     0.3380     0.0000   672.0000 </r>
       <r>     0.4451     0.0000   672.0000 </r>
       <r>     0.5522     0.0000   672.0000 </r>
       <r>     0.6593     0.0000   672.0000 </r>
       <r>     0.7663     0.0000   672.0000 </r>
       <r>     0.8734     0.0000   672.0000 </r>
       <r>     0.9805     0.0000   672.0000 </r>
       <r>     1.0876     0.0000   672.0000 </r>
       <r>     1.1947     0.0000   672.0000 </r>
       <r>     1.3018     0.0000   672.0000 </r>
      </set>
     </set>
    </array>
   </total>
  </dos>
 </calculation>
 <structure name="finalpos" >
  <crystal>
   <varray name="basis" >
    <v>      30.00000000       0.00000000       0.00000000 </v>
    <v>       0.00000000      30.00000000       0.00000000 </v>
    <v>       0.00000000       0.00000000      30.00000000 </v>
   </varray>
   <i name="volume">  27000.00000000 </i>
   <varray name="rec_basis" >
    <v>       0.03333333       0.00000000       0.00000000 </v>
    <v>       0.00000000       0.03333333       0.00000000 </v>
    <v>       0.00000000       0.00000000       0.03333333 </v>
   </varray>
  </crystal>
  <varray name="positions" >
   <v>       0.44576020       0.32826710       0.41691983 </v>
   <v>       0.67173288       0.55423978       0.41691983 </v>
   <v>       0.55423980       0.32826710       0.41691983 </v>
   <v>       0.32826712       0.55423978       0.41691983 </v>
   <v>       0.50000000       0.38250690       0.34021317 </v>
   <v>       0.50000000       0.38250690       0.65978680 </v>
   <v>       0.50000000       0.27609440       0.50000000 </v>
   <v>       0.27609443       0.49999998       0.50000000 </v>
   <v>       0.72390557       0.49999998       0.50000000 </v>
   <v>       0.50000000       0.72390555       0.50000000 </v>
   <v>       0.61195280       0.38804720       0.34167483 </v>
   <v>       0.61195280       0.38804720       0.65832513 </v>
   <v>       0.38804722       0.61195278       0.34167483 </v>
   <v>       0.38804722       0.61195278       0.65832513 </v>
   <v>       0.38804720       0.38804720       0.34167483 </v>
   <v>       0.38804720       0.38804720       0.65832513 </v>
   <v>       0.61195278       0.61195278       0.34167483 </v>
   <v>       0.61195278       0.61195278       0.65832513 </v>
   <v>       0.44576020       0.32826710       0.58308023 </v>
   <v>       0.67173288       0.55423978       0.58308023 </v>
   <v>       0.55791699       0.44208301       0.41809300 </v>
   <v>       0.32826705       0.44576024       0.41691983 </v>
   <v>       0.55423973       0.67173293       0.41691983 </v>
   <v>       0.55423980       0.32826710       0.58308023 </v>
   <v>       0.32826712       0.55423978       0.58308023 </v>
   <v>       0.67173295       0.44576024       0.41691983 </v>
   <v>       0.44576027       0.67173293       0.41691983 </v>
   <v>       0.44208301       0.44208301       0.41809300 </v>
   <v>       0.50000000       0.38416601       0.50000000 </v>
   <v>       0.61749315       0.50000005       0.34021317 </v>
   <v>       0.61749315       0.50000005       0.65978680 </v>
   <v>       0.38250685       0.50000005       0.34021317 </v>
   <v>       0.38250685       0.50000005       0.65978680 </v>
   <v>       0.38317830       0.38317830       0.50000000 </v>
   <v>       0.61682172       0.61682172       0.50000000 </v>
   <v>       0.61682170       0.38317830       0.50000000 </v>
   <v>       0.38317828       0.61682172       0.50000000 </v>
   <v>       0.50000000       0.50000000       0.33478917 </v>
   <v>       0.50000000       0.50000000       0.66521087 </v>
   <v>       0.32826705       0.44576024       0.58308023 </v>
   <v>       0.55423973       0.67173293       0.58308023 </v>
   <v>       0.55791699       0.44208301       0.58190703 </v>
   <v>       0.44208298       0.55791702       0.41809300 </v>
   <v>       0.44208301       0.44208301       0.58190703 </v>
   <v>       0.67173295       0.44576024       0.58308023 </v>
   <v>       0.44576027       0.67173293       0.58308023 </v>
   <v>       0.55791702       0.55791702       0.41809300 </v>
   <v>       0.38416599       0.50000002       0.50000000 </v>
   <v>       0.61583401       0.50000002       0.50000000 </v>
   <v>       0.50000000       0.61749319       0.34021317 </v>
   <v>       0.50000000       0.61749319       0.65978680 </v>
   <v>       0.50000000       0.50000000       0.50000000 </v>
   <v>       0.44208298       0.55791702       0.58190703 </v>
   <v>       0.55791702       0.55791702       0.58190703 </v>
   <v>       0.50000000       0.61583404       0.50000000 </v>
   <v>       0.44446983       0.33946623       0.29803830 </v>
   <v>       0.43655800       0.31659370       0.26926313 </v>
  </varray>
  <varray name="selective"  type="logical" >
   <v type="logical" >  F  F  F </v>
   <v type="logical" >  F  F  F </v>
   <v type="logical" >  F  F  F </v>
   <v type="logical" >  F  F  F </v>
   <v type="logical" >  F  F  F </v>
   <v type="logical" >  F  F  F </v>
   <v type="logical" >  F  F  F </v>
   <v type="logical" >  F  F  F </v>
   <v type="logical" >  F  F  F </v>
   <v type="logical" >  F  F  F </v>
   <v type="logical" >  F  F  F </v>
   <v type="logical" >  F  F  F </v>
   <v type="logical" >  F  F  F </v>
   <v type="logical" >  F  F  F </v>
   <v type="logical" >  F  F  F </v>
   <v type="logical" >  F  F  F </v>
   <v type="logical" >  F  F  F </v>
   <v type="logical" >  F  F  F </v>
   <v type="logical" >  F  F  F </v>
   <v type="logical" >  F  F  F </v>
   <v type="logical" >  F  F  F </v>
   <v type="logical" >  F  F  F </v>
   <v type="logical" >  F  F  F </v>
   <v type="logical" >  F  F  F </v>
   <v type="logical" >  F  F  F </v>
   <v type="logical" >  F  F  F </v>
   <v type="logical" >  F  F  F </v>
   <v type="logical" >  F  F  F </v>
   <v type="logical" >  F  F  F </v>
   <v type="logical" >  F  F  F </v>
   <v type="logical" >  F  F  F </v>
   <v type="logical" >  F  F  F </v>
   <v type="logical" >  F  F  F </v>
   <v type="logical" >  F  F  F </v>
   <v type="logical" >  F  F  F </v>
   <v type="logical" >  F  F  F </v>
   <v type="logical" >  F  F  F </v>
   <v type="logical" >  F  F  F </v>
   <v type="logical" >  F  F  F </v>
   <v type="logical" >  F  F  F </v>
   <v type="logical" >  F  F  F </v>
   <v type="logical" >  F  F  F </v>
   <v type="logical" >  F  F  F </v>
   <v type="logical" >  F  F  F </v>
   <v type="logical" >  F  F  F </v>
   <v type="logical" >  F  F  F </v>
   <v type="logical" >  F  F  F </v>
   <v type="logical" >  F  F  F </v>
   <v type="logical" >  F  F  F </v>
   <v type="logical" >  F  F  F </v>
   <v type="logical" >  F  F  F </v>
   <v type="logical" >  F  F  F </v>
   <v type="logical" >  F  F  F </v>
   <v type="logical" >  F  F  F </v>
   <v type="logical" >  F  F  F </v>
   <v type="logical" >  F  F  F </v>
   <v type="logical" >  F  F  F </v>
  </varray>
  <nose>
   <v>      -3.00000000       0.00000000       0.00010000       0.00010000 </v>
  </nose>
 </structure>
</modeling>
