   57   57    1    1
  0.4736842E+03  0.3000000E-08  0.3000000E-08  0.3000000E-08  0.5000000E-15
  1.000000000000000E-004
  CAR 
 6_Pd100_top_free_z(O)                   
    560      1    336
 
  0.0000000E+00  0.0000000E+00  0.0000000E+00  0.1000000E+01
    1      -28.524037   1.000000
    2      -13.375159   1.000000
    3      -11.560751   1.000000
    4      -11.394644   1.000000
    5       -9.929455   1.000000
    6       -6.632305   1.000000
    7       -6.204340   1.000000
    8       -6.120065   1.000000
    9       -6.117883   1.000000
   10       -6.075070   1.000000
   11       -5.922243   1.000000
   12       -5.803512   1.000000
   13       -5.802270   1.000000
   14       -5.769753   1.000000
   15       -5.731548   1.000000
   16       -5.702256   1.000000
   17       -5.680214   1.000000
   18       -5.676344   1.000000
   19       -5.670419   1.000000
   20       -5.633927   1.000000
   21       -5.618962   1.000000
   22       -5.612070   1.000000
   23       -5.600465   1.000000
   24       -5.593613   1.000000
   25       -5.581760   1.000000
   26       -5.569874   1.000000
   27       -5.562204   1.000000
   28       -5.542555   1.000000
   29       -5.536851   1.000000
   30       -5.532421   1.000000
   31       -5.518705   1.000000
   32       -5.515172   1.000000
   33       -5.507164   1.000000
   34       -5.503183   1.000000
   35       -5.500309   1.000000
   36       -5.495087   1.000000
   37       -5.492209   1.000000
   38       -5.485112   1.000000
   39       -5.478416   1.000000
   40       -5.468446   1.000000
   41       -5.460760   1.000000
   42       -5.457255   1.000000
   43       -5.455262   1.000000
   44       -5.452380   1.000000
   45       -5.444664   1.000000
   46       -5.439554   1.000000
   47       -5.428746   1.000000
   48       -5.420657   1.000000
   49       -5.416803   1.000000
   50       -5.412863   1.000000
   51       -5.409816   1.000000
   52       -5.401467   1.000000
   53       -5.390914   1.000000
   54       -5.390501   1.000000
   55       -5.382164   1.000000
   56       -5.364896   1.000000
   57       -5.349382   1.000000
   58       -5.336797   1.000000
   59       -5.330101   1.000000
   60       -5.315920   1.000000
   61       -5.311166   1.000000
   62       -5.308273   1.000000
   63       -5.304369   1.000000
   64       -5.298245   1.000000
   65       -5.289585   1.000000
   66       -5.285646   1.000000
   67       -5.281342   1.000000
   68       -5.271686   1.000000
   69       -5.229725   1.000000
   70       -5.212418   1.000000
   71       -5.204808   1.000000
   72       -5.198728   1.000000
   73       -5.193225   1.000000
   74       -5.184504   1.000000
   75       -5.172213   1.000000
   76       -5.169326   1.000000
   77       -5.162017   1.000000
   78       -5.158699   1.000000
   79       -5.153175   1.000000
   80       -5.152196   1.000000
   81       -5.137501   1.000000
   82       -5.132160   1.000000
   83       -5.121361   1.000000
   84       -5.114195   1.000000
   85       -5.107169   1.000000
   86       -5.105495   1.000000
   87       -5.095407   1.000000
   88       -5.089854   1.000000
   89       -5.081326   1.000000
   90       -5.073671   1.000000
   91       -5.054451   1.000000
   92       -5.048265   1.000000
   93       -5.044724   1.000000
   94       -5.040434   1.000000
   95       -5.037930   1.000000
   96       -5.036498   1.000000
   97       -5.031029   1.000000
   98       -5.025655   1.000000
   99       -5.016769   1.000000
  100       -5.014136   1.000000
  101       -5.012282   1.000000
  102       -5.003425   1.000000
  103       -4.999233   1.000000
  104       -4.993456   1.000000
  105       -4.989859   1.000000
  106       -4.988867   1.000000
  107       -4.981429   1.000000
  108       -4.978835   1.000000
  109       -4.973966   1.000000
  110       -4.971319   1.000000
  111       -4.963267   1.000000
  112       -4.961788   1.000000
  113       -4.954776   1.000000
  114       -4.948840   1.000000
  115       -4.946784   1.000000
  116       -4.939778   0.999999
  117       -4.933936   0.999999
  118       -4.930804   0.999999
  119       -4.921991   0.999999
  120       -4.915571   0.999998
  121       -4.908890   0.999998
  122       -4.897973   0.999997
  123       -4.894567   0.999997
  124       -4.889761   0.999996
  125       -4.887638   0.999996
  126       -4.886302   0.999996
  127       -4.861740   0.999991
  128       -4.856414   0.999990
  129       -4.855110   0.999989
  130       -4.842465   0.999984
  131       -4.837003   0.999981
  132       -4.832372   0.999978
  133       -4.829052   0.999976
  134       -4.826672   0.999974
  135       -4.817341   0.999966
  136       -4.813679   0.999963
  137       -4.804287   0.999951
  138       -4.794654   0.999936
  139       -4.790340   0.999928
  140       -4.781899   0.999910
  141       -4.776465   0.999897
  142       -4.763892   0.999857
  143       -4.760698   0.999845
  144       -4.753871   0.999817
  145       -4.741890   0.999755
  146       -4.736261   0.999720
  147       -4.730163   0.999678
  148       -4.725004   0.999638
  149       -4.713193   0.999529
  150       -4.707583   0.999469
  151       -4.699771   0.999374
  152       -4.692979   0.999280
  153       -4.687370   0.999194
  154       -4.678004   0.999034
  155       -4.671384   0.998906
  156       -4.670660   0.998891
  157       -4.670077   0.998879
  158       -4.658423   0.998618
  159       -4.657040   0.998584
  160       -4.654334   0.998517
  161       -4.649334   0.998387
  162       -4.644563   0.998255
  163       -4.642969   0.998210
  164       -4.637621   0.998052
  165       -4.635161   0.997976
  166       -4.632316   0.997887
  167       -4.629553   0.997798
  168       -4.627198   0.997720
  169       -4.626180   0.997687
  170       -4.617378   0.997383
  171       -4.613787   0.997255
  172       -4.599739   0.996735
  173       -4.597397   0.996647
  174       -4.591523   0.996426
  175       -4.586751   0.996249
  176       -4.583607   0.996133
  177       -4.579724   0.995994
  178       -4.576469   0.995881
  179       -4.573655   0.995786
  180       -4.567031   0.995576
  181       -4.562968   0.995459
  182       -4.561412   0.995417
  183       -4.555587   0.995277
  184       -4.550239   0.995175
  185       -4.545879   0.995114
  186       -4.543215   0.995088
  187       -4.539594   0.995068
  188       -4.537396   0.995065
  189       -4.532687   0.995084
  190       -4.526423   0.995168
  191       -4.517260   0.995434
  192       -4.507395   0.995943
  193       -4.501015   0.996414
  194       -4.495055   0.996968
  195       -4.493161   0.997168
  196       -4.486042   0.998034
  197       -4.483061   0.998452
  198       -4.477146   0.999383
  199       -4.471834   1.000339
  200       -4.467186   1.001273
  201       -4.460542   1.002772
  202       -4.453353   1.004617
  203       -4.450119   1.005523
  204       -4.448453   1.006009
  205       -4.444929   1.007078
  206       -4.438099   1.009310
  207       -4.432838   1.011172
  208       -4.428660   1.012735
  209       -4.427730   1.013093
  210       -4.424928   1.014192
  211       -4.418662   1.016761
  212       -4.412669   1.019348
  213       -4.403830   1.023358
  214       -4.399413   1.025429
  215       -4.396688   1.026724
  216       -4.392517   1.028721
  217       -4.390693   1.029598
  218       -4.387882   1.030952
  219       -4.379176   1.035120
  220       -4.371145   1.038846
  221       -4.367414   1.040507
  222       -4.358104   1.044356
  223       -4.353332   1.046115
  224       -4.346190   1.048390
  225       -4.337023   1.050530
  226       -4.336555   1.050612
  227       -4.326893   1.051601
  228       -4.323214   1.051590
  229       -4.321698   1.051516
  230       -4.320355   1.051416
  231       -4.318717   1.051248
  232       -4.318049   1.051164
  233       -4.315127   1.050696
  234       -4.310464   1.049582
  235       -4.309761   1.049373
  236       -4.306103   1.048105
  237       -4.305716   1.047952
  238       -4.302965   1.046765
  239       -4.300193   1.045380
  240       -4.294847   1.042145
  241       -4.291291   1.039563
  242       -4.285503   1.034581
  243       -4.279460   1.028296
  244       -4.277028   1.025439
  245       -4.272774   1.019974
  246       -4.270122   1.016260
  247       -4.267397   1.012189
  248       -4.266413   1.010657
  249       -4.264796   1.008063
  250       -4.262830   1.004783
  251       -4.251722   0.983602
  252       -4.250499   0.980987
  253       -4.247871   0.975180
  254       -4.243589   0.965151
  255       -4.239510   0.954940
  256       -4.237482   0.949623
  257       -4.235392   0.943978
  258       -4.232208   0.935052
  259       -4.230202   0.929225
  260       -4.228011   0.922683
  261       -4.227291   0.920494
  262       -4.225211   0.914053
  263       -4.223141   0.907484
  264       -4.221189   0.901136
  265       -4.219794   0.896509
  266       -4.214215   0.877279
  267       -4.207080   0.851017
  268       -4.206552   0.849003
  269       -4.203603   0.837565
  270       -4.201318   0.828490
  271       -4.199167   0.819791
  272       -4.193324   0.795387
  273       -4.186713   0.766487
  274       -4.182977   0.749589
  275       -4.169004   0.683210
  276       -4.168508   0.680770
  277       -4.162019   0.648429
  278       -4.157619   0.626079
  279       -4.157189   0.623883
  280       -4.154594   0.610554
  281       -4.145941   0.565545
  282       -4.141160   0.540408
  283       -4.125172   0.455948
  284       -4.117214   0.414239
  285       -4.112657   0.390623
  286       -4.111460   0.384458
  287       -4.102217   0.337583
  288       -4.094433   0.299316
  289       -3.997017  -0.016092
  290       -3.948699  -0.051200
  291       -3.891613  -0.036888
  292       -3.807436  -0.003003
  293       -3.802452  -0.001840
  294       -3.675834   0.003586
  295       -3.481021   0.000080
  296       -3.477038   0.000072
  297       -3.309383   0.000000
  298       -3.065413   0.000000
  299       -3.045373   0.000000
  300       -3.030389   0.000000
  301       -3.016565   0.000000
  302       -3.001822   0.000000
  303       -2.962339   0.000000
  304       -2.929336   0.000000
  305       -2.771674   0.000000
  306       -2.554950   0.000000
  307       -2.508603   0.000000
  308       -2.381471   0.000000
  309       -2.235420   0.000000
  310       -2.113226   0.000000
  311       -2.102578   0.000000
  312       -2.086944   0.000000
  313       -1.971488   0.000000
  314       -1.953029   0.000000
  315       -1.901857   0.000000
  316       -1.850241   0.000000
  317       -1.834895   0.000000
  318       -1.767968   0.000000
  319       -1.673490   0.000000
  320       -1.622947   0.000000
  321       -1.575818   0.000000
  322       -1.558355   0.000000
  323       -1.447575   0.000000
  324       -1.369470   0.000000
  325       -1.280536   0.000000
  326       -1.158164   0.000000
  327       -1.031188   0.000000
  328       -0.989020   0.000000
  329       -0.970489   0.000000
  330       -0.950583   0.000000
  331       -0.933535   0.000000
  332       -0.914381   0.000000
  333       -0.887520   0.000000
  334       -0.855135   0.000000
  335       -0.791537   0.000000
  336       -0.769417   0.000000
