  57  57   0   0
  0.4736842E+03  0.3000000E-08  0.3000000E-08  0.3000000E-08  0.5000000E-15
  1.000000000000000E-004
  CAR 
 6_Pd100_top_free_z(O)                   
      1.25648269    -30.42167477  301     -4.13403816      1.00000000
    -30.422  0.0000E+00  0.0000E+00
    -30.316  0.0000E+00  0.0000E+00
    -30.210  0.0000E+00  0.0000E+00
    -30.105  0.2623E-27  0.2769E-28
    -29.999  0.1174E-23  0.1240E-24
    -29.894  0.2963E-20  0.3130E-21
    -29.788  0.4207E-17  0.4445E-18
    -29.683  0.3348E-14  0.3540E-15
    -29.577  0.1490E-11  0.1577E-12
    -29.471  0.3672E-09  0.3893E-10
    -29.366  0.4973E-07  0.5290E-08
    -29.260  0.3649E-05  0.3906E-06
    -29.155  0.1416E-03  0.1534E-04
    -29.049  0.2779E-02  0.3088E-03
    -28.943  0.2475E-01  0.2922E-02
    -28.838  0.6391E-01  0.9671E-02
    -28.732 -0.2311E+00 -0.1473E-01
    -28.627 -0.8126E+00 -0.1005E+00
    -28.521  0.2149E+01  0.1264E+00
    -28.415  0.8902E+01  0.1066E+01
    -28.310  0.8263E+01  0.1939E+01
    -28.204  0.1467E+01  0.2094E+01
    -28.099 -0.8174E+00  0.2008E+01
    -27.993 -0.1576E+00  0.1991E+01
    -27.887  0.6427E-01  0.1998E+01
    -27.782  0.2003E-01  0.2000E+01
    -27.676  0.2026E-02  0.2000E+01
    -27.571  0.9485E-04  0.2000E+01
    -27.465  0.2261E-05  0.2000E+01
    -27.359  0.2862E-07  0.2000E+01
    -27.254  0.1967E-09  0.2000E+01
    -27.148  0.7423E-12  0.2000E+01
    -27.043  0.2103E-14  0.2000E+01
    -26.937  0.0000E+00  0.2000E+01
    -26.831  0.0000E+00  0.2000E+01
    -26.726  0.0000E+00  0.2000E+01
    -26.620  0.0000E+00  0.2000E+01
    -26.515  0.0000E+00  0.2000E+01
    -26.409  0.0000E+00  0.2000E+01
    -26.304  0.0000E+00  0.2000E+01
    -26.198  0.0000E+00  0.2000E+01
    -26.092  0.0000E+00  0.2000E+01
    -25.987  0.0000E+00  0.2000E+01
    -25.881  0.0000E+00  0.2000E+01
    -25.776  0.0000E+00  0.2000E+01
    -25.670  0.0000E+00  0.2000E+01
    -25.564  0.0000E+00  0.2000E+01
    -25.459  0.0000E+00  0.2000E+01
    -25.353  0.0000E+00  0.2000E+01
    -25.248  0.0000E+00  0.2000E+01
    -25.142  0.0000E+00  0.2000E+01
    -25.036  0.0000E+00  0.2000E+01
    -24.931  0.0000E+00  0.2000E+01
    -24.825  0.0000E+00  0.2000E+01
    -24.720  0.0000E+00  0.2000E+01
    -24.614  0.0000E+00  0.2000E+01
    -24.508  0.0000E+00  0.2000E+01
    -24.403  0.0000E+00  0.2000E+01
    -24.297  0.0000E+00  0.2000E+01
    -24.192  0.0000E+00  0.2000E+01
    -24.086  0.0000E+00  0.2000E+01
    -23.980  0.0000E+00  0.2000E+01
    -23.875  0.0000E+00  0.2000E+01
    -23.769  0.0000E+00  0.2000E+01
    -23.664  0.0000E+00  0.2000E+01
    -23.558  0.0000E+00  0.2000E+01
    -23.452  0.0000E+00  0.2000E+01
    -23.347  0.0000E+00  0.2000E+01
    -23.241  0.0000E+00  0.2000E+01
    -23.136  0.0000E+00  0.2000E+01
    -23.030  0.0000E+00  0.2000E+01
    -22.925  0.0000E+00  0.2000E+01
    -22.819  0.0000E+00  0.2000E+01
    -22.713  0.0000E+00  0.2000E+01
    -22.608  0.0000E+00  0.2000E+01
    -22.502  0.0000E+00  0.2000E+01
    -22.397  0.0000E+00  0.2000E+01
    -22.291  0.0000E+00  0.2000E+01
    -22.185  0.0000E+00  0.2000E+01
    -22.080  0.0000E+00  0.2000E+01
    -21.974  0.0000E+00  0.2000E+01
    -21.869  0.0000E+00  0.2000E+01
    -21.763  0.0000E+00  0.2000E+01
    -21.657  0.0000E+00  0.2000E+01
    -21.552  0.0000E+00  0.2000E+01
    -21.446  0.0000E+00  0.2000E+01
    -21.341  0.0000E+00  0.2000E+01
    -21.235  0.0000E+00  0.2000E+01
    -21.129  0.0000E+00  0.2000E+01
    -21.024  0.0000E+00  0.2000E+01
    -20.918  0.0000E+00  0.2000E+01
    -20.813  0.0000E+00  0.2000E+01
    -20.707  0.0000E+00  0.2000E+01
    -20.601  0.0000E+00  0.2000E+01
    -20.496  0.0000E+00  0.2000E+01
    -20.390  0.0000E+00  0.2000E+01
    -20.285  0.0000E+00  0.2000E+01
    -20.179  0.0000E+00  0.2000E+01
    -20.073  0.0000E+00  0.2000E+01
    -19.968  0.0000E+00  0.2000E+01
    -19.862  0.0000E+00  0.2000E+01
    -19.757  0.0000E+00  0.2000E+01
    -19.651  0.0000E+00  0.2000E+01
    -19.546  0.0000E+00  0.2000E+01
    -19.440  0.0000E+00  0.2000E+01
    -19.334  0.0000E+00  0.2000E+01
    -19.229  0.0000E+00  0.2000E+01
    -19.123  0.0000E+00  0.2000E+01
    -19.018  0.0000E+00  0.2000E+01
    -18.912  0.0000E+00  0.2000E+01
    -18.806  0.0000E+00  0.2000E+01
    -18.701  0.0000E+00  0.2000E+01
    -18.595  0.0000E+00  0.2000E+01
    -18.490  0.0000E+00  0.2000E+01
    -18.384  0.0000E+00  0.2000E+01
    -18.278  0.0000E+00  0.2000E+01
    -18.173  0.0000E+00  0.2000E+01
    -18.067  0.0000E+00  0.2000E+01
    -17.962  0.0000E+00  0.2000E+01
    -17.856  0.0000E+00  0.2000E+01
    -17.750  0.0000E+00  0.2000E+01
    -17.645  0.0000E+00  0.2000E+01
    -17.539  0.0000E+00  0.2000E+01
    -17.434  0.0000E+00  0.2000E+01
    -17.328  0.0000E+00  0.2000E+01
    -17.222  0.0000E+00  0.2000E+01
    -17.117  0.0000E+00  0.2000E+01
    -17.011  0.0000E+00  0.2000E+01
    -16.906  0.0000E+00  0.2000E+01
    -16.800  0.0000E+00  0.2000E+01
    -16.694  0.0000E+00  0.2000E+01
    -16.589  0.0000E+00  0.2000E+01
    -16.483  0.0000E+00  0.2000E+01
    -16.378  0.0000E+00  0.2000E+01
    -16.272  0.0000E+00  0.2000E+01
    -16.167  0.0000E+00  0.2000E+01
    -16.061  0.0000E+00  0.2000E+01
    -15.955  0.0000E+00  0.2000E+01
    -15.850  0.0000E+00  0.2000E+01
    -15.744  0.6142E-26  0.2000E+01
    -15.639  0.2228E-22  0.2000E+01
    -15.533  0.4554E-19  0.2000E+01
    -15.427  0.5231E-16  0.2000E+01
    -15.322  0.3363E-13  0.2000E+01
    -15.216  0.1206E-10  0.2000E+01
    -15.111  0.2389E-08  0.2000E+01
    -15.005  0.2589E-06  0.2000E+01
    -14.899  0.1509E-04  0.2000E+01
    -14.794  0.4590E-03  0.2000E+01
    -14.688  0.6867E-02  0.2001E+01
    -14.583  0.4286E-01  0.2005E+01
    -14.477  0.3054E-01  0.2009E+01
    -14.371 -0.5109E+00  0.1955E+01
    -14.266 -0.4237E+00  0.1910E+01
    -14.160  0.4671E+01  0.2403E+01
    -14.055  0.9994E+01  0.3458E+01
    -13.949  0.5760E+01  0.4067E+01
    -13.843 -0.6140E-01  0.4060E+01
    -13.738 -0.6271E+00  0.3994E+01
    -13.632 -0.2972E-02  0.3994E+01
    -13.527  0.5069E-01  0.3999E+01
    -13.421  0.9551E-02  0.4000E+01
    -13.315  0.7471E-03  0.4000E+01
    -13.210  0.8794E-03  0.4000E+01
    -13.104  0.1087E-01  0.4001E+01
    -12.999  0.5374E-01  0.4007E+01
    -12.893 -0.2101E-01  0.4005E+01
    -12.788 -0.6714E+00  0.3934E+01
    -12.682  0.1270E+00  0.3947E+01
    -12.576  0.6202E+01  0.4602E+01
    -12.471  0.9919E+01  0.5650E+01
    -12.365  0.4231E+01  0.6096E+01
    -12.260 -0.5202E+00  0.6041E+01
    -12.154 -0.4023E+00  0.5999E+01
    -12.048 -0.3123E-01  0.5996E+01
    -11.943 -0.7168E+00  0.5920E+01
    -11.837  0.6444E+00  0.5988E+01
    -11.732  0.7163E+01  0.6744E+01
    -11.626  0.9597E+01  0.7758E+01
    -11.520  0.3272E+01  0.8103E+01
    -11.415 -0.6879E+00  0.8030E+01
    -11.309 -0.2906E+00  0.8000E+01
    -11.204 -0.1590E+00  0.7983E+01
    -11.098 -0.7848E+00  0.7900E+01
    -10.992  0.2002E+01  0.8112E+01
    -10.887  0.8777E+01  0.9038E+01
    -10.781  0.8407E+01  0.9926E+01
    -10.676  0.1604E+01  0.1010E+02
    -10.570 -0.8201E+00  0.1001E+02
    -10.464 -0.1723E+00  0.9991E+01
    -10.359  0.6448E-01  0.9998E+01
    -10.253  0.2098E-01  0.1000E+02
    -10.148  0.2168E-02  0.1000E+02
    -10.042  0.1033E-03  0.1000E+02
     -9.936  0.2504E-05  0.1000E+02
     -9.831  0.3220E-07  0.1000E+02
     -9.725  0.2247E-09  0.1000E+02
     -9.620  0.8622E-12  0.1000E+02
     -9.514  0.2103E-14  0.1000E+02
     -9.408  0.0000E+00  0.1000E+02
     -9.303  0.0000E+00  0.1000E+02
     -9.197  0.9621E-27  0.1000E+02
     -9.092  0.3951E-23  0.1000E+02
     -8.986  0.9149E-20  0.1000E+02
     -8.881  0.1191E-16  0.1000E+02
     -8.775  0.8688E-14  0.1000E+02
     -8.669  0.3540E-11  0.1000E+02
     -8.564  0.7980E-09  0.1000E+02
     -8.458  0.9866E-07  0.1000E+02
     -8.353  0.6590E-05  0.1000E+02
     -8.247  0.2317E-03  0.1000E+02
     -8.141  0.4077E-02  0.1000E+02
     -8.036  0.3162E-01  0.1000E+02
     -7.930  0.5733E-01  0.1001E+02
     -7.825 -0.3382E+00  0.9974E+01
     -7.719 -0.7316E+00  0.9897E+01
     -7.613  0.3120E+01  0.1023E+02
     -7.508  0.9528E+01  0.1123E+02
     -7.402  0.7335E+01  0.1201E+02
     -7.297  0.8004E+00  0.1209E+02
     -7.191 -0.9610E+00  0.1199E+02
     -7.085 -0.8318E+00  0.1190E+02
     -6.980  0.1869E+01  0.1210E+02
     -6.874  0.8131E+01  0.1296E+02
     -6.769  0.1073E+02  0.1409E+02
     -6.663  0.1016E+02  0.1516E+02
     -6.557  0.9353E+01  0.1615E+02
     -6.452  0.8710E+01  0.1707E+02
     -6.346  0.1014E+02  0.1814E+02
     -6.241  0.2011E+02  0.2027E+02
     -6.135  0.3319E+02  0.2377E+02
     -6.029  0.2958E+02  0.2689E+02
     -5.924  0.1733E+02  0.2872E+02
     -5.818  0.2896E+02  0.3178E+02
     -5.713  0.6604E+02  0.3876E+02
     -5.607  0.1296E+03  0.5244E+02
     -5.502  0.2313E+03  0.7686E+02
     -5.396  0.2923E+03  0.1077E+03
     -5.290  0.2489E+03  0.1340E+03
     -5.185  0.2040E+03  0.1556E+03
     -5.079  0.2582E+03  0.1828E+03
     -4.974  0.3418E+03  0.2189E+03
     -4.868  0.3335E+03  0.2541E+03
     -4.762  0.2885E+03  0.2846E+03
     -4.657  0.3409E+03  0.3206E+03
     -4.551  0.4190E+03  0.3648E+03
     -4.446  0.4212E+03  0.4093E+03
     -4.340  0.4637E+03  0.4583E+03
     -4.234  0.5452E+03  0.5159E+03
     -4.129  0.4333E+03  0.5616E+03
     -4.023  0.1651E+03  0.5790E+03
     -3.918  0.1793E+02  0.5809E+03
     -3.812  0.1770E+02  0.5828E+03
     -3.706  0.2456E+02  0.5854E+03
     -3.601  0.1800E+02  0.5873E+03
     -3.495  0.2506E+02  0.5899E+03
     -3.390  0.1846E+02  0.5919E+03
     -3.284  0.3492E+01  0.5923E+03
     -3.178  0.7751E+01  0.5931E+03
     -3.073  0.3688E+02  0.5970E+03
     -2.967  0.6184E+02  0.6035E+03
     -2.862  0.4000E+02  0.6077E+03
     -2.756  0.3153E+01  0.6081E+03
     -2.650  0.2668E+01  0.6083E+03
     -2.545  0.3059E+02  0.6116E+03
     -2.439  0.3433E+02  0.6152E+03
     -2.334  0.8844E+01  0.6161E+03
     -2.228  0.6241E+01  0.6168E+03
     -2.123  0.2907E+02  0.6199E+03
     -2.017  0.4142E+02  0.6242E+03
     -1.911  0.4191E+02  0.6287E+03
     -1.806  0.3546E+02  0.6324E+03
     -1.700  0.3132E+02  0.6357E+03
     -1.595  0.4619E+02  0.6406E+03
     -1.489  0.4142E+02  0.6450E+03
     -1.383  0.1394E+02  0.6464E+03
     -1.278  0.9875E+01  0.6475E+03
     -1.172  0.1555E+02  0.6491E+03
     -1.067  0.2303E+02  0.6515E+03
     -0.961  0.5574E+02  0.6574E+03
     -0.855  0.7467E+02  0.6653E+03
     -0.750  0.4986E+02  0.6706E+03
     -0.644  0.1551E+02  0.6722E+03
     -0.539 -0.7182E+00  0.6721E+03
     -0.433 -0.1634E+01  0.6720E+03
     -0.327  0.2393E-01  0.6720E+03
     -0.222  0.1902E+00  0.6720E+03
     -0.116  0.4347E-01  0.6720E+03
     -0.011  0.4068E-02  0.6720E+03
      0.095  0.1871E-03  0.6720E+03
      0.201  0.4508E-05  0.6720E+03
      0.306  0.5858E-07  0.6720E+03
      0.412  0.4175E-09  0.6720E+03
      0.517  0.1649E-11  0.6720E+03
      0.623  0.4206E-14  0.6720E+03
      0.729  0.0000E+00  0.6720E+03
      0.834  0.0000E+00  0.6720E+03
      0.940  0.0000E+00  0.6720E+03
      1.045  0.0000E+00  0.6720E+03
      1.151  0.0000E+00  0.6720E+03
      1.256  0.0000E+00  0.6720E+03
