       N       E                     dE             d eps       ncg     rms          rms(c)
DAV:   1     0.438527044645E+04    0.43853E+04   -0.10048E+05   688   0.815E+02
DAV:   2     0.202801112294E+04   -0.23573E+04   -0.21187E+04  1208   0.105E+02
DAV:   3     0.234618164478E+03   -0.17934E+04   -0.16834E+04  1016   0.920E+01
DAV:   4    -0.133390590353E+03   -0.36801E+03   -0.31169E+03   824   0.437E+01
DAV:   5    -0.178849612913E+03   -0.45459E+02   -0.37816E+02  1040   0.146E+01    0.138E+01
RMM:   6    -0.178428382353E+03    0.42123E+00   -0.51133E+01   727   0.852E+00    0.223E+01
RMM:   7    -0.179981229151E+03   -0.15528E+01   -0.19220E+01   862   0.449E+00    0.199E+01
RMM:   8    -0.184581874061E+03   -0.46006E+01   -0.62211E+00   775   0.332E+00    0.281E+01
RMM:   9    -0.182655768818E+03    0.19261E+01   -0.42483E+00   760   0.289E+00    0.254E+01
RMM:  10    -0.179539059938E+03    0.31167E+01   -0.31239E+00   733   0.260E+00    0.212E+01
RMM:  11    -0.178099195168E+03    0.14399E+01   -0.15358E+00   734   0.184E+00    0.184E+01
RMM:  12    -0.176548247806E+03    0.15509E+01   -0.98115E-01   736   0.147E+00    0.137E+01
RMM:  13    -0.176091889986E+03    0.45636E+00   -0.90046E-01   724   0.140E+00    0.118E+01
RMM:  14    -0.176456123529E+03   -0.36423E+00   -0.10103E+00   721   0.147E+00    0.158E+01
RMM:  15    -0.176108166631E+03    0.34796E+00   -0.11251E+00   712   0.156E+00    0.199E+01
RMM:  16    -0.175314494513E+03    0.79367E+00   -0.72730E-01   713   0.126E+00    0.122E+01
RMM:  17    -0.175094702200E+03    0.21979E+00   -0.57535E-01   708   0.112E+00    0.952E+00
RMM:  18    -0.175175164118E+03   -0.80462E-01   -0.47796E-01   716   0.102E+00    0.114E+01
RMM:  19    -0.175115822345E+03    0.59342E-01   -0.30419E-01   708   0.845E-01    0.130E+01
RMM:  20    -0.174907387106E+03    0.20844E+00   -0.29297E-01   706   0.807E-01    0.108E+01
RMM:  21    -0.174785290656E+03    0.12210E+00   -0.23735E-01   700   0.707E-01    0.779E+00
RMM:  22    -0.174724977721E+03    0.60313E-01   -0.21650E-01   710   0.693E-01    0.732E+00
RMM:  23    -0.174671683339E+03    0.53294E-01   -0.18672E-01   704   0.655E-01    0.629E+00
RMM:  24    -0.174594674429E+03    0.77009E-01   -0.14079E-01   698   0.577E-01    0.548E+00
RMM:  25    -0.174477829124E+03    0.11685E+00   -0.79122E-02   700   0.450E-01    0.381E+00
RMM:  26    -0.174430210950E+03    0.47618E-01   -0.53321E-02   695   0.361E-01    0.305E+00
RMM:  27    -0.174405283438E+03    0.24928E-01   -0.42958E-02   695   0.323E-01    0.259E+00
RMM:  28    -0.174397288528E+03    0.79949E-02   -0.30036E-02   694   0.268E-01    0.250E+00
RMM:  29    -0.174377484029E+03    0.19804E-01   -0.20026E-02   695   0.224E-01    0.191E+00
RMM:  30    -0.174362383855E+03    0.15100E-01   -0.14356E-02   696   0.197E-01    0.133E+00
RMM:  31    -0.174360388916E+03    0.19949E-02   -0.88435E-03   693   0.154E-01    0.128E+00
RMM:  32    -0.174353506388E+03    0.68825E-02   -0.65572E-03   693   0.130E-01    0.816E-01
RMM:  33    -0.174351534998E+03    0.19714E-02   -0.37233E-03   690   0.105E-01    0.682E-01
RMM:  34    -0.174352212189E+03   -0.67719E-03   -0.29403E-03   691   0.864E-02    0.733E-01
RMM:  35    -0.174352401270E+03   -0.18908E-03   -0.26228E-03   689   0.827E-02    0.684E-01
RMM:  36    -0.174352302407E+03    0.98863E-04   -0.14321E-03   690   0.637E-02    0.520E-01
RMM:  37    -0.174354173987E+03   -0.18716E-02   -0.13983E-03   686   0.604E-02    0.487E-01
RMM:  38    -0.174355102144E+03   -0.92816E-03   -0.86542E-04   686   0.476E-02    0.330E-01
RMM:  39    -0.174356670699E+03   -0.15686E-02   -0.64068E-04   660   0.409E-02    0.297E-01
RMM:  40    -0.174360067694E+03   -0.33970E-02   -0.85987E-04   678   0.430E-02    0.254E-01
RMM:  41    -0.174361863794E+03   -0.17961E-02   -0.49530E-04   558   0.333E-02    0.181E-01
RMM:  42    -0.174363805880E+03   -0.19421E-02   -0.31843E-04   439   0.270E-02    0.183E-01
RMM:  43    -0.174366491717E+03   -0.26858E-02   -0.37506E-04   479   0.278E-02    0.174E-01
RMM:  44    -0.174367791026E+03   -0.12993E-02   -0.18844E-04   418   0.204E-02    0.124E-01
RMM:  45    -0.174370595967E+03   -0.28049E-02   -0.29978E-04   443   0.223E-02    0.115E-01
RMM:  46    -0.174371983864E+03   -0.13879E-02   -0.18047E-04   419   0.177E-02    0.825E-02
RMM:  47    -0.174373451502E+03   -0.14676E-02   -0.17263E-04   417   0.162E-02    0.989E-02
RMM:  48    -0.174375079637E+03   -0.16281E-02   -0.18638E-04   422   0.162E-02    0.111E-01
RMM:  49    -0.174375671031E+03   -0.59139E-03   -0.98135E-05   417   0.122E-02    0.854E-02
RMM:  50    -0.174376446220E+03   -0.77519E-03   -0.81697E-05   411   0.103E-02    0.478E-02
RMM:  51    -0.174376684495E+03   -0.23828E-03   -0.37064E-05   403   0.722E-03    0.338E-02
RMM:  52    -0.174377095461E+03   -0.41097E-03   -0.21236E-05   339   0.561E-03    0.360E-02
RMM:  53    -0.174377655053E+03   -0.55959E-03   -0.16464E-05   313   0.518E-03    0.175E-02
RMM:  54    -0.174377900374E+03   -0.24532E-03   -0.51475E-06   181   0.411E-03    0.164E-02
RMM:  55    -0.174378537161E+03   -0.63679E-03   -0.17301E-05   301   0.493E-03    0.168E-02
RMM:  56    -0.174378617274E+03   -0.80113E-04   -0.51624E-07   101   0.361E-03
   1 F= -.17437862E+03 E0= -.17435106E+03  d E =-.110228E+00
