<?xml version="1.0" encoding="ISO-8859-1"?>
<modeling>
 <generator>
  <i name="program" type="string">vasp </i>
  <i name="version" type="string">5.4.4.18Apr17-6-g9f103f2a35  </i>
  <i name="subversion" type="string">(build Sep 03 2018 23:53:05) complex            parallel </i>
  <i name="platform" type="string">LinuxIFC </i>
  <i name="date" type="string">2021 11 25 </i>
  <i name="time" type="string">21:50:15 </i>
 </generator>
 <incar>
  <i type="string" name="SYSTEM"> 6_Pd100_top_free_z(O)</i>
  <i type="int" name="ISTART">     0</i>
  <i type="string" name="PREC">normal   			! encut=max(enmax), ngx,y,z</i>
  <i type="string" name="ALGO"> Fast     			! Mix RMM-DIIS and Dav</i>
  <i type="logical" name="ADDGRID"> F  </i>
  <i type="int" name="ISPIN">     1</i>
  <i type="int" name="ICHARG">     2</i>
  <i type="int" name="NELM">   100</i>
  <i type="int" name="NELMIN">     6</i>
  <i type="int" name="IBRION">     2</i>
  <i name="EDIFF">      0.00010000</i>
  <i name="EDIFFG">     -0.05000000</i>
  <i type="int" name="NSW">     0</i>
  <i type="int" name="ISIF">     2</i>
  <i type="int" name="ISYM">     2</i>
  <i name="ENCUT">    400.00000000</i>
  <i type="string" name="LREAL"> Auto     			! Auto or A projection done</i>
  <i type="int" name="ISMEAR">     2</i>
  <i name="SIGMA">      0.20000000</i>
  <i type="logical" name="LWAVE"> F  </i>
  <i type="logical" name="LCHARG"> F  </i>
  <v type="int" name="KPOINT_BSE">    -1     0     0     0</v>
  <i type="int" name="MAXMEM"> 10000</i>
  <i type="int" name="NELM">   100</i>
  <i type="string" name="GGA"> RP         			! Revised PBE</i>
 </incar>
 <structure name="primitive_cell" >
  <crystal>
   <varray name="basis" >
    <v>      30.00000000       0.00000000       0.00000000 </v>
    <v>       0.00000000      30.00000000       0.00000000 </v>
    <v>       0.00000000       0.00000000      30.00000000 </v>
   </varray>
   <i name="volume">  27000.00000000 </i>
   <varray name="rec_basis" >
    <v>       0.03333333       0.00000000       0.00000000 </v>
    <v>       0.00000000       0.03333333       0.00000000 </v>
    <v>       0.00000000       0.00000000       0.03333333 </v>
   </varray>
  </crystal>
  <varray name="positions" >
   <v>       0.44576020       0.32826710       0.41691983 </v>
   <v>      -0.44576020       0.32826710       0.41691983 </v>
   <v>      -0.50000000       0.38250690       0.34021317 </v>
   <v>      -0.50000000       0.27609440      -0.50000000 </v>
   <v>       0.38804720       0.38804720       0.34167483 </v>
   <v>      -0.50000000       0.38416601      -0.50000000 </v>
   <v>       0.44208300       0.44208300       0.41809300 </v>
   <v>       0.38317830       0.38317830      -0.50000000 </v>
   <v>      -0.44208300       0.44208300       0.41809300 </v>
   <v>       0.44576020       0.32826710      -0.41691977 </v>
   <v>       0.32826705       0.44576024       0.41691983 </v>
   <v>      -0.38804720       0.38804720       0.34167483 </v>
   <v>      -0.38317830       0.38317830      -0.50000000 </v>
   <v>      -0.50000000      -0.50000000       0.33478917 </v>
   <v>      -0.50000000      -0.50000000      -0.50000000 </v>
   <v>      -0.44576020       0.32826710      -0.41691977 </v>
   <v>       0.38250685      -0.49999995       0.34021317 </v>
   <v>       0.44208300       0.44208300      -0.41809297 </v>
   <v>       0.38416599      -0.49999998      -0.50000000 </v>
   <v>      -0.44208300       0.44208300      -0.41809297 </v>
   <v>       0.44208298      -0.44208298       0.41809300 </v>
   <v>       0.32826705       0.44576024      -0.41691977 </v>
   <v>      -0.50000000       0.38250690      -0.34021320 </v>
   <v>       0.32826712      -0.44576022       0.41691983 </v>
   <v>      -0.38250685      -0.49999995       0.34021317 </v>
   <v>      -0.32826705       0.44576024       0.41691983 </v>
   <v>       0.27609443       0.49999998      -0.50000000 </v>
   <v>       0.38804720       0.38804720      -0.34167487 </v>
   <v>      -0.38416599      -0.49999998      -0.50000000 </v>
   <v>      -0.44208298      -0.44208298       0.41809300 </v>
   <v>       0.44208298      -0.44208298      -0.41809297 </v>
   <v>      -0.34067670       0.48938290       0.30294093 </v>
   <v>      -0.38804720       0.38804720      -0.34167487 </v>
   <v>       0.38804722      -0.38804722       0.34167483 </v>
   <v>       0.38250685      -0.49999995      -0.34021320 </v>
   <v>       0.32826712      -0.44576022      -0.41691977 </v>
   <v>      -0.32826705       0.44576024      -0.41691977 </v>
   <v>       0.50000000      -0.38250681       0.34021317 </v>
   <v>      -0.50000000      -0.38416596      -0.50000000 </v>
   <v>      -0.44208298      -0.44208298      -0.41809297 </v>
   <v>      -0.50000000      -0.50000000      -0.33478913 </v>
   <v>       0.38317828      -0.38317828      -0.50000000 </v>
   <v>      -0.32826712      -0.44576022       0.41691983 </v>
   <v>      -0.31705757       0.48780897       0.27372760 </v>
   <v>      -0.27609443       0.49999998      -0.50000000 </v>
   <v>      -0.38804722      -0.38804722       0.34167483 </v>
   <v>      -0.38250685      -0.49999995      -0.34021320 </v>
   <v>       0.44576027      -0.32826707       0.41691983 </v>
   <v>      -0.38317828      -0.38317828      -0.50000000 </v>
   <v>      -0.32826712      -0.44576022      -0.41691977 </v>
   <v>      -0.44576027      -0.32826707       0.41691983 </v>
   <v>       0.38804722      -0.38804722      -0.34167487 </v>
   <v>      -0.50000000      -0.38250681      -0.34021320 </v>
   <v>       0.44576027      -0.32826707      -0.41691977 </v>
   <v>      -0.44576027      -0.32826707      -0.41691977 </v>
   <v>      -0.50000000      -0.27609445       0.50000000 </v>
   <v>      -0.38804722      -0.38804722      -0.34167487 </v>
  </varray>
 </structure>
 <varray name="primitive_index" >
  <v type="int" >        1 </v>
  <v type="int" >        3 </v>
  <v type="int" >        5 </v>
  <v type="int" >        7 </v>
  <v type="int" >       15 </v>
  <v type="int" >       29 </v>
  <v type="int" >       28 </v>
  <v type="int" >       34 </v>
  <v type="int" >       21 </v>
  <v type="int" >       19 </v>
  <v type="int" >       22 </v>
  <v type="int" >       11 </v>
  <v type="int" >       36 </v>
  <v type="int" >       38 </v>
  <v type="int" >       52 </v>
  <v type="int" >       24 </v>
  <v type="int" >       32 </v>
  <v type="int" >       44 </v>
  <v type="int" >       48 </v>
  <v type="int" >       42 </v>
  <v type="int" >       43 </v>
  <v type="int" >       40 </v>
  <v type="int" >        6 </v>
  <v type="int" >        4 </v>
  <v type="int" >       30 </v>
  <v type="int" >       26 </v>
  <v type="int" >        8 </v>
  <v type="int" >       16 </v>
  <v type="int" >       49 </v>
  <v type="int" >       47 </v>
  <v type="int" >       53 </v>
  <v type="int" >       56 </v>
  <v type="int" >       12 </v>
  <v type="int" >       13 </v>
  <v type="int" >       33 </v>
  <v type="int" >       25 </v>
  <v type="int" >       45 </v>
  <v type="int" >       50 </v>
  <v type="int" >       55 </v>
  <v type="int" >       54 </v>
  <v type="int" >       39 </v>
  <v type="int" >       37 </v>
  <v type="int" >        2 </v>
  <v type="int" >       57 </v>
  <v type="int" >        9 </v>
  <v type="int" >       17 </v>
  <v type="int" >       31 </v>
  <v type="int" >       27 </v>
  <v type="int" >       35 </v>
  <v type="int" >       20 </v>
  <v type="int" >       23 </v>
  <v type="int" >       14 </v>
  <v type="int" >       51 </v>
  <v type="int" >       46 </v>
  <v type="int" >       41 </v>
  <v type="int" >       10 </v>
  <v type="int" >       18 </v>
 </varray>
 <kpoints>
  <generation param="Monkhorst-Pack">
   <v type="int" name="divisions">       1        1        1 </v>
   <v name="usershift">      0.00000000       0.00000000       0.00000000 </v>
   <v name="genvec1">      1.00000000       0.00000000       0.00000000 </v>
   <v name="genvec2">      0.00000000       1.00000000       0.00000000 </v>
   <v name="genvec3">      0.00000000       0.00000000       1.00000000 </v>
   <v name="shift">      0.00000000       0.00000000       0.00000000 </v>
  </generation>
  <varray name="kpointlist" >
   <v>       0.00000000       0.00000000       0.00000000 </v>
  </varray>
  <varray name="weights" >
   <v>       1.00000000 </v>
  </varray>
 </kpoints>
 <parameters>
  <separator name="general" >
   <i type="string" name="SYSTEM">6_Pd100_top_free_z(O)</i>
   <i type="logical" name="LCOMPAT"> F  </i>
  </separator>
  <separator name="electronic" >
   <i type="string" name="PREC">normal</i>
   <i name="ENMAX">    400.00000000</i>
   <i name="ENAUG">    644.87300000</i>
   <i name="EDIFF">      0.00010000</i>
   <i type="int" name="IALGO">    68</i>
   <i type="int" name="IWAVPR">    10</i>
   <i type="int" name="NBANDS">   336</i>
   <i name="NELECT">    560.00000000</i>
   <i type="int" name="TURBO">     0</i>
   <i type="int" name="IRESTART">     0</i>
   <i type="int" name="NREBOOT">     0</i>
   <i type="int" name="NMIN">     0</i>
   <i name="EREF">      0.00000000</i>
   <separator name="electronic smearing" >
    <i type="int" name="ISMEAR">     2</i>
    <i name="SIGMA">      0.20000000</i>
    <i name="KSPACING">      0.50000000</i>
    <i type="logical" name="KGAMMA"> T  </i>
   </separator>
   <separator name="electronic projectors" >
    <i type="logical" name="LREAL"> T  </i>
    <v name="ROPT">     -0.00050000     -0.00050000     -0.00050000</v>
    <i type="int" name="LMAXPAW">  -100</i>
    <i type="int" name="LMAXMIX">     2</i>
    <i type="logical" name="NLSPLINE"> F  </i>
   </separator>
   <separator name="electronic startup" >
    <i type="int" name="ISTART">     0</i>
    <i type="int" name="ICHARG">     2</i>
    <i type="int" name="INIWAV">     1</i>
   </separator>
   <separator name="electronic spin" >
    <i type="int" name="ISPIN">     1</i>
    <i type="logical" name="LNONCOLLINEAR"> F  </i>
    <v name="MAGMOM">      1.00000000      1.00000000      1.00000000      1.00000000      1.00000000      1.00000000      1.00000000      1.00000000      1.00000000      1.00000000      1.00000000      1.00000000      1.00000000      1.00000000      1.00000000      1.00000000      1.00000000      1.00000000      1.00000000      1.00000000
      1.00000000      1.00000000      1.00000000      1.00000000      1.00000000      1.00000000      1.00000000      1.00000000      1.00000000      1.00000000      1.00000000      1.00000000      1.00000000      1.00000000      1.00000000      1.00000000      1.00000000      1.00000000      1.00000000      1.00000000
      1.00000000      1.00000000      1.00000000      1.00000000      1.00000000      1.00000000      1.00000000      1.00000000      1.00000000      1.00000000      1.00000000      1.00000000      1.00000000      1.00000000      1.00000000      1.00000000      1.00000000</v>
    <i name="NUPDOWN">     -1.00000000</i>
    <i type="logical" name="LSORBIT"> F  </i>
    <v name="SAXIS">      0.00000000      0.00000000      1.00000000</v>
    <i type="logical" name="LSPIRAL"> F  </i>
    <v name="QSPIRAL">      0.00000000      0.00000000      0.00000000</v>
    <i type="logical" name="LZEROZ"> F  </i>
   </separator>
   <separator name="electronic exchange-correlation" >
    <i type="logical" name="LASPH"> F  </i>
    <i type="logical" name="LMETAGGA"> F  </i>
   </separator>
   <separator name="electronic convergence" >
    <i type="int" name="NELM">   100</i>
    <i type="int" name="NELMDL">    -5</i>
    <i type="int" name="NELMIN">     6</i>
    <i name="ENINI">    400.00000000</i>
    <separator name="electronic convergence detail" >
     <i type="logical" name="LDIAG"> T  </i>
     <i type="logical" name="LSUBROT"> F  </i>
     <i name="WEIMIN">      0.00000000</i>
     <i name="EBREAK">      0.00000007</i>
     <i name="DEPER">      0.30000000</i>
     <i type="int" name="NRMM">     4</i>
     <i name="TIME">      0.40000000</i>
    </separator>
   </separator>
   <separator name="electronic mixer" >
    <i name="AMIX">      0.40000000</i>
    <i name="BMIX">      1.00000000</i>
    <i name="AMIN">      0.10000000</i>
    <i name="AMIX_MAG">      1.60000000</i>
    <i name="BMIX_MAG">      1.00000000</i>
    <separator name="electronic mixer details" >
     <i type="int" name="IMIX">     4</i>
     <i type="logical" name="MIXFIRST"> F  </i>
     <i type="int" name="MAXMIX">   -45</i>
     <i name="WC">    100.00000000</i>
     <i type="int" name="INIMIX">     1</i>
     <i type="int" name="MIXPRE">     1</i>
     <i type="int" name="MREMOVE">     5</i>
    </separator>
   </separator>
   <separator name="electronic dipolcorrection" >
    <i type="logical" name="LDIPOL"> F  </i>
    <i type="logical" name="LMONO"> F  </i>
    <i type="int" name="IDIPOL">     0</i>
    <i name="EPSILON">      1.00000000</i>
    <v name="DIPOL">   -100.00000000   -100.00000000   -100.00000000</v>
    <i name="EFIELD">      0.00000000</i>
   </separator>
  </separator>
  <separator name="grids" >
   <i type="int" name="NGX">   150</i>
   <i type="int" name="NGY">   150</i>
   <i type="int" name="NGZ">   150</i>
   <i type="int" name="NGXF">   300</i>
   <i type="int" name="NGYF">   300</i>
   <i type="int" name="NGZF">   300</i>
   <i type="logical" name="ADDGRID"> F  </i>
  </separator>
  <separator name="ionic" >
   <i type="int" name="NSW">     0</i>
   <i type="int" name="IBRION">    -1</i>
   <i type="int" name="MDALGO">     0</i>
   <i type="int" name="ISIF">     2</i>
   <i name="PSTRESS">      0.00000000</i>
   <i name="EDIFFG">     -0.05000000</i>
   <i type="int" name="NFREE">     1</i>
   <i name="POTIM">      0.50000000</i>
   <i name="SMASS">     -3.00000000</i>
   <i name="SCALEE">      1.00000000</i>
  </separator>
  <separator name="ionic md" >
   <i name="TEBEG">      0.00010000</i>
   <i name="TEEND">      0.00010000</i>
   <i type="int" name="NBLOCK">     1</i>
   <i type="int" name="KBLOCK">     1</i>
   <i type="int" name="NPACO">   256</i>
   <i name="APACO">     16.00000000</i>
  </separator>
  <separator name="symmetry" >
   <i type="int" name="ISYM">     2</i>
   <i name="SYMPREC">      0.00001000</i>
  </separator>
  <separator name="dos" >
   <i type="int" name="LORBIT">     0</i>
   <v name="RWIGS">     -1.00000000     -1.00000000     -1.00000000</v>
   <i type="int" name="NEDOS">   301</i>
   <i name="EMIN">     10.00000000</i>
   <i name="EMAX">    -10.00000000</i>
   <i name="EFERMI">      0.00000000</i>
  </separator>
  <separator name="writing" >
   <i type="int" name="NWRITE">     2</i>
   <i type="logical" name="LWAVE"> F  </i>
   <i type="logical" name="LDOWNSAMPLE"> F  </i>
   <i type="logical" name="LCHARG"> F  </i>
   <i type="logical" name="LPARD"> F  </i>
   <i type="logical" name="LVTOT"> F  </i>
   <i type="logical" name="LVHAR"> F  </i>
   <i type="logical" name="LELF"> F  </i>
   <i type="logical" name="LOPTICS"> F  </i>
   <v name="STM">      0.00000000      0.00000000      0.00000000      0.00000000      0.00000000      0.00000000      0.00000000</v>
  </separator>
  <separator name="performance" >
   <i type="int" name="NPAR">     1</i>
   <i type="int" name="NSIM">     4</i>
   <i type="int" name="NBLK">    -1</i>
   <i type="logical" name="LPLANE"> T  </i>
   <i type="logical" name="LSCALAPACK"> T  </i>
   <i type="logical" name="LSCAAWARE"> F  </i>
   <i type="logical" name="LSCALU"> F  </i>
   <i type="logical" name="LASYNC"> F  </i>
   <i type="logical" name="LORBITALREAL"> F  </i>
  </separator>
  <separator name="miscellaneous" >
   <i type="int" name="IDIOT">     3</i>
   <i type="int" name="ISPECIAL">     0</i>
   <i type="logical" name="LMUSIC"> F  </i>
   <v name="POMASS">    106.42000000     12.01100000     16.00000000</v>
   <v name="DARWINR">      0.00000000      0.00000000      0.00000000</v>
   <v name="DARWINV">      1.00000000      1.00000000      1.00000000</v>
   <i type="logical" name="LCORR"> T  </i>
  </separator>
  <i type="logical" name="GGA_COMPAT"> T  </i>
  <i type="logical" name="LBERRY"> F  </i>
  <i type="int" name="ICORELEVEL">     0</i>
  <i type="logical" name="LDAU"> F  </i>
  <i type="int" name="I_CONSTRAINED_M">     0</i>
  <separator name="electronic exchange-correlation" >
   <i type="string" name="GGA">RP</i>
   <i type="int" name="VOSKOWN">     0</i>
   <i type="logical" name="LHFCALC"> F  </i>
   <i type="string" name="PRECFOCK"></i>
   <i type="logical" name="LSYMGRAD"> F  </i>
   <i type="logical" name="LHFONE"> F  </i>
   <i type="logical" name="LRHFCALC"> F  </i>
   <i type="logical" name="LTHOMAS"> F  </i>
   <i type="logical" name="LMODELHF"> F  </i>
   <i name="ENCUT4O">     -1.00000000</i>
   <i type="int" name="EXXOEP">     0</i>
   <i type="int" name="FOURORBIT">     0</i>
   <i name="AEXX">      0.00000000</i>
   <i name="HFALPHA">      0.00000000</i>
   <i name="MCALPHA">      0.00000000</i>
   <i name="ALDAX">      1.00000000</i>
   <i name="AGGAX">      1.00000000</i>
   <i name="ALDAC">      1.00000000</i>
   <i name="AGGAC">      1.00000000</i>
   <i type="int" name="NKREDX">     1</i>
   <i type="int" name="NKREDY">     1</i>
   <i type="int" name="NKREDZ">     1</i>
   <i type="logical" name="SHIFTRED"> F  </i>
   <i type="logical" name="ODDONLY"> F  </i>
   <i type="logical" name="EVENONLY"> F  </i>
   <i type="int" name="LMAXFOCK">     0</i>
   <i type="int" name="NMAXFOCKAE">     0</i>
   <i type="logical" name="LFOCKAEDFT"> F  </i>
   <i name="HFSCREEN">      0.00000000</i>
   <i name="HFSCREENC">      0.00000000</i>
   <i type="int" name="NBANDSGWLOW">     0</i>
  </separator>
  <separator name="vdW DFT" >
   <i type="logical" name="LUSE_VDW"> F  </i>
   <i name="Zab_VDW">     -0.84910000</i>
   <i name="PARAM1">      0.12340000</i>
   <i name="PARAM2">      1.00000000</i>
   <i name="PARAM3">      0.00000000</i>
  </separator>
  <separator name="model GW" >
   <i type="int" name="MODEL_GW">     0</i>
   <i name="MODEL_EPS0">    284.21052632</i>
   <i name="MODEL_ALPHA">      1.00000000</i>
  </separator>
  <separator name="linear response parameters" >
   <i type="logical" name="LEPSILON"> F  </i>
   <i type="logical" name="LRPA"> F  </i>
   <i type="logical" name="LNABLA"> F  </i>
   <i type="logical" name="LVEL"> F  </i>
   <i type="int" name="KINTER">     0</i>
   <i name="CSHIFT">      0.10000000</i>
   <i name="OMEGAMAX">     -1.00000000</i>
   <i name="DEG_THRESHOLD">      0.00200000</i>
   <i name="RTIME">     -0.10000000</i>
   <i name="WPLASMAI">      0.00000000</i>
   <v name="DFIELD">      0.00000000      0.00000000      0.00000000</v>
   <v name="WPLASMA">      0.00000000      0.00000000      0.00000000      0.00000000      0.00000000      0.00000000      0.00000000      0.00000000      0.00000000</v>
  </separator>
  <separator name="orbital magnetization" >
   <i type="logical" name="NUCIND"> F  </i>
   <v name="MAGPOS">      0.00000000      0.00000000      0.00000000</v>
   <i type="logical" name="LNICSALL"> T  </i>
   <i type="logical" name="ORBITALMAG"> F  </i>
   <i type="logical" name="LMAGBLOCH"> F  </i>
   <i type="logical" name="LCHIMAG"> F  </i>
   <i type="logical" name="LGAUGE"> T  </i>
   <i type="int" name="MAGATOM">     0</i>
   <v name="MAGDIPOL">      0.00000000      0.00000000      0.00000000</v>
   <v name="AVECCONST">      0.00000000      0.00000000      0.00000000</v>
  </separator>
  <separator name="response functions" >
   <i type="logical" name="LADDER"> F  </i>
   <i type="logical" name="LRPAFORCE"> F  </i>
   <i type="logical" name="LFXC"> F  </i>
   <i type="logical" name="LHARTREE"> T  </i>
   <i type="int" name="IBSE">     0</i>
   <v type="int" name="KPOINT">    -1     0     0     0</v>
   <i type="logical" name="LTCTE"> F  </i>
   <i type="logical" name="LTETE"> F  </i>
   <i type="logical" name="LTRIPLET"> F  </i>
   <i type="logical" name="LFXCEPS"> F  </i>
   <i type="logical" name="LFXHEG"> F  </i>
   <i type="int" name="NATURALO">     2</i>
   <i type="logical" name="L2ORDER"> F  </i>
   <i type="logical" name="LMP2LT"> F  </i>
   <i type="logical" name="LUSEW"> F  </i>
   <i name="ENCUTGW">     -2.00000000</i>
   <i name="ENCUTGWSOFT">     -2.00000000</i>
   <i name="ENCUTLF">     -1.00000000</i>
   <i type="int" name="LMAXMP2">    -1</i>
   <i name="SCISSOR">      0.00000000</i>
   <i type="int" name="NOMEGA">     0</i>
   <i type="int" name="NOMEGAR">     0</i>
   <i type="int" name="NBANDSGW">    -1</i>
   <i type="int" name="NBANDSO">    -1</i>
   <i type="int" name="NBANDSV">    -1</i>
   <i type="int" name="NELM">   100</i>
   <i type="int" name="NELMHF">     1</i>
   <i type="int" name="DIM">     3</i>
   <i type="int" name="ANTIRES">     0</i>
   <i name="OMEGAMAX">    -30.00000000</i>
   <i name="OMEGAMIN">    -30.00000000</i>
   <i name="OMEGATL">   -200.00000000</i>
   <i type="int" name="OMEGAGRID">   140</i>
   <i name="CSHIFT">     -0.10000000</i>
   <i type="logical" name="SELFENERGY"> F  </i>
   <i type="logical" name="LSPECTRAL"> F  </i>
   <i type="logical" name="LSPECTRALGW"> F  </i>
   <i type="logical" name="LSINGLES"> F  </i>
   <i type="logical" name="LFERMIGW"> F  </i>
   <i type="logical" name="ODDONLYGW"> F  </i>
   <i type="logical" name="EVENONLYGW"> F  </i>
   <i type="int" name="NKREDLFX">     1</i>
   <i type="int" name="NKREDLFY">     1</i>
   <i type="int" name="NKREDLFZ">     1</i>
   <i type="int" name="MAXMEM"> 10000</i>
   <i type="int" name="TELESCOPE">     0</i>
   <i type="int" name="TAUPAR">     1</i>
   <i type="int" name="OMEGAPAR">    -1</i>
   <i name="LAMBDA">      1.00000000</i>
  </separator>
  <separator name="External order field" >
   <i name="OFIELD_KAPPA">      0.00000000</i>
   <v name="OFIELD_K">      0.00000000      0.00000000      0.00000000</v>
   <i name="OFIELD_Q6_NEAR">      0.00000000</i>
   <i name="OFIELD_Q6_FAR">      0.00000000</i>
   <i name="OFIELD_A">      0.00000000</i>
  </separator>
 </parameters>
 <atominfo>
  <atoms>      57 </atoms>
  <types>       3 </types>
  <array name="atoms" >
   <dimension dim="1">ion</dimension>
   <field type="string">element</field>
   <field type="int">atomtype</field>
   <set>
    <rc><c>Pd</c><c>   1</c></rc>
    <rc><c>Pd</c><c>   1</c></rc>
    <rc><c>Pd</c><c>   1</c></rc>
    <rc><c>Pd</c><c>   1</c></rc>
    <rc><c>Pd</c><c>   1</c></rc>
    <rc><c>Pd</c><c>   1</c></rc>
    <rc><c>Pd</c><c>   1</c></rc>
    <rc><c>Pd</c><c>   1</c></rc>
    <rc><c>Pd</c><c>   1</c></rc>
    <rc><c>Pd</c><c>   1</c></rc>
    <rc><c>Pd</c><c>   1</c></rc>
    <rc><c>Pd</c><c>   1</c></rc>
    <rc><c>Pd</c><c>   1</c></rc>
    <rc><c>Pd</c><c>   1</c></rc>
    <rc><c>Pd</c><c>   1</c></rc>
    <rc><c>Pd</c><c>   1</c></rc>
    <rc><c>Pd</c><c>   1</c></rc>
    <rc><c>Pd</c><c>   1</c></rc>
    <rc><c>Pd</c><c>   1</c></rc>
    <rc><c>Pd</c><c>   1</c></rc>
    <rc><c>Pd</c><c>   1</c></rc>
    <rc><c>Pd</c><c>   1</c></rc>
    <rc><c>Pd</c><c>   1</c></rc>
    <rc><c>Pd</c><c>   1</c></rc>
    <rc><c>Pd</c><c>   1</c></rc>
    <rc><c>Pd</c><c>   1</c></rc>
    <rc><c>Pd</c><c>   1</c></rc>
    <rc><c>Pd</c><c>   1</c></rc>
    <rc><c>Pd</c><c>   1</c></rc>
    <rc><c>Pd</c><c>   1</c></rc>
    <rc><c>Pd</c><c>   1</c></rc>
    <rc><c>Pd</c><c>   1</c></rc>
    <rc><c>Pd</c><c>   1</c></rc>
    <rc><c>Pd</c><c>   1</c></rc>
    <rc><c>Pd</c><c>   1</c></rc>
    <rc><c>Pd</c><c>   1</c></rc>
    <rc><c>Pd</c><c>   1</c></rc>
    <rc><c>Pd</c><c>   1</c></rc>
    <rc><c>Pd</c><c>   1</c></rc>
    <rc><c>Pd</c><c>   1</c></rc>
    <rc><c>Pd</c><c>   1</c></rc>
    <rc><c>Pd</c><c>   1</c></rc>
    <rc><c>Pd</c><c>   1</c></rc>
    <rc><c>Pd</c><c>   1</c></rc>
    <rc><c>Pd</c><c>   1</c></rc>
    <rc><c>Pd</c><c>   1</c></rc>
    <rc><c>Pd</c><c>   1</c></rc>
    <rc><c>Pd</c><c>   1</c></rc>
    <rc><c>Pd</c><c>   1</c></rc>
    <rc><c>Pd</c><c>   1</c></rc>
    <rc><c>Pd</c><c>   1</c></rc>
    <rc><c>Pd</c><c>   1</c></rc>
    <rc><c>Pd</c><c>   1</c></rc>
    <rc><c>Pd</c><c>   1</c></rc>
    <rc><c>Pd</c><c>   1</c></rc>
    <rc><c>C </c><c>   2</c></rc>
    <rc><c>O </c><c>   3</c></rc>
   </set>
  </array>
  <array name="atomtypes" >
   <dimension dim="1">type</dimension>
   <field type="int">atomspertype</field>
   <field type="string">element</field>
   <field>mass</field>
   <field>valence</field>
   <field type="string">pseudopotential</field>
   <set>
    <rc><c>  55</c><c>Pd</c><c>    106.42000000</c><c>     10.00000000</c><c>  PAW_PBE Pd 04Jan2005                  </c></rc>
    <rc><c>   1</c><c>C </c><c>     12.01100000</c><c>      4.00000000</c><c>  PAW_PBE C 08Apr2002                   </c></rc>
    <rc><c>   1</c><c>O </c><c>     16.00000000</c><c>      6.00000000</c><c>  PAW_PBE O 08Apr2002                   </c></rc>
   </set>
  </array>
 </atominfo>
 <structure name="initialpos" >
  <crystal>
   <varray name="basis" >
    <v>      30.00000000       0.00000000       0.00000000 </v>
    <v>       0.00000000      30.00000000       0.00000000 </v>
    <v>       0.00000000       0.00000000      30.00000000 </v>
   </varray>
   <i name="volume">  27000.00000000 </i>
   <varray name="rec_basis" >
    <v>       0.03333333       0.00000000       0.00000000 </v>
    <v>       0.00000000       0.03333333       0.00000000 </v>
    <v>       0.00000000       0.00000000       0.03333333 </v>
   </varray>
  </crystal>
  <varray name="positions" >
   <v>       0.44576020       0.32826710       0.41691983 </v>
   <v>       0.67173288       0.55423978       0.41691983 </v>
   <v>       0.55423980       0.32826710       0.41691983 </v>
   <v>       0.32826712       0.55423978       0.41691983 </v>
   <v>       0.50000000       0.38250690       0.34021317 </v>
   <v>       0.50000000       0.38250690       0.65978680 </v>
   <v>       0.50000000       0.27609440       0.50000000 </v>
   <v>       0.27609443       0.49999998       0.50000000 </v>
   <v>       0.72390557       0.49999998       0.50000000 </v>
   <v>       0.50000000       0.72390555       0.50000000 </v>
   <v>       0.61195280       0.38804720       0.34167483 </v>
   <v>       0.61195280       0.38804720       0.65832513 </v>
   <v>       0.38804722       0.61195278       0.34167483 </v>
   <v>       0.38804722       0.61195278       0.65832513 </v>
   <v>       0.38804720       0.38804720       0.34167483 </v>
   <v>       0.38804720       0.38804720       0.65832513 </v>
   <v>       0.61195278       0.61195278       0.34167483 </v>
   <v>       0.61195278       0.61195278       0.65832513 </v>
   <v>       0.44576020       0.32826710       0.58308023 </v>
   <v>       0.67173288       0.55423978       0.58308023 </v>
   <v>       0.55791699       0.44208301       0.41809300 </v>
   <v>       0.32826705       0.44576024       0.41691983 </v>
   <v>       0.55423973       0.67173293       0.41691983 </v>
   <v>       0.55423980       0.32826710       0.58308023 </v>
   <v>       0.32826712       0.55423978       0.58308023 </v>
   <v>       0.67173295       0.44576024       0.41691983 </v>
   <v>       0.44576027       0.67173293       0.41691983 </v>
   <v>       0.44208301       0.44208301       0.41809300 </v>
   <v>       0.50000000       0.38416601       0.50000000 </v>
   <v>       0.61749315       0.50000005       0.34021317 </v>
   <v>       0.61749315       0.50000005       0.65978680 </v>
   <v>       0.38250685       0.50000005       0.34021317 </v>
   <v>       0.38250685       0.50000005       0.65978680 </v>
   <v>       0.38317830       0.38317830       0.50000000 </v>
   <v>       0.61682172       0.61682172       0.50000000 </v>
   <v>       0.61682170       0.38317830       0.50000000 </v>
   <v>       0.38317828       0.61682172       0.50000000 </v>
   <v>       0.50000000       0.50000000       0.33478917 </v>
   <v>       0.50000000       0.50000000       0.66521087 </v>
   <v>       0.32826705       0.44576024       0.58308023 </v>
   <v>       0.55423973       0.67173293       0.58308023 </v>
   <v>       0.55791699       0.44208301       0.58190703 </v>
   <v>       0.44208298       0.55791702       0.41809300 </v>
   <v>       0.44208301       0.44208301       0.58190703 </v>
   <v>       0.67173295       0.44576024       0.58308023 </v>
   <v>       0.44576027       0.67173293       0.58308023 </v>
   <v>       0.55791702       0.55791702       0.41809300 </v>
   <v>       0.38416599       0.50000002       0.50000000 </v>
   <v>       0.61583401       0.50000002       0.50000000 </v>
   <v>       0.50000000       0.61749319       0.34021317 </v>
   <v>       0.50000000       0.61749319       0.65978680 </v>
   <v>       0.50000000       0.50000000       0.50000000 </v>
   <v>       0.44208298       0.55791702       0.58190703 </v>
   <v>       0.55791702       0.55791702       0.58190703 </v>
   <v>       0.50000000       0.61583404       0.50000000 </v>
   <v>       0.65932330       0.48938290       0.30294093 </v>
   <v>       0.68294243       0.48780897       0.27372760 </v>
  </varray>
  <varray name="selective"  type="logical" >
   <v type="logical" >  F  F  F </v>
   <v type="logical" >  F  F  F </v>
   <v type="logical" >  F  F  F </v>
   <v type="logical" >  F  F  F </v>
   <v type="logical" >  F  F  F </v>
   <v type="logical" >  F  F  F </v>
   <v type="logical" >  F  F  F </v>
   <v type="logical" >  F  F  F </v>
   <v type="logical" >  F  F  F </v>
   <v type="logical" >  F  F  F </v>
   <v type="logical" >  F  F  F </v>
   <v type="logical" >  F  F  F </v>
   <v type="logical" >  F  F  F </v>
   <v type="logical" >  F  F  F </v>
   <v type="logical" >  F  F  F </v>
   <v type="logical" >  F  F  F </v>
   <v type="logical" >  F  F  F </v>
   <v type="logical" >  F  F  F </v>
   <v type="logical" >  F  F  F </v>
   <v type="logical" >  F  F  F </v>
   <v type="logical" >  F  F  F </v>
   <v type="logical" >  F  F  F </v>
   <v type="logical" >  F  F  F </v>
   <v type="logical" >  F  F  F </v>
   <v type="logical" >  F  F  F </v>
   <v type="logical" >  F  F  F </v>
   <v type="logical" >  F  F  F </v>
   <v type="logical" >  F  F  F </v>
   <v type="logical" >  F  F  F </v>
   <v type="logical" >  F  F  F </v>
   <v type="logical" >  F  F  F </v>
   <v type="logical" >  F  F  F </v>
   <v type="logical" >  F  F  F </v>
   <v type="logical" >  F  F  F </v>
   <v type="logical" >  F  F  F </v>
   <v type="logical" >  F  F  F </v>
   <v type="logical" >  F  F  F </v>
   <v type="logical" >  F  F  F </v>
   <v type="logical" >  F  F  F </v>
   <v type="logical" >  F  F  F </v>
   <v type="logical" >  F  F  F </v>
   <v type="logical" >  F  F  F </v>
   <v type="logical" >  F  F  F </v>
   <v type="logical" >  F  F  F </v>
   <v type="logical" >  F  F  F </v>
   <v type="logical" >  F  F  F </v>
   <v type="logical" >  F  F  F </v>
   <v type="logical" >  F  F  F </v>
   <v type="logical" >  F  F  F </v>
   <v type="logical" >  F  F  F </v>
   <v type="logical" >  F  F  F </v>
   <v type="logical" >  F  F  F </v>
   <v type="logical" >  F  F  F </v>
   <v type="logical" >  F  F  F </v>
   <v type="logical" >  F  F  F </v>
   <v type="logical" >  F  F  F </v>
   <v type="logical" >  F  F  F </v>
  </varray>
  <nose>
   <v>      -3.00000000       0.00000000       0.00010000       0.00010000 </v>
  </nose>
 </structure>
 <calculation>
  <scstep>
   <time name="dav">  356.12  356.22</time>
   <time name="total">  370.31  370.42</time>
   <energy>
    <i name="alphaZ">     75.25431677 </i>
    <i name="ewald"> 138147.22830359 </i>
    <i name="hartreedc">-181500.71453959 </i>
    <i name="XCdc">  -1702.60670008 </i>
    <i name="pawpsdc">  44873.02882129 </i>
    <i name="pawaedc"> -41398.84523641 </i>
    <i name="eentropy">      0.00045408 </i>
    <i name="bandstr">    816.01330272 </i>
    <i name="atom">  45086.50549395 </i>
    <i name="e_fr_energy">   4395.86421632 </i>
    <i name="e_wo_entrp">   4395.86376224 </i>
    <i name="e_0_energy">   4395.86410280 </i>
   </energy>
  </scstep>
  <scstep>
   <time name="dav">  576.39  576.40</time>
   <time name="total">  576.39  576.41</time>
   <energy>
    <i name="e_fr_energy">   2010.57604219 </i>
    <i name="e_wo_entrp">   2010.63974280 </i>
    <i name="e_0_energy">   2010.59196735 </i>
   </energy>
  </scstep>
  <scstep>
   <time name="dav">  490.48  490.49</time>
   <time name="total">  490.48  490.49</time>
   <energy>
    <i name="e_fr_energy">    226.15990401 </i>
    <i name="e_wo_entrp">    226.11395011 </i>
    <i name="e_0_energy">    226.14841553 </i>
   </energy>
  </scstep>
  <scstep>
   <time name="dav">  424.41  424.41</time>
   <time name="total">  424.41  424.41</time>
   <energy>
    <i name="e_fr_energy">   -135.89902018 </i>
    <i name="e_wo_entrp">   -135.91926598 </i>
    <i name="e_0_energy">   -135.90408163 </i>
   </energy>
  </scstep>
  <scstep>
   <time name="dav">  512.79  512.80</time>
   <time name="total">  539.16  539.16</time>
   <energy>
    <i name="e_fr_energy">   -180.56060181 </i>
    <i name="e_wo_entrp">   -181.05173405 </i>
    <i name="e_0_energy">   -180.68338487 </i>
   </energy>
  </scstep>
  <scstep>
   <time name="diag">   68.24   68.25</time>
   <time name="diis">  196.52  196.54</time>
   <time name="orth">   13.61   13.61</time>
   <time name="total">  318.46  318.49</time>
   <energy>
    <i name="e_fr_energy">   -182.13418793 </i>
    <i name="e_wo_entrp">   -182.08391424 </i>
    <i name="e_0_energy">   -182.12161950 </i>
   </energy>
  </scstep>
  <scstep>
   <time name="diag">   68.31   68.32</time>
   <time name="diis">  233.26  233.27</time>
   <time name="orth">   13.70   13.70</time>
   <time name="total">  354.89  354.91</time>
   <energy>
    <i name="e_fr_energy">   -184.69668752 </i>
    <i name="e_wo_entrp">   -184.65544870 </i>
    <i name="e_0_energy">   -184.68637781 </i>
   </energy>
  </scstep>
  <scstep>
   <time name="diag">   68.85   68.86</time>
   <time name="diis">  201.08  201.10</time>
   <time name="orth">   13.33   13.33</time>
   <time name="total">  323.19  323.22</time>
   <energy>
    <i name="e_fr_energy">   -186.92639629 </i>
    <i name="e_wo_entrp">   -186.79381722 </i>
    <i name="e_0_energy">   -186.89325152 </i>
   </energy>
  </scstep>
  <scstep>
   <time name="diag">   68.81   68.81</time>
   <time name="diis">  197.55  197.57</time>
   <time name="orth">   13.33   13.33</time>
   <time name="total">  319.54  319.57</time>
   <energy>
    <i name="e_fr_energy">   -184.43918749 </i>
    <i name="e_wo_entrp">   -184.36080598 </i>
    <i name="e_0_energy">   -184.41959211 </i>
   </energy>
  </scstep>
  <scstep>
   <time name="diag">   68.78   68.79</time>
   <time name="diis">  199.34  199.35</time>
   <time name="orth">   13.40   13.40</time>
   <time name="total">  321.12  321.15</time>
   <energy>
    <i name="e_fr_energy">   -182.54160401 </i>
    <i name="e_wo_entrp">   -182.59502836 </i>
    <i name="e_0_energy">   -182.55496010 </i>
   </energy>
  </scstep>
  <scstep>
   <time name="diag">   68.76   68.76</time>
   <time name="diis">  197.26  197.27</time>
   <time name="orth">   13.42   13.42</time>
   <time name="total">  319.31  319.34</time>
   <energy>
    <i name="e_fr_energy">   -180.52095710 </i>
    <i name="e_wo_entrp">   -180.37563765 </i>
    <i name="e_0_energy">   -180.48462724 </i>
   </energy>
  </scstep>
  <scstep>
   <time name="diag">   68.64   68.65</time>
   <time name="diis">  191.99  192.00</time>
   <time name="orth">   13.58   13.58</time>
   <time name="total">  314.06  314.09</time>
   <energy>
    <i name="e_fr_energy">   -179.12632428 </i>
    <i name="e_wo_entrp">   -179.09615264 </i>
    <i name="e_0_energy">   -179.11878137 </i>
   </energy>
  </scstep>
  <scstep>
   <time name="diag">   68.58   68.58</time>
   <time name="diis">  195.78  195.79</time>
   <time name="orth">   13.61   13.61</time>
   <time name="total">  317.75  317.78</time>
   <energy>
    <i name="e_fr_energy">   -178.43269214 </i>
    <i name="e_wo_entrp">   -178.38801116 </i>
    <i name="e_0_energy">   -178.42152190 </i>
   </energy>
  </scstep>
  <scstep>
   <time name="diag">   68.30   68.31</time>
   <time name="diis">  194.38  194.40</time>
   <time name="orth">   13.56   13.57</time>
   <time name="total">  316.02  316.05</time>
   <energy>
    <i name="e_fr_energy">   -178.57387765 </i>
    <i name="e_wo_entrp">   -178.79548487 </i>
    <i name="e_0_energy">   -178.62927945 </i>
   </energy>
  </scstep>
  <scstep>
   <time name="diag">   68.41   68.42</time>
   <time name="diis">  190.85  190.86</time>
   <time name="orth">   13.55   13.55</time>
   <time name="total">  312.84  312.87</time>
   <energy>
    <i name="e_fr_energy">   -177.22689183 </i>
    <i name="e_wo_entrp">   -177.23466894 </i>
    <i name="e_0_energy">   -177.22883611 </i>
   </energy>
  </scstep>
  <scstep>
   <time name="diag">   68.42   68.43</time>
   <time name="diis">  190.11  190.14</time>
   <time name="orth">   13.64   13.64</time>
   <time name="total">  312.07  312.11</time>
   <energy>
    <i name="e_fr_energy">   -176.65979503 </i>
    <i name="e_wo_entrp">   -176.68831523 </i>
    <i name="e_0_energy">   -176.66692508 </i>
   </energy>
  </scstep>
  <scstep>
   <time name="diag">   68.51   68.52</time>
   <time name="diis">  195.13  195.15</time>
   <time name="orth">   13.46   13.46</time>
   <time name="total">  317.07  317.10</time>
   <energy>
    <i name="e_fr_energy">   -176.65897018 </i>
    <i name="e_wo_entrp">   -176.74373784 </i>
    <i name="e_0_energy">   -176.68016209 </i>
   </energy>
  </scstep>
  <scstep>
   <time name="diag">   68.23   68.23</time>
   <time name="diis">  189.50  189.51</time>
   <time name="orth">   13.57   13.57</time>
   <time name="total">  311.33  311.36</time>
   <energy>
    <i name="e_fr_energy">   -176.34057745 </i>
    <i name="e_wo_entrp">   -176.23111126 </i>
    <i name="e_0_energy">   -176.31321091 </i>
   </energy>
  </scstep>
  <scstep>
   <time name="diag">   68.17   68.18</time>
   <time name="diis">  190.35  190.37</time>
   <time name="orth">   13.61   13.61</time>
   <time name="total">  312.33  312.36</time>
   <energy>
    <i name="e_fr_energy">   -175.87202295 </i>
    <i name="e_wo_entrp">   -175.74721986 </i>
    <i name="e_0_energy">   -175.84082218 </i>
   </energy>
  </scstep>
  <scstep>
   <time name="diag">   68.48   68.49</time>
   <time name="diis">  191.89  191.90</time>
   <time name="orth">   13.52   13.52</time>
   <time name="total">  314.05  314.08</time>
   <energy>
    <i name="e_fr_energy">   -175.80233309 </i>
    <i name="e_wo_entrp">   -175.77137287 </i>
    <i name="e_0_energy">   -175.79459304 </i>
   </energy>
  </scstep>
  <scstep>
   <time name="diag">   67.84   67.84</time>
   <time name="diis">  192.09  192.10</time>
   <time name="orth">   13.35   13.35</time>
   <time name="total">  313.67  313.70</time>
   <energy>
    <i name="e_fr_energy">   -175.51118540 </i>
    <i name="e_wo_entrp">   -175.40627098 </i>
    <i name="e_0_energy">   -175.48495679 </i>
   </energy>
  </scstep>
  <scstep>
   <time name="diag">   68.02   68.03</time>
   <time name="diis">  188.62  188.64</time>
   <time name="orth">   13.45   13.45</time>
   <time name="total">  310.73  310.76</time>
   <energy>
    <i name="e_fr_energy">   -175.28208970 </i>
    <i name="e_wo_entrp">   -175.15047418 </i>
    <i name="e_0_energy">   -175.24918582 </i>
   </energy>
  </scstep>
  <scstep>
   <time name="diag">   67.97   67.97</time>
   <time name="diis">  189.71  189.73</time>
   <time name="orth">   13.42   13.42</time>
   <time name="total">  311.95  311.97</time>
   <energy>
    <i name="e_fr_energy">   -175.25951553 </i>
    <i name="e_wo_entrp">   -175.14490359 </i>
    <i name="e_0_energy">   -175.23086254 </i>
   </energy>
  </scstep>
  <scstep>
   <time name="diag">   67.81   67.82</time>
   <time name="diis">  192.69  192.70</time>
   <time name="orth">   13.38   13.38</time>
   <time name="total">  314.27  314.30</time>
   <energy>
    <i name="e_fr_energy">   -175.38118689 </i>
    <i name="e_wo_entrp">   -175.31676426 </i>
    <i name="e_0_energy">   -175.36508123 </i>
   </energy>
  </scstep>
  <scstep>
   <time name="diag">   67.89   67.90</time>
   <time name="diis">  185.80  185.81</time>
   <time name="orth">   13.49   13.49</time>
   <time name="total">  307.95  307.98</time>
   <energy>
    <i name="e_fr_energy">   -175.20974964 </i>
    <i name="e_wo_entrp">   -175.14057685 </i>
    <i name="e_0_energy">   -175.19245644 </i>
   </energy>
  </scstep>
  <scstep>
   <time name="diag">   68.50   68.50</time>
   <time name="diis">  185.27  185.28</time>
   <time name="orth">   13.52   13.52</time>
   <time name="total">  308.24  308.26</time>
   <energy>
    <i name="e_fr_energy">   -175.18205447 </i>
    <i name="e_wo_entrp">   -175.08440249 </i>
    <i name="e_0_energy">   -175.15764148 </i>
   </energy>
  </scstep>
  <scstep>
   <time name="diag">   68.46   68.47</time>
   <time name="diis">  186.10  186.11</time>
   <time name="orth">   13.61   13.61</time>
   <time name="total">  309.44  309.46</time>
   <energy>
    <i name="e_fr_energy">   -175.16172025 </i>
    <i name="e_wo_entrp">   -175.08051163 </i>
    <i name="e_0_energy">   -175.14141810 </i>
   </energy>
  </scstep>
  <scstep>
   <time name="diag">   67.94   67.95</time>
   <time name="diis">  186.45  186.46</time>
   <time name="orth">   13.55   13.55</time>
   <time name="total">  308.61  308.64</time>
   <energy>
    <i name="e_fr_energy">   -175.07101437 </i>
    <i name="e_wo_entrp">   -174.96754612 </i>
    <i name="e_0_energy">   -175.04514731 </i>
   </energy>
  </scstep>
  <scstep>
   <time name="diag">   67.47   67.48</time>
   <time name="diis">  186.18  186.19</time>
   <time name="orth">   13.40   13.40</time>
   <time name="total">  307.97  308.00</time>
   <energy>
    <i name="e_fr_energy">   -175.03415476 </i>
    <i name="e_wo_entrp">   -174.91509986 </i>
    <i name="e_0_energy">   -175.00439104 </i>
   </energy>
  </scstep>
  <scstep>
   <time name="diag">   68.10   68.11</time>
   <time name="diis">  185.73  185.74</time>
   <time name="orth">   13.73   13.74</time>
   <time name="total">  308.51  308.55</time>
   <energy>
    <i name="e_fr_energy">   -174.98779441 </i>
    <i name="e_wo_entrp">   -174.85667158 </i>
    <i name="e_0_energy">   -174.95501371 </i>
   </energy>
  </scstep>
  <scstep>
   <time name="diag">   67.85   67.85</time>
   <time name="diis">  184.38  184.40</time>
   <time name="orth">   13.46   13.47</time>
   <time name="total">  306.62  306.65</time>
   <energy>
    <i name="e_fr_energy">   -174.96027886 </i>
    <i name="e_wo_entrp">   -174.82998905 </i>
    <i name="e_0_energy">   -174.92770641 </i>
   </energy>
  </scstep>
  <scstep>
   <time name="diag">   67.46   67.46</time>
   <time name="diis">  184.11  184.14</time>
   <time name="orth">   13.49   13.49</time>
   <time name="total">  306.18  306.22</time>
   <energy>
    <i name="e_fr_energy">   -174.94705518 </i>
    <i name="e_wo_entrp">   -174.82793394 </i>
    <i name="e_0_energy">   -174.91727487 </i>
   </energy>
  </scstep>
  <scstep>
   <time name="diag">   67.79   67.80</time>
   <time name="diis">  185.40  185.42</time>
   <time name="orth">   13.56   13.56</time>
   <time name="total">  308.02  308.05</time>
   <energy>
    <i name="e_fr_energy">   -174.94071542 </i>
    <i name="e_wo_entrp">   -174.82886074 </i>
    <i name="e_0_energy">   -174.91275175 </i>
   </energy>
  </scstep>
  <scstep>
   <time name="diag">   67.90   67.90</time>
   <time name="diis">  183.53  183.55</time>
   <time name="orth">   13.65   13.65</time>
   <time name="total">  306.12  306.14</time>
   <energy>
    <i name="e_fr_energy">   -174.93213041 </i>
    <i name="e_wo_entrp">   -174.81380092 </i>
    <i name="e_0_energy">   -174.90254803 </i>
   </energy>
  </scstep>
  <scstep>
   <time name="diag">   67.72   67.73</time>
   <time name="diis">  183.02  183.02</time>
   <time name="orth">   13.28   13.28</time>
   <time name="total">  305.25  305.26</time>
   <energy>
    <i name="e_fr_energy">   -174.93087488 </i>
    <i name="e_wo_entrp">   -174.81134075 </i>
    <i name="e_0_energy">   -174.90099135 </i>
   </energy>
  </scstep>
  <scstep>
   <time name="diag">   67.69   67.69</time>
   <time name="diis">  183.32  183.32</time>
   <time name="orth">   13.49   13.49</time>
   <time name="total">  305.60  305.60</time>
   <energy>
    <i name="e_fr_energy">   -174.92850389 </i>
    <i name="e_wo_entrp">   -174.81015050 </i>
    <i name="e_0_energy">   -174.89891554 </i>
   </energy>
  </scstep>
  <scstep>
   <time name="diag">   67.66   67.67</time>
   <time name="diis">  182.16  182.16</time>
   <time name="orth">   13.28   13.28</time>
   <time name="total">  304.59  304.59</time>
   <energy>
    <i name="e_fr_energy">   -174.92692456 </i>
    <i name="e_wo_entrp">   -174.80770217 </i>
    <i name="e_0_energy">   -174.89711896 </i>
   </energy>
  </scstep>
  <scstep>
   <time name="diag">   67.74   67.74</time>
   <time name="diis">  180.42  180.42</time>
   <time name="orth">   13.42   13.42</time>
   <time name="total">  302.97  302.98</time>
   <energy>
    <i name="e_fr_energy">   -174.92775142 </i>
    <i name="e_wo_entrp">   -174.80746783 </i>
    <i name="e_0_energy">   -174.89768052 </i>
   </energy>
  </scstep>
  <scstep>
   <time name="diag">   68.08   68.08</time>
   <time name="diis">  179.67  179.67</time>
   <time name="orth">   13.74   13.74</time>
   <time name="total">  303.75  303.76</time>
   <energy>
    <i name="e_fr_energy">   -174.92781058 </i>
    <i name="e_wo_entrp">   -174.80960268 </i>
    <i name="e_0_energy">   -174.89825860 </i>
   </energy>
  </scstep>
  <scstep>
   <time name="diag">   67.57   67.57</time>
   <time name="diis">  180.01  180.01</time>
   <time name="orth">   13.61   13.61</time>
   <time name="total">  303.83  303.83</time>
   <energy>
    <i name="e_fr_energy">   -174.92968424 </i>
    <i name="e_wo_entrp">   -174.81154882 </i>
    <i name="e_0_energy">   -174.90015039 </i>
   </energy>
  </scstep>
  <scstep>
   <time name="diag">   67.63   67.63</time>
   <time name="diis">  180.53  180.53</time>
   <time name="orth">   13.66   13.66</time>
   <time name="total">  303.89  303.89</time>
   <energy>
    <i name="e_fr_energy">   -174.93253112 </i>
    <i name="e_wo_entrp">   -174.81199807 </i>
    <i name="e_0_energy">   -174.90239786 </i>
   </energy>
  </scstep>
  <scstep>
   <time name="diag">   68.73   68.73</time>
   <time name="diis">  171.91  171.91</time>
   <time name="orth">   13.18   13.18</time>
   <time name="total">  295.79  295.79</time>
   <energy>
    <i name="e_fr_energy">   -174.93342387 </i>
    <i name="e_wo_entrp">   -174.81410403 </i>
    <i name="e_0_energy">   -174.90359391 </i>
   </energy>
  </scstep>
  <scstep>
   <time name="diag">   68.61   68.61</time>
   <time name="diis">  151.41  151.41</time>
   <time name="orth">   13.18   13.18</time>
   <time name="total">  275.29  275.30</time>
   <energy>
    <i name="e_fr_energy">   -174.93586161 </i>
    <i name="e_wo_entrp">   -174.81575253 </i>
    <i name="e_0_energy">   -174.90583434 </i>
   </energy>
  </scstep>
  <scstep>
   <time name="diag">   69.35   69.35</time>
   <time name="diis">  126.64  126.64</time>
   <time name="orth">   13.20   13.20</time>
   <time name="total">  251.78  251.79</time>
   <energy>
    <i name="e_fr_energy">   -174.93758237 </i>
    <i name="e_wo_entrp">   -174.81854363 </i>
    <i name="e_0_energy">   -174.90782268 </i>
   </energy>
  </scstep>
  <scstep>
   <time name="diag">   68.31   68.31</time>
   <time name="diis">  118.09  118.09</time>
   <time name="orth">   13.20   13.20</time>
   <time name="total">  242.98  242.98</time>
   <energy>
    <i name="e_fr_energy">   -174.93935700 </i>
    <i name="e_wo_entrp">   -174.81927336 </i>
    <i name="e_0_energy">   -174.90933609 </i>
   </energy>
  </scstep>
  <scstep>
   <time name="diag">   68.58   68.59</time>
   <time name="diis">  125.91  125.91</time>
   <time name="orth">   13.67   13.67</time>
   <time name="total">  251.77  251.77</time>
   <energy>
    <i name="e_fr_energy">   -174.94235376 </i>
    <i name="e_wo_entrp">   -174.82133943 </i>
    <i name="e_0_energy">   -174.91210018 </i>
   </energy>
  </scstep>
  <scstep>
   <time name="diag">   69.54   69.54</time>
   <time name="diis">  113.85  113.85</time>
   <time name="orth">   13.42   13.42</time>
   <time name="total">  240.72  240.72</time>
   <energy>
    <i name="e_fr_energy">   -174.94351989 </i>
    <i name="e_wo_entrp">   -174.82388203 </i>
    <i name="e_0_energy">   -174.91361043 </i>
   </energy>
  </scstep>
  <scstep>
   <time name="diag">   69.05   69.05</time>
   <time name="diis">  129.25  129.26</time>
   <time name="orth">   13.79   13.79</time>
   <time name="total">  255.23  255.23</time>
   <energy>
    <i name="e_fr_energy">   -174.94623900 </i>
    <i name="e_wo_entrp">   -174.82699715 </i>
    <i name="e_0_energy">   -174.91642854 </i>
   </energy>
  </scstep>
  <scstep>
   <time name="diag">   68.09   68.09</time>
   <time name="diis">  116.06  116.07</time>
   <time name="orth">   13.82   13.82</time>
   <time name="total">  241.41  241.42</time>
   <energy>
    <i name="e_fr_energy">   -174.94741295 </i>
    <i name="e_wo_entrp">   -174.82870231 </i>
    <i name="e_0_energy">   -174.91773529 </i>
   </energy>
  </scstep>
  <scstep>
   <time name="diag">   67.15   67.15</time>
   <time name="diis">  117.71  117.71</time>
   <time name="orth">   13.77   13.77</time>
   <time name="total">  241.84  241.85</time>
   <energy>
    <i name="e_fr_energy">   -174.94894025 </i>
    <i name="e_wo_entrp">   -174.82969927 </i>
    <i name="e_0_energy">   -174.91913000 </i>
   </energy>
  </scstep>
  <scstep>
   <time name="diag">   67.73   67.73</time>
   <time name="diis">  115.28  115.28</time>
   <time name="orth">   13.83   13.83</time>
   <time name="total">  240.04  240.05</time>
   <energy>
    <i name="e_fr_energy">   -174.94985567 </i>
    <i name="e_wo_entrp">   -174.83044393 </i>
    <i name="e_0_energy">   -174.92000274 </i>
   </energy>
  </scstep>
  <scstep>
   <time name="diag">   68.59   68.59</time>
   <time name="diis">  115.46  115.46</time>
   <time name="orth">   13.57   13.57</time>
   <time name="total">  240.51  240.51</time>
   <energy>
    <i name="e_fr_energy">   -174.95055287 </i>
    <i name="e_wo_entrp">   -174.83136924 </i>
    <i name="e_0_energy">   -174.92075696 </i>
   </energy>
  </scstep>
  <scstep>
   <time name="diag">   67.80   67.81</time>
   <time name="diis">  113.38  113.38</time>
   <time name="orth">   13.56   13.56</time>
   <time name="total">  237.68  237.69</time>
   <energy>
    <i name="e_fr_energy">   -174.95177566 </i>
    <i name="e_wo_entrp">   -174.83220239 </i>
    <i name="e_0_energy">   -174.92188234 </i>
   </energy>
  </scstep>
  <scstep>
   <time name="diag">   67.77   67.78</time>
   <time name="diis">  114.48  114.48</time>
   <time name="orth">   13.68   13.68</time>
   <time name="total">  239.01  239.02</time>
   <energy>
    <i name="e_fr_energy">   -174.95207150 </i>
    <i name="e_wo_entrp">   -174.83293501 </i>
    <i name="e_0_energy">   -174.92228738 </i>
   </energy>
  </scstep>
  <scstep>
   <time name="diag">   66.55   66.56</time>
   <time name="diis">  113.16  113.17</time>
   <time name="orth">   13.48   13.48</time>
   <time name="total">  235.95  235.96</time>
   <energy>
    <i name="e_fr_energy">   -174.95279556 </i>
    <i name="e_wo_entrp">   -174.83360329 </i>
    <i name="e_0_energy">   -174.92299749 </i>
   </energy>
  </scstep>
  <scstep>
   <time name="diag">   67.66   67.66</time>
   <time name="diis">  100.81  100.82</time>
   <time name="orth">   13.40   13.40</time>
   <time name="total">  224.24  224.24</time>
   <energy>
    <i name="e_fr_energy">   -174.95306905 </i>
    <i name="e_wo_entrp">   -174.83356520 </i>
    <i name="e_0_energy">   -174.92319308 </i>
   </energy>
  </scstep>
  <scstep>
   <time name="diag">   68.15   68.15</time>
   <time name="diis">   95.83   95.83</time>
   <time name="orth">   13.15   13.15</time>
   <time name="total">  219.63  219.63</time>
   <energy>
    <i name="e_fr_energy">   -174.95344974 </i>
    <i name="e_wo_entrp">   -174.83424044 </i>
    <i name="e_0_energy">   -174.92364741 </i>
   </energy>
  </scstep>
  <scstep>
   <time name="diag">   67.88   67.88</time>
   <time name="diis">   90.06   90.06</time>
   <time name="orth">   13.33   13.33</time>
   <time name="total">  214.12  214.13</time>
   <energy>
    <i name="e_fr_energy">   -174.95375962 </i>
    <i name="e_wo_entrp">   -174.83438203 </i>
    <i name="e_0_energy">   -174.92391522 </i>
   </energy>
  </scstep>
  <scstep>
   <time name="diag">   66.83   66.84</time>
   <time name="diis">   92.99   93.00</time>
   <time name="orth">   13.34   13.34</time>
   <time name="total">  216.47  216.48</time>
   <energy>
    <i name="e_fr_energy">   -174.95409854 </i>
    <i name="e_wo_entrp">   -174.83483580 </i>
    <i name="e_0_energy">   -174.92428286 </i>
   </energy>
  </scstep>
  <scstep>
   <time name="diag">   68.15   68.16</time>
   <time name="diis">   78.70   78.71</time>
   <time name="orth">   13.18   13.18</time>
   <time name="total">  202.77  202.78</time>
   <energy>
    <i name="e_fr_energy">   -174.95423748 </i>
    <i name="e_wo_entrp">   -174.83497213 </i>
    <i name="e_0_energy">   -174.92442114 </i>
   </energy>
  </scstep>
  <scstep>
   <time name="diag">   67.47   67.48</time>
   <time name="diis">   75.86   75.87</time>
   <time name="orth">   13.32   13.32</time>
   <time name="total">  199.34  199.38</time>
   <energy>
    <i name="e_fr_energy">   -174.95437444 </i>
    <i name="e_wo_entrp">   -174.83507008 </i>
    <i name="e_0_energy">   -174.92454835 </i>
   </energy>
  </scstep>
  <scstep>
   <time name="diag">   66.72   66.72</time>
   <time name="diis">   78.26   78.27</time>
   <time name="orth">   13.44   13.44</time>
   <time name="total">  201.45  201.46</time>
   <energy>
    <i name="e_fr_energy">   -174.95453024 </i>
    <i name="e_wo_entrp">   -174.83527335 </i>
    <i name="e_0_energy">   -174.92471601 </i>
   </energy>
  </scstep>
  <scstep>
   <time name="diag">   67.36   67.36</time>
   <time name="diis">   83.68   83.69</time>
   <time name="orth">   13.42   13.42</time>
   <time name="total">  207.22  207.24</time>
   <energy>
    <i name="e_fr_energy">   -174.95469249 </i>
    <i name="e_wo_entrp">   -174.83538635 </i>
    <i name="e_0_energy">   -174.92486596 </i>
   </energy>
  </scstep>
  <scstep>
   <time name="diag">   67.99   67.99</time>
   <time name="diis">   82.36   82.36</time>
   <time name="orth">   13.55   13.55</time>
   <time name="total">  207.11  207.14</time>
   <energy>
    <i name="e_fr_energy">   -174.95486059 </i>
    <i name="e_wo_entrp">   -174.83558343 </i>
    <i name="e_0_energy">   -174.92504130 </i>
   </energy>
  </scstep>
  <scstep>
   <time name="diag">   66.52   66.53</time>
   <time name="diis">   78.38   78.39</time>
   <time name="orth">   13.42   13.43</time>
   <time name="total">  201.42  201.44</time>
   <energy>
    <i name="e_fr_energy">   -174.95498474 </i>
    <i name="e_wo_entrp">   -174.83571518 </i>
    <i name="e_0_energy">   -174.92516735 </i>
   </energy>
  </scstep>
  <scstep>
   <time name="diag">   67.41   67.42</time>
   <time name="diis">   76.75   76.75</time>
   <time name="orth">   13.28   13.28</time>
   <time name="total">  171.41  171.43</time>
   <energy>
    <i name="alphaZ">     75.25431677 </i>
    <i name="ewald"> 138147.22830359 </i>
    <i name="hartreedc">-182485.44145227 </i>
    <i name="XCdc">  -1691.94645188 </i>
    <i name="pawpsdc">  46334.06452090 </i>
    <i name="pawaedc"> -42806.76570598 </i>
    <i name="eentropy">     -0.11931214 </i>
    <i name="bandstr">  -2833.73474226 </i>
    <i name="atom">  45086.50549395 </i>
    <i name="e_fr_energy">   -174.95502933 </i>
    <i name="e_wo_entrp">   -174.83571719 </i>
    <i name="e_0_energy">   -174.92520129 </i>
   </energy>
  </scstep>
  <structure>
   <crystal>
    <varray name="basis" >
     <v>      30.00000000       0.00000000       0.00000000 </v>
     <v>       0.00000000      30.00000000       0.00000000 </v>
     <v>       0.00000000       0.00000000      30.00000000 </v>
    </varray>
    <i name="volume">  27000.00000000 </i>
    <varray name="rec_basis" >
     <v>       0.03333333       0.00000000       0.00000000 </v>
     <v>       0.00000000       0.03333333       0.00000000 </v>
     <v>       0.00000000       0.00000000       0.03333333 </v>
    </varray>
   </crystal>
   <varray name="positions" >
    <v>       0.44576020       0.32826710       0.41691983 </v>
    <v>       0.67173288       0.55423978       0.41691983 </v>
    <v>       0.55423980       0.32826710       0.41691983 </v>
    <v>       0.32826712       0.55423978       0.41691983 </v>
    <v>       0.50000000       0.38250690       0.34021317 </v>
    <v>       0.50000000       0.38250690       0.65978680 </v>
    <v>       0.50000000       0.27609440       0.50000000 </v>
    <v>       0.27609443       0.49999998       0.50000000 </v>
    <v>       0.72390557       0.49999998       0.50000000 </v>
    <v>       0.50000000       0.72390555       0.50000000 </v>
    <v>       0.61195280       0.38804720       0.34167483 </v>
    <v>       0.61195280       0.38804720       0.65832513 </v>
    <v>       0.38804722       0.61195278       0.34167483 </v>
    <v>       0.38804722       0.61195278       0.65832513 </v>
    <v>       0.38804720       0.38804720       0.34167483 </v>
    <v>       0.38804720       0.38804720       0.65832513 </v>
    <v>       0.61195278       0.61195278       0.34167483 </v>
    <v>       0.61195278       0.61195278       0.65832513 </v>
    <v>       0.44576020       0.32826710       0.58308023 </v>
    <v>       0.67173288       0.55423978       0.58308023 </v>
    <v>       0.55791699       0.44208301       0.41809300 </v>
    <v>       0.32826705       0.44576024       0.41691983 </v>
    <v>       0.55423973       0.67173293       0.41691983 </v>
    <v>       0.55423980       0.32826710       0.58308023 </v>
    <v>       0.32826712       0.55423978       0.58308023 </v>
    <v>       0.67173295       0.44576024       0.41691983 </v>
    <v>       0.44576027       0.67173293       0.41691983 </v>
    <v>       0.44208301       0.44208301       0.41809300 </v>
    <v>       0.50000000       0.38416601       0.50000000 </v>
    <v>       0.61749315       0.50000005       0.34021317 </v>
    <v>       0.61749315       0.50000005       0.65978680 </v>
    <v>       0.38250685       0.50000005       0.34021317 </v>
    <v>       0.38250685       0.50000005       0.65978680 </v>
    <v>       0.38317830       0.38317830       0.50000000 </v>
    <v>       0.61682172       0.61682172       0.50000000 </v>
    <v>       0.61682170       0.38317830       0.50000000 </v>
    <v>       0.38317828       0.61682172       0.50000000 </v>
    <v>       0.50000000       0.50000000       0.33478917 </v>
    <v>       0.50000000       0.50000000       0.66521087 </v>
    <v>       0.32826705       0.44576024       0.58308023 </v>
    <v>       0.55423973       0.67173293       0.58308023 </v>
    <v>       0.55791699       0.44208301       0.58190703 </v>
    <v>       0.44208298       0.55791702       0.41809300 </v>
    <v>       0.44208301       0.44208301       0.58190703 </v>
    <v>       0.67173295       0.44576024       0.58308023 </v>
    <v>       0.44576027       0.67173293       0.58308023 </v>
    <v>       0.55791702       0.55791702       0.41809300 </v>
    <v>       0.38416599       0.50000002       0.50000000 </v>
    <v>       0.61583401       0.50000002       0.50000000 </v>
    <v>       0.50000000       0.61749319       0.34021317 </v>
    <v>       0.50000000       0.61749319       0.65978680 </v>
    <v>       0.50000000       0.50000000       0.50000000 </v>
    <v>       0.44208298       0.55791702       0.58190703 </v>
    <v>       0.55791702       0.55791702       0.58190703 </v>
    <v>       0.50000000       0.61583404       0.50000000 </v>
    <v>       0.65932330       0.48938290       0.30294093 </v>
    <v>       0.68294243       0.48780897       0.27372760 </v>
   </varray>
  </structure>
  <varray name="forces" >
   <v>       0.71179349       1.11192474       0.28149113 </v>
   <v>      -1.09014355      -0.63488143       0.39619188 </v>
   <v>      -0.71455833       1.09747331       0.28732617 </v>
   <v>       1.10701275      -0.71272495       0.28812209 </v>
   <v>      -0.02350877       0.39266234       1.28963784 </v>
   <v>       0.00963752       0.40925369      -1.28569491 </v>
   <v>      -0.00510642       1.51870204       0.01995241 </v>
   <v>       1.51677205      -0.00002221      -0.00996628 </v>
   <v>      -1.54058091      -0.00918784      -0.01242607 </v>
   <v>      -0.00519731      -1.52160340       0.01799398 </v>
   <v>      -0.74535149       0.77142072       1.04605445 </v>
   <v>      -0.76414727       0.75302634      -1.07423758 </v>
   <v>       0.75218011      -0.75765033       1.07778110 </v>
   <v>       0.75683763      -0.75277382      -1.07185531 </v>
   <v>       0.75352101       0.75763524       1.07818965 </v>
   <v>       0.75917340       0.75307027      -1.07364385 </v>
   <v>      -0.77562718      -0.74836420       1.08055509 </v>
   <v>      -0.76251778      -0.75293485      -1.07392693 </v>
   <v>       0.71448026       1.10367983      -0.29799592 </v>
   <v>      -1.10718120      -0.70263924      -0.29325499 </v>
   <v>       0.04638602      -0.08967118      -0.11306903 </v>
   <v>       1.10653156       0.71471247       0.28799969 </v>
   <v>      -0.70257315      -1.10525773       0.28345668 </v>
   <v>      -0.71763625       1.10660325      -0.28324793 </v>
   <v>       1.10864995      -0.70611187      -0.29182671 </v>
   <v>      -1.05952593       0.66912522       0.38331702 </v>
   <v>       0.70715908      -1.11129037       0.28617521 </v>
   <v>      -0.10459296      -0.11393804      -0.16118002 </v>
   <v>      -0.01027680      -0.24421469       0.02741053 </v>
   <v>      -2.91770134       0.57975880       3.70399329 </v>
   <v>      -0.41619526       0.00036790      -1.27904248 </v>
   <v>       0.37920380       0.00156111       1.30428374 </v>
   <v>       0.40932188      -0.00103837      -1.28414293 </v>
   <v>       0.82465348       0.82873662       0.00210919 </v>
   <v>      -0.81102286      -0.84047065      -0.00728874 </v>
   <v>      -0.81489418       0.83723649       0.00432022 </v>
   <v>       0.82528887      -0.82804903      -0.00017602 </v>
   <v>      -0.03596491       0.01250177       1.21673847 </v>
   <v>       0.00275115      -0.00021963      -1.17664264 </v>
   <v>       1.10718075       0.70557126      -0.29002064 </v>
   <v>      -0.71710785      -1.10306388      -0.28324599 </v>
   <v>       0.11044122      -0.11470198       0.15806513 </v>
   <v>      -0.10373451       0.11199378      -0.16535352 </v>
   <v>      -0.11270069      -0.10899019       0.15644069 </v>
   <v>      -1.10630754       0.70405461      -0.29321681 </v>
   <v>       0.71461271      -1.10067493      -0.30183319 </v>
   <v>       0.11289434       0.04530621      -0.20578833 </v>
   <v>      -0.22495005       0.00208070      -0.00293560 </v>
   <v>       0.22288493       0.00365330      -0.00956360 </v>
   <v>      -0.00664111      -0.40405188       1.28851839 </v>
   <v>       0.01369334      -0.41203981      -1.28664254 </v>
   <v>       0.02470168      -0.00300433      -0.01670091 </v>
   <v>      -0.11393964       0.10715031       0.15459013 </v>
   <v>       0.10681730       0.11518575       0.16031334 </v>
   <v>      -0.01298916       0.25615048       0.03250865 </v>
   <v>      -0.81825064      -0.16805845       1.14015072 </v>
   <v>       3.43634476      -0.42296926      -3.80876741 </v>
  </varray>
  <varray name="stress" >
   <v>      -6.38828009      -0.05497656      -0.35842333 </v>
   <v>      -0.05497657      -6.73361001       0.05546057 </v>
   <v>      -0.35842329       0.05546063      -6.36490343 </v>
  </varray>
  <energy>
   <i name="e_fr_energy">   -174.95502933 </i>
   <i name="e_wo_entrp">   -174.92520129 </i>
   <i name="e_0_energy">     -0.11931214 </i>
  </energy>
  <time name="totalsc">19744.3019745.60</time>
  <eigenvalues>
   <array>
    <dimension dim="1">band</dimension>
    <dimension dim="2">kpoint</dimension>
    <dimension dim="3">spin</dimension>
    <field>eigene</field>
    <field>occ</field>
    <set>
     <set comment="spin 1">
      <set comment="kpoint 1">
       <r>  -28.2805    1.0000 </r>
       <r>  -13.6595    1.0000 </r>
       <r>  -11.3704    1.0000 </r>
       <r>  -10.9358    1.0000 </r>
       <r>  -10.9036    1.0000 </r>
       <r>   -7.0001    1.0000 </r>
       <r>   -6.9495    1.0000 </r>
       <r>   -6.6824    1.0000 </r>
       <r>   -6.2735    1.0000 </r>
       <r>   -6.1482    1.0000 </r>
       <r>   -6.1466    1.0000 </r>
       <r>   -6.0769    1.0000 </r>
       <r>   -6.0428    1.0000 </r>
       <r>   -5.9355    1.0000 </r>
       <r>   -5.8262    1.0000 </r>
       <r>   -5.8202    1.0000 </r>
       <r>   -5.7891    1.0000 </r>
       <r>   -5.7550    1.0000 </r>
       <r>   -5.7112    1.0000 </r>
       <r>   -5.7040    1.0000 </r>
       <r>   -5.6974    1.0000 </r>
       <r>   -5.6571    1.0000 </r>
       <r>   -5.6437    1.0000 </r>
       <r>   -5.6330    1.0000 </r>
       <r>   -5.6206    1.0000 </r>
       <r>   -5.6145    1.0000 </r>
       <r>   -5.6063    1.0000 </r>
       <r>   -5.5896    1.0000 </r>
       <r>   -5.5686    1.0000 </r>
       <r>   -5.5678    1.0000 </r>
       <r>   -5.5643    1.0000 </r>
       <r>   -5.5455    1.0000 </r>
       <r>   -5.5389    1.0000 </r>
       <r>   -5.5385    1.0000 </r>
       <r>   -5.5341    1.0000 </r>
       <r>   -5.5323    1.0000 </r>
       <r>   -5.5317    1.0000 </r>
       <r>   -5.5291    1.0000 </r>
       <r>   -5.5168    1.0000 </r>
       <r>   -5.5017    1.0000 </r>
       <r>   -5.4942    1.0000 </r>
       <r>   -5.4931    1.0000 </r>
       <r>   -5.4897    1.0000 </r>
       <r>   -5.4869    1.0000 </r>
       <r>   -5.4851    1.0000 </r>
       <r>   -5.4752    1.0000 </r>
       <r>   -5.4520    1.0000 </r>
       <r>   -5.4516    1.0000 </r>
       <r>   -5.4475    1.0000 </r>
       <r>   -5.4461    1.0000 </r>
       <r>   -5.4444    1.0000 </r>
       <r>   -5.4425    1.0000 </r>
       <r>   -5.4342    1.0000 </r>
       <r>   -5.4285    1.0000 </r>
       <r>   -5.4248    1.0000 </r>
       <r>   -5.4231    1.0000 </r>
       <r>   -5.4088    1.0000 </r>
       <r>   -5.3821    1.0000 </r>
       <r>   -5.3632    1.0000 </r>
       <r>   -5.3543    1.0000 </r>
       <r>   -5.3460    1.0000 </r>
       <r>   -5.3425    1.0000 </r>
       <r>   -5.3365    1.0000 </r>
       <r>   -5.3333    1.0000 </r>
       <r>   -5.3294    1.0000 </r>
       <r>   -5.3211    1.0000 </r>
       <r>   -5.3191    1.0000 </r>
       <r>   -5.3128    1.0000 </r>
       <r>   -5.3043    1.0000 </r>
       <r>   -5.2461    1.0000 </r>
       <r>   -5.2314    1.0000 </r>
       <r>   -5.2294    1.0000 </r>
       <r>   -5.2205    1.0000 </r>
       <r>   -5.2140    1.0000 </r>
       <r>   -5.2025    1.0000 </r>
       <r>   -5.2005    1.0000 </r>
       <r>   -5.1980    1.0000 </r>
       <r>   -5.1924    1.0000 </r>
       <r>   -5.1881    1.0000 </r>
       <r>   -5.1855    1.0000 </r>
       <r>   -5.1829    1.0000 </r>
       <r>   -5.1756    1.0000 </r>
       <r>   -5.1582    1.0000 </r>
       <r>   -5.1528    1.0000 </r>
       <r>   -5.1461    1.0000 </r>
       <r>   -5.1334    1.0000 </r>
       <r>   -5.1325    1.0000 </r>
       <r>   -5.1205    1.0000 </r>
       <r>   -5.1138    1.0000 </r>
       <r>   -5.1048    1.0000 </r>
       <r>   -5.0935    1.0000 </r>
       <r>   -5.0751    1.0000 </r>
       <r>   -5.0749    1.0000 </r>
       <r>   -5.0728    1.0000 </r>
       <r>   -5.0705    1.0000 </r>
       <r>   -5.0688    1.0000 </r>
       <r>   -5.0627    1.0000 </r>
       <r>   -5.0611    1.0000 </r>
       <r>   -5.0508    1.0000 </r>
       <r>   -5.0489    1.0000 </r>
       <r>   -5.0454    1.0000 </r>
       <r>   -5.0400    1.0000 </r>
       <r>   -5.0319    1.0000 </r>
       <r>   -5.0235    1.0000 </r>
       <r>   -5.0229    1.0000 </r>
       <r>   -5.0211    1.0000 </r>
       <r>   -5.0170    1.0000 </r>
       <r>   -5.0108    1.0000 </r>
       <r>   -5.0100    1.0000 </r>
       <r>   -4.9986    1.0000 </r>
       <r>   -4.9977    1.0000 </r>
       <r>   -4.9910    1.0000 </r>
       <r>   -4.9818    1.0000 </r>
       <r>   -4.9814    1.0000 </r>
       <r>   -4.9764    1.0000 </r>
       <r>   -4.9726    1.0000 </r>
       <r>   -4.9704    1.0000 </r>
       <r>   -4.9607    1.0000 </r>
       <r>   -4.9528    1.0000 </r>
       <r>   -4.9465    1.0000 </r>
       <r>   -4.9380    1.0000 </r>
       <r>   -4.9326    1.0000 </r>
       <r>   -4.9286    1.0000 </r>
       <r>   -4.9229    1.0000 </r>
       <r>   -4.9214    1.0000 </r>
       <r>   -4.9207    1.0000 </r>
       <r>   -4.9151    1.0000 </r>
       <r>   -4.8946    1.0000 </r>
       <r>   -4.8726    1.0000 </r>
       <r>   -4.8619    1.0000 </r>
       <r>   -4.8609    1.0000 </r>
       <r>   -4.8591    1.0000 </r>
       <r>   -4.8570    1.0000 </r>
       <r>   -4.8544    1.0000 </r>
       <r>   -4.8490    1.0000 </r>
       <r>   -4.8379    0.9999 </r>
       <r>   -4.8237    0.9999 </r>
       <r>   -4.8114    0.9999 </r>
       <r>   -4.8080    0.9999 </r>
       <r>   -4.8029    0.9999 </r>
       <r>   -4.7970    0.9998 </r>
       <r>   -4.7840    0.9998 </r>
       <r>   -4.7730    0.9997 </r>
       <r>   -4.7672    0.9997 </r>
       <r>   -4.7582    0.9996 </r>
       <r>   -4.7564    0.9996 </r>
       <r>   -4.7509    0.9996 </r>
       <r>   -4.7399    0.9994 </r>
       <r>   -4.7385    0.9994 </r>
       <r>   -4.7222    0.9992 </r>
       <r>   -4.7090    0.9989 </r>
       <r>   -4.7060    0.9989 </r>
       <r>   -4.7011    0.9988 </r>
       <r>   -4.7005    0.9988 </r>
       <r>   -4.6927    0.9986 </r>
       <r>   -4.6911    0.9985 </r>
       <r>   -4.6897    0.9985 </r>
       <r>   -4.6892    0.9985 </r>
       <r>   -4.6860    0.9984 </r>
       <r>   -4.6802    0.9983 </r>
       <r>   -4.6754    0.9981 </r>
       <r>   -4.6668    0.9979 </r>
       <r>   -4.6656    0.9978 </r>
       <r>   -4.6649    0.9978 </r>
       <r>   -4.6641    0.9978 </r>
       <r>   -4.6626    0.9977 </r>
       <r>   -4.6603    0.9976 </r>
       <r>   -4.6534    0.9974 </r>
       <r>   -4.6525    0.9974 </r>
       <r>   -4.6468    0.9972 </r>
       <r>   -4.6372    0.9968 </r>
       <r>   -4.6301    0.9965 </r>
       <r>   -4.6220    0.9962 </r>
       <r>   -4.6192    0.9961 </r>
       <r>   -4.6142    0.9960 </r>
       <r>   -4.6124    0.9959 </r>
       <r>   -4.6096    0.9958 </r>
       <r>   -4.6087    0.9958 </r>
       <r>   -4.6062    0.9957 </r>
       <r>   -4.6004    0.9955 </r>
       <r>   -4.5940    0.9953 </r>
       <r>   -4.5901    0.9953 </r>
       <r>   -4.5855    0.9952 </r>
       <r>   -4.5797    0.9951 </r>
       <r>   -4.5769    0.9951 </r>
       <r>   -4.5719    0.9951 </r>
       <r>   -4.5697    0.9951 </r>
       <r>   -4.5675    0.9951 </r>
       <r>   -4.5658    0.9951 </r>
       <r>   -4.5631    0.9951 </r>
       <r>   -4.5503    0.9955 </r>
       <r>   -4.5441    0.9959 </r>
       <r>   -4.5343    0.9966 </r>
       <r>   -4.5276    0.9973 </r>
       <r>   -4.5236    0.9978 </r>
       <r>   -4.5188    0.9984 </r>
       <r>   -4.5148    0.9990 </r>
       <r>   -4.5118    0.9995 </r>
       <r>   -4.4981    1.0023 </r>
       <r>   -4.4953    1.0030 </r>
       <r>   -4.4922    1.0037 </r>
       <r>   -4.4828    1.0064 </r>
       <r>   -4.4812    1.0068 </r>
       <r>   -4.4774    1.0080 </r>
       <r>   -4.4728    1.0096 </r>
       <r>   -4.4688    1.0110 </r>
       <r>   -4.4662    1.0120 </r>
       <r>   -4.4640    1.0128 </r>
       <r>   -4.4589    1.0148 </r>
       <r>   -4.4579    1.0152 </r>
       <r>   -4.4437    1.0214 </r>
       <r>   -4.4419    1.0222 </r>
       <r>   -4.4396    1.0232 </r>
       <r>   -4.4330    1.0264 </r>
       <r>   -4.4288    1.0283 </r>
       <r>   -4.4261    1.0297 </r>
       <r>   -4.4249    1.0302 </r>
       <r>   -4.4235    1.0309 </r>
       <r>   -4.4224    1.0315 </r>
       <r>   -4.4092    1.0377 </r>
       <r>   -4.3915    1.0452 </r>
       <r>   -4.3878    1.0465 </r>
       <r>   -4.3828    1.0481 </r>
       <r>   -4.3809    1.0486 </r>
       <r>   -4.3721    1.0506 </r>
       <r>   -4.3646    1.0515 </r>
       <r>   -4.3561    1.0514 </r>
       <r>   -4.3549    1.0513 </r>
       <r>   -4.3531    1.0511 </r>
       <r>   -4.3518    1.0509 </r>
       <r>   -4.3512    1.0508 </r>
       <r>   -4.3501    1.0506 </r>
       <r>   -4.3469    1.0498 </r>
       <r>   -4.3450    1.0493 </r>
       <r>   -4.3430    1.0486 </r>
       <r>   -4.3404    1.0476 </r>
       <r>   -4.3400    1.0474 </r>
       <r>   -4.3374    1.0462 </r>
       <r>   -4.3358    1.0454 </r>
       <r>   -4.3336    1.0442 </r>
       <r>   -4.3272    1.0399 </r>
       <r>   -4.3200    1.0336 </r>
       <r>   -4.3177    1.0312 </r>
       <r>   -4.3083    1.0200 </r>
       <r>   -4.3078    1.0193 </r>
       <r>   -4.3066    1.0176 </r>
       <r>   -4.3019    1.0105 </r>
       <r>   -4.2991    1.0060 </r>
       <r>   -4.2989    1.0057 </r>
       <r>   -4.2899    0.9890 </r>
       <r>   -4.2843    0.9771 </r>
       <r>   -4.2807    0.9689 </r>
       <r>   -4.2789    0.9645 </r>
       <r>   -4.2763    0.9580 </r>
       <r>   -4.2722    0.9474 </r>
       <r>   -4.2700    0.9413 </r>
       <r>   -4.2675    0.9343 </r>
       <r>   -4.2659    0.9296 </r>
       <r>   -4.2634    0.9224 </r>
       <r>   -4.2622    0.9185 </r>
       <r>   -4.2605    0.9133 </r>
       <r>   -4.2579    0.9050 </r>
       <r>   -4.2561    0.8990 </r>
       <r>   -4.2555    0.8971 </r>
       <r>   -4.2537    0.8909 </r>
       <r>   -4.2460    0.8636 </r>
       <r>   -4.2427    0.8514 </r>
       <r>   -4.2408    0.8440 </r>
       <r>   -4.2381    0.8336 </r>
       <r>   -4.2372    0.8297 </r>
       <r>   -4.2337    0.8158 </r>
       <r>   -4.2284    0.7934 </r>
       <r>   -4.2220    0.7652 </r>
       <r>   -4.2118    0.7181 </r>
       <r>   -4.2028    0.6746 </r>
       <r>   -4.2008    0.6646 </r>
       <r>   -4.1943    0.6320 </r>
       <r>   -4.1942    0.6314 </r>
       <r>   -4.1933    0.6269 </r>
       <r>   -4.1881    0.6003 </r>
       <r>   -4.1783    0.5486 </r>
       <r>   -4.1668    0.4882 </r>
       <r>   -4.1569    0.4357 </r>
       <r>   -4.1475    0.3869 </r>
       <r>   -4.1461    0.3797 </r>
       <r>   -4.1453    0.3757 </r>
       <r>   -4.1382    0.3398 </r>
       <r>   -4.1346    0.3221 </r>
       <r>   -4.1284    0.2915 </r>
       <r>   -3.9763   -0.0516 </r>
       <r>   -3.8742   -0.0129 </r>
       <r>   -3.8492   -0.0046 </r>
       <r>   -3.8318   -0.0005 </r>
       <r>   -3.7423    0.0046 </r>
       <r>   -3.5292    0.0001 </r>
       <r>   -3.5046    0.0001 </r>
       <r>   -3.3936    0.0000 </r>
       <r>   -3.0820    0.0000 </r>
       <r>   -3.0773    0.0000 </r>
       <r>   -3.0656    0.0000 </r>
       <r>   -3.0464    0.0000 </r>
       <r>   -3.0342    0.0000 </r>
       <r>   -2.9586    0.0000 </r>
       <r>   -2.9540    0.0000 </r>
       <r>   -2.8423    0.0000 </r>
       <r>   -2.5426    0.0000 </r>
       <r>   -2.5359    0.0000 </r>
       <r>   -2.4968    0.0000 </r>
       <r>   -2.3425    0.0000 </r>
       <r>   -2.1335    0.0000 </r>
       <r>   -2.1296    0.0000 </r>
       <r>   -2.0747    0.0000 </r>
       <r>   -2.0145    0.0000 </r>
       <r>   -1.9655    0.0000 </r>
       <r>   -1.9361    0.0000 </r>
       <r>   -1.8831    0.0000 </r>
       <r>   -1.7920    0.0000 </r>
       <r>   -1.7268    0.0000 </r>
       <r>   -1.6707    0.0000 </r>
       <r>   -1.6574    0.0000 </r>
       <r>   -1.6549    0.0000 </r>
       <r>   -1.5737    0.0000 </r>
       <r>   -1.4906    0.0000 </r>
       <r>   -1.3619    0.0000 </r>
       <r>   -1.2533    0.0000 </r>
       <r>   -1.1966    0.0000 </r>
       <r>   -1.0995    0.0000 </r>
       <r>   -1.0115    0.0000 </r>
       <r>   -0.9970    0.0000 </r>
       <r>   -0.9754    0.0000 </r>
       <r>   -0.9594    0.0000 </r>
       <r>   -0.9443    0.0000 </r>
       <r>   -0.8991    0.0000 </r>
       <r>   -0.8778    0.0000 </r>
       <r>   -0.8487    0.0000 </r>
       <r>   -0.8116    0.0000 </r>
      </set>
     </set>
    </set>
   </array>
  </eigenvalues>
  <separator name="orbital magnetization" >
   <v name="MAGDIPOLOUT">      0.00000000      0.00000000      0.00000000</v>
  </separator>
  <dos>
   <i name="efermi">     -4.16905935 </i>
   <total>
    <array>
     <dimension dim="1">gridpoints</dimension>
     <dimension dim="2">spin</dimension>
     <field>energy</field>
     <field>total</field>
     <field>integrated</field>
     <set>
      <set comment="spin 1">
       <r>   -30.2805     0.0000     0.0000 </r>
       <r>   -30.1756     0.0000     0.0000 </r>
       <r>   -30.0707     0.0000     0.0000 </r>
       <r>   -29.9658     0.0000     0.0000 </r>
       <r>   -29.8609     0.0000     0.0000 </r>
       <r>   -29.7560     0.0000     0.0000 </r>
       <r>   -29.6511     0.0000     0.0000 </r>
       <r>   -29.5462     0.0000     0.0000 </r>
       <r>   -29.4413     0.0000     0.0000 </r>
       <r>   -29.3364     0.0000     0.0000 </r>
       <r>   -29.2316     0.0000     0.0000 </r>
       <r>   -29.1267     0.0000     0.0000 </r>
       <r>   -29.0218     0.0001     0.0000 </r>
       <r>   -28.9169     0.0022     0.0002 </r>
       <r>   -28.8120     0.0211     0.0025 </r>
       <r>   -28.7071     0.0646     0.0092 </r>
       <r>   -28.6022    -0.1668    -0.0083 </r>
       <r>   -28.4973    -0.8202    -0.0943 </r>
       <r>   -28.3924     1.4819     0.0612 </r>
       <r>   -28.2875     8.2481     0.9264 </r>
       <r>   -28.1826     8.9547     1.8657 </r>
       <r>   -28.0777     2.2463     2.1013 </r>
       <r>   -27.9728    -0.8082     2.0165 </r>
       <r>   -27.8679    -0.2506     1.9902 </r>
       <r>   -27.7630     0.0632     1.9969 </r>
       <r>   -27.6581     0.0266     1.9997 </r>
       <r>   -27.5532     0.0031     2.0000 </r>
       <r>   -27.4483     0.0002     2.0000 </r>
       <r>   -27.3434     0.0000     2.0000 </r>
       <r>   -27.2385     0.0000     2.0000 </r>
       <r>   -27.1336     0.0000     2.0000 </r>
       <r>   -27.0287     0.0000     2.0000 </r>
       <r>   -26.9238     0.0000     2.0000 </r>
       <r>   -26.8189     0.0000     2.0000 </r>
       <r>   -26.7140     0.0000     2.0000 </r>
       <r>   -26.6091     0.0000     2.0000 </r>
       <r>   -26.5042     0.0000     2.0000 </r>
       <r>   -26.3993     0.0000     2.0000 </r>
       <r>   -26.2945     0.0000     2.0000 </r>
       <r>   -26.1896     0.0000     2.0000 </r>
       <r>   -26.0847     0.0000     2.0000 </r>
       <r>   -25.9798     0.0000     2.0000 </r>
       <r>   -25.8749     0.0000     2.0000 </r>
       <r>   -25.7700     0.0000     2.0000 </r>
       <r>   -25.6651     0.0000     2.0000 </r>
       <r>   -25.5602     0.0000     2.0000 </r>
       <r>   -25.4553     0.0000     2.0000 </r>
       <r>   -25.3504     0.0000     2.0000 </r>
       <r>   -25.2455     0.0000     2.0000 </r>
       <r>   -25.1406     0.0000     2.0000 </r>
       <r>   -25.0357     0.0000     2.0000 </r>
       <r>   -24.9308     0.0000     2.0000 </r>
       <r>   -24.8259     0.0000     2.0000 </r>
       <r>   -24.7210     0.0000     2.0000 </r>
       <r>   -24.6161     0.0000     2.0000 </r>
       <r>   -24.5112     0.0000     2.0000 </r>
       <r>   -24.4063     0.0000     2.0000 </r>
       <r>   -24.3014     0.0000     2.0000 </r>
       <r>   -24.1965     0.0000     2.0000 </r>
       <r>   -24.0916     0.0000     2.0000 </r>
       <r>   -23.9867     0.0000     2.0000 </r>
       <r>   -23.8818     0.0000     2.0000 </r>
       <r>   -23.7769     0.0000     2.0000 </r>
       <r>   -23.6720     0.0000     2.0000 </r>
       <r>   -23.5671     0.0000     2.0000 </r>
       <r>   -23.4622     0.0000     2.0000 </r>
       <r>   -23.3574     0.0000     2.0000 </r>
       <r>   -23.2525     0.0000     2.0000 </r>
       <r>   -23.1476     0.0000     2.0000 </r>
       <r>   -23.0427     0.0000     2.0000 </r>
       <r>   -22.9378     0.0000     2.0000 </r>
       <r>   -22.8329     0.0000     2.0000 </r>
       <r>   -22.7280     0.0000     2.0000 </r>
       <r>   -22.6231     0.0000     2.0000 </r>
       <r>   -22.5182     0.0000     2.0000 </r>
       <r>   -22.4133     0.0000     2.0000 </r>
       <r>   -22.3084     0.0000     2.0000 </r>
       <r>   -22.2035     0.0000     2.0000 </r>
       <r>   -22.0986     0.0000     2.0000 </r>
       <r>   -21.9937     0.0000     2.0000 </r>
       <r>   -21.8888     0.0000     2.0000 </r>
       <r>   -21.7839     0.0000     2.0000 </r>
       <r>   -21.6790     0.0000     2.0000 </r>
       <r>   -21.5741     0.0000     2.0000 </r>
       <r>   -21.4692     0.0000     2.0000 </r>
       <r>   -21.3643     0.0000     2.0000 </r>
       <r>   -21.2594     0.0000     2.0000 </r>
       <r>   -21.1545     0.0000     2.0000 </r>
       <r>   -21.0496     0.0000     2.0000 </r>
       <r>   -20.9447     0.0000     2.0000 </r>
       <r>   -20.8398     0.0000     2.0000 </r>
       <r>   -20.7349     0.0000     2.0000 </r>
       <r>   -20.6300     0.0000     2.0000 </r>
       <r>   -20.5252     0.0000     2.0000 </r>
       <r>   -20.4203     0.0000     2.0000 </r>
       <r>   -20.3154     0.0000     2.0000 </r>
       <r>   -20.2105     0.0000     2.0000 </r>
       <r>   -20.1056     0.0000     2.0000 </r>
       <r>   -20.0007     0.0000     2.0000 </r>
       <r>   -19.8958     0.0000     2.0000 </r>
       <r>   -19.7909     0.0000     2.0000 </r>
       <r>   -19.6860     0.0000     2.0000 </r>
       <r>   -19.5811     0.0000     2.0000 </r>
       <r>   -19.4762     0.0000     2.0000 </r>
       <r>   -19.3713     0.0000     2.0000 </r>
       <r>   -19.2664     0.0000     2.0000 </r>
       <r>   -19.1615     0.0000     2.0000 </r>
       <r>   -19.0566     0.0000     2.0000 </r>
       <r>   -18.9517     0.0000     2.0000 </r>
       <r>   -18.8468     0.0000     2.0000 </r>
       <r>   -18.7419     0.0000     2.0000 </r>
       <r>   -18.6370     0.0000     2.0000 </r>
       <r>   -18.5321     0.0000     2.0000 </r>
       <r>   -18.4272     0.0000     2.0000 </r>
       <r>   -18.3223     0.0000     2.0000 </r>
       <r>   -18.2174     0.0000     2.0000 </r>
       <r>   -18.1125     0.0000     2.0000 </r>
       <r>   -18.0076     0.0000     2.0000 </r>
       <r>   -17.9027     0.0000     2.0000 </r>
       <r>   -17.7978     0.0000     2.0000 </r>
       <r>   -17.6929     0.0000     2.0000 </r>
       <r>   -17.5881     0.0000     2.0000 </r>
       <r>   -17.4832     0.0000     2.0000 </r>
       <r>   -17.3783     0.0000     2.0000 </r>
       <r>   -17.2734     0.0000     2.0000 </r>
       <r>   -17.1685     0.0000     2.0000 </r>
       <r>   -17.0636     0.0000     2.0000 </r>
       <r>   -16.9587     0.0000     2.0000 </r>
       <r>   -16.8538     0.0000     2.0000 </r>
       <r>   -16.7489     0.0000     2.0000 </r>
       <r>   -16.6440     0.0000     2.0000 </r>
       <r>   -16.5391     0.0000     2.0000 </r>
       <r>   -16.4342     0.0000     2.0000 </r>
       <r>   -16.3293     0.0000     2.0000 </r>
       <r>   -16.2244     0.0000     2.0000 </r>
       <r>   -16.1195     0.0000     2.0000 </r>
       <r>   -16.0146     0.0000     2.0000 </r>
       <r>   -15.9097     0.0000     2.0000 </r>
       <r>   -15.8048     0.0000     2.0000 </r>
       <r>   -15.6999     0.0000     2.0000 </r>
       <r>   -15.5950     0.0000     2.0000 </r>
       <r>   -15.4901     0.0000     2.0000 </r>
       <r>   -15.3852     0.0000     2.0000 </r>
       <r>   -15.2803     0.0000     2.0000 </r>
       <r>   -15.1754     0.0000     2.0000 </r>
       <r>   -15.0705     0.0000     2.0000 </r>
       <r>   -14.9656     0.0000     2.0000 </r>
       <r>   -14.8607     0.0000     2.0000 </r>
       <r>   -14.7558     0.0000     2.0000 </r>
       <r>   -14.6510     0.0000     2.0000 </r>
       <r>   -14.5461     0.0000     2.0000 </r>
       <r>   -14.4412     0.0000     2.0000 </r>
       <r>   -14.3363     0.0008     2.0001 </r>
       <r>   -14.2314     0.0098     2.0011 </r>
       <r>   -14.1265     0.0511     2.0065 </r>
       <r>   -14.0216    -0.0028     2.0062 </r>
       <r>   -13.9167    -0.6230     1.9408 </r>
       <r>   -13.8118    -0.1009     1.9302 </r>
       <r>   -13.7069     5.6197     2.5197 </r>
       <r>   -13.6020    10.0194     3.5707 </r>
       <r>   -13.4971     4.9091     4.0857 </r>
       <r>   -13.3922    -0.3443     4.0496 </r>
       <r>   -13.2873    -0.5476     3.9921 </r>
       <r>   -13.1824     0.0206     3.9943 </r>
       <r>   -13.0775     0.0460     3.9991 </r>
       <r>   -12.9726     0.0080     3.9999 </r>
       <r>   -12.8677     0.0006     4.0000 </r>
       <r>   -12.7628     0.0000     4.0000 </r>
       <r>   -12.6579     0.0000     4.0000 </r>
       <r>   -12.5530     0.0000     4.0000 </r>
       <r>   -12.4481     0.0000     4.0000 </r>
       <r>   -12.3432     0.0000     4.0000 </r>
       <r>   -12.2383     0.0000     4.0000 </r>
       <r>   -12.1334     0.0001     4.0000 </r>
       <r>   -12.0285     0.0013     4.0001 </r>
       <r>   -11.9236     0.0142     4.0016 </r>
       <r>   -11.8187     0.0594     4.0079 </r>
       <r>   -11.7139    -0.0637     4.0012 </r>
       <r>   -11.6090    -0.7427     3.9233 </r>
       <r>   -11.5041     0.5227     3.9781 </r>
       <r>   -11.3992     6.9938     4.7117 </r>
       <r>   -11.2943     9.7674     5.7363 </r>
       <r>   -11.1894     2.5662     6.0055 </r>
       <r>   -11.0845    -1.2990     5.8692 </r>
       <r>   -10.9796     9.1022     6.8240 </r>
       <r>   -10.8747    19.7771     8.8986 </r>
       <r>   -10.7698    11.5838    10.1137 </r>
       <r>   -10.6649     0.0875    10.1228 </r>
       <r>   -10.5600    -1.2624     9.9904 </r>
       <r>   -10.4551    -0.0355     9.9867 </r>
       <r>   -10.3502     0.1035     9.9975 </r>
       <r>   -10.2453     0.0215     9.9998 </r>
       <r>   -10.1404     0.0018    10.0000 </r>
       <r>   -10.0355     0.0001    10.0000 </r>
       <r>    -9.9306     0.0000    10.0000 </r>
       <r>    -9.8257     0.0000    10.0000 </r>
       <r>    -9.7208     0.0000    10.0000 </r>
       <r>    -9.6159     0.0000    10.0000 </r>
       <r>    -9.5110     0.0000    10.0000 </r>
       <r>    -9.4061     0.0000    10.0000 </r>
       <r>    -9.3012     0.0000    10.0000 </r>
       <r>    -9.1963     0.0000    10.0000 </r>
       <r>    -9.0914     0.0000    10.0000 </r>
       <r>    -8.9865     0.0000    10.0000 </r>
       <r>    -8.8816     0.0000    10.0000 </r>
       <r>    -8.7768     0.0000    10.0000 </r>
       <r>    -8.6719     0.0000    10.0000 </r>
       <r>    -8.5670     0.0000    10.0000 </r>
       <r>    -8.4621     0.0000    10.0000 </r>
       <r>    -8.3572     0.0000    10.0000 </r>
       <r>    -8.2523     0.0000    10.0000 </r>
       <r>    -8.1474     0.0000    10.0000 </r>
       <r>    -8.0425     0.0000    10.0000 </r>
       <r>    -7.9376     0.0000    10.0000 </r>
       <r>    -7.8327     0.0000    10.0000 </r>
       <r>    -7.7278     0.0002    10.0000 </r>
       <r>    -7.6229     0.0040    10.0004 </r>
       <r>    -7.5180     0.0370    10.0043 </r>
       <r>    -7.4131     0.1162    10.0165 </r>
       <r>    -7.3082    -0.2573     9.9895 </r>
       <r>    -7.2033    -1.4314     9.8394 </r>
       <r>    -7.0984     2.2814    10.0787 </r>
       <r>    -6.9935    14.5656    11.6066 </r>
       <r>    -6.8886    17.4517    13.4372 </r>
       <r>    -6.7837     8.2570    14.3033 </r>
       <r>    -6.6788     7.6708    15.1080 </r>
       <r>    -6.5739     7.6337    15.9087 </r>
       <r>    -6.4690     0.7813    15.9907 </r>
       <r>    -6.3641    -0.1604    15.9738 </r>
       <r>    -6.2592    10.6805    17.0942 </r>
       <r>    -6.1543    28.8243    20.1177 </r>
       <r>    -6.0494    36.5890    23.9558 </r>
       <r>    -5.9446    26.7671    26.7636 </r>
       <r>    -5.8397    27.1102    29.6073 </r>
       <r>    -5.7348    55.1491    35.3923 </r>
       <r>    -5.6299   126.6960    48.6822 </r>
       <r>    -5.5250   241.3897    74.0031 </r>
       <r>    -5.4201   293.5371   104.7941 </r>
       <r>    -5.3152   236.8138   129.6350 </r>
       <r>    -5.2103   206.5032   151.2965 </r>
       <r>    -5.1054   278.3851   180.4981 </r>
       <r>    -5.0005   355.6432   217.8038 </r>
       <r>    -4.8956   330.6741   252.4903 </r>
       <r>    -4.7907   282.6108   282.1352 </r>
       <r>    -4.6858   348.0357   318.6428 </r>
       <r>    -4.5809   428.5807   363.5994 </r>
       <r>    -4.4760   424.8882   408.1687 </r>
       <r>    -4.3711   471.0554   457.5807 </r>
       <r>    -4.2662   557.3285   516.0424 </r>
       <r>    -4.1613   442.4362   562.4524 </r>
       <r>    -4.0564   165.0797   579.7687 </r>
       <r>    -3.9515    12.5432   581.0844 </r>
       <r>    -3.8466    18.8228   583.0588 </r>
       <r>    -3.7417    32.1617   586.4325 </r>
       <r>    -3.6368    16.1755   588.1292 </r>
       <r>    -3.5319    15.9144   589.7986 </r>
       <r>    -3.4270    23.8483   592.3002 </r>
       <r>    -3.3221    12.4805   593.6094 </r>
       <r>    -3.2172     0.8889   593.7026 </r>
       <r>    -3.1123    24.6744   596.2909 </r>
       <r>    -3.0075    59.3798   602.5196 </r>
       <r>    -2.9026    50.8351   607.8520 </r>
       <r>    -2.7977    18.1097   609.7517 </r>
       <r>    -2.6928     1.4109   609.8997 </r>
       <r>    -2.5879    12.0212   611.1606 </r>
       <r>    -2.4830    29.2570   614.2296 </r>
       <r>    -2.3781    22.9093   616.6327 </r>
       <r>    -2.2732     9.2859   617.6068 </r>
       <r>    -2.1683    15.4652   619.2290 </r>
       <r>    -2.0634    35.7804   622.9823 </r>
       <r>    -1.9585    43.9275   627.5901 </r>
       <r>    -1.8536    35.5745   631.3217 </r>
       <r>    -1.7487    34.4116   634.9314 </r>
       <r>    -1.6438    45.4266   639.6965 </r>
       <r>    -1.5389    39.4685   643.8366 </r>
       <r>    -1.4340    21.0031   646.0397 </r>
       <r>    -1.3291    15.7910   647.6961 </r>
       <r>    -1.2242    19.5448   649.7463 </r>
       <r>    -1.1193    23.7116   652.2336 </r>
       <r>    -1.0144    44.8294   656.9360 </r>
       <r>    -0.9095    71.2976   664.4149 </r>
       <r>    -0.8046    57.8834   670.4866 </r>
       <r>    -0.6997    18.2000   672.3957 </r>
       <r>    -0.5948    -2.1691   672.1682 </r>
       <r>    -0.4899    -2.0082   671.9576 </r>
       <r>    -0.3850     0.1383   671.9721 </r>
       <r>    -0.2801     0.2192   671.9951 </r>
       <r>    -0.1752     0.0433   671.9996 </r>
       <r>    -0.0704     0.0037   672.0000 </r>
       <r>     0.0345     0.0002   672.0000 </r>
       <r>     0.1394     0.0000   672.0000 </r>
       <r>     0.2443     0.0000   672.0000 </r>
       <r>     0.3492     0.0000   672.0000 </r>
       <r>     0.4541     0.0000   672.0000 </r>
       <r>     0.5590     0.0000   672.0000 </r>
       <r>     0.6639     0.0000   672.0000 </r>
       <r>     0.7688     0.0000   672.0000 </r>
       <r>     0.8737     0.0000   672.0000 </r>
       <r>     0.9786     0.0000   672.0000 </r>
       <r>     1.0835     0.0000   672.0000 </r>
       <r>     1.1884     0.0000   672.0000 </r>
      </set>
     </set>
    </array>
   </total>
  </dos>
 </calculation>
 <structure name="finalpos" >
  <crystal>
   <varray name="basis" >
    <v>      30.00000000       0.00000000       0.00000000 </v>
    <v>       0.00000000      30.00000000       0.00000000 </v>
    <v>       0.00000000       0.00000000      30.00000000 </v>
   </varray>
   <i name="volume">  27000.00000000 </i>
   <varray name="rec_basis" >
    <v>       0.03333333       0.00000000       0.00000000 </v>
    <v>       0.00000000       0.03333333       0.00000000 </v>
    <v>       0.00000000       0.00000000       0.03333333 </v>
   </varray>
  </crystal>
  <varray name="positions" >
   <v>       0.44576020       0.32826710       0.41691983 </v>
   <v>       0.67173288       0.55423978       0.41691983 </v>
   <v>       0.55423980       0.32826710       0.41691983 </v>
   <v>       0.32826712       0.55423978       0.41691983 </v>
   <v>       0.50000000       0.38250690       0.34021317 </v>
   <v>       0.50000000       0.38250690       0.65978680 </v>
   <v>       0.50000000       0.27609440       0.50000000 </v>
   <v>       0.27609443       0.49999998       0.50000000 </v>
   <v>       0.72390557       0.49999998       0.50000000 </v>
   <v>       0.50000000       0.72390555       0.50000000 </v>
   <v>       0.61195280       0.38804720       0.34167483 </v>
   <v>       0.61195280       0.38804720       0.65832513 </v>
   <v>       0.38804722       0.61195278       0.34167483 </v>
   <v>       0.38804722       0.61195278       0.65832513 </v>
   <v>       0.38804720       0.38804720       0.34167483 </v>
   <v>       0.38804720       0.38804720       0.65832513 </v>
   <v>       0.61195278       0.61195278       0.34167483 </v>
   <v>       0.61195278       0.61195278       0.65832513 </v>
   <v>       0.44576020       0.32826710       0.58308023 </v>
   <v>       0.67173288       0.55423978       0.58308023 </v>
   <v>       0.55791699       0.44208301       0.41809300 </v>
   <v>       0.32826705       0.44576024       0.41691983 </v>
   <v>       0.55423973       0.67173293       0.41691983 </v>
   <v>       0.55423980       0.32826710       0.58308023 </v>
   <v>       0.32826712       0.55423978       0.58308023 </v>
   <v>       0.67173295       0.44576024       0.41691983 </v>
   <v>       0.44576027       0.67173293       0.41691983 </v>
   <v>       0.44208301       0.44208301       0.41809300 </v>
   <v>       0.50000000       0.38416601       0.50000000 </v>
   <v>       0.61749315       0.50000005       0.34021317 </v>
   <v>       0.61749315       0.50000005       0.65978680 </v>
   <v>       0.38250685       0.50000005       0.34021317 </v>
   <v>       0.38250685       0.50000005       0.65978680 </v>
   <v>       0.38317830       0.38317830       0.50000000 </v>
   <v>       0.61682172       0.61682172       0.50000000 </v>
   <v>       0.61682170       0.38317830       0.50000000 </v>
   <v>       0.38317828       0.61682172       0.50000000 </v>
   <v>       0.50000000       0.50000000       0.33478917 </v>
   <v>       0.50000000       0.50000000       0.66521087 </v>
   <v>       0.32826705       0.44576024       0.58308023 </v>
   <v>       0.55423973       0.67173293       0.58308023 </v>
   <v>       0.55791699       0.44208301       0.58190703 </v>
   <v>       0.44208298       0.55791702       0.41809300 </v>
   <v>       0.44208301       0.44208301       0.58190703 </v>
   <v>       0.67173295       0.44576024       0.58308023 </v>
   <v>       0.44576027       0.67173293       0.58308023 </v>
   <v>       0.55791702       0.55791702       0.41809300 </v>
   <v>       0.38416599       0.50000002       0.50000000 </v>
   <v>       0.61583401       0.50000002       0.50000000 </v>
   <v>       0.50000000       0.61749319       0.34021317 </v>
   <v>       0.50000000       0.61749319       0.65978680 </v>
   <v>       0.50000000       0.50000000       0.50000000 </v>
   <v>       0.44208298       0.55791702       0.58190703 </v>
   <v>       0.55791702       0.55791702       0.58190703 </v>
   <v>       0.50000000       0.61583404       0.50000000 </v>
   <v>       0.65932330       0.48938290       0.30294093 </v>
   <v>       0.68294243       0.48780897       0.27372760 </v>
  </varray>
  <varray name="selective"  type="logical" >
   <v type="logical" >  F  F  F </v>
   <v type="logical" >  F  F  F </v>
   <v type="logical" >  F  F  F </v>
   <v type="logical" >  F  F  F </v>
   <v type="logical" >  F  F  F </v>
   <v type="logical" >  F  F  F </v>
   <v type="logical" >  F  F  F </v>
   <v type="logical" >  F  F  F </v>
   <v type="logical" >  F  F  F </v>
   <v type="logical" >  F  F  F </v>
   <v type="logical" >  F  F  F </v>
   <v type="logical" >  F  F  F </v>
   <v type="logical" >  F  F  F </v>
   <v type="logical" >  F  F  F </v>
   <v type="logical" >  F  F  F </v>
   <v type="logical" >  F  F  F </v>
   <v type="logical" >  F  F  F </v>
   <v type="logical" >  F  F  F </v>
   <v type="logical" >  F  F  F </v>
   <v type="logical" >  F  F  F </v>
   <v type="logical" >  F  F  F </v>
   <v type="logical" >  F  F  F </v>
   <v type="logical" >  F  F  F </v>
   <v type="logical" >  F  F  F </v>
   <v type="logical" >  F  F  F </v>
   <v type="logical" >  F  F  F </v>
   <v type="logical" >  F  F  F </v>
   <v type="logical" >  F  F  F </v>
   <v type="logical" >  F  F  F </v>
   <v type="logical" >  F  F  F </v>
   <v type="logical" >  F  F  F </v>
   <v type="logical" >  F  F  F </v>
   <v type="logical" >  F  F  F </v>
   <v type="logical" >  F  F  F </v>
   <v type="logical" >  F  F  F </v>
   <v type="logical" >  F  F  F </v>
   <v type="logical" >  F  F  F </v>
   <v type="logical" >  F  F  F </v>
   <v type="logical" >  F  F  F </v>
   <v type="logical" >  F  F  F </v>
   <v type="logical" >  F  F  F </v>
   <v type="logical" >  F  F  F </v>
   <v type="logical" >  F  F  F </v>
   <v type="logical" >  F  F  F </v>
   <v type="logical" >  F  F  F </v>
   <v type="logical" >  F  F  F </v>
   <v type="logical" >  F  F  F </v>
   <v type="logical" >  F  F  F </v>
   <v type="logical" >  F  F  F </v>
   <v type="logical" >  F  F  F </v>
   <v type="logical" >  F  F  F </v>
   <v type="logical" >  F  F  F </v>
   <v type="logical" >  F  F  F </v>
   <v type="logical" >  F  F  F </v>
   <v type="logical" >  F  F  F </v>
   <v type="logical" >  F  F  F </v>
   <v type="logical" >  F  F  F </v>
  </varray>
  <nose>
   <v>      -3.00000000       0.00000000       0.00010000       0.00010000 </v>
  </nose>
 </structure>
</modeling>
