  57  57   0   0
  0.4736842E+03  0.3000000E-08  0.3000000E-08  0.3000000E-08  0.5000000E-15
  1.000000000000000E-004
  CAR 
 6_Pd100_top_free_z(O)                   
      1.22509376    -30.30001423  301     -4.16022809      1.00000000
    -30.300  0.0000E+00  0.0000E+00
    -30.195  0.0000E+00  0.0000E+00
    -30.090  0.0000E+00  0.0000E+00
    -29.985  0.2323E-27  0.2441E-28
    -29.880  0.1008E-23  0.1059E-24
    -29.775  0.2481E-20  0.2608E-21
    -29.670  0.3453E-17  0.3631E-18
    -29.564  0.2710E-14  0.2851E-15
    -29.459  0.1196E-11  0.1259E-12
    -29.354  0.2940E-09  0.3102E-10
    -29.249  0.3997E-07  0.4231E-08
    -29.144  0.2964E-05  0.3156E-06
    -29.039  0.1171E-03  0.1263E-04
    -28.934  0.2365E-02  0.2611E-03
    -28.829  0.2206E-01  0.2580E-02
    -28.724  0.6464E-01  0.9372E-02
    -28.619 -0.1832E+00 -0.9884E-02
    -28.514 -0.8220E+00 -0.9626E-01
    -28.409  0.1653E+01  0.7748E-01
    -28.303  0.8436E+01  0.9639E+00
    -28.198  0.8782E+01  0.1887E+01
    -28.093  0.2026E+01  0.2100E+01
    -27.988 -0.8172E+00  0.2014E+01
    -27.883 -0.2240E+00  0.1990E+01
    -27.778  0.6412E-01  0.1997E+01
    -27.673  0.2470E-01  0.2000E+01
    -27.568  0.2803E-02  0.2000E+01
    -27.463  0.1454E-03  0.2000E+01
    -27.358  0.3836E-05  0.2000E+01
    -27.253  0.5385E-07  0.2000E+01
    -27.148  0.4118E-09  0.2000E+01
    -27.042  0.1741E-11  0.2000E+01
    -26.937  0.4226E-14  0.2000E+01
    -26.832  0.0000E+00  0.2000E+01
    -26.727  0.0000E+00  0.2000E+01
    -26.622  0.0000E+00  0.2000E+01
    -26.517  0.0000E+00  0.2000E+01
    -26.412  0.0000E+00  0.2000E+01
    -26.307  0.0000E+00  0.2000E+01
    -26.202  0.0000E+00  0.2000E+01
    -26.097  0.0000E+00  0.2000E+01
    -25.992  0.0000E+00  0.2000E+01
    -25.886  0.0000E+00  0.2000E+01
    -25.781  0.0000E+00  0.2000E+01
    -25.676  0.0000E+00  0.2000E+01
    -25.571  0.0000E+00  0.2000E+01
    -25.466  0.0000E+00  0.2000E+01
    -25.361  0.0000E+00  0.2000E+01
    -25.256  0.0000E+00  0.2000E+01
    -25.151  0.0000E+00  0.2000E+01
    -25.046  0.0000E+00  0.2000E+01
    -24.941  0.0000E+00  0.2000E+01
    -24.836  0.0000E+00  0.2000E+01
    -24.731  0.0000E+00  0.2000E+01
    -24.625  0.0000E+00  0.2000E+01
    -24.520  0.0000E+00  0.2000E+01
    -24.415  0.0000E+00  0.2000E+01
    -24.310  0.0000E+00  0.2000E+01
    -24.205  0.0000E+00  0.2000E+01
    -24.100  0.0000E+00  0.2000E+01
    -23.995  0.0000E+00  0.2000E+01
    -23.890  0.0000E+00  0.2000E+01
    -23.785  0.0000E+00  0.2000E+01
    -23.680  0.0000E+00  0.2000E+01
    -23.575  0.0000E+00  0.2000E+01
    -23.470  0.0000E+00  0.2000E+01
    -23.364  0.0000E+00  0.2000E+01
    -23.259  0.0000E+00  0.2000E+01
    -23.154  0.0000E+00  0.2000E+01
    -23.049  0.0000E+00  0.2000E+01
    -22.944  0.0000E+00  0.2000E+01
    -22.839  0.0000E+00  0.2000E+01
    -22.734  0.0000E+00  0.2000E+01
    -22.629  0.0000E+00  0.2000E+01
    -22.524  0.0000E+00  0.2000E+01
    -22.419  0.0000E+00  0.2000E+01
    -22.314  0.0000E+00  0.2000E+01
    -22.209  0.0000E+00  0.2000E+01
    -22.103  0.0000E+00  0.2000E+01
    -21.998  0.0000E+00  0.2000E+01
    -21.893  0.0000E+00  0.2000E+01
    -21.788  0.0000E+00  0.2000E+01
    -21.683  0.0000E+00  0.2000E+01
    -21.578  0.0000E+00  0.2000E+01
    -21.473  0.0000E+00  0.2000E+01
    -21.368  0.0000E+00  0.2000E+01
    -21.263  0.0000E+00  0.2000E+01
    -21.158  0.0000E+00  0.2000E+01
    -21.053  0.0000E+00  0.2000E+01
    -20.948  0.0000E+00  0.2000E+01
    -20.842  0.0000E+00  0.2000E+01
    -20.737  0.0000E+00  0.2000E+01
    -20.632  0.0000E+00  0.2000E+01
    -20.527  0.0000E+00  0.2000E+01
    -20.422  0.0000E+00  0.2000E+01
    -20.317  0.0000E+00  0.2000E+01
    -20.212  0.0000E+00  0.2000E+01
    -20.107  0.0000E+00  0.2000E+01
    -20.002  0.0000E+00  0.2000E+01
    -19.897  0.0000E+00  0.2000E+01
    -19.792  0.0000E+00  0.2000E+01
    -19.687  0.0000E+00  0.2000E+01
    -19.581  0.0000E+00  0.2000E+01
    -19.476  0.0000E+00  0.2000E+01
    -19.371  0.0000E+00  0.2000E+01
    -19.266  0.0000E+00  0.2000E+01
    -19.161  0.0000E+00  0.2000E+01
    -19.056  0.0000E+00  0.2000E+01
    -18.951  0.0000E+00  0.2000E+01
    -18.846  0.0000E+00  0.2000E+01
    -18.741  0.0000E+00  0.2000E+01
    -18.636  0.0000E+00  0.2000E+01
    -18.531  0.0000E+00  0.2000E+01
    -18.426  0.0000E+00  0.2000E+01
    -18.320  0.0000E+00  0.2000E+01
    -18.215  0.0000E+00  0.2000E+01
    -18.110  0.0000E+00  0.2000E+01
    -18.005  0.0000E+00  0.2000E+01
    -17.900  0.0000E+00  0.2000E+01
    -17.795  0.0000E+00  0.2000E+01
    -17.690  0.0000E+00  0.2000E+01
    -17.585  0.0000E+00  0.2000E+01
    -17.480  0.0000E+00  0.2000E+01
    -17.375  0.0000E+00  0.2000E+01
    -17.270  0.0000E+00  0.2000E+01
    -17.165  0.0000E+00  0.2000E+01
    -17.059  0.0000E+00  0.2000E+01
    -16.954  0.0000E+00  0.2000E+01
    -16.849  0.0000E+00  0.2000E+01
    -16.744  0.0000E+00  0.2000E+01
    -16.639  0.0000E+00  0.2000E+01
    -16.534  0.0000E+00  0.2000E+01
    -16.429  0.0000E+00  0.2000E+01
    -16.324  0.0000E+00  0.2000E+01
    -16.219  0.0000E+00  0.2000E+01
    -16.114  0.0000E+00  0.2000E+01
    -16.009  0.0000E+00  0.2000E+01
    -15.904  0.0000E+00  0.2000E+01
    -15.798  0.0000E+00  0.2000E+01
    -15.693  0.0000E+00  0.2000E+01
    -15.588  0.0000E+00  0.2000E+01
    -15.483  0.0000E+00  0.2000E+01
    -15.378  0.0000E+00  0.2000E+01
    -15.273  0.0000E+00  0.2000E+01
    -15.168  0.0000E+00  0.2000E+01
    -15.063  0.0000E+00  0.2000E+01
    -14.958  0.0000E+00  0.2000E+01
    -14.853  0.9155E-25  0.2000E+01
    -14.748  0.2661E-21  0.2000E+01
    -14.643  0.4380E-18  0.2000E+01
    -14.537  0.4068E-15  0.2000E+01
    -14.432  0.2124E-12  0.2000E+01
    -14.327  0.6213E-10  0.2000E+01
    -14.222  0.1006E-07  0.2000E+01
    -14.117  0.8929E-06  0.2000E+01
    -14.012  0.4259E-04  0.2000E+01
    -13.907  0.1054E-02  0.2000E+01
    -13.802  0.1255E-01  0.2001E+01
    -13.697  0.5681E-01  0.2007E+01
    -13.592 -0.4114E-01  0.2003E+01
    -13.487 -0.7090E+00  0.1929E+01
    -13.382  0.2978E+00  0.1960E+01
    -13.276  0.6528E+01  0.2646E+01
    -13.171  0.9850E+01  0.3681E+01
    -13.066  0.3974E+01  0.4099E+01
    -12.961 -0.5849E+00  0.4037E+01
    -12.856 -0.4414E+00  0.3991E+01
    -12.751  0.4354E-01  0.3995E+01
    -12.646  0.3880E-01  0.3999E+01
    -12.541  0.5804E-02  0.4000E+01
    -12.436  0.3727E-03  0.4000E+01
    -12.331  0.1192E-04  0.4000E+01
    -12.226  0.2007E-06  0.4000E+01
    -12.121  0.3845E-08  0.4000E+01
    -12.015  0.2183E-06  0.4000E+01
    -11.910  0.1281E-04  0.4000E+01
    -11.805  0.3955E-03  0.4000E+01
    -11.700  0.6072E-02  0.4001E+01
    -11.595  0.3983E-01  0.4005E+01
    -11.490  0.4135E-01  0.4009E+01
    -11.385 -0.4496E+00  0.3962E+01
    -11.280 -0.5116E+00  0.3908E+01
    -11.175  0.4141E+01  0.4343E+01
    -11.070  0.9373E+01  0.5328E+01
    -10.965  0.5970E+01  0.5956E+01
    -10.860  0.4902E+01  0.6471E+01
    -10.754  0.9347E+01  0.7453E+01
    -10.649  0.5453E+01  0.8026E+01
    -10.544 -0.6401E+00  0.7959E+01
    -10.439  0.2770E+01  0.8250E+01
    -10.334  0.9637E+01  0.9262E+01
    -10.229  0.7148E+01  0.1001E+02
    -10.124  0.6243E+00  0.1008E+02
    -10.019 -0.7561E+00  0.1000E+02
     -9.914 -0.7322E-01  0.9992E+01
     -9.809  0.6016E-01  0.9998E+01
     -9.704  0.1478E-01  0.1000E+02
     -9.599  0.1325E-02  0.1000E+02
     -9.493  0.5657E-04  0.1000E+02
     -9.388  0.1249E-05  0.1000E+02
     -9.283  0.1478E-07  0.1000E+02
     -9.178  0.9575E-10  0.1000E+02
     -9.073  0.3444E-12  0.1000E+02
     -8.968  0.0000E+00  0.1000E+02
     -8.863  0.0000E+00  0.1000E+02
     -8.758  0.0000E+00  0.1000E+02
     -8.653  0.0000E+00  0.1000E+02
     -8.548  0.0000E+00  0.1000E+02
     -8.443  0.0000E+00  0.1000E+02
     -8.338  0.3835E-27  0.1000E+02
     -8.232  0.1610E-23  0.1000E+02
     -8.127  0.3834E-20  0.1000E+02
     -8.022  0.5163E-17  0.1000E+02
     -7.917  0.3919E-14  0.1000E+02
     -7.812  0.1672E-11  0.1000E+02
     -7.707  0.3973E-09  0.1000E+02
     -7.602  0.5217E-07  0.1000E+02
     -7.497  0.3732E-05  0.1000E+02
     -7.392  0.1421E-03  0.1000E+02
     -7.287  0.2753E-02  0.1000E+02
     -7.182  0.2441E-01  0.1000E+02
     -7.077  0.6423E-01  0.1001E+02
     -6.971 -0.2195E+00  0.9987E+01
     -6.866 -0.8177E+00  0.9901E+01
     -6.761  0.1998E+01  0.1011E+02
     -6.656  0.8843E+01  0.1104E+02
     -6.551  0.8662E+01  0.1195E+02
     -6.446  0.7997E+00  0.1203E+02
     -6.341 -0.2951E+01  0.1172E+02
     -6.236  0.8223E+01  0.1259E+02
     -6.131  0.2829E+02  0.1556E+02
     -6.026  0.2773E+02  0.1848E+02
     -5.921  0.2323E+02  0.2092E+02
     -5.816  0.4405E+02  0.2555E+02
     -5.710  0.7658E+02  0.3359E+02
     -5.605  0.1530E+03  0.4967E+02
     -5.500  0.2679E+03  0.7783E+02
     -5.395  0.2958E+03  0.1089E+03
     -5.290  0.2323E+03  0.1333E+03
     -5.185  0.2176E+03  0.1562E+03
     -5.080  0.2911E+03  0.1868E+03
     -4.975  0.3603E+03  0.2246E+03
     -4.870  0.3370E+03  0.2600E+03
     -4.765  0.3022E+03  0.2918E+03
     -4.660  0.3570E+03  0.3293E+03
     -4.555  0.4124E+03  0.3726E+03
     -4.449  0.4176E+03  0.4165E+03
     -4.344  0.4888E+03  0.4679E+03
     -4.239  0.5548E+03  0.5262E+03
     -4.134  0.3922E+03  0.5674E+03
     -4.029  0.1233E+03  0.5804E+03
     -3.924  0.1036E+02  0.5814E+03
     -3.819  0.2075E+02  0.5836E+03
     -3.714  0.2462E+02  0.5862E+03
     -3.609  0.1633E+02  0.5879E+03
     -3.504  0.2249E+02  0.5903E+03
     -3.399  0.2450E+02  0.5929E+03
     -3.294  0.7823E+01  0.5937E+03
     -3.188  0.2809E+01  0.5940E+03
     -3.083  0.3586E+02  0.5978E+03
     -2.978  0.6107E+02  0.6042E+03
     -2.873  0.3780E+02  0.6081E+03
     -2.768  0.1035E+02  0.6092E+03
     -2.663  0.6545E+01  0.6099E+03
     -2.558  0.1614E+02  0.6116E+03
     -2.453  0.2442E+02  0.6142E+03
     -2.348  0.2095E+02  0.6164E+03
     -2.243  0.1829E+02  0.6183E+03
     -2.138  0.2946E+02  0.6214E+03
     -2.033  0.3844E+02  0.6254E+03
     -1.927  0.3490E+02  0.6291E+03
     -1.822  0.3439E+02  0.6327E+03
     -1.717  0.3925E+02  0.6368E+03
     -1.612  0.3849E+02  0.6409E+03
     -1.507  0.2665E+02  0.6437E+03
     -1.402  0.1921E+02  0.6457E+03
     -1.297  0.2513E+02  0.6484E+03
     -1.192  0.2829E+02  0.6513E+03
     -1.087  0.2889E+02  0.6544E+03
     -0.982  0.5202E+02  0.6598E+03
     -0.877  0.6793E+02  0.6670E+03
     -0.771  0.4108E+02  0.6713E+03
     -0.666  0.9097E+01  0.6722E+03
     -0.561 -0.1542E+01  0.6721E+03
     -0.456 -0.1001E+01  0.6720E+03
     -0.351  0.1090E+00  0.6720E+03
     -0.246  0.1395E+00  0.6720E+03
     -0.141  0.2965E-01  0.6720E+03
     -0.036  0.2744E-02  0.6720E+03
      0.069  0.1272E-03  0.6720E+03
      0.174  0.3108E-05  0.6720E+03
      0.279  0.4112E-07  0.6720E+03
      0.384  0.2991E-09  0.6720E+03
      0.490  0.1209E-11  0.6720E+03
      0.595  0.2113E-14  0.6720E+03
      0.700  0.0000E+00  0.6720E+03
      0.805  0.0000E+00  0.6720E+03
      0.910  0.0000E+00  0.6720E+03
      1.015  0.0000E+00  0.6720E+03
      1.120  0.0000E+00  0.6720E+03
      1.225  0.0000E+00  0.6720E+03
