   57   57    1    1
  0.4736842E+03  0.3000000E-08  0.3000000E-08  0.3000000E-08  0.5000000E-15
  1.000000000000000E-004
  CAR 
 6_Pd100_top_free_z(O)                   
    560      1    336
 
  0.0000000E+00  0.0000000E+00  0.0000000E+00  0.1000000E+01
    1      -28.300014   1.000000
    2      -13.242210   1.000000
    3      -11.105956   1.000000
    4      -10.798280   1.000000
    5      -10.359880   1.000000
    6       -6.658867   1.000000
    7       -6.167600   1.000000
    8       -6.140973   1.000000
    9       -6.138562   1.000000
   10       -6.016940   1.000000
   11       -5.875875   1.000000
   12       -5.842870   1.000000
   13       -5.829504   1.000000
   14       -5.817848   1.000000
   15       -5.800616   1.000000
   16       -5.763199   1.000000
   17       -5.703017   1.000000
   18       -5.695601   1.000000
   19       -5.689786   1.000000
   20       -5.664049   1.000000
   21       -5.642222   1.000000
   22       -5.636548   1.000000
   23       -5.630491   1.000000
   24       -5.617914   1.000000
   25       -5.603216   1.000000
   26       -5.586730   1.000000
   27       -5.564875   1.000000
   28       -5.563591   1.000000
   29       -5.561361   1.000000
   30       -5.560075   1.000000
   31       -5.544827   1.000000
   32       -5.538994   1.000000
   33       -5.533981   1.000000
   34       -5.530822   1.000000
   35       -5.527030   1.000000
   36       -5.521948   1.000000
   37       -5.517438   1.000000
   38       -5.509425   1.000000
   39       -5.504187   1.000000
   40       -5.488710   1.000000
   41       -5.486698   1.000000
   42       -5.485442   1.000000
   43       -5.479832   1.000000
   44       -5.477189   1.000000
   45       -5.466931   1.000000
   46       -5.463955   1.000000
   47       -5.458126   1.000000
   48       -5.446509   1.000000
   49       -5.444182   1.000000
   50       -5.438941   1.000000
   51       -5.434438   1.000000
   52       -5.429467   1.000000
   53       -5.423728   1.000000
   54       -5.416631   1.000000
   55       -5.415074   1.000000
   56       -5.407067   1.000000
   57       -5.400868   1.000000
   58       -5.377292   1.000000
   59       -5.347969   1.000000
   60       -5.343018   1.000000
   61       -5.340607   1.000000
   62       -5.333709   1.000000
   63       -5.327440   1.000000
   64       -5.318930   1.000000
   65       -5.314549   1.000000
   66       -5.312160   1.000000
   67       -5.308655   1.000000
   68       -5.297542   1.000000
   69       -5.273312   1.000000
   70       -5.255134   1.000000
   71       -5.242200   1.000000
   72       -5.232990   1.000000
   73       -5.223057   1.000000
   74       -5.212604   1.000000
   75       -5.206952   1.000000
   76       -5.202081   1.000000
   77       -5.192209   1.000000
   78       -5.190186   1.000000
   79       -5.182402   1.000000
   80       -5.176114   1.000000
   81       -5.171731   1.000000
   82       -5.168446   1.000000
   83       -5.152856   1.000000
   84       -5.143519   1.000000
   85       -5.137638   1.000000
   86       -5.132761   1.000000
   87       -5.126279   1.000000
   88       -5.122530   1.000000
   89       -5.104326   1.000000
   90       -5.101205   1.000000
   91       -5.081451   1.000000
   92       -5.074279   1.000000
   93       -5.067561   1.000000
   94       -5.063821   1.000000
   95       -5.062145   1.000000
   96       -5.058279   1.000000
   97       -5.053556   1.000000
   98       -5.044770   1.000000
   99       -5.041881   1.000000
  100       -5.038548   1.000000
  101       -5.036815   1.000000
  102       -5.033940   1.000000
  103       -5.023333   1.000000
  104       -5.021672   1.000000
  105       -5.018255   1.000000
  106       -5.015018   1.000000
  107       -5.011684   1.000000
  108       -5.001787   1.000000
  109       -4.999589   1.000000
  110       -4.997279   1.000000
  111       -4.988481   1.000000
  112       -4.985827   1.000000
  113       -4.979862   1.000000
  114       -4.975842   1.000000
  115       -4.967056   0.999999
  116       -4.965211   0.999999
  117       -4.962124   0.999999
  118       -4.957702   0.999999
  119       -4.947802   0.999999
  120       -4.939621   0.999998
  121       -4.931547   0.999998
  122       -4.930236   0.999998
  123       -4.925659   0.999997
  124       -4.919353   0.999997
  125       -4.913274   0.999996
  126       -4.911136   0.999996
  127       -4.907496   0.999995
  128       -4.888310   0.999991
  129       -4.878366   0.999988
  130       -4.867735   0.999983
  131       -4.860287   0.999979
  132       -4.855785   0.999976
  133       -4.851829   0.999973
  134       -4.846301   0.999968
  135       -4.844786   0.999967
  136       -4.841049   0.999963
  137       -4.837153   0.999959
  138       -4.820077   0.999934
  139       -4.814828   0.999924
  140       -4.806302   0.999905
  141       -4.803813   0.999898
  142       -4.797560   0.999880
  143       -4.786010   0.999840
  144       -4.783076   0.999828
  145       -4.773677   0.999783
  146       -4.766323   0.999741
  147       -4.761343   0.999709
  148       -4.751121   0.999633
  149       -4.739420   0.999524
  150       -4.732959   0.999453
  151       -4.727374   0.999385
  152       -4.722982   0.999327
  153       -4.708387   0.999099
  154       -4.702516   0.998992
  155       -4.696008   0.998862
  156       -4.692758   0.998793
  157       -4.689912   0.998730
  158       -4.687988   0.998686
  159       -4.681419   0.998526
  160       -4.676504   0.998399
  161       -4.674595   0.998347
  162       -4.669480   0.998204
  163       -4.664557   0.998058
  164       -4.664301   0.998050
  165       -4.657497   0.997838
  166       -4.656330   0.997800
  167       -4.656296   0.997799
  168       -4.653470   0.997706
  169       -4.648600   0.997541
  170       -4.644769   0.997407
  171       -4.633799   0.997010
  172       -4.629838   0.996862
  173       -4.618576   0.996439
  174       -4.613640   0.996255
  175       -4.609706   0.996111
  176       -4.606714   0.996004
  177       -4.605063   0.995946
  178       -4.600609   0.995793
  179       -4.592600   0.995542
  180       -4.590111   0.995471
  181       -4.586148   0.995366
  182       -4.581244   0.995254
  183       -4.579981   0.995229
  184       -4.579111   0.995213
  185       -4.573737   0.995128
  186       -4.565605   0.995066
  187       -4.564114   0.995065
  188       -4.559219   0.995085
  189       -4.557224   0.995105
  190       -4.556518   0.995114
  191       -4.547033   0.995325
  192       -4.534569   0.995913
  193       -4.520533   0.997098
  194       -4.518525   0.997319
  195       -4.517606   0.997425
  196       -4.510598   0.998333
  197       -4.507187   0.998843
  198       -4.503450   0.999453
  199       -4.498615   1.000326
  200       -4.493251   1.001411
  201       -4.485458   1.003212
  202       -4.482899   1.003863
  203       -4.475929   1.005786
  204       -4.472888   1.006694
  205       -4.471251   1.007201
  206       -4.460728   1.010746
  207       -4.460010   1.011006
  208       -4.456776   1.012203
  209       -4.455541   1.012672
  210       -4.446993   1.016085
  211       -4.445883   1.016549
  212       -4.435687   1.021001
  213       -4.433022   1.022215
  214       -4.424382   1.026258
  215       -4.419821   1.028439
  216       -4.418585   1.029033
  217       -4.415729   1.030407
  218       -4.415181   1.030671
  219       -4.404457   1.035797
  220       -4.400658   1.037568
  221       -4.386403   1.043738
  222       -4.381107   1.045739
  223       -4.377688   1.046918
  224       -4.371000   1.048914
  225       -4.368045   1.049647
  226       -4.366005   1.050095
  227       -4.349888   1.051588
  228       -4.347996   1.051488
  229       -4.345629   1.051271
  230       -4.344219   1.051090
  231       -4.343182   1.050932
  232       -4.342654   1.050843
  233       -4.339271   1.050139
  234       -4.336631   1.049419
  235       -4.335821   1.049168
  236       -4.332328   1.047910
  237       -4.330622   1.047192
  238       -4.328282   1.046089
  239       -4.327551   1.045717
  240       -4.321308   1.041971
  241       -4.317624   1.039263
  242       -4.308338   1.030675
  243       -4.303751   1.025447
  244       -4.300413   1.021210
  245       -4.298503   1.018619
  246       -4.296571   1.015871
  247       -4.294574   1.012896
  248       -4.292055   1.008943
  249       -4.289464   1.004642
  250       -4.283022   0.992895
  251       -4.276149   0.978662
  252       -4.273441   0.972564
  253       -4.270752   0.966229
  254       -4.266839   0.956514
  255       -4.264392   0.950136
  256       -4.264150   0.949493
  257       -4.261053   0.941061
  258       -4.257984   0.932338
  259       -4.256454   0.927854
  260       -4.254529   0.922082
  261       -4.253499   0.918935
  262       -4.251560   0.912899
  263       -4.249400   0.906007
  264       -4.249233   0.905467
  265       -4.245910   0.894497
  266       -4.243095   0.884876
  267       -4.237600   0.865248
  268       -4.233232   0.848862
  269       -4.230545   0.838447
  270       -4.229369   0.833812
  271       -4.228014   0.828408
  272       -4.220584   0.797701
  273       -4.216712   0.780999
  274       -4.208067   0.742114
  275       -4.195549   0.682367
  276       -4.191074   0.660171
  277       -4.186378   0.636492
  278       -4.183915   0.623931
  279       -4.182972   0.619096
  280       -4.181398   0.611003
  281       -4.169221   0.547491
  282       -4.164384   0.521977
  283       -4.145601   0.422954
  284       -4.140909   0.398556
  285       -4.138314   0.385167
  286       -4.136819   0.377493
  287       -4.126594   0.325955
  288       -4.122632   0.306507
  289       -4.083308   0.136414
  290       -3.974121  -0.051347
  291       -3.895587  -0.026026
  292       -3.829603  -0.001937
  293       -3.823486  -0.000646
  294       -3.671909   0.002461
  295       -3.513063   0.000093
  296       -3.500597   0.000066
  297       -3.398785   0.000003
  298       -3.088950   0.000000
  299       -3.072093   0.000000
  300       -3.058434   0.000000
  301       -3.051140   0.000000
  302       -3.023407   0.000000
  303       -2.966153   0.000000
  304       -2.950817   0.000000
  305       -2.771369   0.000000
  306       -2.548286   0.000000
  307       -2.536450   0.000000
  308       -2.412022   0.000000
  309       -2.330446   0.000000
  310       -2.193715   0.000000
  311       -2.123462   0.000000
  312       -2.100230   0.000000
  313       -2.084520   0.000000
  314       -1.976232   0.000000
  315       -1.925847   0.000000
  316       -1.883776   0.000000
  317       -1.800025   0.000000
  318       -1.761912   0.000000
  319       -1.718953   0.000000
  320       -1.653453   0.000000
  321       -1.611105   0.000000
  322       -1.562746   0.000000
  323       -1.413208   0.000000
  324       -1.358636   0.000000
  325       -1.256021   0.000000
  326       -1.204108   0.000000
  327       -1.183990   0.000000
  328       -1.031606   0.000000
  329       -0.993515   0.000000
  330       -0.984722   0.000000
  331       -0.960036   0.000000
  332       -0.946082   0.000000
  333       -0.929635   0.000000
  334       -0.887936   0.000000
  335       -0.856901   0.000000
  336       -0.774906   0.000000
