<?xml version="1.0" encoding="ISO-8859-1"?>
<modeling>
 <generator>
  <i name="program" type="string">vasp </i>
  <i name="version" type="string">5.4.4.18Apr17-6-g9f103f2a35  </i>
  <i name="subversion" type="string">(build Sep 03 2018 23:53:05) complex            parallel </i>
  <i name="platform" type="string">LinuxIFC </i>
  <i name="date" type="string">2021 12 02 </i>
  <i name="time" type="string">00:32:32 </i>
 </generator>
 <incar>
  <i type="string" name="SYSTEM"> 6_Pd100_top_free_z(O)</i>
  <i type="int" name="ISTART">     0</i>
  <i type="string" name="PREC">normal   			! encut=max(enmax), ngx,y,z</i>
  <i type="string" name="ALGO"> Fast     			! Mix RMM-DIIS and Dav</i>
  <i type="logical" name="ADDGRID"> F  </i>
  <i type="int" name="ISPIN">     1</i>
  <i type="int" name="ICHARG">     2</i>
  <i type="int" name="NELM">   100</i>
  <i type="int" name="NELMIN">     6</i>
  <i type="int" name="IBRION">     2</i>
  <i name="EDIFF">      0.00010000</i>
  <i name="EDIFFG">     -0.05000000</i>
  <i type="int" name="NSW">     0</i>
  <i type="int" name="ISIF">     2</i>
  <i type="int" name="ISYM">     2</i>
  <i name="ENCUT">    400.00000000</i>
  <i type="string" name="LREAL"> Auto     			! Auto or A projection done</i>
  <i type="int" name="ISMEAR">     2</i>
  <i name="SIGMA">      0.20000000</i>
  <i type="logical" name="LWAVE"> F  </i>
  <i type="logical" name="LCHARG"> F  </i>
  <v type="int" name="KPOINT_BSE">    -1     0     0     0</v>
  <i type="int" name="MAXMEM"> 10000</i>
  <i type="int" name="NELM">   100</i>
  <i type="string" name="GGA"> RP         			! Revised PBE</i>
 </incar>
 <structure name="primitive_cell" >
  <crystal>
   <varray name="basis" >
    <v>      30.00000000       0.00000000       0.00000000 </v>
    <v>       0.00000000      30.00000000       0.00000000 </v>
    <v>       0.00000000       0.00000000      30.00000000 </v>
   </varray>
   <i name="volume">  27000.00000000 </i>
   <varray name="rec_basis" >
    <v>       0.03333333       0.00000000       0.00000000 </v>
    <v>       0.00000000       0.03333333       0.00000000 </v>
    <v>       0.00000000       0.00000000       0.03333333 </v>
   </varray>
  </crystal>
  <varray name="positions" >
   <v>       0.44576020       0.32826710       0.41691983 </v>
   <v>      -0.44576020       0.32826710       0.41691983 </v>
   <v>      -0.50000000       0.38250690       0.34021317 </v>
   <v>      -0.50000000       0.27609440      -0.50000000 </v>
   <v>       0.38804720       0.38804720       0.34167483 </v>
   <v>      -0.50000000       0.38416601      -0.50000000 </v>
   <v>       0.44208300       0.44208300       0.41809300 </v>
   <v>       0.38317830       0.38317830      -0.50000000 </v>
   <v>      -0.44208300       0.44208300       0.41809300 </v>
   <v>       0.44576020       0.32826710      -0.41691977 </v>
   <v>       0.32826705       0.44576024       0.41691983 </v>
   <v>      -0.38804720       0.38804720       0.34167483 </v>
   <v>      -0.38317830       0.38317830      -0.50000000 </v>
   <v>      -0.50000000      -0.50000000       0.33478917 </v>
   <v>      -0.50000000      -0.50000000      -0.50000000 </v>
   <v>      -0.44576020       0.32826710      -0.41691977 </v>
   <v>       0.38250685      -0.49999995       0.34021317 </v>
   <v>       0.44208300       0.44208300      -0.41809297 </v>
   <v>       0.38416599      -0.49999998      -0.50000000 </v>
   <v>      -0.44208300       0.44208300      -0.41809297 </v>
   <v>       0.44208298      -0.44208298       0.41809300 </v>
   <v>       0.32826705       0.44576024      -0.41691977 </v>
   <v>      -0.50000000       0.38250690      -0.34021320 </v>
   <v>       0.32826712      -0.44576022       0.41691983 </v>
   <v>      -0.38250685      -0.49999995       0.34021317 </v>
   <v>      -0.32826705       0.44576024       0.41691983 </v>
   <v>       0.27609443       0.49999998      -0.50000000 </v>
   <v>       0.38804720       0.38804720      -0.34167487 </v>
   <v>      -0.38416599      -0.49999998      -0.50000000 </v>
   <v>      -0.44208298      -0.44208298       0.41809300 </v>
   <v>       0.44208298      -0.44208298      -0.41809297 </v>
   <v>      -0.38804720       0.38804720      -0.34167487 </v>
   <v>       0.38804722      -0.38804722       0.34167483 </v>
   <v>       0.38250685      -0.49999995      -0.34021320 </v>
   <v>       0.32826712      -0.44576022      -0.41691977 </v>
   <v>      -0.32826705       0.44576024      -0.41691977 </v>
   <v>       0.50000000      -0.38250681       0.34021317 </v>
   <v>      -0.50000000      -0.38416596      -0.50000000 </v>
   <v>      -0.44208298      -0.44208298      -0.41809297 </v>
   <v>      -0.50000000      -0.50000000      -0.33478913 </v>
   <v>       0.38317828      -0.38317828      -0.50000000 </v>
   <v>      -0.32826712      -0.44576022       0.41691983 </v>
   <v>      -0.27609443       0.49999998      -0.50000000 </v>
   <v>      -0.38804722      -0.38804722       0.34167483 </v>
   <v>      -0.38250685      -0.49999995      -0.34021320 </v>
   <v>       0.44576027      -0.32826707       0.41691983 </v>
   <v>      -0.38317828      -0.38317828      -0.50000000 </v>
   <v>      -0.32826712      -0.44576022      -0.41691977 </v>
   <v>      -0.44576027      -0.32826707       0.41691983 </v>
   <v>       0.38804722      -0.38804722      -0.34167487 </v>
   <v>      -0.50000000      -0.38250681      -0.34021320 </v>
   <v>       0.44576027      -0.32826707      -0.41691977 </v>
   <v>      -0.44576027      -0.32826707      -0.41691977 </v>
   <v>      -0.50000000      -0.27609445       0.50000000 </v>
   <v>      -0.38804722      -0.38804722      -0.34167487 </v>
   <v>      -0.37634743      -0.27676930       0.38189167 </v>
   <v>      -0.35981330      -0.24692017       0.36609890 </v>
  </varray>
 </structure>
 <varray name="primitive_index" >
  <v type="int" >        1 </v>
  <v type="int" >        3 </v>
  <v type="int" >        5 </v>
  <v type="int" >        7 </v>
  <v type="int" >       15 </v>
  <v type="int" >       29 </v>
  <v type="int" >       28 </v>
  <v type="int" >       34 </v>
  <v type="int" >       21 </v>
  <v type="int" >       19 </v>
  <v type="int" >       22 </v>
  <v type="int" >       11 </v>
  <v type="int" >       36 </v>
  <v type="int" >       38 </v>
  <v type="int" >       52 </v>
  <v type="int" >       24 </v>
  <v type="int" >       32 </v>
  <v type="int" >       44 </v>
  <v type="int" >       48 </v>
  <v type="int" >       42 </v>
  <v type="int" >       43 </v>
  <v type="int" >       40 </v>
  <v type="int" >        6 </v>
  <v type="int" >        4 </v>
  <v type="int" >       30 </v>
  <v type="int" >       26 </v>
  <v type="int" >        8 </v>
  <v type="int" >       16 </v>
  <v type="int" >       49 </v>
  <v type="int" >       47 </v>
  <v type="int" >       53 </v>
  <v type="int" >       12 </v>
  <v type="int" >       13 </v>
  <v type="int" >       33 </v>
  <v type="int" >       25 </v>
  <v type="int" >       45 </v>
  <v type="int" >       50 </v>
  <v type="int" >       55 </v>
  <v type="int" >       54 </v>
  <v type="int" >       39 </v>
  <v type="int" >       37 </v>
  <v type="int" >        2 </v>
  <v type="int" >        9 </v>
  <v type="int" >       17 </v>
  <v type="int" >       31 </v>
  <v type="int" >       27 </v>
  <v type="int" >       35 </v>
  <v type="int" >       20 </v>
  <v type="int" >       23 </v>
  <v type="int" >       14 </v>
  <v type="int" >       51 </v>
  <v type="int" >       46 </v>
  <v type="int" >       41 </v>
  <v type="int" >       10 </v>
  <v type="int" >       18 </v>
  <v type="int" >       56 </v>
  <v type="int" >       57 </v>
 </varray>
 <kpoints>
  <generation param="Monkhorst-Pack">
   <v type="int" name="divisions">       1        1        1 </v>
   <v name="usershift">      0.00000000       0.00000000       0.00000000 </v>
   <v name="genvec1">      1.00000000       0.00000000       0.00000000 </v>
   <v name="genvec2">      0.00000000       1.00000000       0.00000000 </v>
   <v name="genvec3">      0.00000000       0.00000000       1.00000000 </v>
   <v name="shift">      0.00000000       0.00000000       0.00000000 </v>
  </generation>
  <varray name="kpointlist" >
   <v>       0.00000000       0.00000000       0.00000000 </v>
  </varray>
  <varray name="weights" >
   <v>       1.00000000 </v>
  </varray>
 </kpoints>
 <parameters>
  <separator name="general" >
   <i type="string" name="SYSTEM">6_Pd100_top_free_z(O)</i>
   <i type="logical" name="LCOMPAT"> F  </i>
  </separator>
  <separator name="electronic" >
   <i type="string" name="PREC">normal</i>
   <i name="ENMAX">    400.00000000</i>
   <i name="ENAUG">    644.87300000</i>
   <i name="EDIFF">      0.00010000</i>
   <i type="int" name="IALGO">    68</i>
   <i type="int" name="IWAVPR">    10</i>
   <i type="int" name="NBANDS">   336</i>
   <i name="NELECT">    560.00000000</i>
   <i type="int" name="TURBO">     0</i>
   <i type="int" name="IRESTART">     0</i>
   <i type="int" name="NREBOOT">     0</i>
   <i type="int" name="NMIN">     0</i>
   <i name="EREF">      0.00000000</i>
   <separator name="electronic smearing" >
    <i type="int" name="ISMEAR">     2</i>
    <i name="SIGMA">      0.20000000</i>
    <i name="KSPACING">      0.50000000</i>
    <i type="logical" name="KGAMMA"> T  </i>
   </separator>
   <separator name="electronic projectors" >
    <i type="logical" name="LREAL"> T  </i>
    <v name="ROPT">     -0.00050000     -0.00050000     -0.00050000</v>
    <i type="int" name="LMAXPAW">  -100</i>
    <i type="int" name="LMAXMIX">     2</i>
    <i type="logical" name="NLSPLINE"> F  </i>
   </separator>
   <separator name="electronic startup" >
    <i type="int" name="ISTART">     0</i>
    <i type="int" name="ICHARG">     2</i>
    <i type="int" name="INIWAV">     1</i>
   </separator>
   <separator name="electronic spin" >
    <i type="int" name="ISPIN">     1</i>
    <i type="logical" name="LNONCOLLINEAR"> F  </i>
    <v name="MAGMOM">      1.00000000      1.00000000      1.00000000      1.00000000      1.00000000      1.00000000      1.00000000      1.00000000      1.00000000      1.00000000      1.00000000      1.00000000      1.00000000      1.00000000      1.00000000      1.00000000      1.00000000      1.00000000      1.00000000      1.00000000
      1.00000000      1.00000000      1.00000000      1.00000000      1.00000000      1.00000000      1.00000000      1.00000000      1.00000000      1.00000000      1.00000000      1.00000000      1.00000000      1.00000000      1.00000000      1.00000000      1.00000000      1.00000000      1.00000000      1.00000000
      1.00000000      1.00000000      1.00000000      1.00000000      1.00000000      1.00000000      1.00000000      1.00000000      1.00000000      1.00000000      1.00000000      1.00000000      1.00000000      1.00000000      1.00000000      1.00000000      1.00000000</v>
    <i name="NUPDOWN">     -1.00000000</i>
    <i type="logical" name="LSORBIT"> F  </i>
    <v name="SAXIS">      0.00000000      0.00000000      1.00000000</v>
    <i type="logical" name="LSPIRAL"> F  </i>
    <v name="QSPIRAL">      0.00000000      0.00000000      0.00000000</v>
    <i type="logical" name="LZEROZ"> F  </i>
   </separator>
   <separator name="electronic exchange-correlation" >
    <i type="logical" name="LASPH"> F  </i>
    <i type="logical" name="LMETAGGA"> F  </i>
   </separator>
   <separator name="electronic convergence" >
    <i type="int" name="NELM">   100</i>
    <i type="int" name="NELMDL">    -5</i>
    <i type="int" name="NELMIN">     6</i>
    <i name="ENINI">    400.00000000</i>
    <separator name="electronic convergence detail" >
     <i type="logical" name="LDIAG"> T  </i>
     <i type="logical" name="LSUBROT"> F  </i>
     <i name="WEIMIN">      0.00000000</i>
     <i name="EBREAK">      0.00000007</i>
     <i name="DEPER">      0.30000000</i>
     <i type="int" name="NRMM">     4</i>
     <i name="TIME">      0.40000000</i>
    </separator>
   </separator>
   <separator name="electronic mixer" >
    <i name="AMIX">      0.40000000</i>
    <i name="BMIX">      1.00000000</i>
    <i name="AMIN">      0.10000000</i>
    <i name="AMIX_MAG">      1.60000000</i>
    <i name="BMIX_MAG">      1.00000000</i>
    <separator name="electronic mixer details" >
     <i type="int" name="IMIX">     4</i>
     <i type="logical" name="MIXFIRST"> F  </i>
     <i type="int" name="MAXMIX">   -45</i>
     <i name="WC">    100.00000000</i>
     <i type="int" name="INIMIX">     1</i>
     <i type="int" name="MIXPRE">     1</i>
     <i type="int" name="MREMOVE">     5</i>
    </separator>
   </separator>
   <separator name="electronic dipolcorrection" >
    <i type="logical" name="LDIPOL"> F  </i>
    <i type="logical" name="LMONO"> F  </i>
    <i type="int" name="IDIPOL">     0</i>
    <i name="EPSILON">      1.00000000</i>
    <v name="DIPOL">   -100.00000000   -100.00000000   -100.00000000</v>
    <i name="EFIELD">      0.00000000</i>
   </separator>
  </separator>
  <separator name="grids" >
   <i type="int" name="NGX">   150</i>
   <i type="int" name="NGY">   150</i>
   <i type="int" name="NGZ">   150</i>
   <i type="int" name="NGXF">   300</i>
   <i type="int" name="NGYF">   300</i>
   <i type="int" name="NGZF">   300</i>
   <i type="logical" name="ADDGRID"> F  </i>
  </separator>
  <separator name="ionic" >
   <i type="int" name="NSW">     0</i>
   <i type="int" name="IBRION">    -1</i>
   <i type="int" name="MDALGO">     0</i>
   <i type="int" name="ISIF">     2</i>
   <i name="PSTRESS">      0.00000000</i>
   <i name="EDIFFG">     -0.05000000</i>
   <i type="int" name="NFREE">     1</i>
   <i name="POTIM">      0.50000000</i>
   <i name="SMASS">     -3.00000000</i>
   <i name="SCALEE">      1.00000000</i>
  </separator>
  <separator name="ionic md" >
   <i name="TEBEG">      0.00010000</i>
   <i name="TEEND">      0.00010000</i>
   <i type="int" name="NBLOCK">     1</i>
   <i type="int" name="KBLOCK">     1</i>
   <i type="int" name="NPACO">   256</i>
   <i name="APACO">     16.00000000</i>
  </separator>
  <separator name="symmetry" >
   <i type="int" name="ISYM">     2</i>
   <i name="SYMPREC">      0.00001000</i>
  </separator>
  <separator name="dos" >
   <i type="int" name="LORBIT">     0</i>
   <v name="RWIGS">     -1.00000000     -1.00000000     -1.00000000</v>
   <i type="int" name="NEDOS">   301</i>
   <i name="EMIN">     10.00000000</i>
   <i name="EMAX">    -10.00000000</i>
   <i name="EFERMI">      0.00000000</i>
  </separator>
  <separator name="writing" >
   <i type="int" name="NWRITE">     2</i>
   <i type="logical" name="LWAVE"> F  </i>
   <i type="logical" name="LDOWNSAMPLE"> F  </i>
   <i type="logical" name="LCHARG"> F  </i>
   <i type="logical" name="LPARD"> F  </i>
   <i type="logical" name="LVTOT"> F  </i>
   <i type="logical" name="LVHAR"> F  </i>
   <i type="logical" name="LELF"> F  </i>
   <i type="logical" name="LOPTICS"> F  </i>
   <v name="STM">      0.00000000      0.00000000      0.00000000      0.00000000      0.00000000      0.00000000      0.00000000</v>
  </separator>
  <separator name="performance" >
   <i type="int" name="NPAR">     1</i>
   <i type="int" name="NSIM">     4</i>
   <i type="int" name="NBLK">    -1</i>
   <i type="logical" name="LPLANE"> T  </i>
   <i type="logical" name="LSCALAPACK"> T  </i>
   <i type="logical" name="LSCAAWARE"> F  </i>
   <i type="logical" name="LSCALU"> F  </i>
   <i type="logical" name="LASYNC"> F  </i>
   <i type="logical" name="LORBITALREAL"> F  </i>
  </separator>
  <separator name="miscellaneous" >
   <i type="int" name="IDIOT">     3</i>
   <i type="int" name="ISPECIAL">     0</i>
   <i type="logical" name="LMUSIC"> F  </i>
   <v name="POMASS">    106.42000000     12.01100000     16.00000000</v>
   <v name="DARWINR">      0.00000000      0.00000000      0.00000000</v>
   <v name="DARWINV">      1.00000000      1.00000000      1.00000000</v>
   <i type="logical" name="LCORR"> T  </i>
  </separator>
  <i type="logical" name="GGA_COMPAT"> T  </i>
  <i type="logical" name="LBERRY"> F  </i>
  <i type="int" name="ICORELEVEL">     0</i>
  <i type="logical" name="LDAU"> F  </i>
  <i type="int" name="I_CONSTRAINED_M">     0</i>
  <separator name="electronic exchange-correlation" >
   <i type="string" name="GGA">RP</i>
   <i type="int" name="VOSKOWN">     0</i>
   <i type="logical" name="LHFCALC"> F  </i>
   <i type="string" name="PRECFOCK"></i>
   <i type="logical" name="LSYMGRAD"> F  </i>
   <i type="logical" name="LHFONE"> F  </i>
   <i type="logical" name="LRHFCALC"> F  </i>
   <i type="logical" name="LTHOMAS"> F  </i>
   <i type="logical" name="LMODELHF"> F  </i>
   <i name="ENCUT4O">     -1.00000000</i>
   <i type="int" name="EXXOEP">     0</i>
   <i type="int" name="FOURORBIT">     0</i>
   <i name="AEXX">      0.00000000</i>
   <i name="HFALPHA">      0.00000000</i>
   <i name="MCALPHA">      0.00000000</i>
   <i name="ALDAX">      1.00000000</i>
   <i name="AGGAX">      1.00000000</i>
   <i name="ALDAC">      1.00000000</i>
   <i name="AGGAC">      1.00000000</i>
   <i type="int" name="NKREDX">     1</i>
   <i type="int" name="NKREDY">     1</i>
   <i type="int" name="NKREDZ">     1</i>
   <i type="logical" name="SHIFTRED"> F  </i>
   <i type="logical" name="ODDONLY"> F  </i>
   <i type="logical" name="EVENONLY"> F  </i>
   <i type="int" name="LMAXFOCK">     0</i>
   <i type="int" name="NMAXFOCKAE">     0</i>
   <i type="logical" name="LFOCKAEDFT"> F  </i>
   <i name="HFSCREEN">      0.00000000</i>
   <i name="HFSCREENC">      0.00000000</i>
   <i type="int" name="NBANDSGWLOW">     0</i>
  </separator>
  <separator name="vdW DFT" >
   <i type="logical" name="LUSE_VDW"> F  </i>
   <i name="Zab_VDW">     -0.84910000</i>
   <i name="PARAM1">      0.12340000</i>
   <i name="PARAM2">      1.00000000</i>
   <i name="PARAM3">      0.00000000</i>
  </separator>
  <separator name="model GW" >
   <i type="int" name="MODEL_GW">     0</i>
   <i name="MODEL_EPS0">    284.21052632</i>
   <i name="MODEL_ALPHA">      1.00000000</i>
  </separator>
  <separator name="linear response parameters" >
   <i type="logical" name="LEPSILON"> F  </i>
   <i type="logical" name="LRPA"> F  </i>
   <i type="logical" name="LNABLA"> F  </i>
   <i type="logical" name="LVEL"> F  </i>
   <i type="int" name="KINTER">     0</i>
   <i name="CSHIFT">      0.10000000</i>
   <i name="OMEGAMAX">     -1.00000000</i>
   <i name="DEG_THRESHOLD">      0.00200000</i>
   <i name="RTIME">     -0.10000000</i>
   <i name="WPLASMAI">      0.00000000</i>
   <v name="DFIELD">      0.00000000      0.00000000      0.00000000</v>
   <v name="WPLASMA">      0.00000000      0.00000000      0.00000000      0.00000000      0.00000000      0.00000000      0.00000000      0.00000000      0.00000000</v>
  </separator>
  <separator name="orbital magnetization" >
   <i type="logical" name="NUCIND"> F  </i>
   <v name="MAGPOS">      0.00000000      0.00000000      0.00000000</v>
   <i type="logical" name="LNICSALL"> T  </i>
   <i type="logical" name="ORBITALMAG"> F  </i>
   <i type="logical" name="LMAGBLOCH"> F  </i>
   <i type="logical" name="LCHIMAG"> F  </i>
   <i type="logical" name="LGAUGE"> T  </i>
   <i type="int" name="MAGATOM">     0</i>
   <v name="MAGDIPOL">      0.00000000      0.00000000      0.00000000</v>
   <v name="AVECCONST">      0.00000000      0.00000000      0.00000000</v>
  </separator>
  <separator name="response functions" >
   <i type="logical" name="LADDER"> F  </i>
   <i type="logical" name="LRPAFORCE"> F  </i>
   <i type="logical" name="LFXC"> F  </i>
   <i type="logical" name="LHARTREE"> T  </i>
   <i type="int" name="IBSE">     0</i>
   <v type="int" name="KPOINT">    -1     0     0     0</v>
   <i type="logical" name="LTCTE"> F  </i>
   <i type="logical" name="LTETE"> F  </i>
   <i type="logical" name="LTRIPLET"> F  </i>
   <i type="logical" name="LFXCEPS"> F  </i>
   <i type="logical" name="LFXHEG"> F  </i>
   <i type="int" name="NATURALO">     2</i>
   <i type="logical" name="L2ORDER"> F  </i>
   <i type="logical" name="LMP2LT"> F  </i>
   <i type="logical" name="LUSEW"> F  </i>
   <i name="ENCUTGW">     -2.00000000</i>
   <i name="ENCUTGWSOFT">     -2.00000000</i>
   <i name="ENCUTLF">     -1.00000000</i>
   <i type="int" name="LMAXMP2">    -1</i>
   <i name="SCISSOR">      0.00000000</i>
   <i type="int" name="NOMEGA">     0</i>
   <i type="int" name="NOMEGAR">     0</i>
   <i type="int" name="NBANDSGW">    -1</i>
   <i type="int" name="NBANDSO">    -1</i>
   <i type="int" name="NBANDSV">    -1</i>
   <i type="int" name="NELM">   100</i>
   <i type="int" name="NELMHF">     1</i>
   <i type="int" name="DIM">     3</i>
   <i type="int" name="ANTIRES">     0</i>
   <i name="OMEGAMAX">    -30.00000000</i>
   <i name="OMEGAMIN">    -30.00000000</i>
   <i name="OMEGATL">   -200.00000000</i>
   <i type="int" name="OMEGAGRID">   140</i>
   <i name="CSHIFT">     -0.10000000</i>
   <i type="logical" name="SELFENERGY"> F  </i>
   <i type="logical" name="LSPECTRAL"> F  </i>
   <i type="logical" name="LSPECTRALGW"> F  </i>
   <i type="logical" name="LSINGLES"> F  </i>
   <i type="logical" name="LFERMIGW"> F  </i>
   <i type="logical" name="ODDONLYGW"> F  </i>
   <i type="logical" name="EVENONLYGW"> F  </i>
   <i type="int" name="NKREDLFX">     1</i>
   <i type="int" name="NKREDLFY">     1</i>
   <i type="int" name="NKREDLFZ">     1</i>
   <i type="int" name="MAXMEM"> 10000</i>
   <i type="int" name="TELESCOPE">     0</i>
   <i type="int" name="TAUPAR">     1</i>
   <i type="int" name="OMEGAPAR">    -1</i>
   <i name="LAMBDA">      1.00000000</i>
  </separator>
  <separator name="External order field" >
   <i name="OFIELD_KAPPA">      0.00000000</i>
   <v name="OFIELD_K">      0.00000000      0.00000000      0.00000000</v>
   <i name="OFIELD_Q6_NEAR">      0.00000000</i>
   <i name="OFIELD_Q6_FAR">      0.00000000</i>
   <i name="OFIELD_A">      0.00000000</i>
  </separator>
 </parameters>
 <atominfo>
  <atoms>      57 </atoms>
  <types>       3 </types>
  <array name="atoms" >
   <dimension dim="1">ion</dimension>
   <field type="string">element</field>
   <field type="int">atomtype</field>
   <set>
    <rc><c>Pd</c><c>   1</c></rc>
    <rc><c>Pd</c><c>   1</c></rc>
    <rc><c>Pd</c><c>   1</c></rc>
    <rc><c>Pd</c><c>   1</c></rc>
    <rc><c>Pd</c><c>   1</c></rc>
    <rc><c>Pd</c><c>   1</c></rc>
    <rc><c>Pd</c><c>   1</c></rc>
    <rc><c>Pd</c><c>   1</c></rc>
    <rc><c>Pd</c><c>   1</c></rc>
    <rc><c>Pd</c><c>   1</c></rc>
    <rc><c>Pd</c><c>   1</c></rc>
    <rc><c>Pd</c><c>   1</c></rc>
    <rc><c>Pd</c><c>   1</c></rc>
    <rc><c>Pd</c><c>   1</c></rc>
    <rc><c>Pd</c><c>   1</c></rc>
    <rc><c>Pd</c><c>   1</c></rc>
    <rc><c>Pd</c><c>   1</c></rc>
    <rc><c>Pd</c><c>   1</c></rc>
    <rc><c>Pd</c><c>   1</c></rc>
    <rc><c>Pd</c><c>   1</c></rc>
    <rc><c>Pd</c><c>   1</c></rc>
    <rc><c>Pd</c><c>   1</c></rc>
    <rc><c>Pd</c><c>   1</c></rc>
    <rc><c>Pd</c><c>   1</c></rc>
    <rc><c>Pd</c><c>   1</c></rc>
    <rc><c>Pd</c><c>   1</c></rc>
    <rc><c>Pd</c><c>   1</c></rc>
    <rc><c>Pd</c><c>   1</c></rc>
    <rc><c>Pd</c><c>   1</c></rc>
    <rc><c>Pd</c><c>   1</c></rc>
    <rc><c>Pd</c><c>   1</c></rc>
    <rc><c>Pd</c><c>   1</c></rc>
    <rc><c>Pd</c><c>   1</c></rc>
    <rc><c>Pd</c><c>   1</c></rc>
    <rc><c>Pd</c><c>   1</c></rc>
    <rc><c>Pd</c><c>   1</c></rc>
    <rc><c>Pd</c><c>   1</c></rc>
    <rc><c>Pd</c><c>   1</c></rc>
    <rc><c>Pd</c><c>   1</c></rc>
    <rc><c>Pd</c><c>   1</c></rc>
    <rc><c>Pd</c><c>   1</c></rc>
    <rc><c>Pd</c><c>   1</c></rc>
    <rc><c>Pd</c><c>   1</c></rc>
    <rc><c>Pd</c><c>   1</c></rc>
    <rc><c>Pd</c><c>   1</c></rc>
    <rc><c>Pd</c><c>   1</c></rc>
    <rc><c>Pd</c><c>   1</c></rc>
    <rc><c>Pd</c><c>   1</c></rc>
    <rc><c>Pd</c><c>   1</c></rc>
    <rc><c>Pd</c><c>   1</c></rc>
    <rc><c>Pd</c><c>   1</c></rc>
    <rc><c>Pd</c><c>   1</c></rc>
    <rc><c>Pd</c><c>   1</c></rc>
    <rc><c>Pd</c><c>   1</c></rc>
    <rc><c>Pd</c><c>   1</c></rc>
    <rc><c>C </c><c>   2</c></rc>
    <rc><c>O </c><c>   3</c></rc>
   </set>
  </array>
  <array name="atomtypes" >
   <dimension dim="1">type</dimension>
   <field type="int">atomspertype</field>
   <field type="string">element</field>
   <field>mass</field>
   <field>valence</field>
   <field type="string">pseudopotential</field>
   <set>
    <rc><c>  55</c><c>Pd</c><c>    106.42000000</c><c>     10.00000000</c><c>  PAW_PBE Pd 04Jan2005                  </c></rc>
    <rc><c>   1</c><c>C </c><c>     12.01100000</c><c>      4.00000000</c><c>  PAW_PBE C 08Apr2002                   </c></rc>
    <rc><c>   1</c><c>O </c><c>     16.00000000</c><c>      6.00000000</c><c>  PAW_PBE O 08Apr2002                   </c></rc>
   </set>
  </array>
 </atominfo>
 <structure name="initialpos" >
  <crystal>
   <varray name="basis" >
    <v>      30.00000000       0.00000000       0.00000000 </v>
    <v>       0.00000000      30.00000000       0.00000000 </v>
    <v>       0.00000000       0.00000000      30.00000000 </v>
   </varray>
   <i name="volume">  27000.00000000 </i>
   <varray name="rec_basis" >
    <v>       0.03333333       0.00000000       0.00000000 </v>
    <v>       0.00000000       0.03333333       0.00000000 </v>
    <v>       0.00000000       0.00000000       0.03333333 </v>
   </varray>
  </crystal>
  <varray name="positions" >
   <v>       0.44576020       0.32826710       0.41691983 </v>
   <v>       0.67173288       0.55423978       0.41691983 </v>
   <v>       0.55423980       0.32826710       0.41691983 </v>
   <v>       0.32826712       0.55423978       0.41691983 </v>
   <v>       0.50000000       0.38250690       0.34021317 </v>
   <v>       0.50000000       0.38250690       0.65978680 </v>
   <v>       0.50000000       0.27609440       0.50000000 </v>
   <v>       0.27609443       0.49999998       0.50000000 </v>
   <v>       0.72390557       0.49999998       0.50000000 </v>
   <v>       0.50000000       0.72390555       0.50000000 </v>
   <v>       0.61195280       0.38804720       0.34167483 </v>
   <v>       0.61195280       0.38804720       0.65832513 </v>
   <v>       0.38804722       0.61195278       0.34167483 </v>
   <v>       0.38804722       0.61195278       0.65832513 </v>
   <v>       0.38804720       0.38804720       0.34167483 </v>
   <v>       0.38804720       0.38804720       0.65832513 </v>
   <v>       0.61195278       0.61195278       0.34167483 </v>
   <v>       0.61195278       0.61195278       0.65832513 </v>
   <v>       0.44576020       0.32826710       0.58308023 </v>
   <v>       0.67173288       0.55423978       0.58308023 </v>
   <v>       0.55791699       0.44208301       0.41809300 </v>
   <v>       0.32826705       0.44576024       0.41691983 </v>
   <v>       0.55423973       0.67173293       0.41691983 </v>
   <v>       0.55423980       0.32826710       0.58308023 </v>
   <v>       0.32826712       0.55423978       0.58308023 </v>
   <v>       0.67173295       0.44576024       0.41691983 </v>
   <v>       0.44576027       0.67173293       0.41691983 </v>
   <v>       0.44208301       0.44208301       0.41809300 </v>
   <v>       0.50000000       0.38416601       0.50000000 </v>
   <v>       0.61749315       0.50000005       0.34021317 </v>
   <v>       0.61749315       0.50000005       0.65978680 </v>
   <v>       0.38250685       0.50000005       0.34021317 </v>
   <v>       0.38250685       0.50000005       0.65978680 </v>
   <v>       0.38317830       0.38317830       0.50000000 </v>
   <v>       0.61682172       0.61682172       0.50000000 </v>
   <v>       0.61682170       0.38317830       0.50000000 </v>
   <v>       0.38317828       0.61682172       0.50000000 </v>
   <v>       0.50000000       0.50000000       0.33478917 </v>
   <v>       0.50000000       0.50000000       0.66521087 </v>
   <v>       0.32826705       0.44576024       0.58308023 </v>
   <v>       0.55423973       0.67173293       0.58308023 </v>
   <v>       0.55791699       0.44208301       0.58190703 </v>
   <v>       0.44208298       0.55791702       0.41809300 </v>
   <v>       0.44208301       0.44208301       0.58190703 </v>
   <v>       0.67173295       0.44576024       0.58308023 </v>
   <v>       0.44576027       0.67173293       0.58308023 </v>
   <v>       0.55791702       0.55791702       0.41809300 </v>
   <v>       0.38416599       0.50000002       0.50000000 </v>
   <v>       0.61583401       0.50000002       0.50000000 </v>
   <v>       0.50000000       0.61749319       0.34021317 </v>
   <v>       0.50000000       0.61749319       0.65978680 </v>
   <v>       0.50000000       0.50000000       0.50000000 </v>
   <v>       0.44208298       0.55791702       0.58190703 </v>
   <v>       0.55791702       0.55791702       0.58190703 </v>
   <v>       0.50000000       0.61583404       0.50000000 </v>
   <v>       0.62365257       0.72323070       0.38189167 </v>
   <v>       0.64018670       0.75307983       0.36609890 </v>
  </varray>
  <varray name="selective"  type="logical" >
   <v type="logical" >  F  F  F </v>
   <v type="logical" >  F  F  F </v>
   <v type="logical" >  F  F  F </v>
   <v type="logical" >  F  F  F </v>
   <v type="logical" >  F  F  F </v>
   <v type="logical" >  F  F  F </v>
   <v type="logical" >  F  F  F </v>
   <v type="logical" >  F  F  F </v>
   <v type="logical" >  F  F  F </v>
   <v type="logical" >  F  F  F </v>
   <v type="logical" >  F  F  F </v>
   <v type="logical" >  F  F  F </v>
   <v type="logical" >  F  F  F </v>
   <v type="logical" >  F  F  F </v>
   <v type="logical" >  F  F  F </v>
   <v type="logical" >  F  F  F </v>
   <v type="logical" >  F  F  F </v>
   <v type="logical" >  F  F  F </v>
   <v type="logical" >  F  F  F </v>
   <v type="logical" >  F  F  F </v>
   <v type="logical" >  F  F  F </v>
   <v type="logical" >  F  F  F </v>
   <v type="logical" >  F  F  F </v>
   <v type="logical" >  F  F  F </v>
   <v type="logical" >  F  F  F </v>
   <v type="logical" >  F  F  F </v>
   <v type="logical" >  F  F  F </v>
   <v type="logical" >  F  F  F </v>
   <v type="logical" >  F  F  F </v>
   <v type="logical" >  F  F  F </v>
   <v type="logical" >  F  F  F </v>
   <v type="logical" >  F  F  F </v>
   <v type="logical" >  F  F  F </v>
   <v type="logical" >  F  F  F </v>
   <v type="logical" >  F  F  F </v>
   <v type="logical" >  F  F  F </v>
   <v type="logical" >  F  F  F </v>
   <v type="logical" >  F  F  F </v>
   <v type="logical" >  F  F  F </v>
   <v type="logical" >  F  F  F </v>
   <v type="logical" >  F  F  F </v>
   <v type="logical" >  F  F  F </v>
   <v type="logical" >  F  F  F </v>
   <v type="logical" >  F  F  F </v>
   <v type="logical" >  F  F  F </v>
   <v type="logical" >  F  F  F </v>
   <v type="logical" >  F  F  F </v>
   <v type="logical" >  F  F  F </v>
   <v type="logical" >  F  F  F </v>
   <v type="logical" >  F  F  F </v>
   <v type="logical" >  F  F  F </v>
   <v type="logical" >  F  F  F </v>
   <v type="logical" >  F  F  F </v>
   <v type="logical" >  F  F  F </v>
   <v type="logical" >  F  F  F </v>
   <v type="logical" >  F  F  F </v>
   <v type="logical" >  F  F  F </v>
  </varray>
  <nose>
   <v>      -3.00000000       0.00000000       0.00010000       0.00010000 </v>
  </nose>
 </structure>
 <calculation>
  <scstep>
   <time name="dav">  350.50  350.61</time>
   <time name="total">  364.63  364.74</time>
   <energy>
    <i name="alphaZ">     75.25431677 </i>
    <i name="ewald"> 137252.25094520 </i>
    <i name="hartreedc">-180620.51254696 </i>
    <i name="XCdc">  -1704.05566520 </i>
    <i name="pawpsdc">  44873.02882129 </i>
    <i name="pawaedc"> -41398.84523641 </i>
    <i name="eentropy">      0.02612111 </i>
    <i name="bandstr">    818.50010420 </i>
    <i name="atom">  45086.50549395 </i>
    <i name="e_fr_energy">   4382.15235396 </i>
    <i name="e_wo_entrp">   4382.12623284 </i>
    <i name="e_0_energy">   4382.14582368 </i>
   </energy>
  </scstep>
  <scstep>
   <time name="dav">  556.94  556.97</time>
   <time name="total">  556.94  556.98</time>
   <energy>
    <i name="e_fr_energy">   2027.10878798 </i>
    <i name="e_wo_entrp">   2027.13897317 </i>
    <i name="e_0_energy">   2027.11633428 </i>
   </energy>
  </scstep>
  <scstep>
   <time name="dav">  474.28  474.31</time>
   <time name="total">  474.28  474.31</time>
   <energy>
    <i name="e_fr_energy">    239.99948733 </i>
    <i name="e_wo_entrp">    239.99282825 </i>
    <i name="e_0_energy">    239.99782256 </i>
   </energy>
  </scstep>
  <scstep>
   <time name="dav">  405.93  405.95</time>
   <time name="total">  405.93  405.95</time>
   <energy>
    <i name="e_fr_energy">   -131.82727459 </i>
    <i name="e_wo_entrp">   -131.72573404 </i>
    <i name="e_0_energy">   -131.80188945 </i>
   </energy>
  </scstep>
  <scstep>
   <time name="dav">  488.15  488.18</time>
   <time name="total">  513.54  513.56</time>
   <energy>
    <i name="e_fr_energy">   -178.47451170 </i>
    <i name="e_wo_entrp">   -179.00777963 </i>
    <i name="e_0_energy">   -178.60782868 </i>
   </energy>
  </scstep>
  <scstep>
   <time name="diag">   67.40   67.42</time>
   <time name="diis">  183.97  183.98</time>
   <time name="orth">   13.10   13.10</time>
   <time name="total">  302.70  302.74</time>
   <energy>
    <i name="e_fr_energy">   -177.92171973 </i>
    <i name="e_wo_entrp">   -177.65099982 </i>
    <i name="e_0_energy">   -177.85403975 </i>
   </energy>
  </scstep>
  <scstep>
   <time name="diag">   66.55   66.55</time>
   <time name="diis">  219.35  219.38</time>
   <time name="orth">   13.23   13.23</time>
   <time name="total">  337.36  337.40</time>
   <energy>
    <i name="e_fr_energy">   -179.51912990 </i>
    <i name="e_wo_entrp">   -179.44665398 </i>
    <i name="e_0_energy">   -179.50101092 </i>
   </energy>
  </scstep>
  <scstep>
   <time name="diag">   67.50   67.52</time>
   <time name="diis">  198.92  198.95</time>
   <time name="orth">   13.26   13.26</time>
   <time name="total">  317.86  317.92</time>
   <energy>
    <i name="e_fr_energy">   -183.77944951 </i>
    <i name="e_wo_entrp">   -183.68851995 </i>
    <i name="e_0_energy">   -183.75671712 </i>
   </energy>
  </scstep>
  <scstep>
   <time name="diag">   67.53   67.53</time>
   <time name="diis">  190.37  190.37</time>
   <time name="orth">   13.20   13.20</time>
   <time name="total">  309.73  309.74</time>
   <energy>
    <i name="e_fr_energy">   -182.12645420 </i>
    <i name="e_wo_entrp">   -181.87309685 </i>
    <i name="e_0_energy">   -182.06311487 </i>
   </energy>
  </scstep>
  <scstep>
   <time name="diag">   67.42   67.42</time>
   <time name="diis">  188.59  188.59</time>
   <time name="orth">   13.27   13.27</time>
   <time name="total">  308.22  308.23</time>
   <energy>
    <i name="e_fr_energy">   -178.90262325 </i>
    <i name="e_wo_entrp">   -178.86573262 </i>
    <i name="e_0_energy">   -178.89340059 </i>
   </energy>
  </scstep>
  <scstep>
   <time name="diag">   67.99   67.99</time>
   <time name="diis">  189.75  189.75</time>
   <time name="orth">   13.25   13.25</time>
   <time name="total">  310.12  310.12</time>
   <energy>
    <i name="e_fr_energy">   -177.44274534 </i>
    <i name="e_wo_entrp">   -177.32719589 </i>
    <i name="e_0_energy">   -177.41385798 </i>
   </energy>
  </scstep>
  <scstep>
   <time name="diag">   68.07   68.07</time>
   <time name="diis">  185.79  185.80</time>
   <time name="orth">   13.21   13.21</time>
   <time name="total">  306.14  306.16</time>
   <energy>
    <i name="e_fr_energy">   -175.78262594 </i>
    <i name="e_wo_entrp">   -175.68324611 </i>
    <i name="e_0_energy">   -175.75778098 </i>
   </energy>
  </scstep>
  <scstep>
   <time name="diag">   69.02   69.02</time>
   <time name="diis">  187.70  187.70</time>
   <time name="orth">   13.10   13.10</time>
   <time name="total">  309.11  309.12</time>
   <energy>
    <i name="e_fr_energy">   -175.62901348 </i>
    <i name="e_wo_entrp">   -175.52595715 </i>
    <i name="e_0_energy">   -175.60324940 </i>
   </energy>
  </scstep>
  <scstep>
   <time name="diag">   69.21   69.22</time>
   <time name="diis">  187.64  187.64</time>
   <time name="orth">   13.20   13.20</time>
   <time name="total">  309.79  309.80</time>
   <energy>
    <i name="e_fr_energy">   -176.28269256 </i>
    <i name="e_wo_entrp">   -176.34045001 </i>
    <i name="e_0_energy">   -176.29713192 </i>
   </energy>
  </scstep>
  <scstep>
   <time name="diag">   68.77   68.77</time>
   <time name="diis">  184.80  184.80</time>
   <time name="orth">   13.29   13.29</time>
   <time name="total">  306.38  306.39</time>
   <energy>
    <i name="e_fr_energy">   -175.50191046 </i>
    <i name="e_wo_entrp">   -175.42362865 </i>
    <i name="e_0_energy">   -175.48234001 </i>
   </energy>
  </scstep>
  <scstep>
   <time name="diag">   68.37   68.37</time>
   <time name="diis">  185.49  185.50</time>
   <time name="orth">   13.32   13.32</time>
   <time name="total">  306.93  306.94</time>
   <energy>
    <i name="e_fr_energy">   -174.99195568 </i>
    <i name="e_wo_entrp">   -174.89672616 </i>
    <i name="e_0_energy">   -174.96814830 </i>
   </energy>
  </scstep>
  <scstep>
   <time name="diag">   68.58   68.60</time>
   <time name="diis">  184.32  184.34</time>
   <time name="orth">   13.34   13.34</time>
   <time name="total">  306.19  306.23</time>
   <energy>
    <i name="e_fr_energy">   -174.68618718 </i>
    <i name="e_wo_entrp">   -174.63654588 </i>
    <i name="e_0_energy">   -174.67377686 </i>
   </energy>
  </scstep>
  <scstep>
   <time name="diag">   68.44   68.45</time>
   <time name="diis">  185.35  185.37</time>
   <time name="orth">   13.41   13.41</time>
   <time name="total">  307.21  307.24</time>
   <energy>
    <i name="e_fr_energy">   -174.60050892 </i>
    <i name="e_wo_entrp">   -174.56679266 </i>
    <i name="e_0_energy">   -174.59207985 </i>
   </energy>
  </scstep>
  <scstep>
   <time name="diag">   68.33   68.34</time>
   <time name="diis">  185.64  185.66</time>
   <time name="orth">   13.44   13.44</time>
   <time name="total">  307.31  307.35</time>
   <energy>
    <i name="e_fr_energy">   -174.76160265 </i>
    <i name="e_wo_entrp">   -174.79434729 </i>
    <i name="e_0_energy">   -174.76978881 </i>
   </energy>
  </scstep>
  <scstep>
   <time name="diag">   68.55   68.56</time>
   <time name="diis">  183.57  183.57</time>
   <time name="orth">   13.55   13.55</time>
   <time name="total">  305.72  305.74</time>
   <energy>
    <i name="e_fr_energy">   -174.56384537 </i>
    <i name="e_wo_entrp">   -174.57375087 </i>
    <i name="e_0_energy">   -174.56632174 </i>
   </energy>
  </scstep>
  <scstep>
   <time name="diag">   68.21   68.21</time>
   <time name="diis">  183.31  183.31</time>
   <time name="orth">   13.48   13.48</time>
   <time name="total">  305.10  305.11</time>
   <energy>
    <i name="e_fr_energy">   -174.24983686 </i>
    <i name="e_wo_entrp">   -174.21141957 </i>
    <i name="e_0_energy">   -174.24023254 </i>
   </energy>
  </scstep>
  <scstep>
   <time name="diag">   68.09   68.09</time>
   <time name="diis">  183.67  183.67</time>
   <time name="orth">   13.65   13.65</time>
   <time name="total">  305.30  305.30</time>
   <energy>
    <i name="e_fr_energy">   -174.22424094 </i>
    <i name="e_wo_entrp">   -174.14548947 </i>
    <i name="e_0_energy">   -174.20455308 </i>
   </energy>
  </scstep>
  <scstep>
   <time name="diag">   68.15   68.15</time>
   <time name="diis">  184.36  184.36</time>
   <time name="orth">   13.75   13.74</time>
   <time name="total">  306.26  306.26</time>
   <energy>
    <i name="e_fr_energy">   -174.08254326 </i>
    <i name="e_wo_entrp">   -173.97289252 </i>
    <i name="e_0_energy">   -174.05513057 </i>
   </energy>
  </scstep>
  <scstep>
   <time name="diag">   68.04   68.04</time>
   <time name="diis">  182.21  182.21</time>
   <time name="orth">   13.45   13.44</time>
   <time name="total">  304.11  304.11</time>
   <energy>
    <i name="e_fr_energy">   -173.94633450 </i>
    <i name="e_wo_entrp">   -173.82949702 </i>
    <i name="e_0_energy">   -173.91712513 </i>
   </energy>
  </scstep>
  <scstep>
   <time name="diag">   68.74   68.74</time>
   <time name="diis">  180.52  180.52</time>
   <time name="orth">   13.67   13.67</time>
   <time name="total">  303.19  303.20</time>
   <energy>
    <i name="e_fr_energy">   -173.94647127 </i>
    <i name="e_wo_entrp">   -173.84646481 </i>
    <i name="e_0_energy">   -173.92146966 </i>
   </energy>
  </scstep>
  <scstep>
   <time name="diag">   68.07   68.07</time>
   <time name="diis">  183.02  183.04</time>
   <time name="orth">   13.50   13.50</time>
   <time name="total">  305.07  305.09</time>
   <energy>
    <i name="e_fr_energy">   -173.91087929 </i>
    <i name="e_wo_entrp">   -173.82131030 </i>
    <i name="e_0_energy">   -173.88848704 </i>
   </energy>
  </scstep>
  <scstep>
   <time name="diag">   68.07   68.07</time>
   <time name="diis">  181.37  181.38</time>
   <time name="orth">   13.77   13.77</time>
   <time name="total">  303.55  303.55</time>
   <energy>
    <i name="e_fr_energy">   -173.84076890 </i>
    <i name="e_wo_entrp">   -173.75750723 </i>
    <i name="e_0_energy">   -173.81995349 </i>
   </energy>
  </scstep>
  <scstep>
   <time name="diag">   68.27   68.27</time>
   <time name="diis">  181.44  181.44</time>
   <time name="orth">   13.41   13.41</time>
   <time name="total">  303.94  303.94</time>
   <energy>
    <i name="e_fr_energy">   -173.84219514 </i>
    <i name="e_wo_entrp">   -173.74740363 </i>
    <i name="e_0_energy">   -173.81849726 </i>
   </energy>
  </scstep>
  <scstep>
   <time name="diag">   67.83   67.83</time>
   <time name="diis">  181.19  181.19</time>
   <time name="orth">   13.55   13.55</time>
   <time name="total">  303.06  303.07</time>
   <energy>
    <i name="e_fr_energy">   -173.80991372 </i>
    <i name="e_wo_entrp">   -173.70797630 </i>
    <i name="e_0_energy">   -173.78442936 </i>
   </energy>
  </scstep>
  <scstep>
   <time name="diag">   67.93   67.93</time>
   <time name="diis">  178.45  178.45</time>
   <time name="orth">   13.62   13.62</time>
   <time name="total">  300.77  300.77</time>
   <energy>
    <i name="e_fr_energy">   -173.79186334 </i>
    <i name="e_wo_entrp">   -173.68023907 </i>
    <i name="e_0_energy">   -173.76395727 </i>
   </energy>
  </scstep>
  <scstep>
   <time name="diag">   68.01   68.01</time>
   <time name="diis">  179.57  179.57</time>
   <time name="orth">   13.51   13.51</time>
   <time name="total">  302.01  302.01</time>
   <energy>
    <i name="e_fr_energy">   -173.78279235 </i>
    <i name="e_wo_entrp">   -173.67953250 </i>
    <i name="e_0_energy">   -173.75697739 </i>
   </energy>
  </scstep>
  <scstep>
   <time name="diag">   68.00   68.00</time>
   <time name="diis">  181.10  181.10</time>
   <time name="orth">   13.40   13.40</time>
   <time name="total">  303.21  303.21</time>
   <energy>
    <i name="e_fr_energy">   -173.77409384 </i>
    <i name="e_wo_entrp">   -173.67428099 </i>
    <i name="e_0_energy">   -173.74914063 </i>
   </energy>
  </scstep>
  <scstep>
   <time name="diag">   67.91   67.91</time>
   <time name="diis">  180.11  180.11</time>
   <time name="orth">   13.59   13.59</time>
   <time name="total">  302.60  302.60</time>
   <energy>
    <i name="e_fr_energy">   -173.76926690 </i>
    <i name="e_wo_entrp">   -173.66823072 </i>
    <i name="e_0_energy">   -173.74400786 </i>
   </energy>
  </scstep>
  <scstep>
   <time name="diag">   67.44   67.44</time>
   <time name="diis">  180.82  180.82</time>
   <time name="orth">   13.58   13.58</time>
   <time name="total">  301.88  301.88</time>
   <energy>
    <i name="e_fr_energy">   -173.76776647 </i>
    <i name="e_wo_entrp">   -173.66807245 </i>
    <i name="e_0_energy">   -173.74284297 </i>
   </energy>
  </scstep>
  <scstep>
   <time name="diag">   67.18   67.18</time>
   <time name="diis">  179.26  179.26</time>
   <time name="orth">   13.36   13.36</time>
   <time name="total">  300.56  300.56</time>
   <energy>
    <i name="e_fr_energy">   -173.76641429 </i>
    <i name="e_wo_entrp">   -173.66226935 </i>
    <i name="e_0_energy">   -173.74037805 </i>
   </energy>
  </scstep>
  <scstep>
   <time name="diag">   67.68   67.68</time>
   <time name="diis">  178.28  178.28</time>
   <time name="orth">   13.15   13.15</time>
   <time name="total">  299.54  299.54</time>
   <energy>
    <i name="e_fr_energy">   -173.76726263 </i>
    <i name="e_wo_entrp">   -173.66188979 </i>
    <i name="e_0_energy">   -173.74091942 </i>
   </energy>
  </scstep>
  <scstep>
   <time name="diag">   67.45   67.45</time>
   <time name="diis">  177.77  177.77</time>
   <time name="orth">   13.31   13.31</time>
   <time name="total">  299.19  299.20</time>
   <energy>
    <i name="e_fr_energy">   -173.77021834 </i>
    <i name="e_wo_entrp">   -173.66888581 </i>
    <i name="e_0_energy">   -173.74488521 </i>
   </energy>
  </scstep>
  <scstep>
   <time name="diag">   66.91   66.91</time>
   <time name="diis">  178.93  178.93</time>
   <time name="orth">   13.44   13.45</time>
   <time name="total">  299.75  299.75</time>
   <energy>
    <i name="e_fr_energy">   -173.77095239 </i>
    <i name="e_wo_entrp">   -173.66723323 </i>
    <i name="e_0_energy">   -173.74502260 </i>
   </energy>
  </scstep>
  <scstep>
   <time name="diag">   66.70   66.70</time>
   <time name="diis">  179.86  179.86</time>
   <time name="orth">   13.29   13.29</time>
   <time name="total">  300.20  300.20</time>
   <energy>
    <i name="e_fr_energy">   -173.77394942 </i>
    <i name="e_wo_entrp">   -173.66784873 </i>
    <i name="e_0_energy">   -173.74742425 </i>
   </energy>
  </scstep>
  <scstep>
   <time name="diag">   68.02   68.02</time>
   <time name="diis">  174.72  174.72</time>
   <time name="orth">   13.33   13.34</time>
   <time name="total">  297.65  297.65</time>
   <energy>
    <i name="e_fr_energy">   -173.77600940 </i>
    <i name="e_wo_entrp">   -173.67079067 </i>
    <i name="e_0_energy">   -173.74970472 </i>
   </energy>
  </scstep>
  <scstep>
   <time name="diag">   67.35   67.36</time>
   <time name="diis">  138.28  138.28</time>
   <time name="orth">   13.52   13.52</time>
   <time name="total">  260.86  260.87</time>
   <energy>
    <i name="e_fr_energy">   -173.77734426 </i>
    <i name="e_wo_entrp">   -173.67221390 </i>
    <i name="e_0_energy">   -173.75106167 </i>
   </energy>
  </scstep>
  <scstep>
   <time name="diag">   66.72   66.72</time>
   <time name="diis">  128.65  128.65</time>
   <time name="orth">   13.51   13.51</time>
   <time name="total">  250.48  250.49</time>
   <energy>
    <i name="e_fr_energy">   -173.78025693 </i>
    <i name="e_wo_entrp">   -173.67419704 </i>
    <i name="e_0_energy">   -173.75374196 </i>
   </energy>
  </scstep>
  <scstep>
   <time name="diag">   66.23   66.23</time>
   <time name="diis">  116.21  116.21</time>
   <time name="orth">   13.48   13.48</time>
   <time name="total">  238.23  238.24</time>
   <energy>
    <i name="e_fr_energy">   -173.78132793 </i>
    <i name="e_wo_entrp">   -173.67589218 </i>
    <i name="e_0_energy">   -173.75496899 </i>
   </energy>
  </scstep>
  <scstep>
   <time name="diag">   66.19   66.19</time>
   <time name="diis">  115.12  115.13</time>
   <time name="orth">   13.55   13.55</time>
   <time name="total">  236.23  236.23</time>
   <energy>
    <i name="e_fr_energy">   -173.78293057 </i>
    <i name="e_wo_entrp">   -173.67714414 </i>
    <i name="e_0_energy">   -173.75648396 </i>
   </energy>
  </scstep>
  <scstep>
   <time name="diag">   66.71   66.71</time>
   <time name="diis">  121.80  121.81</time>
   <time name="orth">   13.35   13.35</time>
   <time name="total">  243.31  243.32</time>
   <energy>
    <i name="e_fr_energy">   -173.78561380 </i>
    <i name="e_wo_entrp">   -173.68118126 </i>
    <i name="e_0_energy">   -173.75950566 </i>
   </energy>
  </scstep>
  <scstep>
   <time name="diag">   66.49   66.49</time>
   <time name="diis">  115.27  115.28</time>
   <time name="orth">   13.36   13.36</time>
   <time name="total">  237.39  237.40</time>
   <energy>
    <i name="e_fr_energy">   -173.78672095 </i>
    <i name="e_wo_entrp">   -173.68196469 </i>
    <i name="e_0_energy">   -173.76053188 </i>
   </energy>
  </scstep>
  <scstep>
   <time name="diag">   65.73   65.73</time>
   <time name="diis">  119.22  119.23</time>
   <time name="orth">   13.33   13.33</time>
   <time name="total">  239.88  239.89</time>
   <energy>
    <i name="e_fr_energy">   -173.78922683 </i>
    <i name="e_wo_entrp">   -173.68447439 </i>
    <i name="e_0_energy">   -173.76303872 </i>
   </energy>
  </scstep>
  <scstep>
   <time name="diag">   66.56   66.57</time>
   <time name="diis">  115.60  115.60</time>
   <time name="orth">   13.39   13.39</time>
   <time name="total">  237.52  237.52</time>
   <energy>
    <i name="e_fr_energy">   -173.79012676 </i>
    <i name="e_wo_entrp">   -173.68584833 </i>
    <i name="e_0_energy">   -173.76405715 </i>
   </energy>
  </scstep>
  <scstep>
   <time name="diag">   64.87   64.88</time>
   <time name="diis">  112.06  112.07</time>
   <time name="orth">   13.20   13.20</time>
   <time name="total">  232.03  232.04</time>
   <energy>
    <i name="e_fr_energy">   -173.79119971 </i>
    <i name="e_wo_entrp">   -173.68695678 </i>
    <i name="e_0_energy">   -173.76513898 </i>
   </energy>
  </scstep>
  <scstep>
   <time name="diag">   67.58   67.58</time>
   <time name="diis">  110.20  110.21</time>
   <time name="orth">   13.31   13.31</time>
   <time name="total">  233.83  233.85</time>
   <energy>
    <i name="e_fr_energy">   -173.79218575 </i>
    <i name="e_wo_entrp">   -173.68762622 </i>
    <i name="e_0_energy">   -173.76604587 </i>
   </energy>
  </scstep>
  <scstep>
   <time name="diag">   66.74   66.74</time>
   <time name="diis">  113.20  113.19</time>
   <time name="orth">   13.18   13.18</time>
   <time name="total">  235.02  235.02</time>
   <energy>
    <i name="e_fr_energy">   -173.79262104 </i>
    <i name="e_wo_entrp">   -173.68837400 </i>
    <i name="e_0_energy">   -173.76655928 </i>
   </energy>
  </scstep>
  <scstep>
   <time name="diag">   66.97   66.97</time>
   <time name="diis">  109.90  109.90</time>
   <time name="orth">   13.03   13.03</time>
   <time name="total">  232.11  232.11</time>
   <energy>
    <i name="e_fr_energy">   -173.79344945 </i>
    <i name="e_wo_entrp">   -173.68921249 </i>
    <i name="e_0_energy">   -173.76739021 </i>
   </energy>
  </scstep>
  <scstep>
   <time name="diag">   66.52   66.52</time>
   <time name="diis">  102.63  102.63</time>
   <time name="orth">   12.89   12.89</time>
   <time name="total">  223.99  224.00</time>
   <energy>
    <i name="e_fr_energy">   -173.79372169 </i>
    <i name="e_wo_entrp">   -173.68942083 </i>
    <i name="e_0_energy">   -173.76764648 </i>
   </energy>
  </scstep>
  <scstep>
   <time name="diag">   65.38   65.38</time>
   <time name="diis">   96.86   96.86</time>
   <time name="orth">   13.06   13.06</time>
   <time name="total">  216.92  216.92</time>
   <energy>
    <i name="e_fr_energy">   -173.79425862 </i>
    <i name="e_wo_entrp">   -173.68990163 </i>
    <i name="e_0_energy">   -173.76816937 </i>
   </energy>
  </scstep>
  <scstep>
   <time name="diag">   65.79   65.79</time>
   <time name="diis">   80.72   80.72</time>
   <time name="orth">   13.17   13.17</time>
   <time name="total">  201.40  201.41</time>
   <energy>
    <i name="e_fr_energy">   -173.79441229 </i>
    <i name="e_wo_entrp">   -173.69004409 </i>
    <i name="e_0_energy">   -173.76832024 </i>
   </energy>
  </scstep>
  <scstep>
   <time name="diag">   66.08   66.08</time>
   <time name="diis">   86.71   86.72</time>
   <time name="orth">   13.30   13.30</time>
   <time name="total">  207.74  207.74</time>
   <energy>
    <i name="e_fr_energy">   -173.79467310 </i>
    <i name="e_wo_entrp">   -173.69042727 </i>
    <i name="e_0_energy">   -173.76861164 </i>
   </energy>
  </scstep>
  <scstep>
   <time name="diag">   66.27   66.28</time>
   <time name="diis">   81.69   81.68</time>
   <time name="orth">   12.89   12.89</time>
   <time name="total">  202.81  202.81</time>
   <energy>
    <i name="e_fr_energy">   -173.79490236 </i>
    <i name="e_wo_entrp">   -173.69056168 </i>
    <i name="e_0_energy">   -173.76881719 </i>
   </energy>
  </scstep>
  <scstep>
   <time name="diag">   66.46   66.46</time>
   <time name="diis">   82.87   82.87</time>
   <time name="orth">   13.09   13.09</time>
   <time name="total">  204.06  204.06</time>
   <energy>
    <i name="e_fr_energy">   -173.79514517 </i>
    <i name="e_wo_entrp">   -173.69083486 </i>
    <i name="e_0_energy">   -173.76906759 </i>
   </energy>
  </scstep>
  <scstep>
   <time name="diag">   66.36   66.36</time>
   <time name="diis">   76.37   76.37</time>
   <time name="orth">   13.07   13.07</time>
   <time name="total">  197.85  197.85</time>
   <energy>
    <i name="e_fr_energy">   -173.79529211 </i>
    <i name="e_wo_entrp">   -173.69097535 </i>
    <i name="e_0_energy">   -173.76921292 </i>
   </energy>
  </scstep>
  <scstep>
   <time name="diag">   66.29   66.29</time>
   <time name="diis">   76.66   76.67</time>
   <time name="orth">   12.98   12.98</time>
   <time name="total">  198.16  198.17</time>
   <energy>
    <i name="e_fr_energy">   -173.79543981 </i>
    <i name="e_wo_entrp">   -173.69112789 </i>
    <i name="e_0_energy">   -173.76936183 </i>
   </energy>
  </scstep>
  <scstep>
   <time name="diag">   66.57   66.57</time>
   <time name="diis">   76.85   76.85</time>
   <time name="orth">   13.31   13.31</time>
   <time name="total">  170.63  170.63</time>
   <energy>
    <i name="alphaZ">     75.25431677 </i>
    <i name="ewald"> 137252.25094520 </i>
    <i name="hartreedc">-181627.26422952 </i>
    <i name="XCdc">  -1693.38590388 </i>
    <i name="pawpsdc">  46034.62845183 </i>
    <i name="pawaedc"> -42504.04539507 </i>
    <i name="eentropy">     -0.10435496 </i>
    <i name="bandstr">  -2797.63483390 </i>
    <i name="atom">  45086.50549395 </i>
    <i name="e_fr_energy">   -173.79550957 </i>
    <i name="e_wo_entrp">   -173.69115461 </i>
    <i name="e_0_energy">   -173.76942083 </i>
   </energy>
  </scstep>
  <structure>
   <crystal>
    <varray name="basis" >
     <v>      30.00000000       0.00000000       0.00000000 </v>
     <v>       0.00000000      30.00000000       0.00000000 </v>
     <v>       0.00000000       0.00000000      30.00000000 </v>
    </varray>
    <i name="volume">  27000.00000000 </i>
    <varray name="rec_basis" >
     <v>       0.03333333       0.00000000       0.00000000 </v>
     <v>       0.00000000       0.03333333       0.00000000 </v>
     <v>       0.00000000       0.00000000       0.03333333 </v>
    </varray>
   </crystal>
   <varray name="positions" >
    <v>       0.44576020       0.32826710       0.41691983 </v>
    <v>       0.67173288       0.55423978       0.41691983 </v>
    <v>       0.55423980       0.32826710       0.41691983 </v>
    <v>       0.32826712       0.55423978       0.41691983 </v>
    <v>       0.50000000       0.38250690       0.34021317 </v>
    <v>       0.50000000       0.38250690       0.65978680 </v>
    <v>       0.50000000       0.27609440       0.50000000 </v>
    <v>       0.27609443       0.49999998       0.50000000 </v>
    <v>       0.72390557       0.49999998       0.50000000 </v>
    <v>       0.50000000       0.72390555       0.50000000 </v>
    <v>       0.61195280       0.38804720       0.34167483 </v>
    <v>       0.61195280       0.38804720       0.65832513 </v>
    <v>       0.38804722       0.61195278       0.34167483 </v>
    <v>       0.38804722       0.61195278       0.65832513 </v>
    <v>       0.38804720       0.38804720       0.34167483 </v>
    <v>       0.38804720       0.38804720       0.65832513 </v>
    <v>       0.61195278       0.61195278       0.34167483 </v>
    <v>       0.61195278       0.61195278       0.65832513 </v>
    <v>       0.44576020       0.32826710       0.58308023 </v>
    <v>       0.67173288       0.55423978       0.58308023 </v>
    <v>       0.55791699       0.44208301       0.41809300 </v>
    <v>       0.32826705       0.44576024       0.41691983 </v>
    <v>       0.55423973       0.67173293       0.41691983 </v>
    <v>       0.55423980       0.32826710       0.58308023 </v>
    <v>       0.32826712       0.55423978       0.58308023 </v>
    <v>       0.67173295       0.44576024       0.41691983 </v>
    <v>       0.44576027       0.67173293       0.41691983 </v>
    <v>       0.44208301       0.44208301       0.41809300 </v>
    <v>       0.50000000       0.38416601       0.50000000 </v>
    <v>       0.61749315       0.50000005       0.34021317 </v>
    <v>       0.61749315       0.50000005       0.65978680 </v>
    <v>       0.38250685       0.50000005       0.34021317 </v>
    <v>       0.38250685       0.50000005       0.65978680 </v>
    <v>       0.38317830       0.38317830       0.50000000 </v>
    <v>       0.61682172       0.61682172       0.50000000 </v>
    <v>       0.61682170       0.38317830       0.50000000 </v>
    <v>       0.38317828       0.61682172       0.50000000 </v>
    <v>       0.50000000       0.50000000       0.33478917 </v>
    <v>       0.50000000       0.50000000       0.66521087 </v>
    <v>       0.32826705       0.44576024       0.58308023 </v>
    <v>       0.55423973       0.67173293       0.58308023 </v>
    <v>       0.55791699       0.44208301       0.58190703 </v>
    <v>       0.44208298       0.55791702       0.41809300 </v>
    <v>       0.44208301       0.44208301       0.58190703 </v>
    <v>       0.67173295       0.44576024       0.58308023 </v>
    <v>       0.44576027       0.67173293       0.58308023 </v>
    <v>       0.55791702       0.55791702       0.41809300 </v>
    <v>       0.38416599       0.50000002       0.50000000 </v>
    <v>       0.61583401       0.50000002       0.50000000 </v>
    <v>       0.50000000       0.61749319       0.34021317 </v>
    <v>       0.50000000       0.61749319       0.65978680 </v>
    <v>       0.50000000       0.50000000       0.50000000 </v>
    <v>       0.44208298       0.55791702       0.58190703 </v>
    <v>       0.55791702       0.55791702       0.58190703 </v>
    <v>       0.50000000       0.61583404       0.50000000 </v>
    <v>       0.62365257       0.72323070       0.38189167 </v>
    <v>       0.64018670       0.75307983       0.36609890 </v>
   </varray>
  </structure>
  <varray name="forces" >
   <v>       0.70356133       1.10826129       0.29001776 </v>
   <v>      -1.10412728      -0.71829235       0.29720006 </v>
   <v>      -0.70085173       1.11280185       0.28906058 </v>
   <v>       1.10714797      -0.70678338       0.29445530 </v>
   <v>       0.00124919       0.41296438       1.28170757 </v>
   <v>       0.00029195       0.41493634      -1.28192224 </v>
   <v>       0.00097777       1.51664253      -0.00005099 </v>
   <v>       1.51653484       0.00091519      -0.00019352 </v>
   <v>      -1.51741679       0.00055037       0.00014035 </v>
   <v>      -0.01070721      -1.52309817       0.00961624 </v>
   <v>      -0.76006081       0.74881958       1.07242250 </v>
   <v>      -0.75455093       0.75766192      -1.07246873 </v>
   <v>       0.76408485      -0.75504678       1.06452140 </v>
   <v>       0.75496106      -0.76109474      -1.07244275 </v>
   <v>       0.75660524       0.75672243       1.07199964 </v>
   <v>       0.75680535       0.75492272      -1.07059628 </v>
   <v>      -0.72400515      -0.74663061       1.04617694 </v>
   <v>      -0.75626763      -0.75631582      -1.07277640 </v>
   <v>       0.70351148       1.10763520      -0.29153773 </v>
   <v>      -1.10939146      -0.70407008      -0.29353712 </v>
   <v>       0.10839171      -0.12163718      -0.15713303 </v>
   <v>       1.10770158       0.70353834       0.29213424 </v>
   <v>      -0.19582066      -0.60663630       0.05197896 </v>
   <v>      -0.70317774       1.10727807      -0.29174755 </v>
   <v>       1.10573466      -0.70225357      -0.29071000 </v>
   <v>      -1.10785848       0.70927670       0.29056522 </v>
   <v>       0.71571827      -1.12110592       0.30590982 </v>
   <v>      -0.11107718      -0.11152871      -0.15806384 </v>
   <v>      -0.00049699      -0.23085763       0.00132655 </v>
   <v>      -0.41316829       0.00953170       1.27463478 </v>
   <v>      -0.41383588      -0.00145448      -1.28102789 </v>
   <v>       0.41448478      -0.00236890       1.28135404 </v>
   <v>       0.41679932       0.00446736      -1.28066546 </v>
   <v>       0.82939325       0.83049044      -0.00073925 </v>
   <v>      -0.82085003      -0.85483266       0.02717652 </v>
   <v>      -0.82949725       0.82690215       0.00101945 </v>
   <v>       0.83628856      -0.82688877      -0.00251368 </v>
   <v>      -0.00101852       0.00395248       1.17865080 </v>
   <v>       0.00073666       0.00015602      -1.17797126 </v>
   <v>       1.10765511       0.70496143      -0.29481630 </v>
   <v>      -0.70449755      -1.10947069      -0.29126524 </v>
   <v>       0.11242122      -0.11200185       0.16001558 </v>
   <v>      -0.10893887       0.10917149      -0.15513002 </v>
   <v>      -0.11016427      -0.11348856       0.15460292 </v>
   <v>      -1.10926138       0.70382974      -0.28966040 </v>
   <v>       0.70455768      -1.10594259      -0.29579843 </v>
   <v>       0.10379688       0.07642331      -0.14381217 </v>
   <v>      -0.23148226      -0.00113751       0.00162854 </v>
   <v>       0.22951042      -0.00023510      -0.00009635 </v>
   <v>      -0.03219887      -0.43496203       1.26679574 </v>
   <v>      -0.00013082      -0.41431725      -1.28215466 </v>
   <v>       0.00010493       0.00566297      -0.00254904 </v>
   <v>      -0.12139522       0.10830732       0.16845623 </v>
   <v>       0.11116404       0.11282949       0.15672875 </v>
   <v>       0.00378991       0.23495195      -0.02487828 </v>
   <v>      -1.72941015      -2.56518289       1.39743806 </v>
   <v>       1.20767937       2.16306978      -1.15147593 </v>
  </varray>
  <varray name="stress" >
   <v>      -6.78732027       0.01410666      -0.00295531 </v>
   <v>       0.01410663      -6.67289756      -0.03801769 </v>
   <v>      -0.00295536      -0.03801768      -6.73442914 </v>
  </varray>
  <energy>
   <i name="e_fr_energy">   -173.79550957 </i>
   <i name="e_wo_entrp">   -173.76942083 </i>
   <i name="e_0_energy">     -0.10435496 </i>
  </energy>
  <time name="totalsc">18055.5318056.25</time>
  <eigenvalues>
   <array>
    <dimension dim="1">band</dimension>
    <dimension dim="2">kpoint</dimension>
    <dimension dim="3">spin</dimension>
    <field>eigene</field>
    <field>occ</field>
    <set>
     <set comment="spin 1">
      <set comment="kpoint 1">
       <r>  -29.2198    1.0000 </r>
       <r>  -13.7383    1.0000 </r>
       <r>  -11.5260    1.0000 </r>
       <r>  -11.5257    1.0000 </r>
       <r>   -9.2085    1.0000 </r>
       <r>   -6.6228    1.0000 </r>
       <r>   -6.1046    1.0000 </r>
       <r>   -6.1042    1.0000 </r>
       <r>   -6.0958    1.0000 </r>
       <r>   -5.7915    1.0000 </r>
       <r>   -5.7892    1.0000 </r>
       <r>   -5.7857    1.0000 </r>
       <r>   -5.7235    1.0000 </r>
       <r>   -5.6699    1.0000 </r>
       <r>   -5.6624    1.0000 </r>
       <r>   -5.6622    1.0000 </r>
       <r>   -5.6585    1.0000 </r>
       <r>   -5.6002    1.0000 </r>
       <r>   -5.5989    1.0000 </r>
       <r>   -5.5870    1.0000 </r>
       <r>   -5.5774    1.0000 </r>
       <r>   -5.5741    1.0000 </r>
       <r>   -5.5730    1.0000 </r>
       <r>   -5.5317    1.0000 </r>
       <r>   -5.5255    1.0000 </r>
       <r>   -5.5245    1.0000 </r>
       <r>   -5.5238    1.0000 </r>
       <r>   -5.5019    1.0000 </r>
       <r>   -5.4999    1.0000 </r>
       <r>   -5.4973    1.0000 </r>
       <r>   -5.4946    1.0000 </r>
       <r>   -5.4908    1.0000 </r>
       <r>   -5.4903    1.0000 </r>
       <r>   -5.4902    1.0000 </r>
       <r>   -5.4877    1.0000 </r>
       <r>   -5.4576    1.0000 </r>
       <r>   -5.4559    1.0000 </r>
       <r>   -5.4485    1.0000 </r>
       <r>   -5.4462    1.0000 </r>
       <r>   -5.4456    1.0000 </r>
       <r>   -5.4453    1.0000 </r>
       <r>   -5.4447    1.0000 </r>
       <r>   -5.4427    1.0000 </r>
       <r>   -5.4096    1.0000 </r>
       <r>   -5.4075    1.0000 </r>
       <r>   -5.4066    1.0000 </r>
       <r>   -5.4044    1.0000 </r>
       <r>   -5.4037    1.0000 </r>
       <r>   -5.4000    1.0000 </r>
       <r>   -5.3990    1.0000 </r>
       <r>   -5.3981    1.0000 </r>
       <r>   -5.3849    1.0000 </r>
       <r>   -5.3831    1.0000 </r>
       <r>   -5.3823    1.0000 </r>
       <r>   -5.3679    1.0000 </r>
       <r>   -5.3091    1.0000 </r>
       <r>   -5.3048    1.0000 </r>
       <r>   -5.3033    1.0000 </r>
       <r>   -5.3031    1.0000 </r>
       <r>   -5.2957    1.0000 </r>
       <r>   -5.2939    1.0000 </r>
       <r>   -5.2938    1.0000 </r>
       <r>   -5.2832    1.0000 </r>
       <r>   -5.2780    1.0000 </r>
       <r>   -5.2775    1.0000 </r>
       <r>   -5.2651    1.0000 </r>
       <r>   -5.2643    1.0000 </r>
       <r>   -5.1929    1.0000 </r>
       <r>   -5.1846    1.0000 </r>
       <r>   -5.1816    1.0000 </r>
       <r>   -5.1811    1.0000 </r>
       <r>   -5.1613    1.0000 </r>
       <r>   -5.1592    1.0000 </r>
       <r>   -5.1574    1.0000 </r>
       <r>   -5.1564    1.0000 </r>
       <r>   -5.1558    1.0000 </r>
       <r>   -5.1460    1.0000 </r>
       <r>   -5.1396    1.0000 </r>
       <r>   -5.1388    1.0000 </r>
       <r>   -5.1266    1.0000 </r>
       <r>   -5.1030    1.0000 </r>
       <r>   -5.1027    1.0000 </r>
       <r>   -5.1013    1.0000 </r>
       <r>   -5.0925    1.0000 </r>
       <r>   -5.0811    1.0000 </r>
       <r>   -5.0809    1.0000 </r>
       <r>   -5.0800    1.0000 </r>
       <r>   -5.0418    1.0000 </r>
       <r>   -5.0378    1.0000 </r>
       <r>   -5.0330    1.0000 </r>
       <r>   -5.0316    1.0000 </r>
       <r>   -5.0312    1.0000 </r>
       <r>   -5.0289    1.0000 </r>
       <r>   -5.0265    1.0000 </r>
       <r>   -5.0255    1.0000 </r>
       <r>   -5.0083    1.0000 </r>
       <r>   -5.0064    1.0000 </r>
       <r>   -5.0058    1.0000 </r>
       <r>   -4.9988    1.0000 </r>
       <r>   -4.9954    1.0000 </r>
       <r>   -4.9864    1.0000 </r>
       <r>   -4.9828    1.0000 </r>
       <r>   -4.9821    1.0000 </r>
       <r>   -4.9716    1.0000 </r>
       <r>   -4.9696    1.0000 </r>
       <r>   -4.9686    1.0000 </r>
       <r>   -4.9607    1.0000 </r>
       <r>   -4.9596    1.0000 </r>
       <r>   -4.9568    1.0000 </r>
       <r>   -4.9472    1.0000 </r>
       <r>   -4.9466    1.0000 </r>
       <r>   -4.9363    1.0000 </r>
       <r>   -4.9348    1.0000 </r>
       <r>   -4.9324    1.0000 </r>
       <r>   -4.9316    1.0000 </r>
       <r>   -4.9298    1.0000 </r>
       <r>   -4.9144    1.0000 </r>
       <r>   -4.8982    1.0000 </r>
       <r>   -4.8965    1.0000 </r>
       <r>   -4.8940    1.0000 </r>
       <r>   -4.8817    1.0000 </r>
       <r>   -4.8796    1.0000 </r>
       <r>   -4.8786    1.0000 </r>
       <r>   -4.8774    1.0000 </r>
       <r>   -4.8766    1.0000 </r>
       <r>   -4.8765    1.0000 </r>
       <r>   -4.8250    1.0000 </r>
       <r>   -4.8226    1.0000 </r>
       <r>   -4.8194    1.0000 </r>
       <r>   -4.8182    1.0000 </r>
       <r>   -4.8177    1.0000 </r>
       <r>   -4.8173    1.0000 </r>
       <r>   -4.8085    1.0000 </r>
       <r>   -4.8071    1.0000 </r>
       <r>   -4.8053    1.0000 </r>
       <r>   -4.7740    0.9999 </r>
       <r>   -4.7708    0.9999 </r>
       <r>   -4.7694    0.9999 </r>
       <r>   -4.7688    0.9999 </r>
       <r>   -4.7446    0.9998 </r>
       <r>   -4.7422    0.9998 </r>
       <r>   -4.7411    0.9998 </r>
       <r>   -4.7175    0.9996 </r>
       <r>   -4.7143    0.9996 </r>
       <r>   -4.7129    0.9996 </r>
       <r>   -4.7047    0.9995 </r>
       <r>   -4.7002    0.9995 </r>
       <r>   -4.6833    0.9993 </r>
       <r>   -4.6676    0.9990 </r>
       <r>   -4.6644    0.9989 </r>
       <r>   -4.6631    0.9989 </r>
       <r>   -4.6612    0.9989 </r>
       <r>   -4.6520    0.9987 </r>
       <r>   -4.6507    0.9986 </r>
       <r>   -4.6502    0.9986 </r>
       <r>   -4.6490    0.9986 </r>
       <r>   -4.6488    0.9986 </r>
       <r>   -4.6456    0.9985 </r>
       <r>   -4.6308    0.9981 </r>
       <r>   -4.6290    0.9980 </r>
       <r>   -4.6270    0.9980 </r>
       <r>   -4.6269    0.9980 </r>
       <r>   -4.6234    0.9979 </r>
       <r>   -4.6230    0.9979 </r>
       <r>   -4.6221    0.9978 </r>
       <r>   -4.6218    0.9978 </r>
       <r>   -4.6199    0.9978 </r>
       <r>   -4.6180    0.9977 </r>
       <r>   -4.6076    0.9973 </r>
       <r>   -4.6059    0.9973 </r>
       <r>   -4.5781    0.9962 </r>
       <r>   -4.5760    0.9962 </r>
       <r>   -4.5745    0.9961 </r>
       <r>   -4.5732    0.9961 </r>
       <r>   -4.5718    0.9960 </r>
       <r>   -4.5710    0.9960 </r>
       <r>   -4.5688    0.9959 </r>
       <r>   -4.5658    0.9958 </r>
       <r>   -4.5543    0.9954 </r>
       <r>   -4.5514    0.9954 </r>
       <r>   -4.5496    0.9953 </r>
       <r>   -4.5338    0.9951 </r>
       <r>   -4.5322    0.9951 </r>
       <r>   -4.5297    0.9951 </r>
       <r>   -4.5293    0.9951 </r>
       <r>   -4.5287    0.9951 </r>
       <r>   -4.5284    0.9951 </r>
       <r>   -4.5257    0.9951 </r>
       <r>   -4.5243    0.9951 </r>
       <r>   -4.5234    0.9951 </r>
       <r>   -4.4866    0.9970 </r>
       <r>   -4.4824    0.9974 </r>
       <r>   -4.4821    0.9975 </r>
       <r>   -4.4815    0.9976 </r>
       <r>   -4.4806    0.9977 </r>
       <r>   -4.4703    0.9991 </r>
       <r>   -4.4595    1.0011 </r>
       <r>   -4.4576    1.0016 </r>
       <r>   -4.4529    1.0026 </r>
       <r>   -4.4497    1.0034 </r>
       <r>   -4.4460    1.0044 </r>
       <r>   -4.4407    1.0059 </r>
       <r>   -4.4351    1.0076 </r>
       <r>   -4.4339    1.0080 </r>
       <r>   -4.4276    1.0101 </r>
       <r>   -4.4256    1.0108 </r>
       <r>   -4.4232    1.0117 </r>
       <r>   -4.4200    1.0129 </r>
       <r>   -4.4179    1.0137 </r>
       <r>   -4.4166    1.0142 </r>
       <r>   -4.4000    1.0213 </r>
       <r>   -4.3892    1.0263 </r>
       <r>   -4.3866    1.0276 </r>
       <r>   -4.3852    1.0283 </r>
       <r>   -4.3847    1.0285 </r>
       <r>   -4.3825    1.0296 </r>
       <r>   -4.3797    1.0309 </r>
       <r>   -4.3785    1.0315 </r>
       <r>   -4.3751    1.0331 </r>
       <r>   -4.3480    1.0451 </r>
       <r>   -4.3434    1.0467 </r>
       <r>   -4.3427    1.0469 </r>
       <r>   -4.3262    1.0509 </r>
       <r>   -4.3179    1.0516 </r>
       <r>   -4.3148    1.0516 </r>
       <r>   -4.3140    1.0516 </r>
       <r>   -4.3134    1.0515 </r>
       <r>   -4.3116    1.0514 </r>
       <r>   -4.3107    1.0513 </r>
       <r>   -4.3092    1.0511 </r>
       <r>   -4.3089    1.0510 </r>
       <r>   -4.3042    1.0501 </r>
       <r>   -4.3023    1.0496 </r>
       <r>   -4.3010    1.0492 </r>
       <r>   -4.2989    1.0485 </r>
       <r>   -4.2982    1.0482 </r>
       <r>   -4.2970    1.0477 </r>
       <r>   -4.2946    1.0467 </r>
       <r>   -4.2943    1.0466 </r>
       <r>   -4.2936    1.0462 </r>
       <r>   -4.2788    1.0360 </r>
       <r>   -4.2760    1.0334 </r>
       <r>   -4.2640    1.0193 </r>
       <r>   -4.2614    1.0156 </r>
       <r>   -4.2600    1.0135 </r>
       <r>   -4.2597    1.0130 </r>
       <r>   -4.2588    1.0117 </r>
       <r>   -4.2577    1.0099 </r>
       <r>   -4.2542    1.0041 </r>
       <r>   -4.2405    0.9772 </r>
       <r>   -4.2396    0.9751 </r>
       <r>   -4.2319    0.9566 </r>
       <r>   -4.2303    0.9526 </r>
       <r>   -4.2292    0.9496 </r>
       <r>   -4.2258    0.9404 </r>
       <r>   -4.2239    0.9350 </r>
       <r>   -4.2229    0.9319 </r>
       <r>   -4.2207    0.9255 </r>
       <r>   -4.2195    0.9219 </r>
       <r>   -4.2183    0.9182 </r>
       <r>   -4.2172    0.9147 </r>
       <r>   -4.2147    0.9069 </r>
       <r>   -4.2134    0.9028 </r>
       <r>   -4.2130    0.9014 </r>
       <r>   -4.2102    0.8920 </r>
       <r>   -4.2054    0.8752 </r>
       <r>   -4.1984    0.8493 </r>
       <r>   -4.1959    0.8399 </r>
       <r>   -4.1947    0.8349 </r>
       <r>   -4.1933    0.8296 </r>
       <r>   -4.1922    0.8250 </r>
       <r>   -4.1890    0.8120 </r>
       <r>   -4.1690    0.7232 </r>
       <r>   -4.1678    0.7172 </r>
       <r>   -4.1620    0.6895 </r>
       <r>   -4.1548    0.6537 </r>
       <r>   -4.1531    0.6451 </r>
       <r>   -4.1523    0.6408 </r>
       <r>   -4.1473    0.6156 </r>
       <r>   -4.1466    0.6122 </r>
       <r>   -4.1449    0.6033 </r>
       <r>   -4.1321    0.5359 </r>
       <r>   -4.1035    0.3859 </r>
       <r>   -4.1031    0.3838 </r>
       <r>   -4.1028    0.3825 </r>
       <r>   -4.1017    0.3769 </r>
       <r>   -4.0931    0.3333 </r>
       <r>   -4.0876    0.3063 </r>
       <r>   -4.0864    0.3006 </r>
       <r>   -3.9452   -0.0504 </r>
       <r>   -3.8706   -0.0308 </r>
       <r>   -3.7973   -0.0025 </r>
       <r>   -3.7911   -0.0012 </r>
       <r>   -3.7674    0.0026 </r>
       <r>   -3.4683    0.0001 </r>
       <r>   -3.4641    0.0001 </r>
       <r>   -3.4364    0.0000 </r>
       <r>   -3.0341    0.0000 </r>
       <r>   -3.0304    0.0000 </r>
       <r>   -3.0139    0.0000 </r>
       <r>   -3.0011    0.0000 </r>
       <r>   -2.9912    0.0000 </r>
       <r>   -2.9562    0.0000 </r>
       <r>   -2.9136    0.0000 </r>
       <r>   -2.9016    0.0000 </r>
       <r>   -2.4994    0.0000 </r>
       <r>   -2.4969    0.0000 </r>
       <r>   -2.4417    0.0000 </r>
       <r>   -2.3375    0.0000 </r>
       <r>   -2.1323    0.0000 </r>
       <r>   -2.1042    0.0000 </r>
       <r>   -2.0919    0.0000 </r>
       <r>   -2.0245    0.0000 </r>
       <r>   -1.9582    0.0000 </r>
       <r>   -1.9125    0.0000 </r>
       <r>   -1.8469    0.0000 </r>
       <r>   -1.8374    0.0000 </r>
       <r>   -1.7471    0.0000 </r>
       <r>   -1.7125    0.0000 </r>
       <r>   -1.6230    0.0000 </r>
       <r>   -1.6030    0.0000 </r>
       <r>   -1.5935    0.0000 </r>
       <r>   -1.5282    0.0000 </r>
       <r>   -1.4718    0.0000 </r>
       <r>   -1.4441    0.0000 </r>
       <r>   -1.2065    0.0000 </r>
       <r>   -1.1834    0.0000 </r>
       <r>   -1.1757    0.0000 </r>
       <r>   -0.9641    0.0000 </r>
       <r>   -0.9603    0.0000 </r>
       <r>   -0.9384    0.0000 </r>
       <r>   -0.9114    0.0000 </r>
       <r>   -0.9024    0.0000 </r>
       <r>   -0.8795    0.0000 </r>
       <r>   -0.8026    0.0000 </r>
       <r>   -0.7587    0.0000 </r>
      </set>
     </set>
    </set>
   </array>
  </eigenvalues>
  <separator name="orbital magnetization" >
   <v name="MAGDIPOLOUT">      0.00000000      0.00000000      0.00000000</v>
  </separator>
  <dos>
   <i name="efermi">     -4.12525440 </i>
   <total>
    <array>
     <dimension dim="1">gridpoints</dimension>
     <dimension dim="2">spin</dimension>
     <field>energy</field>
     <field>total</field>
     <field>integrated</field>
     <set>
      <set comment="spin 1">
       <r>   -31.2198     0.0000     0.0000 </r>
       <r>   -31.1116     0.0000     0.0000 </r>
       <r>   -31.0034     0.0000     0.0000 </r>
       <r>   -30.8952     0.0000     0.0000 </r>
       <r>   -30.7870     0.0000     0.0000 </r>
       <r>   -30.6788     0.0000     0.0000 </r>
       <r>   -30.5706     0.0000     0.0000 </r>
       <r>   -30.4624     0.0000     0.0000 </r>
       <r>   -30.3542     0.0000     0.0000 </r>
       <r>   -30.2460     0.0000     0.0000 </r>
       <r>   -30.1378     0.0000     0.0000 </r>
       <r>   -30.0296     0.0000     0.0000 </r>
       <r>   -29.9214     0.0004     0.0000 </r>
       <r>   -29.8132     0.0061     0.0007 </r>
       <r>   -29.7050     0.0411     0.0051 </r>
       <r>   -29.5968     0.0309     0.0085 </r>
       <r>   -29.4886    -0.5237    -0.0482 </r>
       <r>   -29.3804    -0.3235    -0.0832 </r>
       <r>   -29.2722     5.1568     0.4748 </r>
       <r>   -29.1640     9.9980     1.5566 </r>
       <r>   -29.0558     4.9091     2.0878 </r>
       <r>   -28.9475    -0.3963     2.0449 </r>
       <r>   -28.8393    -0.4968     1.9911 </r>
       <r>   -28.7311     0.0365     1.9951 </r>
       <r>   -28.6229     0.0393     1.9994 </r>
       <r>   -28.5147     0.0056     2.0000 </r>
       <r>   -28.4065     0.0003     2.0000 </r>
       <r>   -28.2983     0.0000     2.0000 </r>
       <r>   -28.1901     0.0000     2.0000 </r>
       <r>   -28.0819     0.0000     2.0000 </r>
       <r>   -27.9737     0.0000     2.0000 </r>
       <r>   -27.8655     0.0000     2.0000 </r>
       <r>   -27.7573     0.0000     2.0000 </r>
       <r>   -27.6491     0.0000     2.0000 </r>
       <r>   -27.5409     0.0000     2.0000 </r>
       <r>   -27.4327     0.0000     2.0000 </r>
       <r>   -27.3245     0.0000     2.0000 </r>
       <r>   -27.2163     0.0000     2.0000 </r>
       <r>   -27.1081     0.0000     2.0000 </r>
       <r>   -26.9999     0.0000     2.0000 </r>
       <r>   -26.8917     0.0000     2.0000 </r>
       <r>   -26.7835     0.0000     2.0000 </r>
       <r>   -26.6753     0.0000     2.0000 </r>
       <r>   -26.5671     0.0000     2.0000 </r>
       <r>   -26.4589     0.0000     2.0000 </r>
       <r>   -26.3507     0.0000     2.0000 </r>
       <r>   -26.2425     0.0000     2.0000 </r>
       <r>   -26.1343     0.0000     2.0000 </r>
       <r>   -26.0260     0.0000     2.0000 </r>
       <r>   -25.9178     0.0000     2.0000 </r>
       <r>   -25.8096     0.0000     2.0000 </r>
       <r>   -25.7014     0.0000     2.0000 </r>
       <r>   -25.5932     0.0000     2.0000 </r>
       <r>   -25.4850     0.0000     2.0000 </r>
       <r>   -25.3768     0.0000     2.0000 </r>
       <r>   -25.2686     0.0000     2.0000 </r>
       <r>   -25.1604     0.0000     2.0000 </r>
       <r>   -25.0522     0.0000     2.0000 </r>
       <r>   -24.9440     0.0000     2.0000 </r>
       <r>   -24.8358     0.0000     2.0000 </r>
       <r>   -24.7276     0.0000     2.0000 </r>
       <r>   -24.6194     0.0000     2.0000 </r>
       <r>   -24.5112     0.0000     2.0000 </r>
       <r>   -24.4030     0.0000     2.0000 </r>
       <r>   -24.2948     0.0000     2.0000 </r>
       <r>   -24.1866     0.0000     2.0000 </r>
       <r>   -24.0784     0.0000     2.0000 </r>
       <r>   -23.9702     0.0000     2.0000 </r>
       <r>   -23.8620     0.0000     2.0000 </r>
       <r>   -23.7538     0.0000     2.0000 </r>
       <r>   -23.6456     0.0000     2.0000 </r>
       <r>   -23.5374     0.0000     2.0000 </r>
       <r>   -23.4292     0.0000     2.0000 </r>
       <r>   -23.3210     0.0000     2.0000 </r>
       <r>   -23.2128     0.0000     2.0000 </r>
       <r>   -23.1046     0.0000     2.0000 </r>
       <r>   -22.9963     0.0000     2.0000 </r>
       <r>   -22.8881     0.0000     2.0000 </r>
       <r>   -22.7799     0.0000     2.0000 </r>
       <r>   -22.6717     0.0000     2.0000 </r>
       <r>   -22.5635     0.0000     2.0000 </r>
       <r>   -22.4553     0.0000     2.0000 </r>
       <r>   -22.3471     0.0000     2.0000 </r>
       <r>   -22.2389     0.0000     2.0000 </r>
       <r>   -22.1307     0.0000     2.0000 </r>
       <r>   -22.0225     0.0000     2.0000 </r>
       <r>   -21.9143     0.0000     2.0000 </r>
       <r>   -21.8061     0.0000     2.0000 </r>
       <r>   -21.6979     0.0000     2.0000 </r>
       <r>   -21.5897     0.0000     2.0000 </r>
       <r>   -21.4815     0.0000     2.0000 </r>
       <r>   -21.3733     0.0000     2.0000 </r>
       <r>   -21.2651     0.0000     2.0000 </r>
       <r>   -21.1569     0.0000     2.0000 </r>
       <r>   -21.0487     0.0000     2.0000 </r>
       <r>   -20.9405     0.0000     2.0000 </r>
       <r>   -20.8323     0.0000     2.0000 </r>
       <r>   -20.7241     0.0000     2.0000 </r>
       <r>   -20.6159     0.0000     2.0000 </r>
       <r>   -20.5077     0.0000     2.0000 </r>
       <r>   -20.3995     0.0000     2.0000 </r>
       <r>   -20.2913     0.0000     2.0000 </r>
       <r>   -20.1831     0.0000     2.0000 </r>
       <r>   -20.0749     0.0000     2.0000 </r>
       <r>   -19.9666     0.0000     2.0000 </r>
       <r>   -19.8584     0.0000     2.0000 </r>
       <r>   -19.7502     0.0000     2.0000 </r>
       <r>   -19.6420     0.0000     2.0000 </r>
       <r>   -19.5338     0.0000     2.0000 </r>
       <r>   -19.4256     0.0000     2.0000 </r>
       <r>   -19.3174     0.0000     2.0000 </r>
       <r>   -19.2092     0.0000     2.0000 </r>
       <r>   -19.1010     0.0000     2.0000 </r>
       <r>   -18.9928     0.0000     2.0000 </r>
       <r>   -18.8846     0.0000     2.0000 </r>
       <r>   -18.7764     0.0000     2.0000 </r>
       <r>   -18.6682     0.0000     2.0000 </r>
       <r>   -18.5600     0.0000     2.0000 </r>
       <r>   -18.4518     0.0000     2.0000 </r>
       <r>   -18.3436     0.0000     2.0000 </r>
       <r>   -18.2354     0.0000     2.0000 </r>
       <r>   -18.1272     0.0000     2.0000 </r>
       <r>   -18.0190     0.0000     2.0000 </r>
       <r>   -17.9108     0.0000     2.0000 </r>
       <r>   -17.8026     0.0000     2.0000 </r>
       <r>   -17.6944     0.0000     2.0000 </r>
       <r>   -17.5862     0.0000     2.0000 </r>
       <r>   -17.4780     0.0000     2.0000 </r>
       <r>   -17.3698     0.0000     2.0000 </r>
       <r>   -17.2616     0.0000     2.0000 </r>
       <r>   -17.1534     0.0000     2.0000 </r>
       <r>   -17.0452     0.0000     2.0000 </r>
       <r>   -16.9369     0.0000     2.0000 </r>
       <r>   -16.8287     0.0000     2.0000 </r>
       <r>   -16.7205     0.0000     2.0000 </r>
       <r>   -16.6123     0.0000     2.0000 </r>
       <r>   -16.5041     0.0000     2.0000 </r>
       <r>   -16.3959     0.0000     2.0000 </r>
       <r>   -16.2877     0.0000     2.0000 </r>
       <r>   -16.1795     0.0000     2.0000 </r>
       <r>   -16.0713     0.0000     2.0000 </r>
       <r>   -15.9631     0.0000     2.0000 </r>
       <r>   -15.8549     0.0000     2.0000 </r>
       <r>   -15.7467     0.0000     2.0000 </r>
       <r>   -15.6385     0.0000     2.0000 </r>
       <r>   -15.5303     0.0000     2.0000 </r>
       <r>   -15.4221     0.0000     2.0000 </r>
       <r>   -15.3139     0.0000     2.0000 </r>
       <r>   -15.2057     0.0000     2.0000 </r>
       <r>   -15.0975     0.0000     2.0000 </r>
       <r>   -14.9893     0.0000     2.0000 </r>
       <r>   -14.8811     0.0000     2.0000 </r>
       <r>   -14.7729     0.0000     2.0000 </r>
       <r>   -14.6647     0.0000     2.0000 </r>
       <r>   -14.5565     0.0000     2.0000 </r>
       <r>   -14.4483     0.0003     2.0000 </r>
       <r>   -14.3401     0.0050     2.0006 </r>
       <r>   -14.2319     0.0369     2.0046 </r>
       <r>   -14.1237     0.0432     2.0092 </r>
       <r>   -14.0154    -0.4599     1.9595 </r>
       <r>   -13.9072    -0.4851     1.9070 </r>
       <r>   -13.7990     4.5717     2.4017 </r>
       <r>   -13.6908     9.9761     3.4811 </r>
       <r>   -13.5826     5.4958     4.0758 </r>
       <r>   -13.4744    -0.2129     4.0527 </r>
       <r>   -13.3662    -0.5603     3.9921 </r>
       <r>   -13.2580     0.0221     3.9945 </r>
       <r>   -13.1498     0.0435     3.9992 </r>
       <r>   -13.0416     0.0067     4.0000 </r>
       <r>   -12.9334     0.0004     4.0000 </r>
       <r>   -12.8252     0.0000     4.0000 </r>
       <r>   -12.7170     0.0000     4.0000 </r>
       <r>   -12.6088     0.0000     4.0000 </r>
       <r>   -12.5006     0.0000     4.0000 </r>
       <r>   -12.3924     0.0000     4.0000 </r>
       <r>   -12.2842     0.0001     4.0000 </r>
       <r>   -12.1760     0.0030     4.0003 </r>
       <r>   -12.0678     0.0344     4.0041 </r>
       <r>   -11.9596     0.1258     4.0177 </r>
       <r>   -11.8514    -0.2796     3.9874 </r>
       <r>   -11.7432    -1.6201     3.8121 </r>
       <r>   -11.6350     3.1131     4.1490 </r>
       <r>   -11.5268    16.9320     5.9811 </r>
       <r>   -11.4186    17.1167     7.8332 </r>
       <r>   -11.3104     3.2995     8.1902 </r>
       <r>   -11.2022    -1.6247     8.0144 </r>
       <r>   -11.0940    -0.2981     7.9821 </r>
       <r>   -10.9857     0.1265     7.9958 </r>
       <r>   -10.8775     0.0355     7.9996 </r>
       <r>   -10.7693     0.0032     8.0000 </r>
       <r>   -10.6611     0.0001     8.0000 </r>
       <r>   -10.5529     0.0000     8.0000 </r>
       <r>   -10.4447     0.0000     8.0000 </r>
       <r>   -10.3365     0.0000     8.0000 </r>
       <r>   -10.2283     0.0000     8.0000 </r>
       <r>   -10.1201     0.0000     8.0000 </r>
       <r>   -10.0119     0.0000     8.0000 </r>
       <r>    -9.9037     0.0004     8.0000 </r>
       <r>    -9.7955     0.0070     8.0008 </r>
       <r>    -9.6873     0.0443     8.0056 </r>
       <r>    -9.5791     0.0191     8.0077 </r>
       <r>    -9.4709    -0.5716     7.9458 </r>
       <r>    -9.3627    -0.1757     7.9268 </r>
       <r>    -9.2545     5.6012     8.5329 </r>
       <r>    -9.1463     9.9642     9.6110 </r>
       <r>    -9.0381     4.4672    10.0944 </r>
       <r>    -8.9299    -0.5103    10.0392 </r>
       <r>    -8.8217    -0.4485     9.9906 </r>
       <r>    -8.7135     0.0451     9.9955 </r>
       <r>    -8.6053     0.0362     9.9994 </r>
       <r>    -8.4971     0.0048    10.0000 </r>
       <r>    -8.3889     0.0003    10.0000 </r>
       <r>    -8.2807     0.0000    10.0000 </r>
       <r>    -8.1725     0.0000    10.0000 </r>
       <r>    -8.0643     0.0000    10.0000 </r>
       <r>    -7.9560     0.0000    10.0000 </r>
       <r>    -7.8478     0.0000    10.0000 </r>
       <r>    -7.7396     0.0000    10.0000 </r>
       <r>    -7.6314     0.0000    10.0000 </r>
       <r>    -7.5232     0.0000    10.0000 </r>
       <r>    -7.4150     0.0000    10.0000 </r>
       <r>    -7.3068     0.0006    10.0001 </r>
       <r>    -7.1986     0.0088    10.0010 </r>
       <r>    -7.0904     0.0499    10.0064 </r>
       <r>    -6.9822    -0.0075    10.0056 </r>
       <r>    -6.8740    -0.6519     9.9351 </r>
       <r>    -6.7658     0.1442     9.9507 </r>
       <r>    -6.6576     6.4154    10.6449 </r>
       <r>    -6.5494     9.9763    11.7243 </r>
       <r>    -6.4412     3.4830    12.1012 </r>
       <r>    -6.3330    -2.9002    11.7874 </r>
       <r>    -6.2248     2.5795    12.0665 </r>
       <r>    -6.1166    23.1037    14.5664 </r>
       <r>    -6.0084    25.4989    17.3255 </r>
       <r>    -5.9002     8.3920    18.2335 </r>
       <r>    -5.7920    20.4892    20.4505 </r>
       <r>    -5.6838    60.9735    27.0481 </r>
       <r>    -5.5756   144.5560    42.6896 </r>
       <r>    -5.4674   269.7156    71.8738 </r>
       <r>    -5.3592   303.5545   104.7195 </r>
       <r>    -5.2510   228.1554   129.4067 </r>
       <r>    -5.1428   213.2915   152.4856 </r>
       <r>    -5.0346   304.1555   185.3963 </r>
       <r>    -4.9263   368.5612   225.2760 </r>
       <r>    -4.8181   319.4091   259.8372 </r>
       <r>    -4.7099   297.6798   292.0472 </r>
       <r>    -4.6017   389.1643   334.1562 </r>
       <r>    -4.4935   431.9538   380.8952 </r>
       <r>    -4.3853   430.2480   427.4496 </r>
       <r>    -4.2771   524.6427   484.2178 </r>
       <r>    -4.1689   541.2371   542.7816 </r>
       <r>    -4.0607   300.2423   575.2689 </r>
       <r>    -3.9525    56.4403   581.3759 </r>
       <r>    -3.8443    11.7095   582.6429 </r>
       <r>    -3.7361    32.6050   586.1709 </r>
       <r>    -3.6279    16.3387   587.9388 </r>
       <r>    -3.5197    12.6525   589.3079 </r>
       <r>    -3.4115    28.4040   592.3813 </r>
       <r>    -3.3033    15.3512   594.0423 </r>
       <r>    -3.1951    -4.5831   593.5464 </r>
       <r>    -3.0869    16.5418   595.3363 </r>
       <r>    -2.9787    63.4307   602.1997 </r>
       <r>    -2.8705    60.8933   608.7886 </r>
       <r>    -2.7623    15.1458   610.4274 </r>
       <r>    -2.6541    -5.1721   609.8678 </r>
       <r>    -2.5459    10.5615   611.0106 </r>
       <r>    -2.4377    30.7464   614.3375 </r>
       <r>    -2.3295    24.1508   616.9507 </r>
       <r>    -2.2213    11.5960   618.2054 </r>
       <r>    -2.1131    25.0381   620.9146 </r>
       <r>    -2.0048    40.9224   625.3426 </r>
       <r>    -1.8966    40.5316   629.7282 </r>
       <r>    -1.7884    37.2906   633.7632 </r>
       <r>    -1.6802    38.4125   637.9196 </r>
       <r>    -1.5720    46.6569   642.9680 </r>
       <r>    -1.4638    42.7704   647.5959 </r>
       <r>    -1.3556    20.5846   649.8233 </r>
       <r>    -1.2474    14.6330   651.4066 </r>
       <r>    -1.1392    23.5632   653.9562 </r>
       <r>    -1.0310    26.7738   656.8533 </r>
       <r>    -0.9228    50.1674   662.2815 </r>
       <r>    -0.8146    59.3091   668.6990 </r>
       <r>    -0.7064    29.2923   671.8685 </r>
       <r>    -0.5982     3.4077   672.2373 </r>
       <r>    -0.4900    -2.0756   672.0127 </r>
       <r>    -0.3818    -0.4053   671.9688 </r>
       <r>    -0.2736     0.2051   671.9910 </r>
       <r>    -0.1654     0.0740   671.9990 </r>
       <r>    -0.0572     0.0087   671.9999 </r>
       <r>     0.0510     0.0005   672.0000 </r>
       <r>     0.1592     0.0000   672.0000 </r>
       <r>     0.2674     0.0000   672.0000 </r>
       <r>     0.3756     0.0000   672.0000 </r>
       <r>     0.4838     0.0000   672.0000 </r>
       <r>     0.5920     0.0000   672.0000 </r>
       <r>     0.7002     0.0000   672.0000 </r>
       <r>     0.8084     0.0000   672.0000 </r>
       <r>     0.9166     0.0000   672.0000 </r>
       <r>     1.0249     0.0000   672.0000 </r>
       <r>     1.1331     0.0000   672.0000 </r>
       <r>     1.2413     0.0000   672.0000 </r>
      </set>
     </set>
    </array>
   </total>
  </dos>
 </calculation>
 <structure name="finalpos" >
  <crystal>
   <varray name="basis" >
    <v>      30.00000000       0.00000000       0.00000000 </v>
    <v>       0.00000000      30.00000000       0.00000000 </v>
    <v>       0.00000000       0.00000000      30.00000000 </v>
   </varray>
   <i name="volume">  27000.00000000 </i>
   <varray name="rec_basis" >
    <v>       0.03333333       0.00000000       0.00000000 </v>
    <v>       0.00000000       0.03333333       0.00000000 </v>
    <v>       0.00000000       0.00000000       0.03333333 </v>
   </varray>
  </crystal>
  <varray name="positions" >
   <v>       0.44576020       0.32826710       0.41691983 </v>
   <v>       0.67173288       0.55423978       0.41691983 </v>
   <v>       0.55423980       0.32826710       0.41691983 </v>
   <v>       0.32826712       0.55423978       0.41691983 </v>
   <v>       0.50000000       0.38250690       0.34021317 </v>
   <v>       0.50000000       0.38250690       0.65978680 </v>
   <v>       0.50000000       0.27609440       0.50000000 </v>
   <v>       0.27609443       0.49999998       0.50000000 </v>
   <v>       0.72390557       0.49999998       0.50000000 </v>
   <v>       0.50000000       0.72390555       0.50000000 </v>
   <v>       0.61195280       0.38804720       0.34167483 </v>
   <v>       0.61195280       0.38804720       0.65832513 </v>
   <v>       0.38804722       0.61195278       0.34167483 </v>
   <v>       0.38804722       0.61195278       0.65832513 </v>
   <v>       0.38804720       0.38804720       0.34167483 </v>
   <v>       0.38804720       0.38804720       0.65832513 </v>
   <v>       0.61195278       0.61195278       0.34167483 </v>
   <v>       0.61195278       0.61195278       0.65832513 </v>
   <v>       0.44576020       0.32826710       0.58308023 </v>
   <v>       0.67173288       0.55423978       0.58308023 </v>
   <v>       0.55791699       0.44208301       0.41809300 </v>
   <v>       0.32826705       0.44576024       0.41691983 </v>
   <v>       0.55423973       0.67173293       0.41691983 </v>
   <v>       0.55423980       0.32826710       0.58308023 </v>
   <v>       0.32826712       0.55423978       0.58308023 </v>
   <v>       0.67173295       0.44576024       0.41691983 </v>
   <v>       0.44576027       0.67173293       0.41691983 </v>
   <v>       0.44208301       0.44208301       0.41809300 </v>
   <v>       0.50000000       0.38416601       0.50000000 </v>
   <v>       0.61749315       0.50000005       0.34021317 </v>
   <v>       0.61749315       0.50000005       0.65978680 </v>
   <v>       0.38250685       0.50000005       0.34021317 </v>
   <v>       0.38250685       0.50000005       0.65978680 </v>
   <v>       0.38317830       0.38317830       0.50000000 </v>
   <v>       0.61682172       0.61682172       0.50000000 </v>
   <v>       0.61682170       0.38317830       0.50000000 </v>
   <v>       0.38317828       0.61682172       0.50000000 </v>
   <v>       0.50000000       0.50000000       0.33478917 </v>
   <v>       0.50000000       0.50000000       0.66521087 </v>
   <v>       0.32826705       0.44576024       0.58308023 </v>
   <v>       0.55423973       0.67173293       0.58308023 </v>
   <v>       0.55791699       0.44208301       0.58190703 </v>
   <v>       0.44208298       0.55791702       0.41809300 </v>
   <v>       0.44208301       0.44208301       0.58190703 </v>
   <v>       0.67173295       0.44576024       0.58308023 </v>
   <v>       0.44576027       0.67173293       0.58308023 </v>
   <v>       0.55791702       0.55791702       0.41809300 </v>
   <v>       0.38416599       0.50000002       0.50000000 </v>
   <v>       0.61583401       0.50000002       0.50000000 </v>
   <v>       0.50000000       0.61749319       0.34021317 </v>
   <v>       0.50000000       0.61749319       0.65978680 </v>
   <v>       0.50000000       0.50000000       0.50000000 </v>
   <v>       0.44208298       0.55791702       0.58190703 </v>
   <v>       0.55791702       0.55791702       0.58190703 </v>
   <v>       0.50000000       0.61583404       0.50000000 </v>
   <v>       0.62365257       0.72323070       0.38189167 </v>
   <v>       0.64018670       0.75307983       0.36609890 </v>
  </varray>
  <varray name="selective"  type="logical" >
   <v type="logical" >  F  F  F </v>
   <v type="logical" >  F  F  F </v>
   <v type="logical" >  F  F  F </v>
   <v type="logical" >  F  F  F </v>
   <v type="logical" >  F  F  F </v>
   <v type="logical" >  F  F  F </v>
   <v type="logical" >  F  F  F </v>
   <v type="logical" >  F  F  F </v>
   <v type="logical" >  F  F  F </v>
   <v type="logical" >  F  F  F </v>
   <v type="logical" >  F  F  F </v>
   <v type="logical" >  F  F  F </v>
   <v type="logical" >  F  F  F </v>
   <v type="logical" >  F  F  F </v>
   <v type="logical" >  F  F  F </v>
   <v type="logical" >  F  F  F </v>
   <v type="logical" >  F  F  F </v>
   <v type="logical" >  F  F  F </v>
   <v type="logical" >  F  F  F </v>
   <v type="logical" >  F  F  F </v>
   <v type="logical" >  F  F  F </v>
   <v type="logical" >  F  F  F </v>
   <v type="logical" >  F  F  F </v>
   <v type="logical" >  F  F  F </v>
   <v type="logical" >  F  F  F </v>
   <v type="logical" >  F  F  F </v>
   <v type="logical" >  F  F  F </v>
   <v type="logical" >  F  F  F </v>
   <v type="logical" >  F  F  F </v>
   <v type="logical" >  F  F  F </v>
   <v type="logical" >  F  F  F </v>
   <v type="logical" >  F  F  F </v>
   <v type="logical" >  F  F  F </v>
   <v type="logical" >  F  F  F </v>
   <v type="logical" >  F  F  F </v>
   <v type="logical" >  F  F  F </v>
   <v type="logical" >  F  F  F </v>
   <v type="logical" >  F  F  F </v>
   <v type="logical" >  F  F  F </v>
   <v type="logical" >  F  F  F </v>
   <v type="logical" >  F  F  F </v>
   <v type="logical" >  F  F  F </v>
   <v type="logical" >  F  F  F </v>
   <v type="logical" >  F  F  F </v>
   <v type="logical" >  F  F  F </v>
   <v type="logical" >  F  F  F </v>
   <v type="logical" >  F  F  F </v>
   <v type="logical" >  F  F  F </v>
   <v type="logical" >  F  F  F </v>
   <v type="logical" >  F  F  F </v>
   <v type="logical" >  F  F  F </v>
   <v type="logical" >  F  F  F </v>
   <v type="logical" >  F  F  F </v>
   <v type="logical" >  F  F  F </v>
   <v type="logical" >  F  F  F </v>
   <v type="logical" >  F  F  F </v>
   <v type="logical" >  F  F  F </v>
  </varray>
  <nose>
   <v>      -3.00000000       0.00000000       0.00010000       0.00010000 </v>
  </nose>
 </structure>
</modeling>
