   57   57    1    1
  0.4736842E+03  0.3000000E-08  0.3000000E-08  0.3000000E-08  0.5000000E-15
  1.000000000000000E-004
  CAR 
 6_Pd100_top_free_z(O)                   
    560      1    336
 
  0.0000000E+00  0.0000000E+00  0.0000000E+00  0.1000000E+01
    1      -28.094256   1.000000
    2      -13.646392   1.000000
    3      -11.328862   1.000000
    4      -10.860780   1.000000
    5      -10.796946   1.000000
    6       -6.928171   1.000000
    7       -6.894362   1.000000
    8       -6.678888   1.000000
    9       -6.257992   1.000000
   10       -6.149186   1.000000
   11       -6.145009   1.000000
   12       -6.012265   1.000000
   13       -6.006509   1.000000
   14       -5.903137   1.000000
   15       -5.830479   1.000000
   16       -5.821581   1.000000
   17       -5.776447   1.000000
   18       -5.741920   1.000000
   19       -5.709406   1.000000
   20       -5.701339   1.000000
   21       -5.696470   1.000000
   22       -5.674243   1.000000
   23       -5.640504   1.000000
   24       -5.625810   1.000000
   25       -5.616390   1.000000
   26       -5.612172   1.000000
   27       -5.603631   1.000000
   28       -5.594972   1.000000
   29       -5.566080   1.000000
   30       -5.564693   1.000000
   31       -5.555041   1.000000
   32       -5.543332   1.000000
   33       -5.537259   1.000000
   34       -5.535220   1.000000
   35       -5.530635   1.000000
   36       -5.529266   1.000000
   37       -5.528630   1.000000
   38       -5.525165   1.000000
   39       -5.512646   1.000000
   40       -5.502502   1.000000
   41       -5.491283   1.000000
   42       -5.489203   1.000000
   43       -5.486134   1.000000
   44       -5.483381   1.000000
   45       -5.481723   1.000000
   46       -5.472861   1.000000
   47       -5.461973   1.000000
   48       -5.449978   1.000000
   49       -5.445842   1.000000
   50       -5.442574   1.000000
   51       -5.441911   1.000000
   52       -5.438049   1.000000
   53       -5.426507   1.000000
   54       -5.421996   1.000000
   55       -5.419625   1.000000
   56       -5.413801   1.000000
   57       -5.403849   1.000000
   58       -5.396459   1.000000
   59       -5.377378   1.000000
   60       -5.350546   1.000000
   61       -5.343258   1.000000
   62       -5.337477   1.000000
   63       -5.334609   1.000000
   64       -5.332830   1.000000
   65       -5.320955   1.000000
   66       -5.316339   1.000000
   67       -5.315447   1.000000
   68       -5.310542   1.000000
   69       -5.287449   1.000000
   70       -5.283439   1.000000
   71       -5.237210   1.000000
   72       -5.227873   1.000000
   73       -5.219884   1.000000
   74       -5.216266   1.000000
   75       -5.210620   1.000000
   76       -5.198355   1.000000
   77       -5.197888   1.000000
   78       -5.190480   1.000000
   79       -5.185924   1.000000
   80       -5.183437   1.000000
   81       -5.182462   1.000000
   82       -5.168416   1.000000
   83       -5.160089   1.000000
   84       -5.153391   1.000000
   85       -5.144550   1.000000
   86       -5.133592   1.000000
   87       -5.126109   1.000000
   88       -5.121333   1.000000
   89       -5.114273   1.000000
   90       -5.098788   1.000000
   91       -5.093689   1.000000
   92       -5.076650   1.000000
   93       -5.073705   1.000000
   94       -5.070650   1.000000
   95       -5.068671   1.000000
   96       -5.065232   1.000000
   97       -5.060956   1.000000
   98       -5.060311   1.000000
   99       -5.051565   1.000000
  100       -5.045513   1.000000
  101       -5.042093   1.000000
  102       -5.035140   1.000000
  103       -5.031530   1.000000
  104       -5.023360   1.000000
  105       -5.021829   1.000000
  106       -5.019296   1.000000
  107       -5.014996   1.000000
  108       -5.009826   1.000000
  109       -5.004476   1.000000
  110       -4.995558   1.000000
  111       -4.993924   1.000000
  112       -4.990512   1.000000
  113       -4.980834   1.000000
  114       -4.978941   1.000000
  115       -4.973647   0.999999
  116       -4.972772   0.999999
  117       -4.966365   0.999999
  118       -4.955972   0.999999
  119       -4.949632   0.999999
  120       -4.947381   0.999999
  121       -4.935873   0.999998
  122       -4.927061   0.999997
  123       -4.925307   0.999997
  124       -4.920025   0.999996
  125       -4.918269   0.999996
  126       -4.915152   0.999996
  127       -4.901633   0.999993
  128       -4.888489   0.999990
  129       -4.879074   0.999986
  130       -4.868500   0.999981
  131       -4.858563   0.999975
  132       -4.856487   0.999973
  133       -4.854725   0.999972
  134       -4.851358   0.999969
  135       -4.846282   0.999964
  136       -4.833269   0.999948
  137       -4.826889   0.999938
  138       -4.814380   0.999913
  139       -4.810103   0.999902
  140       -4.804706   0.999887
  141       -4.794871   0.999855
  142       -4.789946   0.999836
  143       -4.781588   0.999799
  144       -4.773637   0.999756
  145       -4.759819   0.999664
  146       -4.755821   0.999632
  147       -4.750470   0.999585
  148       -4.744831   0.999530
  149       -4.738830   0.999465
  150       -4.733043   0.999396
  151       -4.722916   0.999256
  152       -4.719774   0.999208
  153       -4.705175   0.998950
  154       -4.700884   0.998863
  155       -4.700112   0.998847
  156       -4.694490   0.998724
  157       -4.691655   0.998658
  158       -4.689899   0.998617
  159       -4.687568   0.998559
  160       -4.682745   0.998436
  161       -4.679931   0.998361
  162       -4.671548   0.998123
  163       -4.665749   0.997946
  164       -4.663503   0.997875
  165       -4.662401   0.997840
  166       -4.661436   0.997809
  167       -4.660829   0.997789
  168       -4.656992   0.997662
  169       -4.653470   0.997542
  170       -4.646730   0.997305
  171       -4.639972   0.997059
  172       -4.633152   0.996805
  173       -4.628707   0.996638
  174       -4.617934   0.996235
  175       -4.617097   0.996205
  176       -4.612339   0.996032
  177       -4.610624   0.995971
  178       -4.607134   0.995851
  179       -4.606396   0.995826
  180       -4.596900   0.995526
  181       -4.594125   0.995448
  182       -4.586461   0.995263
  183       -4.585080   0.995234
  184       -4.580618   0.995157
  185       -4.576327   0.995102
  186       -4.574398   0.995085
  187       -4.571863   0.995071
  188       -4.564562   0.995081
  189       -4.563530   0.995090
  190       -4.559445   0.995142
  191       -4.554506   0.995247
  192       -4.542432   0.995733
  193       -4.528713   0.996758
  194       -4.527355   0.996891
  195       -4.521799   0.997500
  196       -4.516321   0.998207
  197       -4.514826   0.998420
  198       -4.511716   0.998889
  199       -4.506386   0.999783
  200       -4.501667   1.000672
  201       -4.492462   1.002681
  202       -4.483199   1.005086
  203       -4.479045   1.006291
  204       -4.478217   1.006541
  205       -4.476280   1.007137
  206       -4.467261   1.010138
  207       -4.464705   1.011054
  208       -4.462096   1.012017
  209       -4.459133   1.013147
  210       -4.453016   1.015590
  211       -4.449230   1.017174
  212       -4.443749   1.019552
  213       -4.440591   1.020966
  214       -4.436534   1.022820
  215       -4.427614   1.027018
  216       -4.423794   1.028848
  217       -4.423115   1.029175
  218       -4.420521   1.030424
  219       -4.419663   1.030837
  220       -4.411674   1.034666
  221       -4.401154   1.039535
  222       -4.385655   1.045839
  223       -4.382390   1.046958
  224       -4.379626   1.047833
  225       -4.375168   1.049086
  226       -4.366166   1.050918
  227       -4.354355   1.051574
  228       -4.352389   1.051456
  229       -4.350777   1.051306
  230       -4.349913   1.051206
  231       -4.348559   1.051018
  232       -4.347772   1.050893
  233       -4.343706   1.050042
  234       -4.341791   1.049519
  235       -4.340195   1.049021
  236       -4.337280   1.047961
  237       -4.336943   1.047825
  238       -4.333468   1.046268
  239       -4.332703   1.045885
  240       -4.328578   1.043561
  241       -4.324156   1.040564
  242       -4.315129   1.032710
  243       -4.312002   1.029414
  244       -4.306435   1.022771
  245       -4.304961   1.020841
  246       -4.302415   1.017336
  247       -4.299125   1.012476
  248       -4.296626   1.008531
  249       -4.294868   1.005624
  250       -4.287419   0.992058
  251       -4.281929   0.980744
  252       -4.278719   0.973601
  253       -4.276253   0.967846
  254       -4.275474   0.965979
  255       -4.270171   0.952649
  256       -4.268228   0.947491
  257       -4.266644   0.943180
  258       -4.262706   0.932037
  259       -4.260919   0.926782
  260       -4.259694   0.923108
  261       -4.256844   0.914338
  262       -4.256009   0.911710
  263       -4.254302   0.906254
  264       -4.252381   0.899979
  265       -4.250858   0.894904
  266       -4.243188   0.868037
  267       -4.240501   0.858110
  268       -4.238163   0.849264
  269       -4.236397   0.842457
  270       -4.234128   0.833545
  271       -4.231952   0.824835
  272       -4.225791   0.799320
  273       -4.219703   0.772926
  274       -4.211908   0.737550
  275       -4.200851   0.684702
  276       -4.197409   0.667698
  277       -4.191075   0.635837
  278       -4.189720   0.628935
  279       -4.188528   0.622841
  280       -4.185703   0.608316
  281       -4.174120   0.547876
  282       -4.167066   0.510640
  283       -4.154103   0.442213
  284       -4.145845   0.399123
  285       -4.143083   0.384872
  286       -4.142054   0.379588
  287       -4.132025   0.328950
  288       -4.126765   0.303141
  289       -4.092005   0.150964
  290       -3.977891  -0.051443
  291       -3.896679  -0.024265
  292       -3.844239  -0.004353
  293       -3.828851  -0.000753
  294       -3.689926   0.002933
  295       -3.523815   0.000108
  296       -3.504015   0.000064
  297       -3.386502   0.000002
  298       -3.085258   0.000000
  299       -3.083931   0.000000
  300       -3.062023   0.000000
  301       -3.054455   0.000000
  302       -3.033420   0.000000
  303       -2.966939   0.000000
  304       -2.957781   0.000000
  305       -2.797888   0.000000
  306       -2.545667   0.000000
  307       -2.538048   0.000000
  308       -2.413498   0.000000
  309       -2.335196   0.000000
  310       -2.145772   0.000000
  311       -2.129351   0.000000
  312       -2.108002   0.000000
  313       -2.049485   0.000000
  314       -1.972772   0.000000
  315       -1.939181   0.000000
  316       -1.884718   0.000000
  317       -1.797327   0.000000
  318       -1.738255   0.000000
  319       -1.710583   0.000000
  320       -1.655656   0.000000
  321       -1.622558   0.000000
  322       -1.568933   0.000000
  323       -1.404118   0.000000
  324       -1.353255   0.000000
  325       -1.259205   0.000000
  326       -1.183238   0.000000
  327       -1.123937   0.000000
  328       -1.004835   0.000000
  329       -0.998990   0.000000
  330       -0.981500   0.000000
  331       -0.959227   0.000000
  332       -0.956110   0.000000
  333       -0.925173   0.000000
  334       -0.865014   0.000000
  335       -0.814199   0.000000
  336       -0.646902   0.000000
