 running on    1 total cores
 distrk:  each k-point on    1 cores,    1 groups
 distr:  one band on    1 cores,    1 groups
 using from now: INCAR     
 vasp.5.4.4.18Apr17-6-g9f103f2a35 (build Sep 03 2018 23:53:05) complex          
  
 POSCAR found type information on POSCAR  Pd C  O 
 POSCAR found :  3 types and      57 ions
 scaLAPACK will be used

 ----------------------------------------------------------------------------- 
|                                                                             |
|  ADVICE TO THIS USER RUNNING 'VASP/VAMP'   (HEAR YOUR MASTER'S VOICE ...):  |
|                                                                             |
|      You enforced a specific xc-type in the INCAR file,                     |
|      a different type was found on the POTCAR file                          |
|          I HOPE YOU KNOW, WHAT YOU ARE  DOING                               |
|                                                                             |
 ----------------------------------------------------------------------------- 

 LDA part: xc-table for Pade appr. of Perdew
 POSCAR, INCAR and KPOINTS ok, starting setup
 FFT: planning ...
 WAVECAR not read
 entering main loop
       N       E                     dE             d eps       ncg     rms          rms(c)
DAV:   1     0.440039349716E+04    0.44004E+04   -0.10053E+05   688   0.815E+02
DAV:   2     0.201230946093E+04   -0.23881E+04   -0.21489E+04  1224   0.106E+02
DAV:   3     0.233507259764E+03   -0.17788E+04   -0.16740E+04  1000   0.918E+01
DAV:   4    -0.137221653517E+03   -0.37073E+03   -0.31528E+03   848   0.436E+01
DAV:   5    -0.181296654331E+03   -0.44075E+02   -0.36782E+02  1056   0.146E+01    0.173E+01
RMM:   6    -0.181272335065E+03    0.24319E-01   -0.67145E+01   740   0.958E+00    0.246E+01
RMM:   7    -0.184636872977E+03   -0.33645E+01   -0.22445E+01   852   0.511E+00    0.256E+01
RMM:   8    -0.186223998464E+03   -0.15871E+01   -0.86920E+00   805   0.375E+00    0.275E+01
RMM:   9    -0.183700636482E+03    0.25234E+01   -0.73947E+00   730   0.379E+00    0.242E+01
RMM:  10    -0.180349954388E+03    0.33507E+01   -0.44204E+00   725   0.314E+00    0.192E+01
RMM:  11    -0.178846138803E+03    0.15038E+01   -0.30129E+00   720   0.257E+00    0.187E+01
RMM:  12    -0.178390487250E+03    0.45565E+00   -0.15997E+00   723   0.184E+00    0.182E+01
RMM:  13    -0.178577822251E+03   -0.18734E+00   -0.17751E+00   714   0.194E+00    0.211E+01
RMM:  14    -0.178871073127E+03   -0.29325E+00   -0.16531E+00   715   0.185E+00    0.345E+01
RMM:  15    -0.177469159371E+03    0.14019E+01   -0.14892E+00   705   0.169E+00    0.146E+01
RMM:  16    -0.176732581248E+03    0.73658E+00   -0.93820E-01   709   0.143E+00    0.109E+01
RMM:  17    -0.176648484101E+03    0.84097E-01   -0.41950E-01   722   0.971E-01    0.121E+01
RMM:  18    -0.176464508552E+03    0.18398E+00   -0.51212E-01   702   0.107E+00    0.114E+01
RMM:  19    -0.176292345699E+03    0.17216E+00   -0.44465E-01   699   0.102E+00    0.993E+00
RMM:  20    -0.176172249052E+03    0.12010E+00   -0.29282E-01   701   0.839E-01    0.951E+00
RMM:  21    -0.176069026828E+03    0.10322E+00   -0.27264E-01   696   0.796E-01    0.902E+00
RMM:  22    -0.176080324793E+03   -0.11298E-01   -0.22234E-01   701   0.717E-01    0.973E+00
RMM:  23    -0.175895193846E+03    0.18513E+00   -0.30602E-01   694   0.829E-01    0.593E+00
RMM:  24    -0.175740090740E+03    0.15510E+00   -0.16310E-01   693   0.612E-01    0.474E+00
RMM:  25    -0.175699579584E+03    0.40511E-01   -0.93039E-02   696   0.474E-01    0.482E+00
RMM:  26    -0.175653815569E+03    0.45764E-01   -0.66137E-02   694   0.405E-01    0.392E+00
RMM:  27    -0.175604378267E+03    0.49437E-01   -0.48762E-02   692   0.349E-01    0.266E+00
RMM:  28    -0.175587076755E+03    0.17302E-01   -0.31084E-02   693   0.284E-01    0.225E+00
RMM:  29    -0.175569450829E+03    0.17626E-01   -0.21753E-02   696   0.243E-01    0.191E+00
RMM:  30    -0.175555409509E+03    0.14041E-01   -0.12903E-02   689   0.188E-01    0.135E+00
RMM:  31    -0.175552823102E+03    0.25864E-02   -0.85620E-03   690   0.147E-01    0.140E+00
RMM:  32    -0.175544765507E+03    0.80576E-02   -0.77030E-03   691   0.140E-01    0.104E+00
RMM:  33    -0.175542990621E+03    0.17749E-02   -0.59469E-03   690   0.121E-01    0.110E+00
RMM:  34    -0.175540548727E+03    0.24419E-02   -0.47092E-03   690   0.110E-01    0.794E-01
RMM:  35    -0.175539638525E+03    0.91020E-03   -0.31396E-03   690   0.911E-02    0.585E-01
RMM:  36    -0.175542113936E+03   -0.24754E-02   -0.33538E-03   688   0.907E-02    0.639E-01
RMM:  37    -0.175542364532E+03   -0.25060E-03   -0.20190E-03   686   0.737E-02    0.471E-01
RMM:  38    -0.175543889444E+03   -0.15249E-02   -0.13967E-03   684   0.614E-02    0.460E-01
RMM:  39    -0.175544749463E+03   -0.86002E-03   -0.88560E-04   683   0.495E-02    0.372E-01
RMM:  40    -0.175545444606E+03   -0.69514E-03   -0.44962E-04   548   0.375E-02    0.281E-01
RMM:  41    -0.175547064156E+03   -0.16195E-02   -0.38106E-04   482   0.326E-02    0.208E-01
RMM:  42    -0.175549027328E+03   -0.19632E-02   -0.33631E-04   441   0.305E-02    0.269E-01
RMM:  43    -0.175551506724E+03   -0.24794E-02   -0.41901E-04   513   0.310E-02    0.216E-01
RMM:  44    -0.175554448334E+03   -0.29416E-02   -0.47051E-04   537   0.305E-02    0.163E-01
RMM:  45    -0.175555808345E+03   -0.13600E-02   -0.20674E-04   411   0.211E-02    0.150E-01
RMM:  46    -0.175559028464E+03   -0.32201E-02   -0.40249E-04   483   0.242E-02    0.127E-01
RMM:  47    -0.175560356899E+03   -0.13284E-02   -0.19188E-04   416   0.178E-02    0.106E-01
RMM:  48    -0.175562461916E+03   -0.21050E-02   -0.24433E-04   424   0.181E-02    0.911E-02
RMM:  49    -0.175563286254E+03   -0.82434E-03   -0.13481E-04   413   0.139E-02    0.831E-02
RMM:  50    -0.175564027899E+03   -0.74164E-03   -0.96849E-05   410   0.117E-02    0.672E-02
RMM:  51    -0.175564535587E+03   -0.50769E-03   -0.64212E-05   404   0.942E-03    0.320E-02
RMM:  52    -0.175564926479E+03   -0.39089E-03   -0.37660E-05   407   0.700E-03    0.394E-02
RMM:  53    -0.175565417004E+03   -0.49052E-03   -0.27540E-05   384   0.609E-03    0.196E-02
RMM:  54    -0.175565689647E+03   -0.27264E-03   -0.11513E-05   248   0.453E-03    0.210E-02
RMM:  55    -0.175566305161E+03   -0.61551E-03   -0.14955E-05   281   0.489E-03    0.158E-02
RMM:  56    -0.175566422853E+03   -0.11769E-03   -0.36759E-06   161   0.410E-03    0.154E-02
RMM:  57    -0.175566783964E+03   -0.36111E-03   -0.78800E-06   209   0.427E-03    0.128E-02
RMM:  58    -0.175566977483E+03   -0.19352E-03   -0.66466E-06   175   0.388E-03    0.985E-03
RMM:  59    -0.175567217318E+03   -0.23983E-03   -0.76037E-06   173   0.393E-03    0.855E-03
RMM:  60    -0.175567352306E+03   -0.13499E-03   -0.49997E-06   142   0.368E-03    0.757E-03
RMM:  61    -0.175567512840E+03   -0.16053E-03   -0.98484E-06   186   0.396E-03    0.870E-03
RMM:  62    -0.175567574350E+03   -0.61510E-04   -0.31471E-06   118   0.335E-03
   1 F= -.17556757E+03 E0= -.17555385E+03  d E =-.548991E-01
================================= SLURM INFO ===================================
Command: run-cluster -n 1 -m 10000 -j 000304_vasp --same-node /opt/VASP/vasp
Exit code: 0
Job name: 000304_vasp
Job time: 0 days 4h:58m:26s
MPI task count: 1
Working dir: /home/pashkov/pyFitIt/pyfitit/data/adaptive_pd_co_new_2/sample/000304
Job was running on nodes: h11
Task per node: 1
       JobID     MaxRSS  MaxDiskRead MaxDiskWrite    Elapsed    JobName 
------------ ---------- ------------ ------------ ---------- ---------- 
106834                                              04:58:25 000304_va+ 
106834.batch                                        04:58:25      batch 
