 vasp.5.4.4.18Apr17-6-g9f103f2a35 (build Sep 03 2018 23:53:05) complex          
  
 executed on             LinuxIFC date 2021.12.01  17:04:53
 running on    1 total cores
 distrk:  each k-point on    1 cores,    1 groups
 distr:  one band on NCORES_PER_BAND=   1 cores,    1 groups


--------------------------------------------------------------------------------------------------------


 INCAR:
 POTCAR:    PAW_PBE Pd 04Jan2005                  
 POTCAR:    PAW_PBE C 08Apr2002                   
 POTCAR:    PAW_PBE O 08Apr2002                   
 POTCAR:    PAW_PBE Pd 04Jan2005                  
   VRHFIN =Pd : s1 d9                                                           
   LEXCH  = PE                                                                  
   EATOM  =   809.7530 eV,   59.5152 Ry                                         
                                                                                
   TITEL  = PAW_PBE Pd 04Jan2005                                                
   LULTRA =        F    use ultrasoft PP ?                                      
   IUNSCR =        1    unscreen: 0-lin 1-nonlin 2-no                           
   RPACOR =    2.000    partial core radius                                     
   POMASS =  106.420; ZVAL   =   10.000    mass and valenz                      
   RCORE  =    2.600    outmost cutoff radius                                   
   RWIGS  =    2.710; RWIGS  =    1.434    wigner-seitz radius (au A)           
   ENMAX  =  250.925; ENMIN  =  188.194 eV                                      
   ICORE  =        3    local potential                                         
   LCOR   =        T    correct aug charges                                     
   LPAW   =        T    paw PP                                                  
   EAUG   =  416.230                                                            
   DEXC   =    0.000                                                            
   RMAX   =    2.653    core radius for proj-oper                               
   RAUG   =    1.300    factor for augmentation sphere                          
   RDEP   =    2.734    radius for radial grids                                 
   RDEPT  =    2.103    core radius for aug-charge                              
                                                                                
   Atomic configuration                                                         
   12 entries                                                                   
     n  l   j            E        occ.                                          
     1  0  0.50    -24164.6631   2.0000                                         
     2  0  0.50     -3530.9218   2.0000                                         
     2  1  1.50     -3165.6822   6.0000                                         
     3  0  0.50      -639.4577   2.0000                                         
     3  1  1.50      -519.4532   6.0000                                         
     3  2  2.50      -328.9757  10.0000                                         
     4  0  0.50       -88.7014   2.0000                                         
     4  1  1.50       -54.4540   6.0000                                         
     4  2  2.50        -6.6878   9.0000                                         
     5  0  0.50        -4.3543   1.0000                                         
     5  1  0.50        -1.3606   0.0000                                         
     4  3  2.50        -1.3606   0.0000                                         
   Description                                                                  
     l       E           TYP  RCUT    TYP  RCUT                                 
     2     -6.6878251     23  2.400                                             
     2     -8.0484077     23  2.400                                             
     0     -4.3542939     23  2.400                                             
     0      4.3406793     23  2.400                                             
     1     -4.0817478     23  2.600                                             
     1     15.8380318     23  2.600                                             
     3     -4.0817478     23  2.400                                             
  local pseudopotential read in
  partial core-charges read in
  partial kinetic energy density read in
  atomic valenz-charges read in
  non local Contribution for L=           2  read in
    real space projection operators read in
  non local Contribution for L=           2  read in
    real space projection operators read in
  non local Contribution for L=           0  read in
    real space projection operators read in
  non local Contribution for L=           0  read in
    real space projection operators read in
  non local Contribution for L=           1  read in
    real space projection operators read in
  non local Contribution for L=           1  read in
    real space projection operators read in
    PAW grid and wavefunctions read in
 
   number of l-projection  operators is LMAX  =           6
   number of lm-projection operators is LMMAX =          18
 
 POTCAR:    PAW_PBE C 08Apr2002                   
   VRHFIN =C: s2p2                                                              
   LEXCH  = PE                                                                  
   EATOM  =   147.1560 eV,   10.8157 Ry                                         
                                                                                
   TITEL  = PAW_PBE C 08Apr2002                                                 
   LULTRA =        F    use ultrasoft PP ?                                      
   IUNSCR =        1    unscreen: 0-lin 1-nonlin 2-no                           
   RPACOR =    1.200    partial core radius                                     
   POMASS =   12.011; ZVAL   =    4.000    mass and valenz                      
   RCORE  =    1.500    outmost cutoff radius                                   
   RWIGS  =    1.630; RWIGS  =    0.863    wigner-seitz radius (au A)           
   ENMAX  =  400.000; ENMIN  =  300.000 eV                                      
   ICORE  =        2    local potential                                         
   LCOR   =        T    correct aug charges                                     
   LPAW   =        T    paw PP                                                  
   EAUG   =  644.873                                                            
   DEXC   =    0.000                                                            
   RMAX   =    1.529    core radius for proj-oper                               
   RAUG   =    1.300    factor for augmentation sphere                          
   RDEP   =    1.501    radius for radial grids                                 
   RDEPT  =    1.300    core radius for aug-charge                              
                                                                                
   Atomic configuration                                                         
    4 entries                                                                   
     n  l   j            E        occ.                                          
     1  0  0.50      -273.3789   2.0000                                         
     2  0  0.50       -13.7508   2.0000                                         
     2  1  0.50        -5.2854   2.0000                                         
     3  2  1.50        -5.4423   0.0000                                         
   Description                                                                  
     l       E           TYP  RCUT    TYP  RCUT                                 
     0    -13.7508458     23  1.200                                             
     0     -8.2022199     23  1.200                                             
     1     -5.2854383     23  1.500                                             
     1     34.0145650     23  1.500                                             
     2     -5.4423304      7  1.500                                             
  local pseudopotential read in
  partial core-charges read in
  partial kinetic energy density read in
  atomic valenz-charges read in
  non local Contribution for L=           0  read in
    real space projection operators read in
  non local Contribution for L=           0  read in
    real space projection operators read in
  non local Contribution for L=           1  read in
    real space projection operators read in
  non local Contribution for L=           1  read in
    real space projection operators read in
    PAW grid and wavefunctions read in
 
   number of l-projection  operators is LMAX  =           4
   number of lm-projection operators is LMMAX =           8
 
 POTCAR:    PAW_PBE O 08Apr2002                   
   VRHFIN =O: s2p4                                                              
   LEXCH  = PE                                                                  
   EATOM  =   432.3788 eV,   31.7789 Ry                                         
                                                                                
   TITEL  = PAW_PBE O 08Apr2002                                                 
   LULTRA =        F    use ultrasoft PP ?                                      
   IUNSCR =        1    unscreen: 0-lin 1-nonlin 2-no                           
   RPACOR =    1.200    partial core radius                                     
   POMASS =   16.000; ZVAL   =    6.000    mass and valenz                      
   RCORE  =    1.520    outmost cutoff radius                                   
   RWIGS  =    1.550; RWIGS  =    0.820    wigner-seitz radius (au A)           
   ENMAX  =  400.000; ENMIN  =  300.000 eV                                      
   ICORE  =        2    local potential                                         
   LCOR   =        T    correct aug charges                                     
   LPAW   =        T    paw PP                                                  
   EAUG   =  605.392                                                            
   DEXC   =    0.000                                                            
   RMAX   =    1.553    core radius for proj-oper                               
   RAUG   =    1.300    factor for augmentation sphere                          
   RDEP   =    1.550    radius for radial grids                                 
   RDEPT  =    1.329    core radius for aug-charge                              
                                                                                
   Atomic configuration                                                         
    4 entries                                                                   
     n  l   j            E        occ.                                          
     1  0  0.50      -514.6923   2.0000                                         
     2  0  0.50       -23.9615   2.0000                                         
     2  1  0.50        -9.0305   4.0000                                         
     3  2  1.50        -9.5241   0.0000                                         
   Description                                                                  
     l       E           TYP  RCUT    TYP  RCUT                                 
     0    -23.9615318     23  1.200                                             
     0     -9.5240782     23  1.200                                             
     1     -9.0304911     23  1.520                                             
     1      8.1634956     23  1.520                                             
     2     -9.5240782      7  1.500                                             
  local pseudopotential read in
  partial core-charges read in
  partial kinetic energy density read in
  kinetic energy density of atom read in
  atomic valenz-charges read in
  non local Contribution for L=           0  read in
    real space projection operators read in
  non local Contribution for L=           0  read in
    real space projection operators read in
  non local Contribution for L=           1  read in
    real space projection operators read in
  non local Contribution for L=           1  read in
    real space projection operators read in
    PAW grid and wavefunctions read in
 
   number of l-projection  operators is LMAX  =           4
   number of lm-projection operators is LMMAX =           8
 
 Optimization of the real space projectors (new method)

 maximal supplied QI-value         = 14.36
 optimisation between [QCUT,QGAM] = [ 10.20, 20.39] = [ 29.12,116.47] Ry 
 Optimized for a Real-space Cutoff    1.51 Angstroem

   l    n(q)    QCUT    max X(q) W(low)/X(q) W(high)/X(q)  e(spline) 
   2      8    10.197    59.108    0.26E-03    0.14E-03    0.96E-07
   2      8    10.197    58.101    0.27E-03    0.14E-03    0.98E-07
   0      9    10.197   102.235    0.54E-04    0.60E-05    0.72E-07
   0      9    10.197    58.388    0.52E-04    0.60E-05    0.68E-07
   1      9    10.197    22.191    0.18E-03    0.25E-03    0.79E-07
   1      9    10.197    15.590    0.15E-03    0.21E-03    0.69E-07
 Optimization of the real space projectors (new method)

 maximal supplied QI-value         = 25.13
 optimisation between [QCUT,QGAM] = [ 10.05, 20.36] = [ 28.30,116.06] Ry 
 Optimized for a Real-space Cutoff    1.30 Angstroem

   l    n(q)    QCUT    max X(q) W(low)/X(q) W(high)/X(q)  e(spline) 
   0      8    10.053   115.676    0.49E-03    0.72E-03    0.18E-06
   0      8    10.053    87.132    0.49E-03    0.71E-03    0.18E-06
   1      7    10.053     4.429    0.32E-03    0.31E-03    0.18E-06
   1      7    10.053     2.733    0.23E-03    0.19E-03    0.20E-06
 Optimization of the real space projectors (new method)

 maximal supplied QI-value         = 24.76
 optimisation between [QCUT,QGAM] = [ 10.15, 20.30] = [ 28.85,115.39] Ry 
 Optimized for a Real-space Cutoff    1.38 Angstroem

   l    n(q)    QCUT    max X(q) W(low)/X(q) W(high)/X(q)  e(spline) 
   0      8    10.150    20.381    0.22E-03    0.32E-03    0.29E-06
   0      8    10.150    15.268    0.23E-03    0.35E-03    0.30E-06
   1      8    10.150     5.964    0.46E-03    0.53E-03    0.21E-06
   1      8    10.150     5.382    0.38E-03    0.45E-03    0.19E-06

 ----------------------------------------------------------------------------- 
|                                                                             |
|  ADVICE TO THIS USER RUNNING 'VASP/VAMP'   (HEAR YOUR MASTER'S VOICE ...):  |
|                                                                             |
|      You enforced a specific xc-type in the INCAR file,                     |
|      a different type was found on the POTCAR file                          |
|          I HOPE YOU KNOW, WHAT YOU ARE  DOING                               |
|                                                                             |
 ----------------------------------------------------------------------------- 

  PAW_PBE Pd 04Jan2005                  :
 energy of atom  1       EATOM= -809.7530
 kinetic energy error for atom=    0.0091 (will be added to EATOM!!)
  PAW_PBE C 08Apr2002                   :
 energy of atom  2       EATOM= -147.1560
 kinetic energy error for atom=    0.0288 (will be added to EATOM!!)
  PAW_PBE O 08Apr2002                   :
 energy of atom  3       EATOM= -432.3788
 kinetic energy error for atom=    0.1156 (will be added to EATOM!!)
 
 
 POSCAR: Pd55PES                                 
  positions in cartesian coordinates
  No initial velocities read in
 exchange correlation table for  LEXCH =        9
   RHO(1)=    0.500       N(1)  =     2000
   RHO(2)=  100.500       N(2)  =     4000
 


--------------------------------------------------------------------------------------------------------


 ion  position               nearest neighbor table
   1  0.446  0.328  0.417-   3 3.25   5 3.25   7 3.36  15 3.36  29 3.42  28 3.42
   2  0.672  0.554  0.417-  56 2.33  26 3.25  30 3.25  17 3.36   9 3.36  47 3.42  49 3.42
   3  0.554  0.328  0.417-   1 3.25   5 3.25   7 3.36  11 3.36  29 3.42  21 3.42
   4  0.328  0.554  0.417-  32 3.25  22 3.25  13 3.36   8 3.36  43 3.42  48 3.42
   5  0.500  0.383  0.340-   1 3.25   3 3.25  11 3.36  15 3.36  21 3.42  28 3.42
   6  0.500  0.383  0.660-  24 3.25  19 3.25  16 3.36  12 3.36  42 3.42  44 3.42
   7  0.500  0.276  0.500-  29 3.24   3 3.36   1 3.36  19 3.36  24 3.36
   8  0.276  0.500  0.500-  48 3.24  22 3.36  40 3.36   4 3.36  25 3.36
   9  0.724  0.500  0.500-  49 3.24  26 3.36  45 3.36   2 3.36  20 3.36
  10  0.500  0.724  0.500-  55 3.24  27 3.36  23 3.36  46 3.36  41 3.36
  11  0.612  0.388  0.342-  21 3.24   5 3.36   3 3.36  30 3.36  26 3.36
  12  0.612  0.388  0.658-  42 3.24  24 3.36  45 3.36   6 3.36  31 3.36
  13  0.388  0.612  0.342-  43 3.24  32 3.36  50 3.36   4 3.36  27 3.36
  14  0.388  0.612  0.658-  53 3.24  25 3.36  33 3.36  51 3.36  46 3.36
  15  0.388  0.388  0.342-  28 3.24   5 3.36   1 3.36  32 3.36  22 3.36
  16  0.388  0.388  0.658-  44 3.24  19 3.36  40 3.36   6 3.36  33 3.36
  17  0.612  0.612  0.342-  47 3.24  30 3.36  50 3.36   2 3.36  23 3.36
  18  0.612  0.612  0.658-  54 3.24  31 3.36  20 3.36  51 3.36  41 3.36
  19  0.446  0.328  0.583-   6 3.25  24 3.25  16 3.36   7 3.36  44 3.42  29 3.42
  20  0.672  0.554  0.583-  31 3.25  45 3.25  18 3.36   9 3.36  54 3.42  49 3.42
  21  0.558  0.442  0.418-  11 3.24   5 3.42   3 3.42  30 3.42  26 3.42
  22  0.328  0.446  0.417-   4 3.25  32 3.25   8 3.36  15 3.36  48 3.42  28 3.42
  23  0.554  0.672  0.417-  27 3.25  50 3.25  10 3.36  17 3.36  55 3.42  47 3.42
  24  0.554  0.328  0.583-   6 3.25  19 3.25  12 3.36   7 3.36  42 3.42  29 3.42
  25  0.328  0.554  0.583-  33 3.25  40 3.25  14 3.36   8 3.36  53 3.42  48 3.42
  26  0.672  0.446  0.417-   2 3.25  30 3.25   9 3.36  11 3.36  49 3.42  21 3.42
  27  0.446  0.672  0.417-  23 3.25  50 3.25  10 3.36  13 3.36  55 3.42  43 3.42
  28  0.442  0.442  0.418-  15 3.24   5 3.42   1 3.42  32 3.42  22 3.42
  29  0.500  0.384  0.500-   7 3.24   3 3.42   1 3.42  24 3.42  19 3.42
  30  0.617  0.500  0.340-  56 2.21   2 3.25  26 3.25  17 3.36  11 3.36  47 3.42  21 3.42
  31  0.617  0.500  0.660-  20 3.25  45 3.25  18 3.36  12 3.36  54 3.42  42 3.42
  32  0.383  0.500  0.340-   4 3.25  22 3.25  13 3.36  15 3.36  43 3.42  28 3.42
  33  0.383  0.500  0.660-  25 3.25  40 3.25  14 3.36  16 3.36  53 3.42  44 3.42
  34  0.383  0.383  0.500-
  35  0.617  0.617  0.500-
  36  0.617  0.383  0.500-
  37  0.383  0.617  0.500-
  38  0.500  0.500  0.335-
  39  0.500  0.500  0.665-
  40  0.328  0.446  0.583-  33 3.25  25 3.25  16 3.36   8 3.36  44 3.42  48 3.42
  41  0.554  0.672  0.583-  46 3.25  51 3.25  10 3.36  18 3.36  54 3.42  55 3.42
  42  0.558  0.442  0.582-  12 3.24   6 3.42  24 3.42  31 3.42  45 3.42
  43  0.442  0.558  0.418-  13 3.24   4 3.42  32 3.42  27 3.42  50 3.42
  44  0.442  0.442  0.582-  16 3.24   6 3.42  19 3.42  33 3.42  40 3.42
  45  0.672  0.446  0.583-  20 3.25  31 3.25   9 3.36  12 3.36  49 3.42  42 3.42
  46  0.446  0.672  0.583-  41 3.25  51 3.25  10 3.36  14 3.36  53 3.42  55 3.42
  47  0.558  0.558  0.418-  17 3.24   2 3.42  30 3.42  23 3.42  50 3.42
  48  0.384  0.500  0.500-   8 3.24   4 3.42  22 3.42  25 3.42  40 3.42
  49  0.616  0.500  0.500-   9 3.24   2 3.42  26 3.42  20 3.42  45 3.42
  50  0.500  0.617  0.340-  27 3.25  23 3.25  13 3.36  17 3.36  43 3.42  47 3.42
  51  0.500  0.617  0.660-  41 3.25  46 3.25  14 3.36  18 3.36  53 3.42  54 3.42
  52  0.500  0.500  0.500-
  53  0.442  0.558  0.582-  14 3.24  25 3.42  33 3.42  51 3.42  46 3.42
  54  0.558  0.558  0.582-  18 3.24  31 3.42  20 3.42  51 3.42  41 3.42
  55  0.500  0.616  0.500-  10 3.24  23 3.42  27 3.42  41 3.42  46 3.42
  56  0.678  0.542  0.341-  57 1.13  30 2.21   2 2.33
  57  0.706  0.548  0.316-  56 1.13
 
  LATTYP: Found a simple cubic cell.
 ALAT       =    30.0000000000
  
  Lattice vectors:
  
 A1 = (  30.0000000000,   0.0000000000,   0.0000000000)
 A2 = (   0.0000000000,  30.0000000000,   0.0000000000)
 A3 = (   0.0000000000,   0.0000000000,  30.0000000000)


Analysis of symmetry for initial positions (statically):
=====================================================================
 Subroutine PRICEL returns:
 Original cell was already a primitive cell.
 

 Routine SETGRP: Setting up the symmetry group for a 
 simple cubic supercell.


 Subroutine GETGRP returns: Found  1 space group operations
 (whereof  1 operations were pure point group operations)
 out of a pool of 48 trial point group operations.


The static configuration has the point symmetry C_1 .


Analysis of symmetry for dynamics (positions and initial velocities):
=====================================================================
 Subroutine PRICEL returns:
 Original cell was already a primitive cell.
 

 Routine SETGRP: Setting up the symmetry group for a 
 simple cubic supercell.


 Subroutine GETGRP returns: Found  1 space group operations
 (whereof  1 operations were pure point group operations)
 out of a pool of 48 trial point group operations.


The dynamic configuration has the point symmetry C_1 .


Analysis of constrained symmetry for selective dynamics:
=====================================================================
 Subroutine PRICEL returns:
 Original cell was already a primitive cell.
 

 Routine SETGRP: Setting up the symmetry group for a 
 simple cubic supercell.


 Subroutine GETGRP returns: Found  1 space group operations
 (whereof  1 operations were pure point group operations)
 out of a pool of 48 trial point group operations.


The constrained configuration has the point symmetry C_1 .


 Subroutine INISYM returns: Found  1 space group operations
 (whereof  1 operations are pure point group operations),
 and found     1 'primitive' translations

 
 
 KPOINTS: K-points                                

Automatic generation of k-mesh.
Space group operators:
 irot       det(A)        alpha          n_x          n_y          n_z        tau_x        tau_y        tau_z
    1     1.000000     0.000000     1.000000     0.000000     0.000000     0.000000     0.000000     0.000000
 
 Subroutine IBZKPT returns following result:
 ===========================================
 
 Found      1 irreducible k-points:
 
 Following reciprocal coordinates:
            Coordinates               Weight
  0.000000  0.000000  0.000000      1.000000
 
 Following cartesian coordinates:
            Coordinates               Weight
  0.000000  0.000000  0.000000      1.000000
 


--------------------------------------------------------------------------------------------------------




 Dimension of arrays:
   k-points           NKPTS =      1   k-points in BZ     NKDIM =      1   number of bands    NBANDS=    336
   number of dos      NEDOS =    301   number of ions     NIONS =     57
   non local maximal  LDIM  =      6   non local SUM 2l+1 LMDIM =     18
   total plane-waves  NPLWV = ******
   max r-space proj   IRMAX =   1847   max aug-charges    IRDMAX=   6262
   dimension x,y,z NGX =   150 NGY =  150 NGZ =  150
   dimension x,y,z NGXF=   300 NGYF=  300 NGZF=  300
   support grid    NGXF=   300 NGYF=  300 NGZF=  300
   ions per type =              55   1   1
   NGX,Y,Z   is equivalent  to a cutoff of   8.31,  8.31,  8.31 a.u.
   NGXF,Y,Z  is equivalent  to a cutoff of  16.62, 16.62, 16.62 a.u.

 SYSTEM =  6_Pd100_top_free_z(O)                   
 POSCAR =  Pd55PES                                 

 Startparameter for this run:
   NWRITE =      2    write-flag & timer
   PREC   = normal    normal or accurate (medium, high low for compatibility)
   ISTART =      0    job   : 0-new  1-cont  2-samecut
   ICHARG =      2    charge: 1-file 2-atom 10-const
   ISPIN  =      1    spin polarized calculation?
   LNONCOLLINEAR =      F non collinear calculations
   LSORBIT =      F    spin-orbit coupling
   INIWAV =      1    electr: 0-lowe 1-rand  2-diag
   LASPH  =      F    aspherical Exc in radial PAW
   METAGGA=      F    non-selfconsistent MetaGGA calc.

 Electronic Relaxation 1
   ENCUT  =  400.0 eV  29.40 Ry    5.42 a.u.  48.92 48.92 48.92*2*pi/ulx,y,z
   ENINI  =  400.0     initial cutoff
   ENAUG  =  644.9 eV  augmentation charge cutoff
   NELM   =    100;   NELMIN=  6; NELMDL= -5     # of ELM steps 
   EDIFF  = 0.1E-03   stopping-criterion for ELM
   LREAL  =      T    real-space projection
   NLSPLINE    = F    spline interpolate recip. space projectors
   LCOMPAT=      F    compatible to vasp.4.4
   GGA_COMPAT  = T    GGA compatible to vasp.4.4-vasp.4.6
   LMAXPAW     = -100 max onsite density
   LMAXMIX     =    2 max onsite mixed and CHGCAR
   VOSKOWN=      0    Vosko Wilk Nusair interpolation
   ROPT   =   -0.00050  -0.00050  -0.00050
 Ionic relaxation
   EDIFFG = -.5E-01   stopping-criterion for IOM
   NSW    =      0    number of steps for IOM
   NBLOCK =      1;   KBLOCK =      1    inner block; outer block 
   IBRION =     -1    ionic relax: 0-MD 1-quasi-New 2-CG
   NFREE  =      1    steps in history (QN), initial steepest desc. (CG)
   ISIF   =      2    stress and relaxation
   IWAVPR =     10    prediction:  0-non 1-charg 2-wave 3-comb
   ISYM   =      2    0-nonsym 1-usesym 2-fastsym
   LCORR  =      T    Harris-Foulkes like correction to forces

   POTIM  = 0.5000    time-step for ionic-motion
   TEIN   =    0.0    initial temperature
   TEBEG  =    0.0;   TEEND  =   0.0 temperature during run
   SMASS  =  -3.00    Nose mass-parameter (am)
   estimated Nose-frequenzy (Omega)   =  0.10E-29 period in steps =****** mass=  -0.206E-25a.u.
   SCALEE = 1.0000    scale energy and forces
   NPACO  =    256;   APACO  = 16.0  distance and # of slots for P.C.
   PSTRESS=    0.0 pullay stress

  Mass of Ions in am
   POMASS = 106.42 12.01 16.00
  Ionic Valenz
   ZVAL   =  10.00  4.00  6.00
  Atomic Wigner-Seitz radii
   RWIGS  =  -1.00 -1.00 -1.00
  virtual crystal weights 
   VCA    =   1.00  1.00  1.00
   NELECT =     560.0000    total number of electrons
   NUPDOWN=      -1.0000    fix difference up-down

 DOS related values:
   EMIN   =  10.00;   EMAX   =-10.00  energy-range for DOS
   EFERMI =   0.00
   ISMEAR =     2;   SIGMA  =   0.20  broadening in eV -4-tet -1-fermi 0-gaus

 Electronic relaxation 2 (details)
   IALGO  =     68    algorithm
   LDIAG  =      T    sub-space diagonalisation (order eigenvalues)
   LSUBROT=      F    optimize rotation matrix (better conditioning)
   TURBO    =      0    0=normal 1=particle mesh
   IRESTART =      0    0=no restart 2=restart with 2 vectors
   NREBOOT  =      0    no. of reboots
   NMIN     =      0    reboot dimension
   EREF     =   0.00    reference energy to select bands
   IMIX   =      4    mixing-type and parameters
     AMIX     =   0.40;   BMIX     =  1.00
     AMIX_MAG =   1.60;   BMIX_MAG =  1.00
     AMIN     =   0.10
     WC   =   100.;   INIMIX=   1;  MIXPRE=   1;  MAXMIX= -45

 Intra band minimization:
   WEIMIN = 0.0000     energy-eigenvalue tresh-hold
   EBREAK =  0.74E-07  absolut break condition
   DEPER  =   0.30     relativ break condition  

   TIME   =   0.40     timestep for ELM

  volume/ion in A,a.u.               =     473.68      3196.58
  Fermi-wavevector in a.u.,A,eV,Ry     =   0.449797  0.849992  2.752691  0.202317
  Thomas-Fermi vector in A             =   1.430086
 
 Write flags
   LWAVE        =      F    write WAVECAR
   LDOWNSAMPLE  =      F    k-point downsampling of WAVECAR
   LCHARG       =      F    write CHGCAR
   LVTOT        =      F    write LOCPOT, total local potential
   LVHAR        =      F    write LOCPOT, Hartree potential only
   LELF         =      F    write electronic localiz. function (ELF)
   LORBIT       =      0    0 simple, 1 ext, 2 COOP (PROOUT), +10 PAW based schemes


 Dipole corrections
   LMONO  =      F    monopole corrections only (constant potential shift)
   LDIPOL =      F    correct potential (dipole corrections)
   IDIPOL =      0    1-x, 2-y, 3-z, 4-all directions 
   EPSILON=  1.0000000 bulk dielectric constant

 Exchange correlation treatment:
   GGA     =    RP    GGA type
   LEXCH   =     9    internal setting for exchange type
   VOSKOWN=      0    Vosko Wilk Nusair interpolation
   LHFCALC =     F    Hartree Fock is set to
   LHFONE  =     F    Hartree Fock one center treatment
   AEXX    =    0.0000 exact exchange contribution

 Linear response parameters
   LEPSILON=     F    determine dielectric tensor
   LRPA    =     F    only Hartree local field effects (RPA)
   LNABLA  =     F    use nabla operator in PAW spheres
   LVEL    =     F    velocity operator in full k-point grid
   LINTERFAST=   F  fast interpolation
   KINTER  =     0    interpolate to denser k-point grid
   CSHIFT  =0.1000    complex shift for real part using Kramers Kronig
   OMEGAMAX=  -1.0    maximum frequency
   DEG_THRESHOLD= 0.2000000E-02 threshold for treating states as degnerate
   RTIME   =   -0.100 relaxation time in fs
  (WPLASMAI=    0.000 imaginary part of plasma frequency in eV, 0.658/RTIME)
   DFIELD  = 0.0000000 0.0000000 0.0000000 field for delta impulse in time
 
 Orbital magnetization related:
   ORBITALMAG=     F  switch on orbital magnetization
   LCHIMAG   =     F  perturbation theory with respect to B field
   DQ        =  0.001000  dq finite difference perturbation B field
   LLRAUG    =     F  two centre corrections for induced B field



--------------------------------------------------------------------------------------------------------


 Static calculation
 charge density and potential will be updated during run
 non-spin polarized calculation
 RMM-DIIS sequential band-by-band and
  variant of blocked Davidson during initial phase
 perform sub-space diagonalisation
    before iterative eigenvector-optimisation
 modified Broyden-mixing scheme, WC =      100.0
 initial mixing is a Kerker type mixing with AMIX =  0.4000 and BMIX =      1.0000
 Hartree-type preconditioning will be used
 using additional bands           56
 real space projection scheme for non local part
 use partial core corrections
 calculate Harris-corrections to forces 
   (improved forces if not selfconsistent)
 use gradient corrections 
 use of overlap-Matrix (Vanderbilt PP)
 Methfessel and Paxton  Order N= 2 SIGMA  =   0.20


--------------------------------------------------------------------------------------------------------


  energy-cutoff  :      400.00
  volume of cell :    27000.00
      direct lattice vectors                 reciprocal lattice vectors
    30.000000000  0.000000000  0.000000000     0.033333333  0.000000000  0.000000000
     0.000000000 30.000000000  0.000000000     0.000000000  0.033333333  0.000000000
     0.000000000  0.000000000 30.000000000     0.000000000  0.000000000  0.033333333

  length of vectors
    30.000000000 30.000000000 30.000000000     0.033333333  0.033333333  0.033333333


 
 k-points in units of 2pi/SCALE and weight: K-points                                
   0.00000000  0.00000000  0.00000000       1.000
 
 k-points in reciprocal lattice and weights: K-points                                
   0.00000000  0.00000000  0.00000000       1.000
 
 position of ions in fractional coordinates (direct lattice) 
   0.44576020  0.32826710  0.41691983
   0.67173288  0.55423978  0.41691983
   0.55423980  0.32826710  0.41691983
   0.32826712  0.55423978  0.41691983
   0.50000000  0.38250690  0.34021317
   0.50000000  0.38250690  0.65978680
   0.50000000  0.27609440  0.50000000
   0.27609443  0.49999998  0.50000000
   0.72390557  0.49999998  0.50000000
   0.50000000  0.72390555  0.50000000
   0.61195280  0.38804720  0.34167483
   0.61195280  0.38804720  0.65832513
   0.38804722  0.61195278  0.34167483
   0.38804722  0.61195278  0.65832513
   0.38804720  0.38804720  0.34167483
   0.38804720  0.38804720  0.65832513
   0.61195278  0.61195278  0.34167483
   0.61195278  0.61195278  0.65832513
   0.44576020  0.32826710  0.58308023
   0.67173288  0.55423978  0.58308023
   0.55791699  0.44208301  0.41809300
   0.32826705  0.44576024  0.41691983
   0.55423973  0.67173293  0.41691983
   0.55423980  0.32826710  0.58308023
   0.32826712  0.55423978  0.58308023
   0.67173295  0.44576024  0.41691983
   0.44576027  0.67173293  0.41691983
   0.44208301  0.44208301  0.41809300
   0.50000000  0.38416601  0.50000000
   0.61749315  0.50000005  0.34021317
   0.61749315  0.50000005  0.65978680
   0.38250685  0.50000005  0.34021317
   0.38250685  0.50000005  0.65978680
   0.38317830  0.38317830  0.50000000
   0.61682172  0.61682172  0.50000000
   0.61682170  0.38317830  0.50000000
   0.38317828  0.61682172  0.50000000
   0.50000000  0.50000000  0.33478917
   0.50000000  0.50000000  0.66521087
   0.32826705  0.44576024  0.58308023
   0.55423973  0.67173293  0.58308023
   0.55791699  0.44208301  0.58190703
   0.44208298  0.55791702  0.41809300
   0.44208301  0.44208301  0.58190703
   0.67173295  0.44576024  0.58308023
   0.44576027  0.67173293  0.58308023
   0.55791702  0.55791702  0.41809300
   0.38416599  0.50000002  0.50000000
   0.61583401  0.50000002  0.50000000
   0.50000000  0.61749319  0.34021317
   0.50000000  0.61749319  0.65978680
   0.50000000  0.50000000  0.50000000
   0.44208298  0.55791702  0.58190703
   0.55791702  0.55791702  0.58190703
   0.50000000  0.61583404  0.50000000
   0.67830183  0.54180657  0.34052080
   0.70590870  0.54827957  0.31582830
 
 position of ions in cartesian coordinates  (Angst):
  13.37280588  9.84801292 12.50759500
  20.15198637 16.62719342 12.50759500
  16.62719412  9.84801292 12.50759500
   9.84801363 16.62719342 12.50759500
  15.00000000 11.47520705 10.20639500
  15.00000000 11.47520705 19.79360400
  15.00000000  8.28283206 15.00000000
   8.28283277 14.99999929 15.00000000
  21.71716723 14.99999929 15.00000000
  15.00000000 21.71716652 14.99999999
  18.35858397 11.64141603 10.25024500
  18.35858397 11.64141603 19.74975399
  11.64141674 18.35858326 10.25024500
  11.64141674 18.35858326 19.74975400
  11.64141603 11.64141603 10.25024500
  11.64141603 11.64141603 19.74975400
  18.35858326 18.35858326 10.25024500
  18.35858326 18.35858326 19.74975400
  13.37280588  9.84801291 17.49240700
  20.15198638 16.62719341 17.49240700
  16.73750985 13.26249015 12.54279000
   9.84801151 13.37280729 12.50759500
  16.62719200 20.15198779 12.50759500
  16.62719412  9.84801292 17.49240700
   9.84801363 16.62719342 17.49240700
  20.15198849 13.37280729 12.50759500
  13.37280800 20.15198779 12.50759500
  13.26249015 13.26249015 12.54279000
  15.00000000 11.52498029 15.00000000
  18.52479437 15.00000140 10.20639500
  18.52479437 15.00000141 19.79360400
  11.47520562 15.00000141 10.20639501
  11.47520563 15.00000141 19.79360400
  11.49534898 11.49534898 15.00000000
  18.50465172 18.50465172 15.00000000
  18.50465102 11.49534898 15.00000000
  11.49534828 18.50465172 15.00000000
  15.00000000 15.00000000 10.04367500
  15.00000000 15.00000000 19.95632599
   9.84801151 13.37280729 17.49240700
  16.62719200 20.15198779 17.49240700
  16.73750985 13.26249015 17.45721100
  13.26248944 16.73751056 12.54279001
  13.26249015 13.26249015 17.45721100
  20.15198849 13.37280729 17.49240699
  13.37280800 20.15198779 17.49240700
  16.73751056 16.73751056 12.54279000
  11.52497959 15.00000071 15.00000000
  18.47502041 15.00000071 15.00000000
  14.99999999 18.52479579 10.20639500
  15.00000000 18.52479578 19.79360400
  15.00000000 15.00000000 15.00000000
  13.26248944 16.73751057 17.45721101
  16.73751056 16.73751057 17.45721100
  15.00000000 18.47502112 15.00000000
  20.34905500 16.25419700 10.21562400
  21.17726100 16.44838700  9.47484900
 


--------------------------------------------------------------------------------------------------------


 k-point  1 :   0.0000 0.0000 0.0000  plane waves:  490521

 maximum and minimum number of plane-waves per node :    490521   490521

 maximum number of plane-waves:    490521
 maximum index in each direction: 
   IXMAX=   48   IYMAX=   48   IZMAX=   48
   IXMIN=  -48   IYMIN=  -48   IZMIN=  -48


 serial   3D FFT for wavefunctions
 parallel 3D FFT for charge:
    minimum data exchange during FFTs selected (reduces bandwidth)


 total amount of memory used by VASP MPI-rank0  5486941. kBytes
=======================================================================

   base      :      30000. kBytes
   nonlr-proj:      17126. kBytes
   fftplans  :     924480. kBytes
   grid      :    1872000. kBytes
   one-center:        886. kBytes
   wavefun   :    2642449. kBytes
 
     INWAV:  cpu time    0.0001: real time    0.0004
 Broyden mixing: mesh for mixing (old mesh)
   NGX = 97   NGY = 97   NGZ = 97
  (NGX  =300   NGY  =300   NGZ  =300)
  gives a total of 912673 points

 initial charge density was supplied:
 charge density of overlapping atoms calculated
 number of electron     560.0000000 magnetization 
 keeping initial charge density in first step


--------------------------------------------------------------------------------------------------------


 Maximum index for non-local projection operator         1763
 Maximum index for augmentation-charges         5898 (set IRDMAX)


--------------------------------------------------------------------------------------------------------


 First call to EWALD:  gamma=   0.059
 Maximum number of real-space cells 3x 3x 3
 Maximum number of reciprocal cells 3x 3x 3

    FEWALD:  cpu time    0.0125: real time    0.0125


--------------------------------------- Iteration      1(   1)  ---------------------------------------


    POTLOK:  cpu time   13.5100: real time   13.5163
    SETDIJ:  cpu time    0.1450: real time    0.1479
     EDDAV:  cpu time  440.6997: real time  440.7689
       DOS:  cpu time    0.0016: real time    0.0027
    --------------------------------------------
      LOOP:  cpu time  454.3563: real time  454.4358

 eigenvalue-minimisations  :   688
 total energy-change (2. order) : 0.4387361E+04  (-0.1005316E+05)
 number of electron     560.0000000 magnetization 
 augmentation part      560.0000000 magnetization 

 Free energy of the ion-electron system (eV)
  ---------------------------------------------------
  alpha Z        PSCENC =        75.25431677
  Ewald energy   TEWEN  =    138479.29987798
  -Hartree energ DENC   =   -181840.74075701
  -exchange      EXHF   =         0.00000000
  -V(xc)+E(xc)   XCENC  =     -1702.87117870
  PAW double counting   =     44873.02882129   -41398.84523641
  entropy T*S    EENTRO =         0.02766932
  eigenvalues    EBANDS =       815.70172847
  atomic energy  EATOM  =     45086.50549395
  Solvation  Ediel_sol  =         0.00000000
  ---------------------------------------------------
  free energy    TOTEN  =      4387.36073566 eV

  energy without entropy =     4387.33306634  energy(sigma->0) =     4387.35381833


--------------------------------------------------------------------------------------------------------




--------------------------------------- Iteration      1(   2)  ---------------------------------------


     EDDAV:  cpu time  710.4195: real time  710.4249
       DOS:  cpu time    0.0015: real time    0.0015
    --------------------------------------------
      LOOP:  cpu time  710.4210: real time  710.4265

 eigenvalue-minimisations  :  1224
 total energy-change (2. order) :-0.2382283E+04  (-0.2143312E+04)
 number of electron     560.0000000 magnetization 
 augmentation part      560.0000000 magnetization 

 Free energy of the ion-electron system (eV)
  ---------------------------------------------------
  alpha Z        PSCENC =        75.25431677
  Ewald energy   TEWEN  =    138479.29987798
  -Hartree energ DENC   =   -181840.74075701
  -exchange      EXHF   =         0.00000000
  -V(xc)+E(xc)   XCENC  =     -1702.87117870
  PAW double counting   =     44873.02882129   -41398.84523641
  entropy T*S    EENTRO =         0.03705627
  eigenvalues    EBANDS =     -1566.59048403
  atomic energy  EATOM  =     45086.50549395
  Solvation  Ediel_sol  =         0.00000000
  ---------------------------------------------------
  free energy    TOTEN  =      2005.07791012 eV

  energy without entropy =     2005.04085385  energy(sigma->0) =     2005.06864605


--------------------------------------------------------------------------------------------------------




--------------------------------------- Iteration      1(   3)  ---------------------------------------


     EDDAV:  cpu time  606.3383: real time  606.3362
       DOS:  cpu time    0.0013: real time    0.0013
    --------------------------------------------
      LOOP:  cpu time  606.3396: real time  606.3375

 eigenvalue-minimisations  :  1016
 total energy-change (2. order) :-0.1780234E+04  (-0.1675797E+04)
 number of electron     560.0000000 magnetization 
 augmentation part      560.0000000 magnetization 

 Free energy of the ion-electron system (eV)
  ---------------------------------------------------
  alpha Z        PSCENC =        75.25431677
  Ewald energy   TEWEN  =    138479.29987798
  -Hartree energ DENC   =   -181840.74075701
  -exchange      EXHF   =         0.00000000
  -V(xc)+E(xc)   XCENC  =     -1702.87117870
  PAW double counting   =     44873.02882129   -41398.84523641
  entropy T*S    EENTRO =        -0.05484924
  eigenvalues    EBANDS =     -3346.73283770
  atomic energy  EATOM  =     45086.50549395
  Solvation  Ediel_sol  =         0.00000000
  ---------------------------------------------------
  free energy    TOTEN  =       224.84365094 eV

  energy without entropy =      224.89850018  energy(sigma->0) =      224.85736325


--------------------------------------------------------------------------------------------------------




--------------------------------------- Iteration      1(   4)  ---------------------------------------


     EDDAV:  cpu time  515.1590: real time  515.1664
       DOS:  cpu time    0.0014: real time    0.0014
    --------------------------------------------
      LOOP:  cpu time  515.1604: real time  515.1678

 eigenvalue-minimisations  :   832
 total energy-change (2. order) :-0.3611835E+03  (-0.3091084E+03)
 number of electron     560.0000000 magnetization 
 augmentation part      560.0000000 magnetization 

 Free energy of the ion-electron system (eV)
  ---------------------------------------------------
  alpha Z        PSCENC =        75.25431677
  Ewald energy   TEWEN  =    138479.29987798
  -Hartree energ DENC   =   -181840.74075701
  -exchange      EXHF   =         0.00000000
  -V(xc)+E(xc)   XCENC  =     -1702.87117870
  PAW double counting   =     44873.02882129   -41398.84523641
  entropy T*S    EENTRO =         0.07062527
  eigenvalues    EBANDS =     -3708.04182121
  atomic energy  EATOM  =     45086.50549395
  Solvation  Ediel_sol  =         0.00000000
  ---------------------------------------------------
  free energy    TOTEN  =      -136.33985807 eV

  energy without entropy =     -136.41048334  energy(sigma->0) =     -136.35751439


--------------------------------------------------------------------------------------------------------




--------------------------------------- Iteration      1(   5)  ---------------------------------------


     EDDAV:  cpu time  622.4997: real time  622.4979
       DOS:  cpu time    0.0016: real time    0.0016
    CHARGE:  cpu time   30.7482: real time   30.7476
    MIXING:  cpu time    0.5336: real time    0.5352
    --------------------------------------------
      LOOP:  cpu time  653.7832: real time  653.7824

 eigenvalue-minimisations  :  1048
 total energy-change (2. order) :-0.4367390E+02  (-0.3581985E+02)
 number of electron     559.9999841 magnetization 
 augmentation part      245.0735578 magnetization 

 Broyden mixing:
  rms(total) = 0.14492E+01    rms(broyden)= 0.14483E+01
  rms(prec ) = 0.15566E+01
  weight for this iteration     100.00

 Free energy of the ion-electron system (eV)
  ---------------------------------------------------
  alpha Z        PSCENC =        75.25431677
  Ewald energy   TEWEN  =    138479.29987798
  -Hartree energ DENC   =   -181840.74075701
  -exchange      EXHF   =         0.00000000
  -V(xc)+E(xc)   XCENC  =     -1702.87117870
  PAW double counting   =     44873.02882129   -41398.84523641
  entropy T*S    EENTRO =         0.48751307
  eigenvalues    EBANDS =     -3752.13260795
  atomic energy  EATOM  =     45086.50549395
  Solvation  Ediel_sol  =         0.00000000
  ---------------------------------------------------
  free energy    TOTEN  =      -180.01375700 eV

  energy without entropy =     -180.50127008  energy(sigma->0) =     -180.13563527


--------------------------------------------------------------------------------------------------------




--------------------------------------- Iteration      1(   6)  ---------------------------------------


    POTLOK:  cpu time   13.6938: real time   13.6972
    SETDIJ:  cpu time    0.1483: real time    0.1483
    EDDIAG:  cpu time   84.4648: real time   84.4653
  RMM-DIIS:  cpu time  212.9318: real time  212.9321
    ORTHCH:  cpu time   18.2377: real time   18.2374
       DOS:  cpu time    0.0017: real time    0.0017
    CHARGE:  cpu time   30.9105: real time   30.9099
    MIXING:  cpu time    0.5543: real time    0.5568
    --------------------------------------------
      LOOP:  cpu time  360.9429: real time  360.9486

 eigenvalue-minimisations  :   734
 total energy-change (2. order) :-0.7009503E-01  (-0.5632623E+01)
 number of electron     559.9999884 magnetization 
 augmentation part      240.6071210 magnetization 

 Broyden mixing:
  rms(total) = 0.23537E+01    rms(broyden)= 0.23535E+01
  rms(prec ) = 0.27283E+01
  weight for this iteration     100.00

 eigenvalues of (default mixing * dielectric matrix)
  average eigenvalue GAMMA=   0.3163
  0.3163

 Free energy of the ion-electron system (eV)
  ---------------------------------------------------
  alpha Z        PSCENC =        75.25431677
  Ewald energy   TEWEN  =    138479.29987798
  -Hartree energ DENC   =   -182244.71759979
  -exchange      EXHF   =         0.00000000
  -V(xc)+E(xc)   XCENC  =     -1696.55981326
  PAW double counting   =     45626.78409380   -42125.96049219
  entropy T*S    EENTRO =        -0.10221711
  eigenvalues    EBANDS =     -3380.58751219
  atomic energy  EATOM  =     45086.50549395
  Solvation  Ediel_sol  =         0.00000000
  ---------------------------------------------------
  free energy    TOTEN  =      -180.08385204 eV

  energy without entropy =     -179.98163492  energy(sigma->0) =     -180.05829776


--------------------------------------------------------------------------------------------------------




--------------------------------------- Iteration      1(   7)  ---------------------------------------


    POTLOK:  cpu time   13.9224: real time   13.9256
    SETDIJ:  cpu time    0.1491: real time    0.1491
    EDDIAG:  cpu time   85.1619: real time   85.1609
  RMM-DIIS:  cpu time  246.5892: real time  246.5883
    ORTHCH:  cpu time   18.2329: real time   18.2325
       DOS:  cpu time    0.0017: real time    0.0017
    CHARGE:  cpu time   30.9197: real time   30.9191
    MIXING:  cpu time    0.5762: real time    0.5762
    --------------------------------------------
      LOOP:  cpu time  395.5532: real time  395.5535

 eigenvalue-minimisations  :   856
 total energy-change (2. order) :-0.1933206E+01  (-0.1945888E+01)
 number of electron     559.9999818 magnetization 
 augmentation part      240.4669535 magnetization 

 Broyden mixing:
  rms(total) = 0.21864E+01    rms(broyden)= 0.21861E+01
  rms(prec ) = 0.26504E+01
  weight for this iteration     100.00

 eigenvalues of (default mixing * dielectric matrix)
  average eigenvalue GAMMA=   0.3082
  0.4655  0.1509

 Free energy of the ion-electron system (eV)
  ---------------------------------------------------
  alpha Z        PSCENC =        75.25431677
  Ewald energy   TEWEN  =    138479.29987798
  -Hartree energ DENC   =   -182324.02465128
  -exchange      EXHF   =         0.00000000
  -V(xc)+E(xc)   XCENC  =     -1696.75351314
  PAW double counting   =     45689.15507587   -42185.87208769
  entropy T*S    EENTRO =        -0.01391313
  eigenvalues    EBANDS =     -3305.56765691
  atomic energy  EATOM  =     45086.50549395
  Solvation  Ediel_sol  =         0.00000000
  ---------------------------------------------------
  free energy    TOTEN  =      -182.01705757 eV

  energy without entropy =     -182.00314444  energy(sigma->0) =     -182.01357929


--------------------------------------------------------------------------------------------------------




--------------------------------------- Iteration      1(   8)  ---------------------------------------


    POTLOK:  cpu time   13.8666: real time   13.8686
    SETDIJ:  cpu time    0.1475: real time    0.1475
    EDDIAG:  cpu time   85.3555: real time   85.3545
  RMM-DIIS:  cpu time  225.8827: real time  225.8842
    ORTHCH:  cpu time   18.3186: real time   18.3183
       DOS:  cpu time    0.0017: real time    0.0017
    CHARGE:  cpu time   30.9238: real time   30.9233
    MIXING:  cpu time    0.6006: real time    0.6006
    --------------------------------------------
      LOOP:  cpu time  375.0971: real time  375.0988

 eigenvalue-minimisations  :   779
 total energy-change (2. order) :-0.3007838E+01  (-0.6561201E+00)
 number of electron     559.9999826 magnetization 
 augmentation part      240.1314095 magnetization 

 Broyden mixing:
  rms(total) = 0.28628E+01    rms(broyden)= 0.28626E+01
  rms(prec ) = 0.34369E+01
  weight for this iteration     100.00

 eigenvalues of (default mixing * dielectric matrix)
  average eigenvalue GAMMA=   0.2823
  0.5888  0.1290  0.1290

 Free energy of the ion-electron system (eV)
  ---------------------------------------------------
  alpha Z        PSCENC =        75.25431677
  Ewald energy   TEWEN  =    138479.29987798
  -Hartree energ DENC   =   -182363.92810577
  -exchange      EXHF   =         0.00000000
  -V(xc)+E(xc)   XCENC  =     -1696.77560221
  PAW double counting   =     45748.19874208   -42242.48910563
  entropy T*S    EENTRO =        -0.05062798
  eigenvalues    EBANDS =     -3271.03988430
  atomic energy  EATOM  =     45086.50549395
  Solvation  Ediel_sol  =         0.00000000
  ---------------------------------------------------
  free energy    TOTEN  =      -185.02489511 eV

  energy without entropy =     -184.97426713  energy(sigma->0) =     -185.01223812


--------------------------------------------------------------------------------------------------------




--------------------------------------- Iteration      1(   9)  ---------------------------------------


    POTLOK:  cpu time   13.7703: real time   13.7731
    SETDIJ:  cpu time    0.1478: real time    0.1478
    EDDIAG:  cpu time   85.3660: real time   85.3652
  RMM-DIIS:  cpu time  215.1180: real time  215.1187
    ORTHCH:  cpu time   18.2879: real time   18.2875
       DOS:  cpu time    0.0018: real time    0.0018
    CHARGE:  cpu time   30.9718: real time   30.9712
    MIXING:  cpu time    0.6174: real time    0.6174
    --------------------------------------------
      LOOP:  cpu time  364.2810: real time  364.2826

 eigenvalue-minimisations  :   739
 total energy-change (2. order) : 0.2167277E+01  (-0.4613153E+00)
 number of electron     559.9999829 magnetization 
 augmentation part      240.7466749 magnetization 

 Broyden mixing:
  rms(total) = 0.24374E+01    rms(broyden)= 0.24371E+01
  rms(prec ) = 0.28045E+01
  weight for this iteration     100.00

 eigenvalues of (default mixing * dielectric matrix)
  average eigenvalue GAMMA=   0.2739
  0.6985  0.1504  0.1504  0.0963

 Free energy of the ion-electron system (eV)
  ---------------------------------------------------
  alpha Z        PSCENC =        75.25431677
  Ewald energy   TEWEN  =    138479.29987798
  -Hartree energ DENC   =   -182382.38209880
  -exchange      EXHF   =         0.00000000
  -V(xc)+E(xc)   XCENC  =     -1696.78888496
  PAW double counting   =     45796.12355242   -42288.49486646
  entropy T*S    EENTRO =        -0.17605078
  eigenvalues    EBANDS =     -3252.19895851
  atomic energy  EATOM  =     45086.50549395
  Solvation  Ediel_sol  =         0.00000000
  ---------------------------------------------------
  free energy    TOTEN  =      -182.85761837 eV

  energy without entropy =     -182.68156760  energy(sigma->0) =     -182.81360568


--------------------------------------------------------------------------------------------------------




--------------------------------------- Iteration      1(  10)  ---------------------------------------


    POTLOK:  cpu time   13.8386: real time   13.8409
    SETDIJ:  cpu time    0.1479: real time    0.1479
    EDDIAG:  cpu time   85.3295: real time   85.3285
  RMM-DIIS:  cpu time  212.9428: real time  212.9444
    ORTHCH:  cpu time   18.2479: real time   18.2475
       DOS:  cpu time    0.0016: real time    0.0016
    CHARGE:  cpu time   30.1365: real time   30.1359
    MIXING:  cpu time    0.6578: real time    0.6578
    --------------------------------------------
      LOOP:  cpu time  361.3025: real time  361.3045

 eigenvalue-minimisations  :   731
 total energy-change (2. order) : 0.2634010E+01  (-0.3301702E+00)
 number of electron     559.9999867 magnetization 
 augmentation part      241.2595821 magnetization 

 Broyden mixing:
  rms(total) = 0.18909E+01    rms(broyden)= 0.18905E+01
  rms(prec ) = 0.21738E+01
  weight for this iteration     100.00

 eigenvalues of (default mixing * dielectric matrix)
  average eigenvalue GAMMA=   0.2696
  0.7967  0.1717  0.1717  0.1041  0.1041

 Free energy of the ion-electron system (eV)
  ---------------------------------------------------
  alpha Z        PSCENC =        75.25431677
  Ewald energy   TEWEN  =    138479.29987798
  -Hartree energ DENC   =   -182405.48369174
  -exchange      EXHF   =         0.00000000
  -V(xc)+E(xc)   XCENC  =     -1696.68441892
  PAW double counting   =     45844.10646572   -42334.59661758
  entropy T*S    EENTRO =        -0.16579588
  eigenvalues    EBANDS =     -3228.45923835
  atomic energy  EATOM  =     45086.50549395
  Solvation  Ediel_sol  =         0.00000000
  ---------------------------------------------------
  free energy    TOTEN  =      -180.22360805 eV

  energy without entropy =     -180.05781216  energy(sigma->0) =     -180.18215908


--------------------------------------------------------------------------------------------------------




--------------------------------------- Iteration      1(  11)  ---------------------------------------


    POTLOK:  cpu time   13.9391: real time   13.9423
    SETDIJ:  cpu time    0.1546: real time    0.1546
    EDDIAG:  cpu time   85.4047: real time   85.4037
  RMM-DIIS:  cpu time  210.9115: real time  210.9097
    ORTHCH:  cpu time   18.2437: real time   18.2434
       DOS:  cpu time    0.0017: real time    0.0017
    CHARGE:  cpu time   30.8806: real time   30.8800
    MIXING:  cpu time    0.6806: real time    0.6806
    --------------------------------------------
      LOOP:  cpu time  360.2167: real time  360.2161

 eigenvalue-minimisations  :   724
 total energy-change (2. order) : 0.1811569E+01  (-0.2161225E+00)
 number of electron     559.9999844 magnetization 
 augmentation part      241.4989719 magnetization 

 Broyden mixing:
  rms(total) = 0.18930E+01    rms(broyden)= 0.18927E+01
  rms(prec ) = 0.22549E+01
  weight for this iteration     100.00

 eigenvalues of (default mixing * dielectric matrix)
  average eigenvalue GAMMA=   0.2597
  0.8502  0.2093  0.2093  0.1085  0.1085  0.0725

 Free energy of the ion-electron system (eV)
  ---------------------------------------------------
  alpha Z        PSCENC =        75.25431677
  Ewald energy   TEWEN  =    138479.29987798
  -Hartree energ DENC   =   -182430.61276819
  -exchange      EXHF   =         0.00000000
  -V(xc)+E(xc)   XCENC  =     -1696.48735892
  PAW double counting   =     45889.61073452   -42378.15655089
  entropy T*S    EENTRO =        -0.02917549
  eigenvalues    EBANDS =     -3203.79660901
  atomic energy  EATOM  =     45086.50549395
  Solvation  Ediel_sol  =         0.00000000
  ---------------------------------------------------
  free energy    TOTEN  =      -178.41203927 eV

  energy without entropy =     -178.38286378  energy(sigma->0) =     -178.40474540


--------------------------------------------------------------------------------------------------------




--------------------------------------- Iteration      1(  12)  ---------------------------------------


    POTLOK:  cpu time   13.8057: real time   13.8091
    SETDIJ:  cpu time    0.1492: real time    0.1492
    EDDIAG:  cpu time   85.0748: real time   85.0738
  RMM-DIIS:  cpu time  212.2060: real time  212.2062
    ORTHCH:  cpu time   18.3006: real time   18.3002
       DOS:  cpu time    0.0017: real time    0.0017
    CHARGE:  cpu time   30.6326: real time   30.6320
    MIXING:  cpu time    0.7125: real time    0.7124
    --------------------------------------------
      LOOP:  cpu time  360.8830: real time  360.8846

 eigenvalue-minimisations  :   729
 total energy-change (2. order) : 0.5758632E+00  (-0.1149859E+00)
 number of electron     559.9999836 magnetization 
 augmentation part      241.6080589 magnetization 

 Broyden mixing:
  rms(total) = 0.15881E+01    rms(broyden)= 0.15878E+01
  rms(prec ) = 0.19111E+01
  weight for this iteration     100.00

 eigenvalues of (default mixing * dielectric matrix)
  average eigenvalue GAMMA=   0.2573
  0.9063  0.2547  0.2547  0.1191  0.1191  0.0810  0.0659

 Free energy of the ion-electron system (eV)
  ---------------------------------------------------
  alpha Z        PSCENC =        75.25431677
  Ewald energy   TEWEN  =    138479.29987798
  -Hartree energ DENC   =   -182445.70904802
  -exchange      EXHF   =         0.00000000
  -V(xc)+E(xc)   XCENC  =     -1696.33416660
  PAW double counting   =     45916.85704021   -42404.15399981
  entropy T*S    EENTRO =        -0.12067117
  eigenvalues    EBANDS =     -3189.43501939
  atomic energy  EATOM  =     45086.50549395
  Solvation  Ediel_sol  =         0.00000000
  ---------------------------------------------------
  free energy    TOTEN  =      -177.83617608 eV

  energy without entropy =     -177.71550491  energy(sigma->0) =     -177.80600828


--------------------------------------------------------------------------------------------------------




--------------------------------------- Iteration      1(  13)  ---------------------------------------


    POTLOK:  cpu time   13.7962: real time   13.7996
    SETDIJ:  cpu time    0.1486: real time    0.1486
    EDDIAG:  cpu time   85.3510: real time   85.3502
  RMM-DIIS:  cpu time  207.5215: real time  207.5198
    ORTHCH:  cpu time   18.2470: real time   18.2467
       DOS:  cpu time    0.0017: real time    0.0017
    CHARGE:  cpu time   30.9671: real time   30.9665
    MIXING:  cpu time    0.7504: real time    0.7504
    --------------------------------------------
      LOOP:  cpu time  356.7835: real time  356.7835

 eigenvalue-minimisations  :   714
 total energy-change (2. order) : 0.7814739E+00  (-0.1107370E+00)
 number of electron     559.9999841 magnetization 
 augmentation part      241.6593696 magnetization 

 Broyden mixing:
  rms(total) = 0.13945E+01    rms(broyden)= 0.13941E+01
  rms(prec ) = 0.16162E+01
  weight for this iteration     100.00

 eigenvalues of (default mixing * dielectric matrix)
  average eigenvalue GAMMA=   0.2659
  1.0056  0.3086  0.3086  0.1222  0.1222  0.1151  0.0884  0.0560

 Free energy of the ion-electron system (eV)
  ---------------------------------------------------
  alpha Z        PSCENC =        75.25431677
  Ewald energy   TEWEN  =    138479.29987798
  -Hartree energ DENC   =   -182466.88985152
  -exchange      EXHF   =         0.00000000
  -V(xc)+E(xc)   XCENC  =     -1696.06898660
  PAW double counting   =     45951.40348227   -42437.10954560
  entropy T*S    EENTRO =        -0.08988634
  eigenvalues    EBANDS =     -3169.35960308
  atomic energy  EATOM  =     45086.50549395
  Solvation  Ediel_sol  =         0.00000000
  ---------------------------------------------------
  free energy    TOTEN  =      -177.05470217 eV

  energy without entropy =     -176.96481583  energy(sigma->0) =     -177.03223058


--------------------------------------------------------------------------------------------------------




--------------------------------------- Iteration      1(  14)  ---------------------------------------


    POTLOK:  cpu time   13.7701: real time   13.7738
    SETDIJ:  cpu time    0.1481: real time    0.1481
    EDDIAG:  cpu time   85.3588: real time   85.3578
  RMM-DIIS:  cpu time  205.4816: real time  205.4824
    ORTHCH:  cpu time   18.2525: real time   18.2521
       DOS:  cpu time    0.0017: real time    0.0017
    CHARGE:  cpu time   30.9085: real time   30.9079
    MIXING:  cpu time    0.7850: real time    0.7850
    --------------------------------------------
      LOOP:  cpu time  354.7064: real time  354.7088

 eigenvalue-minimisations  :   705
 total energy-change (2. order) : 0.2696528E+00  (-0.1260958E+00)
 number of electron     559.9999843 magnetization 
 augmentation part      241.5279374 magnetization 

 Broyden mixing:
  rms(total) = 0.14074E+01    rms(broyden)= 0.14071E+01
  rms(prec ) = 0.16214E+01
  weight for this iteration     100.00

 eigenvalues of (default mixing * dielectric matrix)
  average eigenvalue GAMMA=   0.2947
  1.1972  0.5700  0.2511  0.1235  0.1235  0.1250  0.1250  0.0837  0.0530

 Free energy of the ion-electron system (eV)
  ---------------------------------------------------
  alpha Z        PSCENC =        75.25431677
  Ewald energy   TEWEN  =    138479.29987798
  -Hartree energ DENC   =   -182499.89927610
  -exchange      EXHF   =         0.00000000
  -V(xc)+E(xc)   XCENC  =     -1695.62447725
  PAW double counting   =     46002.46798103   -42485.70847508
  entropy T*S    EENTRO =        -0.12578801
  eigenvalues    EBANDS =     -3138.95470264
  atomic energy  EATOM  =     45086.50549395
  Solvation  Ediel_sol  =         0.00000000
  ---------------------------------------------------
  free energy    TOTEN  =      -176.78504934 eV

  energy without entropy =     -176.65926133  energy(sigma->0) =     -176.75360233


--------------------------------------------------------------------------------------------------------




--------------------------------------- Iteration      1(  15)  ---------------------------------------


    POTLOK:  cpu time   13.7994: real time   13.8035
    SETDIJ:  cpu time    0.1490: real time    0.1490
    EDDIAG:  cpu time   84.5062: real time   84.5052
  RMM-DIIS:  cpu time  207.0243: real time  207.0238
    ORTHCH:  cpu time   18.2504: real time   18.2501
       DOS:  cpu time    0.0018: real time    0.0018
    CHARGE:  cpu time   30.8772: real time   30.8766
    MIXING:  cpu time    0.8275: real time    0.8275
    --------------------------------------------
      LOOP:  cpu time  355.4358: real time  355.4373

 eigenvalue-minimisations  :   709
 total energy-change (2. order) : 0.3353780E-01  (-0.1079808E+00)
 number of electron     559.9999817 magnetization 
 augmentation part      241.2460260 magnetization 

 Broyden mixing:
  rms(total) = 0.17857E+01    rms(broyden)= 0.17855E+01
  rms(prec ) = 0.21000E+01
  weight for this iteration     100.00

 eigenvalues of (default mixing * dielectric matrix)
  average eigenvalue GAMMA=   0.2968
  1.2993  0.6969  0.1951  0.1951  0.1240  0.1240  0.1070  0.1070  0.0677  0.0522

 Free energy of the ion-electron system (eV)
  ---------------------------------------------------
  alpha Z        PSCENC =        75.25431677
  Ewald energy   TEWEN  =    138479.29987798
  -Hartree energ DENC   =   -182550.42985902
  -exchange      EXHF   =         0.00000000
  -V(xc)+E(xc)   XCENC  =     -1694.93905429
  PAW double counting   =     46074.60014891   -42554.24332453
  entropy T*S    EENTRO =        -0.03728979
  eigenvalues    EBANDS =     -3092.76182151
  atomic energy  EATOM  =     45086.50549395
  Solvation  Ediel_sol  =         0.00000000
  ---------------------------------------------------
  free energy    TOTEN  =      -176.75151154 eV

  energy without entropy =     -176.71422175  energy(sigma->0) =     -176.74218909


--------------------------------------------------------------------------------------------------------




--------------------------------------- Iteration      1(  16)  ---------------------------------------


    POTLOK:  cpu time   13.7998: real time   13.8031
    SETDIJ:  cpu time    0.1480: real time    0.1480
    EDDIAG:  cpu time   85.1834: real time   85.1827
  RMM-DIIS:  cpu time  204.5369: real time  204.5370
    ORTHCH:  cpu time   18.3081: real time   18.3077
       DOS:  cpu time    0.0017: real time    0.0017
    CHARGE:  cpu time   30.8581: real time   30.8574
    MIXING:  cpu time    0.8755: real time    0.8755
    --------------------------------------------
      LOOP:  cpu time  353.7115: real time  353.7131

 eigenvalue-minimisations  :   703
 total energy-change (2. order) : 0.7552311E+00  (-0.7452151E-01)
 number of electron     559.9999860 magnetization 
 augmentation part      241.0527540 magnetization 

 Broyden mixing:
  rms(total) = 0.88768E+00    rms(broyden)= 0.88736E+00
  rms(prec ) = 0.10213E+01
  weight for this iteration     100.00

 eigenvalues of (default mixing * dielectric matrix)
  average eigenvalue GAMMA=   0.3002
  1.3829  0.7530  0.2418  0.2418  0.1268  0.1268  0.1081  0.1081  0.0958  0.0653
  0.0518

 Free energy of the ion-electron system (eV)
  ---------------------------------------------------
  alpha Z        PSCENC =        75.25431677
  Ewald energy   TEWEN  =    138479.29987798
  -Hartree energ DENC   =   -182579.28851804
  -exchange      EXHF   =         0.00000000
  -V(xc)+E(xc)   XCENC  =     -1694.53726882
  PAW double counting   =     46111.75746346   -42589.41705420
  entropy T*S    EENTRO =        -0.08134606
  eigenvalues    EBANDS =     -3065.48924547
  atomic energy  EATOM  =     45086.50549395
  Solvation  Ediel_sol  =         0.00000000
  ---------------------------------------------------
  free energy    TOTEN  =      -175.99628044 eV

  energy without entropy =     -175.91493437  energy(sigma->0) =     -175.97594392


--------------------------------------------------------------------------------------------------------




--------------------------------------- Iteration      1(  17)  ---------------------------------------


    POTLOK:  cpu time   13.8136: real time   13.8160
    SETDIJ:  cpu time    0.1495: real time    0.1495
    EDDIAG:  cpu time   85.2651: real time   85.2650
  RMM-DIIS:  cpu time  209.4981: real time  209.4966
    ORTHCH:  cpu time   18.2483: real time   18.2479
       DOS:  cpu time    0.0017: real time    0.0017
    CHARGE:  cpu time   30.1225: real time   30.1219
    MIXING:  cpu time    0.9167: real time    0.9167
    --------------------------------------------
      LOOP:  cpu time  358.0157: real time  358.0154

 eigenvalue-minimisations  :   719
 total energy-change (2. order) :-0.2779072E-01  (-0.4095370E-01)
 number of electron     559.9999849 magnetization 
 augmentation part      241.0517393 magnetization 

 Broyden mixing:
  rms(total) = 0.11701E+01    rms(broyden)= 0.11699E+01
  rms(prec ) = 0.14398E+01
  weight for this iteration     100.00

 eigenvalues of (default mixing * dielectric matrix)
  average eigenvalue GAMMA=   0.3027
  1.4877  0.7931  0.2936  0.2936  0.1249  0.1249  0.1107  0.1107  0.1047  0.0681
  0.0681  0.0516

 Free energy of the ion-electron system (eV)
  ---------------------------------------------------
  alpha Z        PSCENC =        75.25431677
  Ewald energy   TEWEN  =    138479.29987798
  -Hartree energ DENC   =   -182594.97540078
  -exchange      EXHF   =         0.00000000
  -V(xc)+E(xc)   XCENC  =     -1694.30164326
  PAW double counting   =     46129.56335227   -42606.05583615
  entropy T*S    EENTRO =        -0.04584556
  eigenvalues    EBANDS =     -3051.26838639
  atomic energy  EATOM  =     45086.50549395
  Solvation  Ediel_sol  =         0.00000000
  ---------------------------------------------------
  free energy    TOTEN  =      -176.02407116 eV

  energy without entropy =     -175.97822560  energy(sigma->0) =     -176.01260977


--------------------------------------------------------------------------------------------------------




--------------------------------------- Iteration      1(  18)  ---------------------------------------


    POTLOK:  cpu time   13.8115: real time   13.8148
    SETDIJ:  cpu time    0.1479: real time    0.1479
    EDDIAG:  cpu time   85.3736: real time   85.3728
  RMM-DIIS:  cpu time  209.2970: real time  209.2971
    ORTHCH:  cpu time   18.2532: real time   18.2528
       DOS:  cpu time    0.0018: real time    0.0018
    CHARGE:  cpu time   30.9462: real time   30.9456
    MIXING:  cpu time    0.9624: real time    0.9624
    --------------------------------------------
      LOOP:  cpu time  358.7936: real time  358.7952

 eigenvalue-minimisations  :   718
 total energy-change (2. order) :-0.3875694E-01  (-0.3406634E-01)
 number of electron     559.9999854 magnetization 
 augmentation part      241.0807053 magnetization 

 Broyden mixing:
  rms(total) = 0.13565E+01    rms(broyden)= 0.13563E+01
  rms(prec ) = 0.16531E+01
  weight for this iteration     100.00

 eigenvalues of (default mixing * dielectric matrix)
  average eigenvalue GAMMA=   0.3166
  1.4988  0.9710  0.3914  0.3914  0.1262  0.1262  0.1181  0.1181  0.1047  0.1047
  0.0684  0.0525  0.0444

 Free energy of the ion-electron system (eV)
  ---------------------------------------------------
  alpha Z        PSCENC =        75.25431677
  Ewald energy   TEWEN  =    138479.29987798
  -Hartree energ DENC   =   -182609.92318203
  -exchange      EXHF   =         0.00000000
  -V(xc)+E(xc)   XCENC  =     -1694.10283767
  PAW double counting   =     46145.14561020   -42620.53114407
  entropy T*S    EENTRO =         0.02561666
  eigenvalues    EBANDS =     -3037.73657991
  atomic energy  EATOM  =     45086.50549395
  Solvation  Ediel_sol  =         0.00000000
  ---------------------------------------------------
  free energy    TOTEN  =      -176.06282811 eV

  energy without entropy =     -176.08844477  energy(sigma->0) =     -176.06923227


--------------------------------------------------------------------------------------------------------




--------------------------------------- Iteration      1(  19)  ---------------------------------------


    POTLOK:  cpu time   13.7585: real time   13.7616
    SETDIJ:  cpu time    0.1489: real time    0.1489
    EDDIAG:  cpu time   85.2343: real time   85.2334
  RMM-DIIS:  cpu time  202.7264: real time  202.7248
    ORTHCH:  cpu time   18.2983: real time   18.2980
       DOS:  cpu time    0.0016: real time    0.0016
    CHARGE:  cpu time   30.8896: real time   30.8890
    MIXING:  cpu time    1.0051: real time    1.0051
    --------------------------------------------
      LOOP:  cpu time  352.0628: real time  352.0624

 eigenvalue-minimisations  :   696
 total energy-change (2. order) : 0.2078943E+00  (-0.4129745E-01)
 number of electron     559.9999840 magnetization 
 augmentation part      241.0338967 magnetization 

 Broyden mixing:
  rms(total) = 0.88309E+00    rms(broyden)= 0.88286E+00
  rms(prec ) = 0.10134E+01
  weight for this iteration     100.00

 eigenvalues of (default mixing * dielectric matrix)
  average eigenvalue GAMMA=   0.3277
  1.3812  1.3812  0.4152  0.4152  0.1523  0.1286  0.1286  0.1177  0.1177  0.0918
  0.0918  0.0687  0.0527  0.0445

 Free energy of the ion-electron system (eV)
  ---------------------------------------------------
  alpha Z        PSCENC =        75.25431677
  Ewald energy   TEWEN  =    138479.29987798
  -Hartree energ DENC   =   -182628.86919834
  -exchange      EXHF   =         0.00000000
  -V(xc)+E(xc)   XCENC  =     -1693.94904997
  PAW double counting   =     46152.05419897   -42626.45473723
  entropy T*S    EENTRO =        -0.07478878
  eigenvalues    EBANDS =     -3019.62104721
  atomic energy  EATOM  =     45086.50549395
  Solvation  Ediel_sol  =         0.00000000
  ---------------------------------------------------
  free energy    TOTEN  =      -175.85493384 eV

  energy without entropy =     -175.78014506  energy(sigma->0) =     -175.83623665


--------------------------------------------------------------------------------------------------------




--------------------------------------- Iteration      1(  20)  ---------------------------------------


    POTLOK:  cpu time   13.7823: real time   13.7855
    SETDIJ:  cpu time    0.1477: real time    0.1477
    EDDIAG:  cpu time   84.9599: real time   84.9596
  RMM-DIIS:  cpu time  204.4615: real time  204.4612
    ORTHCH:  cpu time   18.2617: real time   18.2613
       DOS:  cpu time    0.0018: real time    0.0018
    CHARGE:  cpu time   30.9281: real time   30.9275
    MIXING:  cpu time    1.0704: real time    1.0704
    --------------------------------------------
      LOOP:  cpu time  353.6135: real time  353.6150

 eigenvalue-minimisations  :   703
 total energy-change (2. order) : 0.2035807E+00  (-0.3069530E-01)
 number of electron     559.9999861 magnetization 
 augmentation part      241.0697771 magnetization 

 Broyden mixing:
  rms(total) = 0.79860E+00    rms(broyden)= 0.79840E+00
  rms(prec ) = 0.93042E+00
  weight for this iteration     100.00

 eigenvalues of (default mixing * dielectric matrix)
  average eigenvalue GAMMA=   0.3282
  1.5582  1.3660  0.4129  0.4129  0.2250  0.1265  0.1265  0.1244  0.1244  0.0946
  0.0908  0.0908  0.0719  0.0528  0.0448

 Free energy of the ion-electron system (eV)
  ---------------------------------------------------
  alpha Z        PSCENC =        75.25431677
  Ewald energy   TEWEN  =    138479.29987798
  -Hartree energ DENC   =   -182650.98364373
  -exchange      EXHF   =         0.00000000
  -V(xc)+E(xc)   XCENC  =     -1693.75131662
  PAW double counting   =     46159.29647189   -42632.58765919
  entropy T*S    EENTRO =        -0.07934726
  eigenvalues    EBANDS =     -2998.60554689
  atomic energy  EATOM  =     45086.50549395
  Solvation  Ediel_sol  =         0.00000000
  ---------------------------------------------------
  free energy    TOTEN  =      -175.65135309 eV

  energy without entropy =     -175.57200583  energy(sigma->0) =     -175.63151628


--------------------------------------------------------------------------------------------------------




--------------------------------------- Iteration      1(  21)  ---------------------------------------


    POTLOK:  cpu time   13.8640: real time   13.8659
    SETDIJ:  cpu time    0.1477: real time    0.1477
    EDDIAG:  cpu time   85.3169: real time   85.3196
  RMM-DIIS:  cpu time  204.5615: real time  204.5592
    ORTHCH:  cpu time   18.2487: real time   18.2483
       DOS:  cpu time    0.0018: real time    0.0018
    CHARGE:  cpu time   30.9288: real time   30.9287
    MIXING:  cpu time    1.1201: real time    1.1200
    --------------------------------------------
      LOOP:  cpu time  354.1895: real time  354.1913

 eigenvalue-minimisations  :   701
 total energy-change (2. order) : 0.2160116E+00  (-0.2263880E-01)
 number of electron     559.9999855 magnetization 
 augmentation part      241.1468597 magnetization 

 Broyden mixing:
  rms(total) = 0.57663E+00    rms(broyden)= 0.57644E+00
  rms(prec ) = 0.67139E+00
  weight for this iteration     100.00

 eigenvalues of (default mixing * dielectric matrix)
  average eigenvalue GAMMA=   0.3396
  1.7505  1.2554  0.6043  0.3642  0.3642  0.1714  0.1254  0.1254  0.1193  0.1193
  0.0963  0.0963  0.0723  0.0723  0.0528  0.0446

 Free energy of the ion-electron system (eV)
  ---------------------------------------------------
  alpha Z        PSCENC =        75.25431677
  Ewald energy   TEWEN  =    138479.29987798
  -Hartree energ DENC   =   -182662.66109393
  -exchange      EXHF   =         0.00000000
  -V(xc)+E(xc)   XCENC  =     -1693.60347068
  PAW double counting   =     46163.71063294   -42636.32528196
  entropy T*S    EENTRO =        -0.09398212
  eigenvalues    EBANDS =     -2987.52183445
  atomic energy  EATOM  =     45086.50549395
  Solvation  Ediel_sol  =         0.00000000
  ---------------------------------------------------
  free energy    TOTEN  =      -175.43534149 eV

  energy without entropy =     -175.34135937  energy(sigma->0) =     -175.41184596


--------------------------------------------------------------------------------------------------------




--------------------------------------- Iteration      1(  22)  ---------------------------------------


    POTLOK:  cpu time   13.7261: real time   13.7295
    SETDIJ:  cpu time    0.1478: real time    0.1478
    EDDIAG:  cpu time   84.2553: real time   84.2543
  RMM-DIIS:  cpu time  203.2752: real time  203.2736
    ORTHCH:  cpu time   18.2795: real time   18.2791
       DOS:  cpu time    0.0018: real time    0.0018
    CHARGE:  cpu time   30.8959: real time   30.8953
    MIXING:  cpu time    1.1556: real time    1.1580
    --------------------------------------------
      LOOP:  cpu time  351.7372: real time  351.7393

 eigenvalue-minimisations  :   695
 total energy-change (2. order) :-0.2435077E-01  (-0.1971391E-01)
 number of electron     559.9999849 magnetization 
 augmentation part      241.1993367 magnetization 

 Broyden mixing:
  rms(total) = 0.65660E+00    rms(broyden)= 0.65644E+00
  rms(prec ) = 0.74466E+00
  weight for this iteration     100.00

 eigenvalues of (default mixing * dielectric matrix)
  average eigenvalue GAMMA=   0.3650
  1.8699  1.5785  0.7509  0.3833  0.3833  0.2183  0.1272  0.1272  0.1205  0.1205
  0.1000  0.1000  0.0869  0.0701  0.0701  0.0528  0.0447

 Free energy of the ion-electron system (eV)
  ---------------------------------------------------
  alpha Z        PSCENC =        75.25431677
  Ewald energy   TEWEN  =    138479.29987798
  -Hartree energ DENC   =   -182673.68903208
  -exchange      EXHF   =         0.00000000
  -V(xc)+E(xc)   XCENC  =     -1693.45225280
  PAW double counting   =     46166.13813424   -42638.20832574
  entropy T*S    EENTRO =        -0.07309981
  eigenvalues    EBANDS =     -2977.23480478
  atomic energy  EATOM  =     45086.50549395
  Solvation  Ediel_sol  =         0.00000000
  ---------------------------------------------------
  free energy    TOTEN  =      -175.45969226 eV

  energy without entropy =     -175.38659245  energy(sigma->0) =     -175.44141731


--------------------------------------------------------------------------------------------------------




--------------------------------------- Iteration      1(  23)  ---------------------------------------


    POTLOK:  cpu time   13.7195: real time   13.7233
    SETDIJ:  cpu time    0.1489: real time    0.1489
    EDDIAG:  cpu time   85.1412: real time   85.1402
  RMM-DIIS:  cpu time  202.5912: real time  202.5896
    ORTHCH:  cpu time   18.2493: real time   18.2489
       DOS:  cpu time    0.0018: real time    0.0018
    CHARGE:  cpu time   30.9635: real time   30.9628
    MIXING:  cpu time    1.2691: real time    1.2691
    --------------------------------------------
      LOOP:  cpu time  352.0844: real time  352.0847

 eigenvalue-minimisations  :   696
 total energy-change (2. order) : 0.7736270E-01  (-0.1604294E-01)
 number of electron     559.9999853 magnetization 
 augmentation part      241.0965876 magnetization 

 Broyden mixing:
  rms(total) = 0.63306E+00    rms(broyden)= 0.63288E+00
  rms(prec ) = 0.73016E+00
  weight for this iteration     100.00

 eigenvalues of (default mixing * dielectric matrix)
  average eigenvalue GAMMA=   0.3583
[...]
 -0.006  -0.012   0.003   0.005   0.005  -0.006  -0.012   0.003
 -0.011  -0.020   0.006   0.008   0.009  -0.010  -0.020   0.006
 -0.015  -0.005   0.013   0.000   0.022  -0.014  -0.005   0.012
  0.000  -0.023  -0.006  -0.015  -0.000   0.000  -0.022  -0.006
 -0.022   0.000   0.009  -0.005  -0.016  -0.022   0.000   0.008
 -0.017  -0.006   0.015   0.000   0.027  -0.017  -0.006   0.015
  0.000  -0.027  -0.007  -0.018   0.000   0.000  -0.027  -0.007
 -0.027   0.000   0.010  -0.006  -0.019  -0.026   0.000   0.010
 total augmentation occupancy for first ion, spin component:           1
  1.537  -0.032   0.005   0.018   0.026   0.074  -0.008  -0.001   0.036  -0.010   0.087  -0.030   0.012   0.002   0.002  -0.019
 -0.032   1.404   0.028   0.072   0.001  -0.007   0.070   0.011  -0.015  -0.008   0.216  -0.065   0.019   0.002   0.002  -0.006
  0.005   0.028   1.547   0.002   0.001  -0.001   0.013   0.072  -0.013   0.017  -0.050   0.016  -0.003  -0.007  -0.005   0.016
  0.018   0.072   0.002   1.340   0.044   0.033  -0.014  -0.012   0.091  -0.023  -0.083   0.023  -0.001  -0.009  -0.003   0.001
  0.026   0.001   0.001   0.044   1.445  -0.011  -0.009   0.016  -0.022   0.066  -0.093   0.030  -0.003  -0.010  -0.010   0.026
  0.074  -0.007  -0.001   0.033  -0.011   0.216   0.018  -0.002  -0.045   0.004  -0.048   0.002   0.017  -0.010   0.035  -0.004
 -0.008   0.070   0.013  -0.014  -0.009   0.018   0.262  -0.023  -0.003   0.006  -0.109   0.007  -0.001   0.051  -0.010  -0.000
 -0.001   0.011   0.072  -0.012   0.016  -0.002  -0.023   0.214   0.014  -0.020   0.028  -0.001  -0.012   0.009  -0.018   0.003
  0.036  -0.015  -0.013   0.091  -0.022  -0.045  -0.003   0.014   0.260   0.007   0.043  -0.003  -0.009   0.036   0.004   0.000
 -0.010  -0.008   0.017  -0.023   0.066   0.004   0.006  -0.020   0.007   0.258   0.046  -0.003  -0.038   0.002   0.049   0.007
  0.087   0.216  -0.050  -0.083  -0.093  -0.048  -0.109   0.028   0.043   0.046   0.949  -0.140   0.084   0.014   0.064  -0.012
 -0.030  -0.065   0.016   0.023   0.030   0.002   0.007  -0.001  -0.003  -0.003  -0.140   0.023  -0.014  -0.003  -0.010   0.003
  0.012   0.019  -0.003  -0.001  -0.003   0.017  -0.001  -0.012  -0.009  -0.038   0.084  -0.014   0.029  -0.008  -0.004  -0.003
  0.002   0.002  -0.007  -0.009  -0.010  -0.010   0.051   0.009   0.036   0.002   0.014  -0.003  -0.008   0.036   0.004   0.000
  0.002   0.002  -0.005  -0.003  -0.010   0.035  -0.010  -0.018   0.004   0.049   0.064  -0.010  -0.004   0.004   0.035  -0.000
 -0.019  -0.006   0.016   0.001   0.026  -0.004  -0.000   0.003   0.000   0.007  -0.012   0.003  -0.003   0.000  -0.000   0.001
  0.001  -0.028  -0.007  -0.018   0.001   0.001  -0.008  -0.001  -0.006  -0.000  -0.003   0.001   0.000  -0.003  -0.000   0.000
 -0.028   0.001   0.012  -0.005  -0.019  -0.006   0.001   0.003  -0.001  -0.007  -0.008   0.001  -0.000  -0.000  -0.003   0.000


------------------------ aborting loop because EDIFF is reached ----------------------------------------


    CHARGE:  cpu time   22.2743: real time   22.2756
    FORLOC:  cpu time    5.9361: real time    5.9372
    FORNL :  cpu time   57.9822: real time   57.9849
    STRESS:  cpu time  175.4563: real time  175.4773
    FORCOR:  cpu time   19.0631: real time   19.0643
    FORHAR:  cpu time    8.5028: real time    8.5028
    MIXING:  cpu time    3.3569: real time    3.3569
    OFIELD:  cpu time    0.0000: real time    0.0000

  FORCE on cell =-STRESS in cart. coord.  units (eV):
  Direction    XX          YY          ZZ          XY          YZ          ZX
  --------------------------------------------------------------------------------------
  Alpha Z    75.25432    75.25432    75.25432
  Ewald   47405.93601 44338.82922 46734.42888   535.76691  -533.80240 -2081.84013
  Hartree 62113.84561 59236.11227 61483.48279   474.32795  -498.97041 -1911.03244
  E(xc)   -2904.13171 -2905.47527 -2904.31326     0.59688     0.00221    -0.92229
  Local  ************************************ -1001.99093  1030.17526  3975.91617
  n-local  -884.52591  -883.79090  -885.59008    -0.79280     0.56031     1.54001
  augment  4102.34443  4105.92211  4102.97807    -1.84304    -0.46731     1.65796
  Kinetic  7798.44171  7814.22545  7801.10150    -6.50509     1.18619    11.78603
  Fock        0.00000     0.00000     0.00000     0.00000     0.00000     0.00000
  -------------------------------------------------------------------------------------
  Total    -112.37887  -114.55426  -113.78750    -0.44012    -1.31614    -2.89468
  in kB      -6.66855    -6.79764    -6.75214    -0.02612    -0.07810    -0.17177
  external pressure =       -6.74 kB  Pullay stress =        0.00 kB


 VOLUME and BASIS-vectors are now :
 -----------------------------------------------------------------------------
  energy-cutoff  :      400.00
  volume of cell :    27000.00
      direct lattice vectors                 reciprocal lattice vectors
    30.000000000  0.000000000  0.000000000     0.033333333  0.000000000  0.000000000
     0.000000000 30.000000000  0.000000000     0.000000000  0.033333333  0.000000000
     0.000000000  0.000000000 30.000000000     0.000000000  0.000000000  0.033333333

  length of vectors
    30.000000000 30.000000000 30.000000000     0.033333333  0.033333333  0.033333333


 FORCES acting on ions
    electron-ion (+dipol)            ewald-force                    non-local-force                 convergence-correction
 -----------------------------------------------------------------------------------------------
   0.402E+03 0.978E+03 0.412E+03   -.400E+03 -.975E+03 -.412E+03   -.149E+01 -.182E+01 -.224E+00   -.340E-02 -.199E-02 0.208E-02
   -.933E+03 -.415E+03 0.229E+03   0.931E+03 0.413E+03 -.232E+03   0.816E+00 0.137E+01 0.136E+01   0.623E-02 -.247E-02 0.781E-02
   -.383E+03 0.986E+03 0.409E+03   0.381E+03 -.983E+03 -.409E+03   0.149E+01 -.184E+01 -.213E+00   0.349E-02 -.346E-02 0.346E-02
   0.978E+03 -.394E+03 0.413E+03   -.975E+03 0.392E+03 -.413E+03   -.181E+01 0.152E+01 -.198E+00   0.220E-02 -.192E-04 0.432E-02
   0.177E+02 0.601E+03 0.962E+03   -.176E+02 -.600E+03 -.959E+03   -.414E-01 -.346E+00 -.235E+01   -.193E-02 0.312E-02 -.564E-02
   0.356E+01 0.589E+03 -.968E+03   -.352E+01 -.588E+03 0.965E+03   -.226E-01 -.298E+00 0.236E+01   -.642E-03 0.359E-02 -.238E-02
   0.498E+01 0.114E+04 -.449E+01   -.499E+01 -.113E+04 0.451E+01   0.719E-02 -.311E+01 -.193E-01   0.123E-02 -.411E-02 0.839E-02
   0.114E+04 0.748E+00 -.273E+01   -.113E+04 -.754E+00 0.272E+01   -.310E+01 0.178E-02 0.887E-02   0.391E-02 0.471E-02 -.140E-02
   -.114E+04 0.117E+02 -.443E+02   0.114E+04 -.117E+02 0.444E+02   0.318E+01 -.372E-01 -.604E-01   -.116E-02 0.113E-02 0.624E-02
   0.871E+01 -.114E+04 -.785E+01   -.873E+01 0.114E+04 0.786E+01   0.143E-01 0.308E+01 -.768E-02   -.391E-02 -.143E-02 0.609E-02
   -.555E+03 0.621E+03 0.808E+03   0.553E+03 -.618E+03 -.804E+03   0.166E+01 -.157E+01 -.223E+01   0.601E-02 -.623E-04 -.288E-02
   -.575E+03 0.582E+03 -.819E+03   0.573E+03 -.579E+03 0.816E+03   0.157E+01 -.155E+01 0.219E+01   -.177E-02 0.454E-02 -.163E-02
   0.591E+03 -.581E+03 0.811E+03   -.588E+03 0.578E+03 -.808E+03   -.153E+01 0.154E+01 -.219E+01   -.308E-02 -.460E-02 0.445E-02
   0.581E+03 -.578E+03 -.815E+03   -.579E+03 0.576E+03 0.812E+03   -.156E+01 0.155E+01 0.219E+01   0.155E-02 -.267E-02 -.425E-02
   0.587E+03 0.583E+03 0.811E+03   -.585E+03 -.581E+03 -.808E+03   -.154E+01 -.156E+01 -.220E+01   -.590E-02 0.590E-02 -.237E-02
   0.580E+03 0.579E+03 -.815E+03   -.578E+03 -.577E+03 0.811E+03   -.156E+01 -.156E+01 0.220E+01   0.176E-02 0.443E-02 -.343E-03
   -.473E+03 -.666E+03 0.795E+03   0.471E+03 0.663E+03 -.792E+03   0.137E+01 0.139E+01 -.195E+01   0.636E-03 0.118E-02 -.342E-02
   -.575E+03 -.580E+03 -.821E+03   0.572E+03 0.577E+03 0.818E+03   0.157E+01 0.155E+01 0.219E+01   0.105E-02 -.545E-02 -.253E-02
   0.398E+03 0.974E+03 -.420E+03   -.396E+03 -.971E+03 0.419E+03   -.153E+01 -.181E+01 0.230E+00   0.262E-02 0.225E-02 0.507E-02
   -.968E+03 -.394E+03 -.438E+03   0.965E+03 0.392E+03 0.437E+03   0.182E+01 0.150E+01 0.274E+00   -.331E-02 -.272E-03 0.407E-02
   -.291E+03 0.343E+03 0.433E+03   0.292E+03 -.343E+03 -.434E+03   -.390E+00 0.364E+00 0.640E+00   0.862E-03 0.312E-02 0.411E-02
   0.977E+03 0.396E+03 0.413E+03   -.974E+03 -.394E+03 -.413E+03   -.181E+01 -.152E+01 -.201E+00   -.214E-02 0.109E-01 0.173E-02
   -.370E+03 -.992E+03 0.400E+03   0.368E+03 0.989E+03 -.400E+03   0.153E+01 0.186E+01 -.222E+00   -.390E-02 0.211E-02 0.517E-02
   -.390E+03 0.976E+03 -.423E+03   0.387E+03 -.973E+03 0.422E+03   0.153E+01 -.181E+01 0.191E+00   -.377E-03 0.926E-03 0.338E-02
   0.974E+03 -.394E+03 -.419E+03   -.971E+03 0.391E+03 0.419E+03   -.183E+01 0.150E+01 0.222E+00   0.570E-02 0.475E-03 -.318E-02
   -.958E+03 0.456E+03 0.360E+03   0.955E+03 -.454E+03 -.359E+03   0.176E+01 -.128E+01 -.346E+00   0.579E-02 -.653E-03 0.414E-02
   0.408E+03 -.978E+03 0.410E+03   -.405E+03 0.975E+03 -.410E+03   -.152E+01 0.183E+01 -.210E+00   -.766E-02 -.495E-02 0.368E-02
   0.336E+03 0.327E+03 0.447E+03   -.336E+03 -.327E+03 -.447E+03   0.359E+00 0.361E+00 0.519E+00   -.735E-02 0.125E-01 0.244E-02
   0.964E+01 0.646E+03 -.868E+01   -.967E+01 -.647E+03 0.871E+01   0.270E-01 0.747E+00 -.247E-01   0.366E-04 0.364E-02 0.125E-01
   -.409E+03 0.110E+03 0.942E+03   0.412E+03 -.108E+03 -.939E+03   -.197E+01 -.111E+01 -.136E+01   0.315E-02 -.358E-02 -.237E-02
   -.583E+03 0.163E+01 -.973E+03   0.582E+03 -.163E+01 0.970E+03   0.319E+00 -.274E-02 0.234E+01   -.171E-03 0.476E-02 -.356E-02
   0.599E+03 0.214E+01 0.963E+03   -.598E+03 -.216E+01 -.959E+03   -.253E+00 0.551E-02 -.236E+01   -.371E-02 0.592E-02 0.459E-02
   0.589E+03 0.674E+00 -.967E+03   -.588E+03 -.675E+00 0.963E+03   -.305E+00 0.314E-03 0.236E+01   0.309E-02 0.236E-02 -.409E-02
   0.766E+03 0.763E+03 -.397E+01   -.764E+03 -.761E+03 0.396E+01   -.115E+01 -.114E+01 0.582E-02   -.263E-02 0.750E-02 0.581E-02
   -.745E+03 -.773E+03 -.321E+02   0.743E+03 0.771E+03 0.321E+02   0.115E+01 0.124E+01 0.206E-01   0.255E-02 -.225E-02 0.127E-01
   -.752E+03 0.775E+03 -.167E+02   0.750E+03 -.773E+03 0.167E+02   0.111E+01 -.118E+01 0.463E-01   0.365E-02 0.220E-02 0.839E-02
   0.767E+03 -.762E+03 -.506E+01   -.765E+03 0.760E+03 0.507E+01   -.114E+01 0.115E+01 -.982E-02   -.108E-02 -.558E-02 0.214E-02
   0.378E+02 0.887E+01 0.107E+04   -.378E+02 -.894E+01 -.106E+04   -.744E-01 0.369E-01 -.170E+01   -.871E-02 0.387E-02 -.159E-02
   0.438E+01 0.108E+01 -.107E+04   -.437E+01 -.108E+01 0.107E+04   -.902E-02 0.369E-03 0.161E+01   -.522E-04 0.158E-02 -.521E-02
   0.974E+03 0.395E+03 -.419E+03   -.971E+03 -.393E+03 0.418E+03   -.182E+01 -.151E+01 0.218E+00   0.309E-02 0.669E-02 0.748E-03
   -.387E+03 -.976E+03 -.426E+03   0.385E+03 0.973E+03 0.426E+03   0.153E+01 0.180E+01 0.177E+00   -.734E-03 -.558E-02 0.268E-02
   -.314E+03 0.326E+03 -.465E+03   0.314E+03 -.326E+03 0.465E+03   -.347E+00 0.380E+00 -.552E+00   -.103E-02 0.558E-02 0.554E-02
   0.339E+03 -.321E+03 0.445E+03   -.340E+03 0.322E+03 -.446E+03   0.314E+00 -.376E+00 0.529E+00   -.116E-01 0.216E-03 0.474E-02
   0.327E+03 0.323E+03 -.459E+03   -.327E+03 -.324E+03 0.459E+03   0.375E+00 0.348E+00 -.512E+00   0.237E-03 0.840E-02 0.451E-02
   -.969E+03 0.401E+03 -.433E+03   0.966E+03 -.398E+03 0.433E+03   0.181E+01 -.151E+01 0.246E+00   -.209E-02 0.724E-02 0.300E-02
   0.400E+03 -.973E+03 -.422E+03   -.397E+03 0.970E+03 0.421E+03   -.152E+01 0.181E+01 0.199E+00   -.295E-02 -.623E-02 -.414E-04
   -.272E+03 -.325E+03 0.420E+03   0.272E+03 0.326E+03 -.420E+03   -.109E+00 -.398E+00 0.360E+00   -.648E-02 -.622E-03 0.728E-02
   0.646E+03 0.143E+01 -.530E+01   -.647E+03 -.144E+01 0.531E+01   0.735E+00 -.805E-04 -.147E-01   -.161E-02 0.950E-02 0.229E-02
   -.621E+03 0.964E+01 -.363E+02   0.622E+03 -.958E+01 0.363E+02   -.807E+00 -.616E-01 0.106E-01   0.340E-02 0.245E-02 0.129E-01
   0.332E+02 -.598E+03 0.961E+03   -.332E+02 0.597E+03 -.958E+03   -.510E-03 0.316E+00 -.240E+01   -.103E-01 -.124E-02 -.302E-02
   0.438E+01 -.587E+03 -.970E+03   -.438E+01 0.587E+03 0.966E+03   -.194E-02 0.281E+00 0.235E+01   -.773E-03 -.356E-02 -.360E-02
   0.157E+02 0.376E+01 -.141E+02   -.157E+02 -.375E+01 0.141E+02   -.110E-01 -.148E-01 0.190E-01   -.741E-02 0.543E-02 0.114E-01
   0.328E+03 -.321E+03 -.460E+03   -.328E+03 0.321E+03 0.460E+03   0.382E+00 -.360E+00 -.526E+00   -.207E-02 -.710E-03 -.730E-03
   -.312E+03 -.321E+03 -.467E+03   0.313E+03 0.322E+03 0.468E+03   -.366E+00 -.366E+00 -.513E+00   0.980E-03 -.141E-02 0.461E-02
   0.147E+02 -.643E+03 -.132E+02   -.146E+02 0.644E+03 0.131E+02   -.261E-01 -.713E+00 0.433E-01   -.813E-02 -.392E-02 0.102E-01
   -.212E+03 -.493E+02 0.182E+03   0.196E+03 0.451E+02 -.167E+03   0.111E+02 0.290E+01 -.102E+02   0.279E-02 -.139E-02 -.568E-03
   -.609E+03 -.138E+03 0.541E+03   0.657E+03 0.149E+03 -.585E+03   -.441E+02 -.104E+02 0.396E+02   0.293E-02 -.886E-03 -.833E-03
 -----------------------------------------------------------------------------------------------
   0.362E+02 0.870E+01 -.321E+02   0.227E-12 -.568E-13 -.159E-11   -.361E+02 -.877E+01 0.320E+02   -.492E-01 0.691E-01 0.137E+00
 
 
 POSITION                                       TOTAL-FORCE (eV/Angst)
 -----------------------------------------------------------------------------------
     13.37281      9.84801     12.50759         0.702113      1.110029      0.291521
     20.15199     16.62719     12.50759        -0.830964     -0.906068     -1.088162
     16.62719      9.84801     12.50759        -0.694879      1.115565      0.281750
      9.84801     16.62719     12.50759         1.109415     -0.716171      0.286353
     15.00000     11.47521     10.20639         0.012082      0.415252      1.282313
     15.00000     11.47521     19.79360         0.016447      0.411670     -1.288338
     15.00000      8.28283     15.00000        -0.002277      1.522394      0.009319
      8.28283     15.00000     15.00000         1.520840      0.000602     -0.007802
     21.71717     15.00000     15.00000        -1.536341      0.005329      0.029470
     15.00000     21.71717     15.00000        -0.005690     -1.518091      0.010302
     18.35858     11.64142     10.25025        -0.791470      0.741115      1.082063
     18.35858     11.64142     19.74975        -0.766349      0.753532     -1.074606
     11.64142     18.35858     10.25025         0.747804     -0.760594      1.077428
     11.64142     18.35858     19.74975         0.763523     -0.752779     -1.075993
     11.64142     11.64142     10.25025         0.750977      0.762595      1.078189
     11.64142     11.64142     19.74975         0.759411      0.753150     -1.072469
     18.35858     18.35858     10.25025        -0.572061     -0.871431      1.016360
     18.35858     18.35858     19.74975        -0.766554     -0.754447     -1.073675
     13.37281      9.84801     17.49241         0.718036      1.103552     -0.302157
     20.15199     16.62719     17.49241        -1.103798     -0.709899     -0.301220
     16.73751     13.26249     12.54279         0.075216     -0.127017     -0.146638
      9.84801     13.37281     12.50759         1.109712      0.712788      0.284001
     16.62719     20.15199     12.50759        -0.741171     -1.086535      0.296969
     16.62719      9.84801     17.49241        -0.718209      1.105652     -0.280432
      9.84801     16.62719     17.49241         1.107140     -0.707221     -0.288750
     20.15199     13.37281     12.50759        -1.110349      0.590937      0.377569
     13.37281     20.15199     12.50759         0.719949     -1.109655      0.281137
     13.26249     13.26249     12.54279        -0.105772     -0.112423     -0.166139
     15.00000     11.52498     15.00000        -0.009648     -0.243493      0.019252
     18.52479     15.00000     10.20639         0.911847      0.803990      1.184098
     18.52479     15.00000     19.79360        -0.415603      0.001707     -1.281512
     11.47521     15.00000     10.20640         0.383128     -0.003025      1.302490
     11.47521     15.00000     19.79360         0.409875      0.002199     -1.286077
     11.49535     11.49535     15.00000         0.825072      0.827587     -0.002425
     18.50465     18.50465     15.00000        -0.833808     -0.827111      0.038620
     18.50465     11.49535     15.00000        -0.815001      0.836577     -0.014024
     11.49535     18.50465     15.00000         0.826327     -0.828621      0.001471
     15.00000     15.00000     10.04368        -0.033439     -0.026236      1.182438
     15.00000     15.00000     19.95633         0.000518      0.002813     -1.174750
      9.84801     13.37281     17.49241         1.108807      0.710073     -0.290932
     16.62719     20.15199     17.49241        -0.730703     -1.109754     -0.270056
     16.73751     13.26249     17.45721         0.101102     -0.126043      0.172436
     13.26249     16.73751     12.54279        -0.111677      0.112548     -0.158293
     13.26249     13.26249     17.45721        -0.116475     -0.105687      0.155801
     20.15199     13.37281     17.49241        -1.100443      0.709965     -0.303298
     13.37281     20.15199     17.49241         0.714440     -1.110760     -0.284731
     16.73751     16.73751     12.54279         0.013207      0.122228     -0.090878
     11.52498     15.00000     15.00000        -0.226349     -0.001473     -0.003471
     18.47502     15.00000     15.00000         0.211354      0.000009      0.035439
     15.00000     18.52480     10.20639        -0.032905     -0.387618      1.292312
     15.00000     18.52480     19.79360         0.002310     -0.404459     -1.288557
     15.00000     15.00000     15.00000         0.012862     -0.000419     -0.007959
     13.26249     16.73751     17.45721        -0.107955      0.112168      0.156338
     16.73751     16.73751     17.45721         0.120576      0.114772      0.153652
     15.00000     18.47502     15.00000        -0.000359      0.230249      0.001370
     20.34906     16.25420     10.21562        -5.533523     -1.285960      4.738821
     21.17726     16.44839      9.47485         4.059682      0.901941     -3.495936
 -----------------------------------------------------------------------------------
    total drift:                                0.003716     -0.001025      0.001765


--------------------------------------------------------------------------------------------------------



  FREE ENERGIE OF THE ION-ELECTRON SYSTEM (eV)
  ---------------------------------------------------
  free  energy   TOTEN  =      -175.15989231 eV

  energy  without entropy=     -175.04898055  energy(sigma->0) =     -175.13216437
 


--------------------------------------------------------------------------------------------------------


    POTLOK:  cpu time   11.8991: real time   11.8992


--------------------------------------------------------------------------------------------------------


     LOOP+:  cpu time17855.1058: real time17855.7138
    4ORBIT:  cpu time    0.0000: real time    0.0015

 total amount of memory used by VASP MPI-rank0  5486941. kBytes
=======================================================================

   base      :      30000. kBytes
   nonlr-proj:      17126. kBytes
   fftplans  :     924480. kBytes
   grid      :    1872000. kBytes
   one-center:        886. kBytes
   wavefun   :    2642449. kBytes
 
  
  
 General timing and accounting informations for this job:
 ========================================================
  
                  Total CPU time used (sec):    17916.436
                            User time (sec):    16985.618
                          System time (sec):      930.817
                         Elapsed time (sec):    17917.268
  
                   Maximum memory used (kb):     7177068.
                   Average memory used (kb):           0.
  
                          Minor page faults:    791716971
                          Major page faults:          248
                 Voluntary context switches:          955
