   57   57    1    1
  0.4736842E+03  0.3000000E-08  0.3000000E-08  0.3000000E-08  0.5000000E-15
  1.000000000000000E-004
  CAR 
 6_Pd100_top_free_z(O)                   
    560      1    336
 
  0.0000000E+00  0.0000000E+00  0.0000000E+00  0.1000000E+01
    1      -28.544240   1.000000
    2      -13.400690   1.000000
    3      -11.172184   1.000000
    4      -10.996495   1.000000
    5      -10.460935   1.000000
    6       -6.662982   1.000000
    7       -6.250050   1.000000
    8       -6.177218   1.000000
    9       -6.148043   1.000000
   10       -6.126671   1.000000
   11       -6.120996   1.000000
   12       -5.872698   1.000000
   13       -5.842782   1.000000
   14       -5.820989   1.000000
   15       -5.773852   1.000000
   16       -5.749821   1.000000
   17       -5.717652   1.000000
   18       -5.704699   1.000000
   19       -5.697009   1.000000
   20       -5.678197   1.000000
   21       -5.672019   1.000000
   22       -5.637044   1.000000
   23       -5.631930   1.000000
   24       -5.621007   1.000000
   25       -5.608583   1.000000
   26       -5.588625   1.000000
   27       -5.587386   1.000000
   28       -5.563430   1.000000
   29       -5.561832   1.000000
   30       -5.561465   1.000000
   31       -5.551619   1.000000
   32       -5.539293   1.000000
   33       -5.532738   1.000000
   34       -5.530800   1.000000
   35       -5.527064   1.000000
   36       -5.525979   1.000000
   37       -5.521970   1.000000
   38       -5.505156   1.000000
   39       -5.502045   1.000000
   40       -5.493591   1.000000
   41       -5.487274   1.000000
   42       -5.485520   1.000000
   43       -5.483219   1.000000
   44       -5.480645   1.000000
   45       -5.478702   1.000000
   46       -5.461755   1.000000
   47       -5.445400   1.000000
   48       -5.443085   1.000000
   49       -5.441342   1.000000
   50       -5.439941   1.000000
   51       -5.435591   1.000000
   52       -5.427125   1.000000
   53       -5.420747   1.000000
   54       -5.419035   1.000000
   55       -5.416655   1.000000
   56       -5.412716   1.000000
   57       -5.396948   1.000000
   58       -5.348845   1.000000
   59       -5.344073   1.000000
   60       -5.339897   1.000000
   61       -5.338555   1.000000
   62       -5.332312   1.000000
   63       -5.329705   1.000000
   64       -5.316548   1.000000
   65       -5.313363   1.000000
   66       -5.308061   1.000000
   67       -5.307160   1.000000
   68       -5.296731   1.000000
   69       -5.280732   1.000000
   70       -5.228133   1.000000
   71       -5.223082   1.000000
   72       -5.217040   1.000000
   73       -5.206334   1.000000
   74       -5.196961   1.000000
   75       -5.195289   1.000000
   76       -5.194770   1.000000
   77       -5.186904   1.000000
   78       -5.180266   1.000000
   79       -5.178576   1.000000
   80       -5.174970   1.000000
   81       -5.169839   1.000000
   82       -5.151248   1.000000
   83       -5.142238   1.000000
   84       -5.140859   1.000000
   85       -5.135913   1.000000
   86       -5.125533   1.000000
   87       -5.123492   1.000000
   88       -5.112662   1.000000
   89       -5.101006   1.000000
   90       -5.091744   1.000000
   91       -5.080146   1.000000
   92       -5.070347   1.000000
   93       -5.066769   1.000000
   94       -5.065692   1.000000
   95       -5.062846   1.000000
   96       -5.061074   1.000000
   97       -5.057480   1.000000
   98       -5.050231   1.000000
   99       -5.043042   1.000000
  100       -5.041131   1.000000
  101       -5.038197   1.000000
  102       -5.034597   1.000000
  103       -5.024715   1.000000
  104       -5.016475   1.000000
  105       -5.015238   1.000000
  106       -5.009204   1.000000
  107       -5.006962   1.000000
  108       -5.004896   1.000000
  109       -4.999411   1.000000
  110       -4.992336   1.000000
  111       -4.991381   1.000000
  112       -4.978752   1.000000
  113       -4.974530   0.999999
  114       -4.971764   0.999999
  115       -4.970062   0.999999
  116       -4.965646   0.999999
  117       -4.955824   0.999999
  118       -4.946931   0.999999
  119       -4.944390   0.999998
  120       -4.940073   0.999998
  121       -4.926779   0.999997
  122       -4.922326   0.999997
  123       -4.921589   0.999997
  124       -4.916531   0.999996
  125       -4.915727   0.999996
  126       -4.912560   0.999995
  127       -4.895192   0.999992
  128       -4.883796   0.999989
  129       -4.865361   0.999980
  130       -4.857367   0.999975
  131       -4.855520   0.999973
  132       -4.851944   0.999970
  133       -4.849938   0.999969
  134       -4.846031   0.999965
  135       -4.842505   0.999961
  136       -4.824860   0.999937
  137       -4.812906   0.999913
  138       -4.808395   0.999902
  139       -4.794437   0.999859
  140       -4.789851   0.999842
  141       -4.787394   0.999832
  142       -4.779076   0.999794
  143       -4.764509   0.999709
  144       -4.761465   0.999688
  145       -4.752603   0.999618
  146       -4.749291   0.999588
  147       -4.742226   0.999519
  148       -4.733837   0.999425
  149       -4.725917   0.999322
  150       -4.714850   0.999154
  151       -4.702383   0.998926
  152       -4.700199   0.998882
  153       -4.694247   0.998754
  154       -4.687529   0.998597
  155       -4.683724   0.998502
  156       -4.683384   0.998494
  157       -4.681786   0.998452
  158       -4.679592   0.998394
  159       -4.677655   0.998342
  160       -4.668679   0.998084
  161       -4.662686   0.997899
  162       -4.660879   0.997842
  163       -4.660094   0.997816
  164       -4.658193   0.997754
  165       -4.656591   0.997701
  166       -4.655331   0.997659
  167       -4.654520   0.997632
  168       -4.646209   0.997343
  169       -4.645733   0.997326
  170       -4.631027   0.996785
  171       -4.625491   0.996576
  172       -4.620407   0.996386
  173       -4.613345   0.996125
  174       -4.609795   0.995998
  175       -4.606677   0.995889
  176       -4.605059   0.995834
  177       -4.602882   0.995761
  178       -4.601120   0.995704
  179       -4.599020   0.995637
  180       -4.587915   0.995330
  181       -4.587052   0.995310
  182       -4.579552   0.995164
  183       -4.572536   0.995083
  184       -4.570871   0.995073
  185       -4.568758   0.995066
  186       -4.564007   0.995075
  187       -4.562132   0.995088
  188       -4.561525   0.995094
  189       -4.560467   0.995105
  190       -4.550528   0.995317
  191       -4.540778   0.995738
  192       -4.529674   0.996526
  193       -4.520920   0.997418
  194       -4.519934   0.997535
  195       -4.517851   0.997793
  196       -4.510970   0.998760
  197       -4.504704   0.999802
  198       -4.503275   1.000062
  199       -4.488689   1.003217
  200       -4.487068   1.003626
  201       -4.482238   1.004915
  202       -4.480562   1.005387
  203       -4.470454   1.008506
  204       -4.468362   1.009210
  205       -4.466843   1.009733
  206       -4.464652   1.010505
  207       -4.458410   1.012819
  208       -4.457123   1.013316
  209       -4.451580   1.015533
  210       -4.449024   1.016596
  211       -4.438722   1.021099
  212       -4.434219   1.023163
  213       -4.430394   1.024951
  214       -4.421530   1.029180
  215       -4.419585   1.030117
  216       -4.418854   1.030469
  217       -4.416774   1.031471
  218       -4.415778   1.031950
  219       -4.412116   1.033706
  220       -4.393515   1.042164
  221       -4.384888   1.045549
  222       -4.381587   1.046702
  223       -4.376105   1.048405
  224       -4.372408   1.049384
  225       -4.361165   1.051333
  226       -4.356359   1.051613
  227       -4.351158   1.051482
  228       -4.349119   1.051297
  229       -4.347170   1.051046
  230       -4.345418   1.050756
  231       -4.343772   1.050427
  232       -4.343238   1.050308
  233       -4.338921   1.049119
  234       -4.338695   1.049045
  235       -4.337471   1.048626
  236       -4.335945   1.048055
  237       -4.334046   1.047267
  238       -4.333472   1.047012
  239       -4.332646   1.046630
  240       -4.321243   1.039549
  241       -4.319110   1.037827
  242       -4.314524   1.033671
  243       -4.313399   1.032553
  244       -4.305402   1.023461
  245       -4.300176   1.016383
  246       -4.299250   1.015031
  247       -4.295431   1.009143
  248       -4.293288   1.005612
  249       -4.291338   1.002258
  250       -4.284889   0.990169
  251       -4.279774   0.979480
  252       -4.273892   0.965958
  253       -4.273374   0.964704
  254       -4.269894   0.956008
  255       -4.269493   0.954976
  256       -4.262993   0.937376
  257       -4.261363   0.932707
  258       -4.260038   0.928833
  259       -4.257235   0.920420
  260       -4.255818   0.916049
  261       -4.254420   0.911662
  262       -4.252316   0.904918
  263       -4.250108   0.897662
  264       -4.249332   0.895066
  265       -4.247726   0.889625
  266       -4.238792   0.857604
  267       -4.236248   0.847959
  268       -4.234546   0.841376
  269       -4.231605   0.829767
  270       -4.230059   0.823543
  271       -4.227223   0.811922
  272       -4.217863   0.771747
  273       -4.213270   0.751074
  274       -4.202922   0.702441
  275       -4.194570   0.661391
  276       -4.193985   0.658466
  277       -4.189181   0.634207
  278       -4.188345   0.629948
  279       -4.185835   0.617100
  280       -4.182552   0.600166
  281       -4.176392   0.568073
  282       -4.171828   0.544094
  283       -4.149319   0.425390
  284       -4.141131   0.382930
  285       -4.140986   0.382187
  286       -4.139462   0.374378
  287       -4.138094   0.367393
  288       -4.128595   0.319776
  289       -4.123846   0.296633
  290       -3.972210  -0.051623
  291       -3.848241  -0.005921
  292       -3.839314  -0.003479
  293       -3.825800  -0.000462
  294       -3.740873   0.004712
  295       -3.512497   0.000084
  296       -3.498188   0.000057
  297       -3.366889   0.000001
  298       -3.085189   0.000000
  299       -3.071294   0.000000
  300       -3.066813   0.000000
  301       -3.040977   0.000000
  302       -3.033160   0.000000
  303       -2.950342   0.000000
  304       -2.947273   0.000000
  305       -2.798024   0.000000
  306       -2.578210   0.000000
  307       -2.538975   0.000000
  308       -2.527417   0.000000
  309       -2.310937   0.000000
  310       -2.123657   0.000000
  311       -2.121977   0.000000
  312       -2.068489   0.000000
  313       -2.034707   0.000000
  314       -1.996439   0.000000
  315       -1.942180   0.000000
  316       -1.888379   0.000000
  317       -1.805322   0.000000
  318       -1.694231   0.000000
  319       -1.672845   0.000000
  320       -1.652806   0.000000
  321       -1.647284   0.000000
  322       -1.623895   0.000000
  323       -1.559103   0.000000
  324       -1.381355   0.000000
  325       -1.257964   0.000000
  326       -1.176634   0.000000
  327       -1.139972   0.000000
  328       -1.065519   0.000000
  329       -0.988472   0.000000
  330       -0.980290   0.000000
  331       -0.950162   0.000000
  332       -0.938102   0.000000
  333       -0.924551   0.000000
  334       -0.886922   0.000000
  335       -0.872413   0.000000
  336       -0.662129   0.000000
