 vasp.5.4.4.18Apr17-6-g9f103f2a35 (build Sep 03 2018 23:53:05) complex          
  
 executed on             LinuxIFC date 2021.12.03  07:02:11
 running on    1 total cores
 distrk:  each k-point on    1 cores,    1 groups
 distr:  one band on NCORES_PER_BAND=   1 cores,    1 groups


--------------------------------------------------------------------------------------------------------


 INCAR:
 POTCAR:    PAW_PBE Pd 04Jan2005                  
 POTCAR:    PAW_PBE C 08Apr2002                   
 POTCAR:    PAW_PBE O 08Apr2002                   
 POTCAR:    PAW_PBE Pd 04Jan2005                  
   VRHFIN =Pd : s1 d9                                                           
   LEXCH  = PE                                                                  
   EATOM  =   809.7530 eV,   59.5152 Ry                                         
                                                                                
   TITEL  = PAW_PBE Pd 04Jan2005                                                
   LULTRA =        F    use ultrasoft PP ?                                      
   IUNSCR =        1    unscreen: 0-lin 1-nonlin 2-no                           
   RPACOR =    2.000    partial core radius                                     
   POMASS =  106.420; ZVAL   =   10.000    mass and valenz                      
   RCORE  =    2.600    outmost cutoff radius                                   
   RWIGS  =    2.710; RWIGS  =    1.434    wigner-seitz radius (au A)           
   ENMAX  =  250.925; ENMIN  =  188.194 eV                                      
   ICORE  =        3    local potential                                         
   LCOR   =        T    correct aug charges                                     
   LPAW   =        T    paw PP                                                  
   EAUG   =  416.230                                                            
   DEXC   =    0.000                                                            
   RMAX   =    2.653    core radius for proj-oper                               
   RAUG   =    1.300    factor for augmentation sphere                          
   RDEP   =    2.734    radius for radial grids                                 
   RDEPT  =    2.103    core radius for aug-charge                              
                                                                                
   Atomic configuration                                                         
   12 entries                                                                   
     n  l   j            E        occ.                                          
     1  0  0.50    -24164.6631   2.0000                                         
     2  0  0.50     -3530.9218   2.0000                                         
     2  1  1.50     -3165.6822   6.0000                                         
     3  0  0.50      -639.4577   2.0000                                         
     3  1  1.50      -519.4532   6.0000                                         
     3  2  2.50      -328.9757  10.0000                                         
     4  0  0.50       -88.7014   2.0000                                         
     4  1  1.50       -54.4540   6.0000                                         
     4  2  2.50        -6.6878   9.0000                                         
     5  0  0.50        -4.3543   1.0000                                         
     5  1  0.50        -1.3606   0.0000                                         
     4  3  2.50        -1.3606   0.0000                                         
   Description                                                                  
     l       E           TYP  RCUT    TYP  RCUT                                 
     2     -6.6878251     23  2.400                                             
     2     -8.0484077     23  2.400                                             
     0     -4.3542939     23  2.400                                             
     0      4.3406793     23  2.400                                             
     1     -4.0817478     23  2.600                                             
     1     15.8380318     23  2.600                                             
     3     -4.0817478     23  2.400                                             
  local pseudopotential read in
  partial core-charges read in
  partial kinetic energy density read in
  atomic valenz-charges read in
  non local Contribution for L=           2  read in
    real space projection operators read in
  non local Contribution for L=           2  read in
    real space projection operators read in
  non local Contribution for L=           0  read in
    real space projection operators read in
  non local Contribution for L=           0  read in
    real space projection operators read in
  non local Contribution for L=           1  read in
    real space projection operators read in
  non local Contribution for L=           1  read in
    real space projection operators read in
    PAW grid and wavefunctions read in
 
   number of l-projection  operators is LMAX  =           6
   number of lm-projection operators is LMMAX =          18
 
 POTCAR:    PAW_PBE C 08Apr2002                   
   VRHFIN =C: s2p2                                                              
   LEXCH  = PE                                                                  
   EATOM  =   147.1560 eV,   10.8157 Ry                                         
                                                                                
   TITEL  = PAW_PBE C 08Apr2002                                                 
   LULTRA =        F    use ultrasoft PP ?                                      
   IUNSCR =        1    unscreen: 0-lin 1-nonlin 2-no                           
   RPACOR =    1.200    partial core radius                                     
   POMASS =   12.011; ZVAL   =    4.000    mass and valenz                      
   RCORE  =    1.500    outmost cutoff radius                                   
   RWIGS  =    1.630; RWIGS  =    0.863    wigner-seitz radius (au A)           
   ENMAX  =  400.000; ENMIN  =  300.000 eV                                      
   ICORE  =        2    local potential                                         
   LCOR   =        T    correct aug charges                                     
   LPAW   =        T    paw PP                                                  
   EAUG   =  644.873                                                            
   DEXC   =    0.000                                                            
   RMAX   =    1.529    core radius for proj-oper                               
   RAUG   =    1.300    factor for augmentation sphere                          
   RDEP   =    1.501    radius for radial grids                                 
   RDEPT  =    1.300    core radius for aug-charge                              
                                                                                
   Atomic configuration                                                         
    4 entries                                                                   
     n  l   j            E        occ.                                          
     1  0  0.50      -273.3789   2.0000                                         
     2  0  0.50       -13.7508   2.0000                                         
     2  1  0.50        -5.2854   2.0000                                         
     3  2  1.50        -5.4423   0.0000                                         
   Description                                                                  
     l       E           TYP  RCUT    TYP  RCUT                                 
     0    -13.7508458     23  1.200                                             
     0     -8.2022199     23  1.200                                             
     1     -5.2854383     23  1.500                                             
     1     34.0145650     23  1.500                                             
     2     -5.4423304      7  1.500                                             
  local pseudopotential read in
  partial core-charges read in
  partial kinetic energy density read in
  atomic valenz-charges read in
  non local Contribution for L=           0  read in
    real space projection operators read in
  non local Contribution for L=           0  read in
    real space projection operators read in
  non local Contribution for L=           1  read in
    real space projection operators read in
  non local Contribution for L=           1  read in
    real space projection operators read in
    PAW grid and wavefunctions read in
 
   number of l-projection  operators is LMAX  =           4
   number of lm-projection operators is LMMAX =           8
 
 POTCAR:    PAW_PBE O 08Apr2002                   
   VRHFIN =O: s2p4                                                              
   LEXCH  = PE                                                                  
   EATOM  =   432.3788 eV,   31.7789 Ry                                         
                                                                                
   TITEL  = PAW_PBE O 08Apr2002                                                 
   LULTRA =        F    use ultrasoft PP ?                                      
   IUNSCR =        1    unscreen: 0-lin 1-nonlin 2-no                           
   RPACOR =    1.200    partial core radius                                     
   POMASS =   16.000; ZVAL   =    6.000    mass and valenz                      
   RCORE  =    1.520    outmost cutoff radius                                   
   RWIGS  =    1.550; RWIGS  =    0.820    wigner-seitz radius (au A)           
   ENMAX  =  400.000; ENMIN  =  300.000 eV                                      
   ICORE  =        2    local potential                                         
   LCOR   =        T    correct aug charges                                     
   LPAW   =        T    paw PP                                                  
   EAUG   =  605.392                                                            
   DEXC   =    0.000                                                            
   RMAX   =    1.553    core radius for proj-oper                               
   RAUG   =    1.300    factor for augmentation sphere                          
   RDEP   =    1.550    radius for radial grids                                 
   RDEPT  =    1.329    core radius for aug-charge                              
                                                                                
   Atomic configuration                                                         
    4 entries                                                                   
     n  l   j            E        occ.                                          
     1  0  0.50      -514.6923   2.0000                                         
     2  0  0.50       -23.9615   2.0000                                         
     2  1  0.50        -9.0305   4.0000                                         
     3  2  1.50        -9.5241   0.0000                                         
   Description                                                                  
     l       E           TYP  RCUT    TYP  RCUT                                 
     0    -23.9615318     23  1.200                                             
     0     -9.5240782     23  1.200                                             
     1     -9.0304911     23  1.520                                             
     1      8.1634956     23  1.520                                             
     2     -9.5240782      7  1.500                                             
  local pseudopotential read in
  partial core-charges read in
  partial kinetic energy density read in
  kinetic energy density of atom read in
  atomic valenz-charges read in
  non local Contribution for L=           0  read in
    real space projection operators read in
  non local Contribution for L=           0  read in
    real space projection operators read in
  non local Contribution for L=           1  read in
    real space projection operators read in
  non local Contribution for L=           1  read in
    real space projection operators read in
    PAW grid and wavefunctions read in
 
   number of l-projection  operators is LMAX  =           4
   number of lm-projection operators is LMMAX =           8
 
 Optimization of the real space projectors (new method)

 maximal supplied QI-value         = 14.36
 optimisation between [QCUT,QGAM] = [ 10.20, 20.39] = [ 29.12,116.47] Ry 
 Optimized for a Real-space Cutoff    1.51 Angstroem

   l    n(q)    QCUT    max X(q) W(low)/X(q) W(high)/X(q)  e(spline) 
   2      8    10.197    59.108    0.26E-03    0.14E-03    0.96E-07
   2      8    10.197    58.101    0.27E-03    0.14E-03    0.98E-07
   0      9    10.197   102.235    0.54E-04    0.60E-05    0.72E-07
   0      9    10.197    58.388    0.52E-04    0.60E-05    0.68E-07
   1      9    10.197    22.191    0.18E-03    0.25E-03    0.79E-07
   1      9    10.197    15.590    0.15E-03    0.21E-03    0.69E-07
 Optimization of the real space projectors (new method)

 maximal supplied QI-value         = 25.13
 optimisation between [QCUT,QGAM] = [ 10.05, 20.36] = [ 28.30,116.06] Ry 
 Optimized for a Real-space Cutoff    1.30 Angstroem

   l    n(q)    QCUT    max X(q) W(low)/X(q) W(high)/X(q)  e(spline) 
   0      8    10.053   115.676    0.49E-03    0.72E-03    0.18E-06
   0      8    10.053    87.132    0.49E-03    0.71E-03    0.18E-06
   1      7    10.053     4.429    0.32E-03    0.31E-03    0.18E-06
   1      7    10.053     2.733    0.23E-03    0.19E-03    0.20E-06
 Optimization of the real space projectors (new method)

 maximal supplied QI-value         = 24.76
 optimisation between [QCUT,QGAM] = [ 10.15, 20.30] = [ 28.85,115.39] Ry 
 Optimized for a Real-space Cutoff    1.38 Angstroem

   l    n(q)    QCUT    max X(q) W(low)/X(q) W(high)/X(q)  e(spline) 
   0      8    10.150    20.381    0.22E-03    0.32E-03    0.29E-06
   0      8    10.150    15.268    0.23E-03    0.35E-03    0.30E-06
   1      8    10.150     5.964    0.46E-03    0.53E-03    0.21E-06
   1      8    10.150     5.382    0.38E-03    0.45E-03    0.19E-06

 ----------------------------------------------------------------------------- 
|                                                                             |
|  ADVICE TO THIS USER RUNNING 'VASP/VAMP'   (HEAR YOUR MASTER'S VOICE ...):  |
|                                                                             |
|      You enforced a specific xc-type in the INCAR file,                     |
|      a different type was found on the POTCAR file                          |
|          I HOPE YOU KNOW, WHAT YOU ARE  DOING                               |
|                                                                             |
 ----------------------------------------------------------------------------- 

  PAW_PBE Pd 04Jan2005                  :
 energy of atom  1       EATOM= -809.7530
 kinetic energy error for atom=    0.0091 (will be added to EATOM!!)
  PAW_PBE C 08Apr2002                   :
 energy of atom  2       EATOM= -147.1560
 kinetic energy error for atom=    0.0288 (will be added to EATOM!!)
  PAW_PBE O 08Apr2002                   :
 energy of atom  3       EATOM= -432.3788
 kinetic energy error for atom=    0.1156 (will be added to EATOM!!)
 
 
 POSCAR: Pd55PES                                 
  positions in cartesian coordinates
  No initial velocities read in
 exchange correlation table for  LEXCH =        9
   RHO(1)=    0.500       N(1)  =     2000
   RHO(2)=  100.500       N(2)  =     4000
 


--------------------------------------------------------------------------------------------------------


 ion  position               nearest neighbor table
   1  0.446  0.328  0.417-   3 3.25   5 3.25   7 3.36  15 3.36  29 3.42  28 3.42
   2  0.672  0.554  0.417-  26 3.25  30 3.25  17 3.36   9 3.36  47 3.42  49 3.42
   3  0.554  0.328  0.417-   1 3.25   5 3.25   7 3.36  11 3.36  29 3.42  21 3.42
   4  0.328  0.554  0.417-  32 3.25  22 3.25  13 3.36   8 3.36  43 3.42  48 3.42
   5  0.500  0.383  0.340-   1 3.25   3 3.25  11 3.36  15 3.36  21 3.42  28 3.42
   6  0.500  0.383  0.660-  24 3.25  19 3.25  16 3.36  12 3.36  42 3.42  44 3.42
   7  0.500  0.276  0.500-  29 3.24   3 3.36   1 3.36  19 3.36  24 3.36
   8  0.276  0.500  0.500-  48 3.24  22 3.36  40 3.36   4 3.36  25 3.36
   9  0.724  0.500  0.500-  49 3.24  26 3.36  45 3.36   2 3.36  20 3.36
  10  0.500  0.724  0.500-  55 3.24  27 3.36  23 3.36  46 3.36  41 3.36
  11  0.612  0.388  0.342-  21 3.24   5 3.36   3 3.36  30 3.36  26 3.36
  12  0.612  0.388  0.658-  42 3.24  24 3.36  45 3.36   6 3.36  31 3.36
  13  0.388  0.612  0.342-  43 3.24  32 3.36  50 3.36   4 3.36  27 3.36
  14  0.388  0.612  0.658-  53 3.24  25 3.36  33 3.36  51 3.36  46 3.36
  15  0.388  0.388  0.342-  56 2.37  28 3.24   5 3.36   1 3.36  32 3.36  22 3.36
  16  0.388  0.388  0.658-  44 3.24  19 3.36  40 3.36   6 3.36  33 3.36
  17  0.612  0.612  0.342-  47 3.24  30 3.36  50 3.36   2 3.36  23 3.36
  18  0.612  0.612  0.658-  54 3.24  31 3.36  20 3.36  51 3.36  41 3.36
  19  0.446  0.328  0.583-   6 3.25  24 3.25  16 3.36   7 3.36  44 3.42  29 3.42
  20  0.672  0.554  0.583-  31 3.25  45 3.25  18 3.36   9 3.36  54 3.42  49 3.42
  21  0.558  0.442  0.418-  11 3.24   5 3.42   3 3.42  30 3.42  26 3.42
  22  0.328  0.446  0.417-   4 3.25  32 3.25   8 3.36  15 3.36  48 3.42  28 3.42
  23  0.554  0.672  0.417-  27 3.25  50 3.25  10 3.36  17 3.36  55 3.42  47 3.42
  24  0.554  0.328  0.583-   6 3.25  19 3.25  12 3.36   7 3.36  42 3.42  29 3.42
  25  0.328  0.554  0.583-  33 3.25  40 3.25  14 3.36   8 3.36  53 3.42  48 3.42
  26  0.672  0.446  0.417-   2 3.25  30 3.25   9 3.36  11 3.36  49 3.42  21 3.42
  27  0.446  0.672  0.417-  23 3.25  50 3.25  10 3.36  13 3.36  55 3.42  43 3.42
  28  0.442  0.442  0.418-  15 3.24   5 3.42   1 3.42  32 3.42  22 3.42
  29  0.500  0.384  0.500-   7 3.24   3 3.42   1 3.42  24 3.42  19 3.42
  30  0.617  0.500  0.340-   2 3.25  26 3.25  17 3.36  11 3.36  47 3.42  21 3.42
  31  0.617  0.500  0.660-  20 3.25  45 3.25  18 3.36  12 3.36  54 3.42  42 3.42
  32  0.383  0.500  0.340-   4 3.25  22 3.25  13 3.36  15 3.36  43 3.42  28 3.42
  33  0.383  0.500  0.660-  25 3.25  40 3.25  14 3.36  16 3.36  53 3.42  44 3.42
  34  0.383  0.383  0.500-
  35  0.617  0.617  0.500-
  36  0.617  0.383  0.500-
  37  0.383  0.617  0.500-
  38  0.500  0.500  0.335-
  39  0.500  0.500  0.665-
  40  0.328  0.446  0.583-  33 3.25  25 3.25  16 3.36   8 3.36  44 3.42  48 3.42
  41  0.554  0.672  0.583-  46 3.25  51 3.25  10 3.36  18 3.36  54 3.42  55 3.42
  42  0.558  0.442  0.582-  12 3.24   6 3.42  24 3.42  31 3.42  45 3.42
  43  0.442  0.558  0.418-  13 3.24   4 3.42  32 3.42  27 3.42  50 3.42
  44  0.442  0.442  0.582-  16 3.24   6 3.42  19 3.42  33 3.42  40 3.42
  45  0.672  0.446  0.583-  20 3.25  31 3.25   9 3.36  12 3.36  49 3.42  42 3.42
  46  0.446  0.672  0.583-  41 3.25  51 3.25  10 3.36  14 3.36  53 3.42  55 3.42
  47  0.558  0.558  0.418-  17 3.24   2 3.42  30 3.42  23 3.42  50 3.42
  48  0.384  0.500  0.500-   8 3.24   4 3.42  22 3.42  25 3.42  40 3.42
  49  0.616  0.500  0.500-   9 3.24   2 3.42  26 3.42  20 3.42  45 3.42
  50  0.500  0.617  0.340-  27 3.25  23 3.25  13 3.36  17 3.36  43 3.42  47 3.42
  51  0.500  0.617  0.660-  41 3.25  46 3.25  14 3.36  18 3.36  53 3.42  54 3.42
  52  0.500  0.500  0.500-
  53  0.442  0.558  0.582-  14 3.24  25 3.42  33 3.42  51 3.42  46 3.42
  54  0.558  0.558  0.582-  18 3.24  31 3.42  20 3.42  51 3.42  41 3.42
  55  0.500  0.616  0.500-  10 3.24  23 3.42  27 3.42  41 3.42  46 3.42
  56  0.328  0.410  0.296-  57 1.13  15 2.37
  57  0.305  0.398  0.269-  56 1.13
 
  LATTYP: Found a simple cubic cell.
 ALAT       =    30.0000000000
  
  Lattice vectors:
  
 A1 = (  30.0000000000,   0.0000000000,   0.0000000000)
 A2 = (   0.0000000000,  30.0000000000,   0.0000000000)
 A3 = (   0.0000000000,   0.0000000000,  30.0000000000)


Analysis of symmetry for initial positions (statically):
=====================================================================
 Subroutine PRICEL returns:
 Original cell was already a primitive cell.
 

 Routine SETGRP: Setting up the symmetry group for a 
 simple cubic supercell.


 Subroutine GETGRP returns: Found  1 space group operations
 (whereof  1 operations were pure point group operations)
 out of a pool of 48 trial point group operations.


The static configuration has the point symmetry C_1 .


Analysis of symmetry for dynamics (positions and initial velocities):
=====================================================================
 Subroutine PRICEL returns:
 Original cell was already a primitive cell.
 

 Routine SETGRP: Setting up the symmetry group for a 
 simple cubic supercell.


 Subroutine GETGRP returns: Found  1 space group operations
 (whereof  1 operations were pure point group operations)
 out of a pool of 48 trial point group operations.


The dynamic configuration has the point symmetry C_1 .


Analysis of constrained symmetry for selective dynamics:
=====================================================================
 Subroutine PRICEL returns:
 Original cell was already a primitive cell.
 

 Routine SETGRP: Setting up the symmetry group for a 
 simple cubic supercell.


 Subroutine GETGRP returns: Found  1 space group operations
 (whereof  1 operations were pure point group operations)
 out of a pool of 48 trial point group operations.


The constrained configuration has the point symmetry C_1 .


 Subroutine INISYM returns: Found  1 space group operations
 (whereof  1 operations are pure point group operations),
 and found     1 'primitive' translations

 
 
 KPOINTS: K-points                                

Automatic generation of k-mesh.
Space group operators:
 irot       det(A)        alpha          n_x          n_y          n_z        tau_x        tau_y        tau_z
    1     1.000000     0.000000     1.000000     0.000000     0.000000     0.000000     0.000000     0.000000
 
 Subroutine IBZKPT returns following result:
 ===========================================
 
 Found      1 irreducible k-points:
 
 Following reciprocal coordinates:
            Coordinates               Weight
  0.000000  0.000000  0.000000      1.000000
 
 Following cartesian coordinates:
            Coordinates               Weight
  0.000000  0.000000  0.000000      1.000000
 


--------------------------------------------------------------------------------------------------------




 Dimension of arrays:
   k-points           NKPTS =      1   k-points in BZ     NKDIM =      1   number of bands    NBANDS=    336
   number of dos      NEDOS =    301   number of ions     NIONS =     57
   non local maximal  LDIM  =      6   non local SUM 2l+1 LMDIM =     18
   total plane-waves  NPLWV = ******
   max r-space proj   IRMAX =   1847   max aug-charges    IRDMAX=   6262
   dimension x,y,z NGX =   150 NGY =  150 NGZ =  150
   dimension x,y,z NGXF=   300 NGYF=  300 NGZF=  300
   support grid    NGXF=   300 NGYF=  300 NGZF=  300
   ions per type =              55   1   1
   NGX,Y,Z   is equivalent  to a cutoff of   8.31,  8.31,  8.31 a.u.
   NGXF,Y,Z  is equivalent  to a cutoff of  16.62, 16.62, 16.62 a.u.

 SYSTEM =  6_Pd100_top_free_z(O)                   
 POSCAR =  Pd55PES                                 

 Startparameter for this run:
   NWRITE =      2    write-flag & timer
   PREC   = normal    normal or accurate (medium, high low for compatibility)
   ISTART =      0    job   : 0-new  1-cont  2-samecut
   ICHARG =      2    charge: 1-file 2-atom 10-const
   ISPIN  =      1    spin polarized calculation?
   LNONCOLLINEAR =      F non collinear calculations
   LSORBIT =      F    spin-orbit coupling
   INIWAV =      1    electr: 0-lowe 1-rand  2-diag
   LASPH  =      F    aspherical Exc in radial PAW
   METAGGA=      F    non-selfconsistent MetaGGA calc.

 Electronic Relaxation 1
   ENCUT  =  400.0 eV  29.40 Ry    5.42 a.u.  48.92 48.92 48.92*2*pi/ulx,y,z
   ENINI  =  400.0     initial cutoff
   ENAUG  =  644.9 eV  augmentation charge cutoff
   NELM   =    100;   NELMIN=  6; NELMDL= -5     # of ELM steps 
   EDIFF  = 0.1E-03   stopping-criterion for ELM
   LREAL  =      T    real-space projection
   NLSPLINE    = F    spline interpolate recip. space projectors
   LCOMPAT=      F    compatible to vasp.4.4
   GGA_COMPAT  = T    GGA compatible to vasp.4.4-vasp.4.6
   LMAXPAW     = -100 max onsite density
   LMAXMIX     =    2 max onsite mixed and CHGCAR
   VOSKOWN=      0    Vosko Wilk Nusair interpolation
   ROPT   =   -0.00050  -0.00050  -0.00050
 Ionic relaxation
   EDIFFG = -.5E-01   stopping-criterion for IOM
   NSW    =      0    number of steps for IOM
   NBLOCK =      1;   KBLOCK =      1    inner block; outer block 
   IBRION =     -1    ionic relax: 0-MD 1-quasi-New 2-CG
   NFREE  =      1    steps in history (QN), initial steepest desc. (CG)
   ISIF   =      2    stress and relaxation
   IWAVPR =     10    prediction:  0-non 1-charg 2-wave 3-comb
   ISYM   =      2    0-nonsym 1-usesym 2-fastsym
   LCORR  =      T    Harris-Foulkes like correction to forces

   POTIM  = 0.5000    time-step for ionic-motion
   TEIN   =    0.0    initial temperature
   TEBEG  =    0.0;   TEEND  =   0.0 temperature during run
   SMASS  =  -3.00    Nose mass-parameter (am)
   estimated Nose-frequenzy (Omega)   =  0.10E-29 period in steps =****** mass=  -0.206E-25a.u.
   SCALEE = 1.0000    scale energy and forces
   NPACO  =    256;   APACO  = 16.0  distance and # of slots for P.C.
   PSTRESS=    0.0 pullay stress

  Mass of Ions in am
   POMASS = 106.42 12.01 16.00
  Ionic Valenz
   ZVAL   =  10.00  4.00  6.00
  Atomic Wigner-Seitz radii
   RWIGS  =  -1.00 -1.00 -1.00
  virtual crystal weights 
   VCA    =   1.00  1.00  1.00
   NELECT =     560.0000    total number of electrons
   NUPDOWN=      -1.0000    fix difference up-down

 DOS related values:
   EMIN   =  10.00;   EMAX   =-10.00  energy-range for DOS
   EFERMI =   0.00
   ISMEAR =     2;   SIGMA  =   0.20  broadening in eV -4-tet -1-fermi 0-gaus

 Electronic relaxation 2 (details)
   IALGO  =     68    algorithm
   LDIAG  =      T    sub-space diagonalisation (order eigenvalues)
   LSUBROT=      F    optimize rotation matrix (better conditioning)
   TURBO    =      0    0=normal 1=particle mesh
   IRESTART =      0    0=no restart 2=restart with 2 vectors
   NREBOOT  =      0    no. of reboots
   NMIN     =      0    reboot dimension
   EREF     =   0.00    reference energy to select bands
   IMIX   =      4    mixing-type and parameters
     AMIX     =   0.40;   BMIX     =  1.00
     AMIX_MAG =   1.60;   BMIX_MAG =  1.00
     AMIN     =   0.10
     WC   =   100.;   INIMIX=   1;  MIXPRE=   1;  MAXMIX= -45

 Intra band minimization:
   WEIMIN = 0.0000     energy-eigenvalue tresh-hold
   EBREAK =  0.74E-07  absolut break condition
   DEPER  =   0.30     relativ break condition  

   TIME   =   0.40     timestep for ELM

  volume/ion in A,a.u.               =     473.68      3196.58
  Fermi-wavevector in a.u.,A,eV,Ry     =   0.449797  0.849992  2.752691  0.202317
  Thomas-Fermi vector in A             =   1.430086
 
 Write flags
   LWAVE        =      F    write WAVECAR
   LDOWNSAMPLE  =      F    k-point downsampling of WAVECAR
   LCHARG       =      F    write CHGCAR
   LVTOT        =      F    write LOCPOT, total local potential
   LVHAR        =      F    write LOCPOT, Hartree potential only
   LELF         =      F    write electronic localiz. function (ELF)
   LORBIT       =      0    0 simple, 1 ext, 2 COOP (PROOUT), +10 PAW based schemes


 Dipole corrections
   LMONO  =      F    monopole corrections only (constant potential shift)
   LDIPOL =      F    correct potential (dipole corrections)
   IDIPOL =      0    1-x, 2-y, 3-z, 4-all directions 
   EPSILON=  1.0000000 bulk dielectric constant

 Exchange correlation treatment:
   GGA     =    RP    GGA type
   LEXCH   =     9    internal setting for exchange type
   VOSKOWN=      0    Vosko Wilk Nusair interpolation
   LHFCALC =     F    Hartree Fock is set to
   LHFONE  =     F    Hartree Fock one center treatment
   AEXX    =    0.0000 exact exchange contribution

 Linear response parameters
   LEPSILON=     F    determine dielectric tensor
   LRPA    =     F    only Hartree local field effects (RPA)
   LNABLA  =     F    use nabla operator in PAW spheres
   LVEL    =     F    velocity operator in full k-point grid
   LINTERFAST=   F  fast interpolation
   KINTER  =     0    interpolate to denser k-point grid
   CSHIFT  =0.1000    complex shift for real part using Kramers Kronig
   OMEGAMAX=  -1.0    maximum frequency
   DEG_THRESHOLD= 0.2000000E-02 threshold for treating states as degnerate
   RTIME   =   -0.100 relaxation time in fs
  (WPLASMAI=    0.000 imaginary part of plasma frequency in eV, 0.658/RTIME)
   DFIELD  = 0.0000000 0.0000000 0.0000000 field for delta impulse in time
 
 Orbital magnetization related:
   ORBITALMAG=     F  switch on orbital magnetization
   LCHIMAG   =     F  perturbation theory with respect to B field
   DQ        =  0.001000  dq finite difference perturbation B field
   LLRAUG    =     F  two centre corrections for induced B field



--------------------------------------------------------------------------------------------------------


 Static calculation
 charge density and potential will be updated during run
 non-spin polarized calculation
 RMM-DIIS sequential band-by-band and
  variant of blocked Davidson during initial phase
 perform sub-space diagonalisation
    before iterative eigenvector-optimisation
 modified Broyden-mixing scheme, WC =      100.0
 initial mixing is a Kerker type mixing with AMIX =  0.4000 and BMIX =      1.0000
 Hartree-type preconditioning will be used
 using additional bands           56
 real space projection scheme for non local part
 use partial core corrections
 calculate Harris-corrections to forces 
   (improved forces if not selfconsistent)
 use gradient corrections 
 use of overlap-Matrix (Vanderbilt PP)
 Methfessel and Paxton  Order N= 2 SIGMA  =   0.20


--------------------------------------------------------------------------------------------------------


  energy-cutoff  :      400.00
  volume of cell :    27000.00
      direct lattice vectors                 reciprocal lattice vectors
    30.000000000  0.000000000  0.000000000     0.033333333  0.000000000  0.000000000
     0.000000000 30.000000000  0.000000000     0.000000000  0.033333333  0.000000000
     0.000000000  0.000000000 30.000000000     0.000000000  0.000000000  0.033333333

  length of vectors
    30.000000000 30.000000000 30.000000000     0.033333333  0.033333333  0.033333333


 
 k-points in units of 2pi/SCALE and weight: K-points                                
   0.00000000  0.00000000  0.00000000       1.000
 
 k-points in reciprocal lattice and weights: K-points                                
   0.00000000  0.00000000  0.00000000       1.000
 
 position of ions in fractional coordinates (direct lattice) 
   0.44576020  0.32826710  0.41691983
   0.67173288  0.55423978  0.41691983
   0.55423980  0.32826710  0.41691983
   0.32826712  0.55423978  0.41691983
   0.50000000  0.38250690  0.34021317
   0.50000000  0.38250690  0.65978680
   0.50000000  0.27609440  0.50000000
   0.27609443  0.49999998  0.50000000
   0.72390557  0.49999998  0.50000000
   0.50000000  0.72390555  0.50000000
   0.61195280  0.38804720  0.34167483
   0.61195280  0.38804720  0.65832513
   0.38804722  0.61195278  0.34167483
   0.38804722  0.61195278  0.65832513
   0.38804720  0.38804720  0.34167483
   0.38804720  0.38804720  0.65832513
   0.61195278  0.61195278  0.34167483
   0.61195278  0.61195278  0.65832513
   0.44576020  0.32826710  0.58308023
   0.67173288  0.55423978  0.58308023
   0.55791699  0.44208301  0.41809300
   0.32826705  0.44576024  0.41691983
   0.55423973  0.67173293  0.41691983
   0.55423980  0.32826710  0.58308023
   0.32826712  0.55423978  0.58308023
   0.67173295  0.44576024  0.41691983
   0.44576027  0.67173293  0.41691983
   0.44208301  0.44208301  0.41809300
   0.50000000  0.38416601  0.50000000
   0.61749315  0.50000005  0.34021317
   0.61749315  0.50000005  0.65978680
   0.38250685  0.50000005  0.34021317
   0.38250685  0.50000005  0.65978680
   0.38317830  0.38317830  0.50000000
   0.61682172  0.61682172  0.50000000
   0.61682170  0.38317830  0.50000000
   0.38317828  0.61682172  0.50000000
   0.50000000  0.50000000  0.33478917
   0.50000000  0.50000000  0.66521087
   0.32826705  0.44576024  0.58308023
   0.55423973  0.67173293  0.58308023
   0.55791699  0.44208301  0.58190703
   0.44208298  0.55791702  0.41809300
   0.44208301  0.44208301  0.58190703
   0.67173295  0.44576024  0.58308023
   0.44576027  0.67173293  0.58308023
   0.55791702  0.55791702  0.41809300
   0.38416599  0.50000002  0.50000000
   0.61583401  0.50000002  0.50000000
   0.50000000  0.61749319  0.34021317
   0.50000000  0.61749319  0.65978680
   0.50000000  0.50000000  0.50000000
   0.44208298  0.55791702  0.58190703
   0.55791702  0.55791702  0.58190703
   0.50000000  0.61583404  0.50000000
   0.32785207  0.41029433  0.29588710
   0.30487300  0.39832003  0.26864120
 
 position of ions in cartesian coordinates  (Angst):
  13.37280588  9.84801292 12.50759500
  20.15198637 16.62719342 12.50759500
  16.62719412  9.84801292 12.50759500
   9.84801363 16.62719342 12.50759500
  15.00000000 11.47520705 10.20639500
  15.00000000 11.47520705 19.79360400
  15.00000000  8.28283206 15.00000000
   8.28283277 14.99999929 15.00000000
  21.71716723 14.99999929 15.00000000
  15.00000000 21.71716652 14.99999999
  18.35858397 11.64141603 10.25024500
  18.35858397 11.64141603 19.74975399
  11.64141674 18.35858326 10.25024500
  11.64141674 18.35858326 19.74975400
  11.64141603 11.64141603 10.25024500
  11.64141603 11.64141603 19.74975400
  18.35858326 18.35858326 10.25024500
  18.35858326 18.35858326 19.74975400
  13.37280588  9.84801291 17.49240700
  20.15198638 16.62719341 17.49240700
  16.73750985 13.26249015 12.54279000
   9.84801151 13.37280729 12.50759500
  16.62719200 20.15198779 12.50759500
  16.62719412  9.84801292 17.49240700
   9.84801363 16.62719342 17.49240700
  20.15198849 13.37280729 12.50759500
  13.37280800 20.15198779 12.50759500
  13.26249015 13.26249015 12.54279000
  15.00000000 11.52498029 15.00000000
  18.52479437 15.00000140 10.20639500
  18.52479437 15.00000141 19.79360400
  11.47520562 15.00000141 10.20639501
  11.47520563 15.00000141 19.79360400
  11.49534898 11.49534898 15.00000000
  18.50465172 18.50465172 15.00000000
  18.50465102 11.49534898 15.00000000
  11.49534828 18.50465172 15.00000000
  15.00000000 15.00000000 10.04367500
  15.00000000 15.00000000 19.95632599
   9.84801151 13.37280729 17.49240700
  16.62719200 20.15198779 17.49240700
  16.73750985 13.26249015 17.45721100
  13.26248944 16.73751056 12.54279001
  13.26249015 13.26249015 17.45721100
  20.15198849 13.37280729 17.49240699
  13.37280800 20.15198779 17.49240700
  16.73751056 16.73751056 12.54279000
  11.52497959 15.00000071 15.00000000
  18.47502041 15.00000071 15.00000000
  14.99999999 18.52479579 10.20639500
  15.00000000 18.52479578 19.79360400
  15.00000000 15.00000000 15.00000000
  13.26248944 16.73751057 17.45721101
  16.73751056 16.73751057 17.45721100
  15.00000000 18.47502112 15.00000000
   9.83556200 12.30883000  8.87661300
   9.14619000 11.94960100  8.05923600
 


--------------------------------------------------------------------------------------------------------


 k-point  1 :   0.0000 0.0000 0.0000  plane waves:  490521

 maximum and minimum number of plane-waves per node :    490521   490521

 maximum number of plane-waves:    490521
 maximum index in each direction: 
   IXMAX=   48   IYMAX=   48   IZMAX=   48
   IXMIN=  -48   IYMIN=  -48   IZMIN=  -48


 serial   3D FFT for wavefunctions
 parallel 3D FFT for charge:
    minimum data exchange during FFTs selected (reduces bandwidth)


 total amount of memory used by VASP MPI-rank0  5486941. kBytes
=======================================================================

   base      :      30000. kBytes
   nonlr-proj:      17126. kBytes
   fftplans  :     924480. kBytes
   grid      :    1872000. kBytes
   one-center:        886. kBytes
   wavefun   :    2642449. kBytes
 
     INWAV:  cpu time    0.0001: real time    0.0005
 Broyden mixing: mesh for mixing (old mesh)
   NGX = 97   NGY = 97   NGZ = 97
  (NGX  =300   NGY  =300   NGZ  =300)
  gives a total of 912673 points

 initial charge density was supplied:
 charge density of overlapping atoms calculated
 number of electron     560.0000000 magnetization 
 keeping initial charge density in first step


--------------------------------------------------------------------------------------------------------


 Maximum index for non-local projection operator         1763
 Maximum index for augmentation-charges         5898 (set IRDMAX)


--------------------------------------------------------------------------------------------------------


 First call to EWALD:  gamma=   0.059
 Maximum number of real-space cells 3x 3x 3
 Maximum number of reciprocal cells 3x 3x 3

    FEWALD:  cpu time    0.0151: real time    0.0151


--------------------------------------- Iteration      1(   1)  ---------------------------------------


    POTLOK:  cpu time   14.3198: real time   14.3244
    SETDIJ:  cpu time    0.1153: real time    0.1153
     EDDAV:  cpu time  368.2578: real time  368.3184
       DOS:  cpu time    0.0013: real time    0.0013
    --------------------------------------------
      LOOP:  cpu time  382.6943: real time  382.7594

 eigenvalue-minimisations  :   688
 total energy-change (2. order) : 0.4382820E+04  (-0.1004997E+05)
 number of electron     560.0000000 magnetization 
 augmentation part      560.0000000 magnetization 

 Free energy of the ion-electron system (eV)
  ---------------------------------------------------
  alpha Z        PSCENC =        75.25431677
  Ewald energy   TEWEN  =    137334.74833995
  -Hartree energ DENC   =   -180701.09791548
  -exchange      EXHF   =         0.00000000
  -V(xc)+E(xc)   XCENC  =     -1703.71296135
  PAW double counting   =     44873.02882129   -41398.84523641
  entropy T*S    EENTRO =         0.00804124
  eigenvalues    EBANDS =       816.93144679
  atomic energy  EATOM  =     45086.50549395
  Solvation  Ediel_sol  =         0.00000000
  ---------------------------------------------------
  free energy    TOTEN  =      4382.82034676 eV

  energy without entropy =     4382.81230552  energy(sigma->0) =     4382.81833645


--------------------------------------------------------------------------------------------------------




--------------------------------------- Iteration      1(   2)  ---------------------------------------


     EDDAV:  cpu time  590.2527: real time  590.2668
       DOS:  cpu time    0.0013: real time    0.0013
    --------------------------------------------
      LOOP:  cpu time  590.2540: real time  590.2681

 eigenvalue-minimisations  :  1224
 total energy-change (2. order) :-0.2373111E+04  (-0.2135024E+04)
 number of electron     560.0000000 magnetization 
 augmentation part      560.0000000 magnetization 

 Free energy of the ion-electron system (eV)
  ---------------------------------------------------
  alpha Z        PSCENC =        75.25431677
  Ewald energy   TEWEN  =    137334.74833995
  -Hartree energ DENC   =   -180701.09791548
  -exchange      EXHF   =         0.00000000
  -V(xc)+E(xc)   XCENC  =     -1703.71296135
  PAW double counting   =     44873.02882129   -41398.84523641
  entropy T*S    EENTRO =        -0.00181838
  eigenvalues    EBANDS =     -1556.16950915
  atomic energy  EATOM  =     45086.50549395
  Solvation  Ediel_sol  =         0.00000000
  ---------------------------------------------------
  free energy    TOTEN  =      2009.70953119 eV

  energy without entropy =     2009.71134958  energy(sigma->0) =     2009.70998579


--------------------------------------------------------------------------------------------------------




--------------------------------------- Iteration      1(   3)  ---------------------------------------


     EDDAV:  cpu time  503.9446: real time  503.9469
       DOS:  cpu time    0.0012: real time    0.0012
    --------------------------------------------
      LOOP:  cpu time  503.9457: real time  503.9481

 eigenvalue-minimisations  :  1016
 total energy-change (2. order) :-0.1781384E+04  (-0.1678386E+04)
 number of electron     560.0000000 magnetization 
 augmentation part      560.0000000 magnetization 

 Free energy of the ion-electron system (eV)
  ---------------------------------------------------
  alpha Z        PSCENC =        75.25431677
  Ewald energy   TEWEN  =    137334.74833995
  -Hartree energ DENC   =   -180701.09791548
  -exchange      EXHF   =         0.00000000
  -V(xc)+E(xc)   XCENC  =     -1703.71296135
  PAW double counting   =     44873.02882129   -41398.84523641
  entropy T*S    EENTRO =         0.03956318
  eigenvalues    EBANDS =     -3337.59483871
  atomic energy  EATOM  =     45086.50549395
  Solvation  Ediel_sol  =         0.00000000
  ---------------------------------------------------
  free energy    TOTEN  =       228.32558320 eV

  energy without entropy =      228.28602001  energy(sigma->0) =      228.31569240


--------------------------------------------------------------------------------------------------------




--------------------------------------- Iteration      1(   4)  ---------------------------------------


     EDDAV:  cpu time  425.2154: real time  425.2186
       DOS:  cpu time    0.0011: real time    0.0011
    --------------------------------------------
      LOOP:  cpu time  425.2165: real time  425.2198

 eigenvalue-minimisations  :   832
 total energy-change (2. order) :-0.3633922E+03  (-0.3082413E+03)
 number of electron     560.0000000 magnetization 
 augmentation part      560.0000000 magnetization 

 Free energy of the ion-electron system (eV)
  ---------------------------------------------------
  alpha Z        PSCENC =        75.25431677
  Ewald energy   TEWEN  =    137334.74833995
  -Hartree energ DENC   =   -180701.09791548
  -exchange      EXHF   =         0.00000000
  -V(xc)+E(xc)   XCENC  =     -1703.71296135
  PAW double counting   =     44873.02882129   -41398.84523641
  entropy T*S    EENTRO =        -0.01336756
  eigenvalues    EBANDS =     -3700.93411233
  atomic energy  EATOM  =     45086.50549395
  Solvation  Ediel_sol  =         0.00000000
  ---------------------------------------------------
  free energy    TOTEN  =      -135.06662117 eV

  energy without entropy =     -135.05325361  energy(sigma->0) =     -135.06327928


--------------------------------------------------------------------------------------------------------




--------------------------------------- Iteration      1(   5)  ---------------------------------------


     EDDAV:  cpu time  513.7393: real time  513.7421
       DOS:  cpu time    0.0014: real time    0.0014
    CHARGE:  cpu time   25.7539: real time   25.7537
    MIXING:  cpu time    0.4337: real time    0.4337
    --------------------------------------------
      LOOP:  cpu time  539.9283: real time  539.9309

 eigenvalue-minimisations  :  1048
 total energy-change (2. order) :-0.4386426E+02  (-0.3662896E+02)
 number of electron     559.9999815 magnetization 
 augmentation part      245.2206838 magnetization 

 Broyden mixing:
  rms(total) = 0.13779E+01    rms(broyden)= 0.13770E+01
  rms(prec ) = 0.14818E+01
  weight for this iteration     100.00

 Free energy of the ion-electron system (eV)
  ---------------------------------------------------
  alpha Z        PSCENC =        75.25431677
  Ewald energy   TEWEN  =    137334.74833995
  -Hartree energ DENC   =   -180701.09791548
  -exchange      EXHF   =         0.00000000
  -V(xc)+E(xc)   XCENC  =     -1703.71296135
  PAW double counting   =     44873.02882129   -41398.84523641
  entropy T*S    EENTRO =         0.51479022
  eigenvalues    EBANDS =     -3745.32653125
  atomic energy  EATOM  =     45086.50549395
  Solvation  Ediel_sol  =         0.00000000
  ---------------------------------------------------
  free energy    TOTEN  =      -178.93088230 eV

  energy without entropy =     -179.44567252  energy(sigma->0) =     -179.05957985


--------------------------------------------------------------------------------------------------------




--------------------------------------- Iteration      1(   6)  ---------------------------------------


    POTLOK:  cpu time   13.5557: real time   13.5586
    SETDIJ:  cpu time    0.1224: real time    0.1224
    EDDIAG:  cpu time   68.9096: real time   68.9094
  RMM-DIIS:  cpu time  188.6328: real time  188.6331
    ORTHCH:  cpu time   13.5832: real time   13.5830
       DOS:  cpu time    0.0014: real time    0.0014
    CHARGE:  cpu time   25.2614: real time   25.2611
    MIXING:  cpu time    0.4626: real time    0.4626
    --------------------------------------------
      LOOP:  cpu time  310.5291: real time  310.5316

 eigenvalue-minimisations  :   727
 total energy-change (2. order) : 0.9928060E+00  (-0.4869503E+01)
 number of electron     559.9999844 magnetization 
 augmentation part      240.7913738 magnetization 

 Broyden mixing:
  rms(total) = 0.19433E+01    rms(broyden)= 0.19432E+01
  rms(prec ) = 0.22483E+01
  weight for this iteration     100.00

 eigenvalues of (default mixing * dielectric matrix)
  average eigenvalue GAMMA=   0.3674
  0.3674

 Free energy of the ion-electron system (eV)
  ---------------------------------------------------
  alpha Z        PSCENC =        75.25431677
  Ewald energy   TEWEN  =    137334.74833995
  -Hartree energ DENC   =   -181113.11396519
  -exchange      EXHF   =         0.00000000
  -V(xc)+E(xc)   XCENC  =     -1697.45354025
  PAW double counting   =     45619.43554897   -42118.10957527
  entropy T*S    EENTRO =        -0.15268296
  eigenvalues    EBANDS =     -3365.05201226
  atomic energy  EATOM  =     45086.50549395
  Solvation  Ediel_sol  =         0.00000000
  ---------------------------------------------------
  free energy    TOTEN  =      -177.93807629 eV

  energy without entropy =     -177.78539334  energy(sigma->0) =     -177.89990555


--------------------------------------------------------------------------------------------------------




--------------------------------------- Iteration      1(   7)  ---------------------------------------


    POTLOK:  cpu time   13.2819: real time   13.2850
    SETDIJ:  cpu time    0.1229: real time    0.1229
    EDDIAG:  cpu time   67.1197: real time   67.1197
  RMM-DIIS:  cpu time  217.8073: real time  217.8267
    ORTHCH:  cpu time   13.4534: real time   13.4547
       DOS:  cpu time    0.0014: real time    0.0014
    CHARGE:  cpu time   24.3582: real time   24.3617
    MIXING:  cpu time    0.4744: real time    0.4745
    --------------------------------------------
      LOOP:  cpu time  336.6194: real time  336.6467

 eigenvalue-minimisations  :   843
 total energy-change (2. order) :-0.3449022E+01  (-0.1770319E+01)
 number of electron     559.9999795 magnetization 
 augmentation part      240.3607088 magnetization 

 Broyden mixing:
  rms(total) = 0.23148E+01    rms(broyden)= 0.23145E+01
  rms(prec ) = 0.28481E+01
  weight for this iteration     100.00

 eigenvalues of (default mixing * dielectric matrix)
  average eigenvalue GAMMA=   0.3295
  0.5199  0.1390

 Free energy of the ion-electron system (eV)
  ---------------------------------------------------
  alpha Z        PSCENC =        75.25431677
  Ewald energy   TEWEN  =    137334.74833995
  -Hartree energ DENC   =   -181205.13902384
  -exchange      EXHF   =         0.00000000
  -V(xc)+E(xc)   XCENC  =     -1697.58095611
  PAW double counting   =     45688.01426582   -42183.58916422
  entropy T*S    EENTRO =        -0.13739783
  eigenvalues    EBANDS =     -3279.46297265
  atomic energy  EATOM  =     45086.50549395
  Solvation  Ediel_sol  =         0.00000000
  ---------------------------------------------------
  free energy    TOTEN  =      -181.38709814 eV

  energy without entropy =     -181.24970031  energy(sigma->0) =     -181.35274868


--------------------------------------------------------------------------------------------------------




--------------------------------------- Iteration      1(   8)  ---------------------------------------


    POTLOK:  cpu time   12.8082: real time   12.8112
    SETDIJ:  cpu time    0.1182: real time    0.1182
    EDDIAG:  cpu time   66.1243: real time   66.1326
  RMM-DIIS:  cpu time  194.9571: real time  194.9809
    ORTHCH:  cpu time   13.1219: real time   13.1241
       DOS:  cpu time    0.0014: real time    0.0014
    CHARGE:  cpu time   24.6721: real time   24.6744
    MIXING:  cpu time    0.5044: real time    0.5044
    --------------------------------------------
      LOOP:  cpu time  312.3077: real time  312.3472

 eigenvalue-minimisations  :   779
 total energy-change (2. order) :-0.1953082E+01  (-0.5748846E+00)
 number of electron     559.9999814 magnetization 
 augmentation part      240.1052478 magnetization 

 Broyden mixing:
  rms(total) = 0.26468E+01    rms(broyden)= 0.26465E+01
  rms(prec ) = 0.31352E+01
  weight for this iteration     100.00

 eigenvalues of (default mixing * dielectric matrix)
  average eigenvalue GAMMA=   0.3254
  0.7172  0.1437  0.1152

 Free energy of the ion-electron system (eV)
  ---------------------------------------------------
  alpha Z        PSCENC =        75.25431677
  Ewald energy   TEWEN  =    137334.74833995
  -Hartree energ DENC   =   -181239.90215164
  -exchange      EXHF   =         0.00000000
  -V(xc)+E(xc)   XCENC  =     -1697.55333913
  PAW double counting   =     45740.10046823   -42233.27775239
  entropy T*S    EENTRO =        -0.06719867
  eigenvalues    EBANDS =     -3249.14835771
  atomic energy  EATOM  =     45086.50549395
  Solvation  Ediel_sol  =         0.00000000
  ---------------------------------------------------
  free energy    TOTEN  =      -183.34018063 eV

  energy without entropy =     -183.27298196  energy(sigma->0) =     -183.32338096


--------------------------------------------------------------------------------------------------------




--------------------------------------- Iteration      1(   9)  ---------------------------------------


    POTLOK:  cpu time   12.9645: real time   12.9686
    SETDIJ:  cpu time    0.1233: real time    0.1232
    EDDIAG:  cpu time   66.8467: real time   66.8522
  RMM-DIIS:  cpu time  182.9509: real time  182.9677
    ORTHCH:  cpu time   13.4589: real time   13.4593
       DOS:  cpu time    0.0014: real time    0.0014
    CHARGE:  cpu time   24.1538: real time   24.1545
    MIXING:  cpu time    0.5260: real time    0.5260
    --------------------------------------------
      LOOP:  cpu time  301.0255: real time  301.0530

 eigenvalue-minimisations  :   732
 total energy-change (2. order) : 0.8320664E+00  (-0.4993915E+00)
 number of electron     559.9999816 magnetization 
 augmentation part      240.8507941 magnetization 

 Broyden mixing:
  rms(total) = 0.27945E+01    rms(broyden)= 0.27941E+01
  rms(prec ) = 0.31944E+01
  weight for this iteration     100.00

 eigenvalues of (default mixing * dielectric matrix)
  average eigenvalue GAMMA=   0.2980
  0.8179  0.1356  0.1356  0.1029

 Free energy of the ion-electron system (eV)
  ---------------------------------------------------
  alpha Z        PSCENC =        75.25431677
  Ewald energy   TEWEN  =    137334.74833995
  -Hartree energ DENC   =   -181258.42772209
  -exchange      EXHF   =         0.00000000
  -V(xc)+E(xc)   XCENC  =     -1697.50110855
  PAW double counting   =     45802.44892742   -42292.76173147
  entropy T*S    EENTRO =        -0.21283792
  eigenvalues    EBANDS =     -3232.56179226
  atomic energy  EATOM  =     45086.50549395
  Solvation  Ediel_sol  =         0.00000000
  ---------------------------------------------------
  free energy    TOTEN  =      -182.50811419 eV

  energy without entropy =     -182.29527627  energy(sigma->0) =     -182.45490471


--------------------------------------------------------------------------------------------------------




--------------------------------------- Iteration      1(  10)  ---------------------------------------


    POTLOK:  cpu time   12.9855: real time   12.9900
    SETDIJ:  cpu time    0.1233: real time    0.1233
    EDDIAG:  cpu time   65.5871: real time   65.5934
  RMM-DIIS:  cpu time  180.5765: real time  180.5909
    ORTHCH:  cpu time   12.6767: real time   12.6779
       DOS:  cpu time    0.0014: real time    0.0014
    CHARGE:  cpu time   23.6655: real time   23.6678
    MIXING:  cpu time    0.5466: real time    0.5466
    --------------------------------------------
      LOOP:  cpu time  296.1627: real time  296.1914

 eigenvalue-minimisations  :   736
 total energy-change (2. order) : 0.3398544E+01  (-0.2873132E+00)
 number of electron     559.9999805 magnetization 
 augmentation part      241.3422843 magnetization 

 Broyden mixing:
  rms(total) = 0.20680E+01    rms(broyden)= 0.20676E+01
  rms(prec ) = 0.23854E+01
  weight for this iteration     100.00

 eigenvalues of (default mixing * dielectric matrix)
  average eigenvalue GAMMA=   0.2758
  0.8785  0.1526  0.1526  0.1168  0.0784

 Free energy of the ion-electron system (eV)
  ---------------------------------------------------
  alpha Z        PSCENC =        75.25431677
  Ewald energy   TEWEN  =    137334.74833995
  -Hartree energ DENC   =   -181287.85586136
  -exchange      EXHF   =         0.00000000
  -V(xc)+E(xc)   XCENC  =     -1697.38071193
  PAW double counting   =     45842.67305524   -42331.31233144
  entropy T*S    EENTRO =        -0.08564769
  eigenvalues    EBANDS =     -3201.65622418
  atomic energy  EATOM  =     45086.50549395
  Solvation  Ediel_sol  =         0.00000000
  ---------------------------------------------------
  free energy    TOTEN  =      -179.10957069 eV

  energy without entropy =     -179.02392299  energy(sigma->0) =     -179.08815876


--------------------------------------------------------------------------------------------------------




--------------------------------------- Iteration      1(  11)  ---------------------------------------


    POTLOK:  cpu time   12.3046: real time   12.3097
    SETDIJ:  cpu time    0.1164: real time    0.1165
    EDDIAG:  cpu time   64.8242: real time   64.8291
  RMM-DIIS:  cpu time  177.5139: real time  177.5151
    ORTHCH:  cpu time   12.8694: real time   12.8694
       DOS:  cpu time    0.0015: real time    0.0015
    CHARGE:  cpu time   24.1530: real time   24.1532
    MIXING:  cpu time    0.5807: real time    0.5807
    --------------------------------------------
      LOOP:  cpu time  292.3637: real time  292.3751

 eigenvalue-minimisations  :   727
 total energy-change (2. order) : 0.1814496E+01  (-0.1653222E+00)
 number of electron     559.9999818 magnetization 
 augmentation part      241.5915850 magnetization 

 Broyden mixing:
  rms(total) = 0.17862E+01    rms(broyden)= 0.17859E+01
  rms(prec ) = 0.21324E+01
  weight for this iteration     100.00

 eigenvalues of (default mixing * dielectric matrix)
  average eigenvalue GAMMA=   0.2539
  0.9077  0.1706  0.1706  0.1036  0.1036  0.0675

 Free energy of the ion-electron system (eV)
  ---------------------------------------------------
  alpha Z        PSCENC =        75.25431677
  Ewald energy   TEWEN  =    137334.74833995
  -Hartree energ DENC   =   -181303.58924869
  -exchange      EXHF   =         0.00000000
  -V(xc)+E(xc)   XCENC  =     -1697.24135313
  PAW double counting   =     45871.94277752   -42359.17137607
  entropy T*S    EENTRO =        -0.06581762
  eigenvalues    EBANDS =     -3185.67820785
  atomic energy  EATOM  =     45086.50549395
  Solvation  Ediel_sol  =         0.00000000
  ---------------------------------------------------
  free energy    TOTEN  =      -177.29507517 eV

  energy without entropy =     -177.22925755  energy(sigma->0) =     -177.27862076


--------------------------------------------------------------------------------------------------------




--------------------------------------- Iteration      1(  12)  ---------------------------------------


    POTLOK:  cpu time   12.4105: real time   12.4131
    SETDIJ:  cpu time    0.1163: real time    0.1163
    EDDIAG:  cpu time   65.1346: real time   65.1365
  RMM-DIIS:  cpu time  177.0613: real time  177.0650
    ORTHCH:  cpu time   12.8632: real time   12.8634
       DOS:  cpu time    0.0014: real time    0.0014
    CHARGE:  cpu time   23.8900: real time   23.8901
    MIXING:  cpu time    0.6096: real time    0.6096
    --------------------------------------------
      LOOP:  cpu time  292.0870: real time  292.0953

 eigenvalue-minimisations  :   727
 total energy-change (2. order) : 0.8479190E+00  (-0.7798485E-01)
 number of electron     559.9999820 magnetization 
 augmentation part      241.6590995 magnetization 

 Broyden mixing:
  rms(total) = 0.14692E+01    rms(broyden)= 0.14689E+01
  rms(prec ) = 0.17600E+01
  weight for this iteration     100.00

 eigenvalues of (default mixing * dielectric matrix)
  average eigenvalue GAMMA=   0.2460
  0.9408  0.2085  0.2085  0.1185  0.1185  0.0731  0.0538

 Free energy of the ion-electron system (eV)
  ---------------------------------------------------
  alpha Z        PSCENC =        75.25431677
  Ewald energy   TEWEN  =    137334.74833995
  -Hartree energ DENC   =   -181316.29435447
  -exchange      EXHF   =         0.00000000
  -V(xc)+E(xc)   XCENC  =     -1697.10352254
  PAW double counting   =     45889.83408773   -42376.15938573
  entropy T*S    EENTRO =        -0.12533746
  eigenvalues    EBANDS =     -3173.10679435
  atomic energy  EATOM  =     45086.50549395
  Solvation  Ediel_sol  =         0.00000000
  ---------------------------------------------------
  free energy    TOTEN  =      -176.44715615 eV

  energy without entropy =     -176.32181868  energy(sigma->0) =     -176.41582178


--------------------------------------------------------------------------------------------------------




--------------------------------------- Iteration      1(  13)  ---------------------------------------


    POTLOK:  cpu time   12.3051: real time   12.3059
    SETDIJ:  cpu time    0.1153: real time    0.1153
    EDDIAG:  cpu time   64.4102: real time   64.4106
  RMM-DIIS:  cpu time  176.1190: real time  176.1210
    ORTHCH:  cpu time   12.8434: real time   12.8434
       DOS:  cpu time    0.0015: real time    0.0015
    CHARGE:  cpu time   23.7146: real time   23.7146
    MIXING:  cpu time    0.6445: real time    0.6445
    --------------------------------------------
      LOOP:  cpu time  290.1533: real time  290.1566

 eigenvalue-minimisations  :   725
 total energy-change (2. order) : 0.8018969E+00  (-0.7681327E-01)
 number of electron     559.9999818 magnetization 
 augmentation part      241.7365589 magnetization 

 Broyden mixing:
  rms(total) = 0.10652E+01    rms(broyden)= 0.10649E+01
  rms(prec ) = 0.12068E+01
  weight for this iteration     100.00

 eigenvalues of (default mixing * dielectric matrix)
  average eigenvalue GAMMA=   0.2624
  1.0340  0.2948  0.2948  0.1243  0.1243  0.0942  0.0822  0.0502

 Free energy of the ion-electron system (eV)
  ---------------------------------------------------
  alpha Z        PSCENC =        75.25431677
  Ewald energy   TEWEN  =    137334.74833995
  -Hartree energ DENC   =   -181331.56806655
  -exchange      EXHF   =         0.00000000
  -V(xc)+E(xc)   XCENC  =     -1696.88814300
  PAW double counting   =     45913.06509929   -42398.14836938
  entropy T*S    EENTRO =        -0.14660146
  eigenvalues    EBANDS =     -3158.46732880
  atomic energy  EATOM  =     45086.50549395
  Solvation  Ediel_sol  =         0.00000000
  ---------------------------------------------------
  free energy    TOTEN  =      -175.64525922 eV

  energy without entropy =     -175.49865776  energy(sigma->0) =     -175.60860886


--------------------------------------------------------------------------------------------------------




--------------------------------------- Iteration      1(  14)  ---------------------------------------


    POTLOK:  cpu time   12.3696: real time   12.3724
    SETDIJ:  cpu time    0.1158: real time    0.1158
    EDDIAG:  cpu time   64.7057: real time   64.7061
  RMM-DIIS:  cpu time  173.8310: real time  173.8338
    ORTHCH:  cpu time   12.7587: real time   12.7587
       DOS:  cpu time    0.0015: real time    0.0015
    CHARGE:  cpu time   23.7473: real time   23.7473
    MIXING:  cpu time    0.6709: real time    0.6709
    --------------------------------------------
      LOOP:  cpu time  288.2005: real time  288.2064

 eigenvalue-minimisations  :   715
 total energy-change (2. order) :-0.1486571E+00  (-0.1036330E+00)
 number of electron     559.9999812 magnetization 
 augmentation part      241.5603128 magnetization 

 Broyden mixing:
  rms(total) = 0.14896E+01    rms(broyden)= 0.14893E+01
  rms(prec ) = 0.17141E+01
  weight for this iteration     100.00

 eigenvalues of (default mixing * dielectric matrix)
  average eigenvalue GAMMA=   0.2825
  1.1584  0.5312  0.2634  0.1398  0.1398  0.0939  0.0939  0.0707  0.0512

 Free energy of the ion-electron system (eV)
  ---------------------------------------------------
  alpha Z        PSCENC =        75.25431677
  Ewald energy   TEWEN  =    137334.74833995
  -Hartree energ DENC   =   -181368.55193669
  -exchange      EXHF   =         0.00000000
  -V(xc)+E(xc)   XCENC  =     -1696.36455064
  PAW double counting   =     45964.38704012   -42446.63484706
  entropy T*S    EENTRO =        -0.07263685
  eigenvalues    EBANDS =     -3125.06513587
  atomic energy  EATOM  =     45086.50549395
  Solvation  Ediel_sol  =         0.00000000
  ---------------------------------------------------
  free energy    TOTEN  =      -175.79391631 eV

  energy without entropy =     -175.72127946  energy(sigma->0) =     -175.77575710


--------------------------------------------------------------------------------------------------------




--------------------------------------- Iteration      1(  15)  ---------------------------------------


    POTLOK:  cpu time   12.1807: real time   12.1839
    SETDIJ:  cpu time    0.1170: real time    0.1170
    EDDIAG:  cpu time   64.7043: real time   64.7052
  RMM-DIIS:  cpu time  171.8983: real time  171.9002
    ORTHCH:  cpu time   12.6931: real time   12.6931
       DOS:  cpu time    0.0014: real time    0.0014
    CHARGE:  cpu time   23.2925: real time   23.2926
    MIXING:  cpu time    0.7005: real time    0.7005
    --------------------------------------------
      LOOP:  cpu time  285.5879: real time  285.5938

 eigenvalue-minimisations  :   711
 total energy-change (2. order) : 0.1399260E+00  (-0.1012730E+00)
 number of electron     559.9999813 magnetization 
 augmentation part      241.1571755 magnetization 

 Broyden mixing:
  rms(total) = 0.12948E+01    rms(broyden)= 0.12945E+01
  rms(prec ) = 0.14880E+01
  weight for this iteration     100.00

 eigenvalues of (default mixing * dielectric matrix)
  average eigenvalue GAMMA=   0.3040
  1.3650  0.7298  0.1983  0.1692  0.1692  0.1062  0.1062  0.0728  0.0728  0.0507

 Free energy of the ion-electron system (eV)
  ---------------------------------------------------
  alpha Z        PSCENC =        75.25431677
  Ewald energy   TEWEN  =    137334.74833995
  -Hartree energ DENC   =   -181416.67455322
  -exchange      EXHF   =         0.00000000
  -V(xc)+E(xc)   XCENC  =     -1695.68638927
  PAW double counting   =     46023.17107482   -42502.06574710
  entropy T*S    EENTRO =        -0.12384213
  eigenvalues    EBANDS =     -3080.78268413
  atomic energy  EATOM  =     45086.50549395
  Solvation  Ediel_sol  =         0.00000000
  ---------------------------------------------------
  free energy    TOTEN  =      -175.65399035 eV

  energy without entropy =     -175.53014822  energy(sigma->0) =     -175.62302982


--------------------------------------------------------------------------------------------------------




--------------------------------------- Iteration      1(  16)  ---------------------------------------


    POTLOK:  cpu time   11.5844: real time   11.5850
    SETDIJ:  cpu time    0.1145: real time    0.1145
    EDDIAG:  cpu time   63.4224: real time   63.4237
  RMM-DIIS:  cpu time  170.2749: real time  170.2783
    ORTHCH:  cpu time   12.4935: real time   12.4935
       DOS:  cpu time    0.0015: real time    0.0014
    CHARGE:  cpu time   23.3697: real time   23.3697
    MIXING:  cpu time    0.7491: real time    0.7491
    --------------------------------------------
      LOOP:  cpu time  282.0100: real time  282.0153

 eigenvalue-minimisations  :   717
 total energy-change (2. order) :-0.1787019E+00  (-0.8682678E-01)
 number of electron     559.9999803 magnetization 
 augmentation part      240.9225796 magnetization 

 Broyden mixing:
  rms(total) = 0.15896E+01    rms(broyden)= 0.15894E+01
  rms(prec ) = 0.19395E+01
  weight for this iteration     100.00

 eigenvalues of (default mixing * dielectric matrix)
  average eigenvalue GAMMA=   0.3013
  1.4769  0.7945  0.2013  0.2013  0.1469  0.1138  0.1138  0.0512  0.0721  0.0721
  0.0703

 Free energy of the ion-electron system (eV)
  ---------------------------------------------------
  alpha Z        PSCENC =        75.25431677
  Ewald energy   TEWEN  =    137334.74833995
  -Hartree energ DENC   =   -181454.70324309
  -exchange      EXHF   =         0.00000000
  -V(xc)+E(xc)   XCENC  =     -1695.13314025
  PAW double counting   =     46071.73398148   -42547.80818049
  entropy T*S    EENTRO =        -0.02476493
  eigenvalues    EBANDS =     -3046.40549562
  atomic energy  EATOM  =     45086.50549395
  Solvation  Ediel_sol  =         0.00000000
  ---------------------------------------------------
  free energy    TOTEN  =      -175.83269223 eV

  energy without entropy =     -175.80792730  energy(sigma->0) =     -175.82650100


--------------------------------------------------------------------------------------------------------




--------------------------------------- Iteration      1(  17)  ---------------------------------------


    POTLOK:  cpu time   11.8443: real time   11.8481
    SETDIJ:  cpu time    0.1148: real time    0.1148
    EDDIAG:  cpu time   63.4337: real time   63.4341
  RMM-DIIS:  cpu time  170.0582: real time  170.0595
    ORTHCH:  cpu time   12.4998: real time   12.4998
       DOS:  cpu time    0.0014: real time    0.0014
    CHARGE:  cpu time   23.4557: real time   23.4558
    MIXING:  cpu time    0.7901: real time    0.7902
    --------------------------------------------
      LOOP:  cpu time  282.1982: real time  282.2037

 eigenvalue-minimisations  :   717
 total energy-change (2. order) : 0.2258442E+00  (-0.4581074E-01)
 number of electron     559.9999823 magnetization 
 augmentation part      240.8854291 magnetization 

 Broyden mixing:
  rms(total) = 0.13811E+01    rms(broyden)= 0.13807E+01
  rms(prec ) = 0.16370E+01
  weight for this iteration     100.00

 eigenvalues of (default mixing * dielectric matrix)
  average eigenvalue GAMMA=   0.3109
  1.5878  0.8866  0.2700  0.2700  0.1342  0.1342  0.0999  0.0999  0.0787  0.0744
  0.0511  0.0445

 Free energy of the ion-electron system (eV)
  ---------------------------------------------------
  alpha Z        PSCENC =        75.25431677
  Ewald energy   TEWEN  =    137334.74833995
  -Hartree energ DENC   =   -181468.97417250
  -exchange      EXHF   =         0.00000000
  -V(xc)+E(xc)   XCENC  =     -1694.91779319
  PAW double counting   =     46090.03686521   -42564.98280573
  entropy T*S    EENTRO =         0.00281999
  eigenvalues    EBANDS =     -3033.27991252
  atomic energy  EATOM  =     45086.50549395
  Solvation  Ediel_sol  =         0.00000000
  ---------------------------------------------------
  free energy    TOTEN  =      -175.60684806 eV

  energy without entropy =     -175.60966805  energy(sigma->0) =     -175.60755306


--------------------------------------------------------------------------------------------------------




--------------------------------------- Iteration      1(  18)  ---------------------------------------


    POTLOK:  cpu time   11.4479: real time   11.4514
    SETDIJ:  cpu time    0.1150: real time    0.1150
    EDDIAG:  cpu time   63.4503: real time   63.4507
  RMM-DIIS:  cpu time  167.4697: real time  167.4724
    ORTHCH:  cpu time   12.0059: real time   12.0060
       DOS:  cpu time    0.0014: real time    0.0014
    CHARGE:  cpu time   22.5117: real time   22.5118
    MIXING:  cpu time    0.8021: real time    0.8021
    --------------------------------------------
      LOOP:  cpu time  277.8042: real time  277.8108

 eigenvalue-minimisations  :   706
 total energy-change (2. order) : 0.3027666E+00  (-0.4992723E-01)
 number of electron     559.9999832 magnetization 
 augmentation part      240.9460040 magnetization 

 Broyden mixing:
  rms(total) = 0.14176E+01    rms(broyden)= 0.14174E+01
  rms(prec ) = 0.16597E+01
  weight for this iteration     100.00

 eigenvalues of (default mixing * dielectric matrix)
  average eigenvalue GAMMA=   0.3192
  1.6785  1.0090  0.3283  0.3283  0.1417  0.1417  0.0987  0.0987  0.0842  0.0842
  0.0598  0.0531  0.0433

 Free energy of the ion-electron system (eV)
  ---------------------------------------------------
  alpha Z        PSCENC =        75.25431677
  Ewald energy   TEWEN  =    137334.74833995
  -Hartree energ DENC   =   -181484.45062776
  -exchange      EXHF   =         0.00000000
  -V(xc)+E(xc)   XCENC  =     -1694.76177111
  PAW double counting   =     46103.02078853   -42577.00818456
  entropy T*S    EENTRO =         0.05227394
  eigenvalues    EBANDS =     -3018.66471113
  atomic energy  EATOM  =     45086.50549395
  Solvation  Ediel_sol  =         0.00000000
  ---------------------------------------------------
  free energy    TOTEN  =      -175.30408143 eV

  energy without entropy =     -175.35635537  energy(sigma->0) =     -175.31714991


--------------------------------------------------------------------------------------------------------




--------------------------------------- Iteration      1(  19)  ---------------------------------------


    POTLOK:  cpu time   10.9359: real time   10.9366
    SETDIJ:  cpu time    0.1104: real time    0.1104
    EDDIAG:  cpu time   60.2005: real time   60.2011
  RMM-DIIS:  cpu time  156.0761: real time  156.0804
    ORTHCH:  cpu time   11.7178: real time   11.7178
       DOS:  cpu time    0.0014: real time    0.0014
    CHARGE:  cpu time   21.7717: real time   21.7719
    MIXING:  cpu time    0.7992: real time    0.7992
    --------------------------------------------
      LOOP:  cpu time  261.6132: real time  261.6188

 eigenvalue-minimisations  :   704
 total energy-change (2. order) : 0.2498571E+00  (-0.4100111E-01)
 number of electron     559.9999837 magnetization 
 augmentation part      240.9936967 magnetization 

 Broyden mixing:
  rms(total) = 0.11087E+01    rms(broyden)= 0.11085E+01
  rms(prec ) = 0.12698E+01
  weight for this iteration     100.00

 eigenvalues of (default mixing * dielectric matrix)
  average eigenvalue GAMMA=   0.3276
  1.8225  1.1176  0.3610  0.3610  0.1544  0.1544  0.1076  0.1076  0.0892  0.0797
  0.0797  0.0550  0.0550  0.0421

 Free energy of the ion-electron system (eV)
  ---------------------------------------------------
  alpha Z        PSCENC =        75.25431677
  Ewald energy   TEWEN  =    137334.74833995
  -Hartree energ DENC   =   -181499.85701539
  -exchange      EXHF   =         0.00000000
  -V(xc)+E(xc)   XCENC  =     -1694.68060491
  PAW double counting   =     46109.79862861   -42583.03824593
  entropy T*S    EENTRO =        -0.01231313
  eigenvalues    EBANDS =     -3003.77282423
  atomic energy  EATOM  =     45086.50549395
  Solvation  Ediel_sol  =         0.00000000
  ---------------------------------------------------
  free energy    TOTEN  =      -175.05422432 eV

  energy without entropy =     -175.04191118  energy(sigma->0) =     -175.05114603


--------------------------------------------------------------------------------------------------------




--------------------------------------- Iteration      1(  20)  ---------------------------------------


    POTLOK:  cpu time   10.4865: real time   10.4888
    SETDIJ:  cpu time    0.1076: real time    0.1076
    EDDIAG:  cpu time   59.2492: real time   59.2505
  RMM-DIIS:  cpu time  155.4400: real time  155.4439
    ORTHCH:  cpu time   11.7156: real time   11.7157
       DOS:  cpu time    0.0014: real time    0.0014
    CHARGE:  cpu time   21.8054: real time   21.8057
    MIXING:  cpu time    0.8482: real time    0.8482
    --------------------------------------------
      LOOP:  cpu time  259.6539: real time  259.6618

 eigenvalue-minimisations  :   700
 total energy-change (2. order) : 0.3063779E+00  (-0.3890763E-01)
 number of electron     559.9999828 magnetization 
 augmentation part      241.1453246 magnetization 

 Broyden mixing:
  rms(total) = 0.81235E+00    rms(broyden)= 0.81216E+00
  rms(prec ) = 0.93051E+00
  weight for this iteration     100.00

 eigenvalues of (default mixing * dielectric matrix)
  average eigenvalue GAMMA=   0.3331
  1.9278  1.2228  0.3839  0.3839  0.1740  0.1740  0.1157  0.1157  0.0954  0.0954
  0.0777  0.0777  0.0553  0.0553  0.0421

 Free energy of the ion-electron system (eV)
  ---------------------------------------------------
  alpha Z        PSCENC =        75.25431677
  Ewald energy   TEWEN  =    137334.74833995
  -Hartree energ DENC   =   -181513.96519349
  -exchange      EXHF   =         0.00000000
  -V(xc)+E(xc)   XCENC  =     -1694.55888804
  PAW double counting   =     46114.92644940   -42587.41264350
  entropy T*S    EENTRO =        -0.03882909
  eigenvalues    EBANDS =     -2990.20689236
  atomic energy  EATOM  =     45086.50549395
  Solvation  Ediel_sol  =         0.00000000
  ---------------------------------------------------
  free energy    TOTEN  =      -174.74784640 eV

  energy without entropy =     -174.70901731  energy(sigma->0) =     -174.73813913


--------------------------------------------------------------------------------------------------------




--------------------------------------- Iteration      1(  21)  ---------------------------------------


    POTLOK:  cpu time   10.4961: real time   10.4997
    SETDIJ:  cpu time    0.1076: real time    0.1076
    EDDIAG:  cpu time   59.1869: real time   59.1887
  RMM-DIIS:  cpu time  154.7877: real time  154.7906
    ORTHCH:  cpu time   11.7201: real time   11.7202
       DOS:  cpu time    0.0014: real time    0.0014
    CHARGE:  cpu time   21.7832: real time   21.7833
    MIXING:  cpu time    0.8909: real time    0.8909
    --------------------------------------------
      LOOP:  cpu time  258.9740: real time  258.9824

 eigenvalue-minimisations  :   698
 total energy-change (2. order) : 0.1529801E+00  (-0.2945955E-01)
 number of electron     559.9999817 magnetization 
 augmentation part      241.2314087 magnetization 

 Broyden mixing:
  rms(total) = 0.61418E+00    rms(broyden)= 0.61397E+00
  rms(prec ) = 0.69641E+00
  weight for this iteration     100.00

 eigenvalues of (default mixing * dielectric matrix)
  average eigenvalue GAMMA=   0.3378
  2.0719  1.2561  0.3733  0.3364  0.3364  0.1543  0.1543  0.1129  0.1129  0.0945
  0.0945  0.0773  0.0773  0.0552  0.0552  0.0420

 Free energy of the ion-electron system (eV)
  ---------------------------------------------------
  alpha Z        PSCENC =        75.25431677
  Ewald energy   TEWEN  =    137334.74833995
  -Hartree energ DENC   =   -181528.66991431
  -exchange      EXHF   =         0.00000000
  -V(xc)+E(xc)   XCENC  =     -1694.44362229
  PAW double counting   =     46116.10069743   -42587.96607350
  entropy T*S    EENTRO =        -0.07764095
  eigenvalues    EBANDS =     -2976.04646339
  atomic energy  EATOM  =     45086.50549395
  Solvation  Ediel_sol  =         0.00000000
  ---------------------------------------------------
  free energy    TOTEN  =      -174.59486634 eV

  energy without entropy =     -174.51722539  energy(sigma->0) =     -174.57545610


--------------------------------------------------------------------------------------------------------




--------------------------------------- Iteration      1(  22)  ---------------------------------------


    POTLOK:  cpu time   10.4929: real time   10.4964
    SETDIJ:  cpu time    0.1075: real time    0.1075
    EDDIAG:  cpu time   59.2046: real time   59.2055
  RMM-DIIS:  cpu time  154.2290: real time  154.2327
    ORTHCH:  cpu time   11.7150: real time   11.7151
       DOS:  cpu time    0.0014: real time    0.0014
    CHARGE:  cpu time   21.8089: real time   21.8090
    MIXING:  cpu time    0.9395: real time    0.9395
    --------------------------------------------
      LOOP:  cpu time  258.4987: real time  258.5071

 eigenvalue-minimisations  :   695
 total energy-change (2. order) : 0.7845172E-01  (-0.1935273E-01)
 number of electron     559.9999823 magnetization 
 augmentation part      241.2631456 magnetization 

 Broyden mixing:
  rms(total) = 0.52755E+00    rms(broyden)= 0.52741E+00
  rms(prec ) = 0.59659E+00
  weight for this iteration     100.00

 eigenvalues of (default mixing * dielectric matrix)
  average eigenvalue GAMMA=   0.3502
  2.1733  1.3267  0.6374  0.3316  0.3316  0.1516  0.1516  0.1418  0.1115  0.1115
  0.0880  0.0880  0.0778  0.0778  0.0552  0.0552  0.0420

 Free energy of the ion-electron system (eV)
  ---------------------------------------------------
  alpha Z        PSCENC =        75.25431677
  Ewald energy   TEWEN  =    137334.74833995
  -Hartree energ DENC   =   -181544.18946683
  -exchange      EXHF   =         0.00000000
  -V(xc)+E(xc)   XCENC  =     -1694.26645651
  PAW double counting   =     46118.01644439   -42589.19081962
  entropy T*S    EENTRO =        -0.10203183
  eigenvalues    EBANDS =     -2961.29223489
  atomic energy  EATOM  =     45086.50549395
  Solvation  Ediel_sol  =         0.00000000
  ---------------------------------------------------
  free energy    TOTEN  =      -174.51641462 eV

  energy without entropy =     -174.41438279  energy(sigma->0) =     -174.49090666


--------------------------------------------------------------------------------------------------------




--------------------------------------- Iteration      1(  23)  ---------------------------------------


    POTLOK:  cpu time   10.4953: real time   10.4989
    SETDIJ:  cpu time    0.1076: real time    0.1076
    EDDIAG:  cpu time   60.0680: real time   60.0692
  RMM-DIIS:  cpu time  155.6636: real time  155.6677
    ORTHCH:  cpu time   11.7252: real time   11.7252
       DOS:  cpu time    0.0014: real time    0.0014
    CHARGE:  cpu time   21.8085: real time   21.8086
    MIXING:  cpu time    0.9894: real time    0.9894
    --------------------------------------------
      LOOP:  cpu time  260.8588: real time  260.8681

 eigenvalue-minimisations  :   702
 total energy-change (2. order) : 0.7927064E-01  (-0.1097208E-01)
 number of electron     559.9999822 magnetization 
 augmentation part      241.1979613 magnetization 

 Broyden mixing:
  rms(total) = 0.43925E+00    rms(broyden)= 0.43914E+00
  rms(prec ) = 0.50104E+00
  weight for this iteration     100.00

 eigenvalues of (default mixing * dielectric matrix)
  average eigenvalue GAMMA=   0.3520
  2.2644  1.3237  0.7445  0.3438  0.3438  0.1880  0.1613  0.1613  0.1127  0.1127
[...]
 -0.005  -0.012   0.004   0.002   0.003  -0.005  -0.012   0.003
 -0.008  -0.020   0.006   0.003   0.005  -0.008  -0.020   0.006
 -0.016  -0.005   0.012   0.000   0.022  -0.015  -0.005   0.012
  0.000  -0.022  -0.006  -0.016  -0.000   0.000  -0.022  -0.006
 -0.022   0.000   0.009  -0.005  -0.017  -0.021   0.000   0.009
 -0.019  -0.007   0.015   0.000   0.027  -0.018  -0.006   0.014
  0.000  -0.027  -0.008  -0.020  -0.000   0.000  -0.026  -0.008
 -0.026   0.000   0.011  -0.007  -0.020  -0.026   0.000   0.011
 total augmentation occupancy for first ion, spin component:           1
  1.506  -0.049   0.004   0.014   0.013   0.090   0.001  -0.001   0.031  -0.008   0.057  -0.019   0.007   0.007   0.010  -0.019
 -0.049   1.364   0.047   0.076  -0.017   0.002   0.084   0.006  -0.019  -0.003   0.202  -0.062   0.015   0.008   0.007  -0.005
  0.004   0.047   1.516  -0.006   0.010  -0.001   0.008   0.083  -0.009   0.015  -0.048   0.016  -0.003  -0.011  -0.007   0.016
  0.014   0.076  -0.006   1.350   0.058   0.029  -0.018  -0.009   0.094  -0.023  -0.049   0.009   0.003  -0.012  -0.008   0.001
  0.013  -0.017   0.010   0.058   1.428  -0.008  -0.004   0.015  -0.023   0.074  -0.074   0.021  -0.003  -0.009  -0.010   0.027
  0.090   0.002  -0.001   0.029  -0.008   0.215   0.019  -0.001  -0.044   0.003  -0.050   0.003   0.017  -0.011   0.033  -0.004
  0.001   0.084   0.008  -0.018  -0.004   0.019   0.263  -0.022  -0.004   0.006  -0.115   0.008  -0.002   0.051  -0.010  -0.000
 -0.001   0.006   0.083  -0.009   0.015  -0.001  -0.022   0.215   0.014  -0.021   0.030  -0.001  -0.011   0.009  -0.018   0.003
  0.031  -0.019  -0.009   0.094  -0.023  -0.044  -0.004   0.014   0.265   0.009   0.045  -0.006  -0.010   0.037   0.006   0.000
 -0.008  -0.003   0.015  -0.023   0.074   0.003   0.006  -0.021   0.009   0.259   0.045  -0.004  -0.039   0.003   0.050   0.008
  0.057   0.202  -0.048  -0.049  -0.074  -0.050  -0.115   0.030   0.045   0.045   0.962  -0.140   0.086   0.012   0.065  -0.012
 -0.019  -0.062   0.016   0.009   0.021   0.003   0.008  -0.001  -0.006  -0.004  -0.140   0.022  -0.014  -0.003  -0.010   0.002
  0.007   0.015  -0.003   0.003  -0.003   0.017  -0.002  -0.011  -0.010  -0.039   0.086  -0.014   0.029  -0.009  -0.004  -0.003
  0.007   0.008  -0.011  -0.012  -0.009  -0.011   0.051   0.009   0.037   0.003   0.012  -0.003  -0.009   0.036   0.004   0.000
  0.010   0.007  -0.007  -0.008  -0.010   0.033  -0.010  -0.018   0.006   0.050   0.065  -0.010  -0.004   0.004   0.033  -0.000
 -0.019  -0.005   0.016   0.001   0.027  -0.004  -0.000   0.003   0.000   0.008  -0.012   0.002  -0.003   0.000  -0.000   0.001
  0.001  -0.029  -0.006  -0.019   0.001   0.001  -0.009  -0.001  -0.006  -0.000  -0.003   0.001   0.000  -0.003  -0.000   0.000
 -0.029   0.001   0.012  -0.005  -0.020  -0.007   0.001   0.003  -0.001  -0.007  -0.008   0.001  -0.000  -0.000  -0.003   0.000


------------------------ aborting loop because EDIFF is reached ----------------------------------------


    CHARGE:  cpu time   22.2496: real time   22.2498
    FORLOC:  cpu time    6.1861: real time    6.1862
    FORNL :  cpu time   57.8939: real time   57.8946
    STRESS:  cpu time  178.8158: real time  178.8179
    FORCOR:  cpu time   19.6103: real time   19.6115
    FORHAR:  cpu time    8.7958: real time    8.7960
    MIXING:  cpu time    2.9538: real time    2.9539
    OFIELD:  cpu time    0.0000: real time    0.0000

  FORCE on cell =-STRESS in cart. coord.  units (eV):
  Direction    XX          YY          ZZ          XY          YZ          ZX
  --------------------------------------------------------------------------------------
  Alpha Z    75.25432    75.25432    75.25432
  Ewald   46071.94926 44218.62198 47044.07149   786.07978  1060.98656  2077.66732
  Hartree 60832.18636 59101.69433 61766.02359   737.94696   989.38758  1889.46192
  E(xc)   -2903.93258 -2904.86842 -2903.88685     0.11436     0.16201     1.18567
  Local  ************************************ -1519.26503 -2044.62314 -3951.36190
  n-local  -885.53968  -884.37203  -886.52588    -0.82569    -2.20890    -4.28014
  augment  4103.37058  4104.84852  4103.16067    -0.06312     0.47675    -1.10686
  Kinetic  7800.97334  7810.01254  7799.26071    -2.43896    -2.57278   -11.38457
  Fock        0.00000     0.00000     0.00000     0.00000     0.00000     0.00000
  -------------------------------------------------------------------------------------
  Total    -114.36381  -113.80072  -112.89822     1.54829     1.60807     0.18143
  in kB      -6.78634    -6.75292    -6.69937     0.09188     0.09542     0.01077
  external pressure =       -6.75 kB  Pullay stress =        0.00 kB


 VOLUME and BASIS-vectors are now :
 -----------------------------------------------------------------------------
  energy-cutoff  :      400.00
  volume of cell :    27000.00
      direct lattice vectors                 reciprocal lattice vectors
    30.000000000  0.000000000  0.000000000     0.033333333  0.000000000  0.000000000
     0.000000000 30.000000000  0.000000000     0.000000000  0.033333333  0.000000000
     0.000000000  0.000000000 30.000000000     0.000000000  0.000000000  0.033333333

  length of vectors
    30.000000000 30.000000000 30.000000000     0.033333333  0.033333333  0.033333333


 FORCES acting on ions
    electron-ion (+dipol)            ewald-force                    non-local-force                 convergence-correction
 -----------------------------------------------------------------------------------------------
   0.370E+03 0.984E+03 0.391E+03   -.367E+03 -.981E+03 -.390E+03   -.147E+01 -.200E+01 -.944E-01   0.452E-02 0.198E-02 0.236E-02
   -.975E+03 -.397E+03 0.413E+03   0.973E+03 0.394E+03 -.412E+03   0.181E+01 0.151E+01 -.217E+00   -.653E-02 -.348E-02 -.688E-02
   -.408E+03 0.975E+03 0.407E+03   0.406E+03 -.972E+03 -.406E+03   0.153E+01 -.183E+01 -.196E+00   -.947E-02 0.125E-02 0.261E-02
   0.968E+03 -.421E+03 0.391E+03   -.965E+03 0.419E+03 -.390E+03   -.183E+01 0.146E+01 -.254E+00   0.144E-01 0.384E-02 -.142E-01
   -.383E+02 0.590E+03 0.951E+03   0.382E+02 -.589E+03 -.948E+03   0.664E-01 -.307E+00 -.246E+01   -.392E-02 0.125E-02 0.100E-01
   -.342E+01 0.586E+03 -.968E+03   0.342E+01 -.585E+03 0.965E+03   -.192E-02 -.300E+00 0.235E+01   -.612E-02 -.138E-01 -.657E-02
   -.846E+01 0.114E+04 -.987E+01   0.849E+01 -.113E+04 0.992E+01   -.194E-01 -.309E+01 -.282E-01   -.333E-02 0.605E-02 -.154E-02
   0.114E+04 -.102E+02 -.228E+02   -.113E+04 0.102E+02 0.228E+02   -.312E+01 0.228E-01 0.223E-01   0.406E-02 -.290E-02 -.698E-02
   -.113E+04 -.134E+01 -.280E+01   0.113E+04 0.135E+01 0.281E+01   0.311E+01 -.866E-03 0.535E-02   0.262E-02 -.966E-02 -.106E-01
   -.307E+01 -.114E+04 -.350E+01   0.307E+01 0.113E+04 0.353E+01   0.795E-03 0.311E+01 -.423E-02   -.572E-02 -.171E-02 -.233E-01
   -.592E+03 0.578E+03 0.808E+03   0.590E+03 -.576E+03 -.805E+03   0.153E+01 -.155E+01 -.220E+01   -.693E-02 -.118E-02 0.405E-02
   -.580E+03 0.578E+03 -.814E+03   0.578E+03 -.575E+03 0.811E+03   0.156E+01 -.155E+01 0.220E+01   -.989E-02 -.183E-01 -.458E-02
   0.568E+03 -.604E+03 0.804E+03   -.566E+03 0.601E+03 -.801E+03   -.156E+01 0.160E+01 -.221E+01   0.110E-01 -.560E-05 0.698E-02
   0.576E+03 -.581E+03 -.816E+03   -.574E+03 0.578E+03 0.812E+03   -.156E+01 0.155E+01 0.220E+01   -.603E-02 -.667E-03 0.266E-02
   0.438E+03 0.614E+03 0.698E+03   -.439E+03 -.611E+03 -.698E+03   0.266E-01 -.141E+01 -.643E+00   0.706E-02 0.254E-02 0.543E-02
   0.575E+03 0.578E+03 -.818E+03   -.573E+03 -.576E+03 0.815E+03   -.155E+01 -.156E+01 0.220E+01   0.618E-02 -.732E-02 -.300E-02
   -.585E+03 -.583E+03 0.810E+03   0.583E+03 0.581E+03 -.806E+03   0.155E+01 0.156E+01 -.220E+01   -.140E-01 0.411E-02 0.133E-02
   -.580E+03 -.579E+03 -.814E+03   0.577E+03 0.577E+03 0.810E+03   0.155E+01 0.156E+01 0.220E+01   0.195E-03 0.122E-01 0.770E-02
   0.389E+03 0.973E+03 -.426E+03   -.386E+03 -.970E+03 0.425E+03   -.151E+01 -.181E+01 0.216E+00   0.604E-02 -.346E-02 -.253E-02
   -.973E+03 -.395E+03 -.418E+03   0.970E+03 0.393E+03 0.418E+03   0.182E+01 0.150E+01 0.218E+00   0.885E-02 -.493E-02 -.146E-01
   -.336E+03 0.318E+03 0.443E+03   0.336E+03 -.318E+03 -.444E+03   -.334E+00 0.371E+00 0.536E+00   -.943E-02 -.383E-02 -.332E-02
   0.964E+03 0.371E+03 0.342E+03   -.961E+03 -.369E+03 -.341E+03   -.169E+01 -.158E+01 -.514E+00   0.136E-01 -.213E-02 -.108E-01
   -.399E+03 -.976E+03 0.412E+03   0.397E+03 0.973E+03 -.412E+03   0.149E+01 0.182E+01 -.227E+00   -.180E-01 0.887E-03 -.804E-02
   -.399E+03 0.972E+03 -.422E+03   0.396E+03 -.969E+03 0.421E+03   0.151E+01 -.182E+01 0.211E+00   -.126E-01 -.322E-02 -.431E-02
   0.970E+03 -.399E+03 -.426E+03   -.967E+03 0.397E+03 0.425E+03   -.182E+01 0.149E+01 0.212E+00   0.502E-03 -.272E-02 0.425E-03
   -.977E+03 0.392E+03 0.412E+03   0.974E+03 -.390E+03 -.412E+03   0.181E+01 -.151E+01 -.214E+00   -.786E-02 -.623E-02 -.336E-02
   0.388E+03 -.980E+03 0.410E+03   -.386E+03 0.977E+03 -.410E+03   -.150E+01 0.181E+01 -.220E+00   0.600E-02 -.378E-02 -.877E-02
   0.292E+03 0.312E+03 0.422E+03   -.292E+03 -.312E+03 -.422E+03   0.262E+00 0.427E+00 0.462E+00   0.390E-02 -.121E-02 -.696E-02
   -.114E+02 0.639E+03 -.133E+02   0.113E+02 -.640E+03 0.133E+02   0.199E-01 0.724E+00 0.247E-01   -.278E-02 -.107E-01 -.747E-02
   -.597E+03 -.418E+01 0.961E+03   0.597E+03 0.418E+01 -.957E+03   0.303E+00 -.121E-03 -.235E+01   -.995E-02 -.423E-02 0.622E-03
   -.588E+03 -.113E+01 -.966E+03   0.588E+03 0.115E+01 0.962E+03   0.309E+00 -.431E-02 0.235E+01   -.352E-02 -.187E-01 0.245E-02
   0.539E+03 -.687E+02 0.923E+03   -.538E+03 0.691E+02 -.919E+03   -.401E+00 -.400E+00 -.231E+01   0.841E-02 0.293E-02 0.334E-02
   0.584E+03 -.226E+01 -.970E+03   -.583E+03 0.228E+01 0.966E+03   -.318E+00 0.365E-03 0.234E+01   -.333E-02 -.123E-01 0.401E-02
   0.751E+03 0.762E+03 -.270E+02   -.749E+03 -.760E+03 0.270E+02   -.116E+01 -.115E+01 0.156E-01   0.107E-01 -.786E-02 -.588E-02
   -.764E+03 -.763E+03 -.350E+01   0.762E+03 0.761E+03 0.352E+01   0.115E+01 0.114E+01 0.391E-02   -.104E-01 0.625E-02 -.236E-01
   -.767E+03 0.760E+03 -.563E+01   0.765E+03 -.758E+03 0.565E+01   0.114E+01 -.115E+01 -.742E-02   -.100E-01 -.552E-02 -.634E-02
   0.756E+03 -.769E+03 -.100E+02   -.754E+03 0.767E+03 0.100E+02   -.113E+01 0.115E+01 0.139E-01   0.789E-02 0.524E-02 -.222E-01
   -.283E+02 -.149E+02 0.106E+04   0.283E+02 0.149E+02 -.106E+04   -.107E-01 0.419E-02 -.163E+01   -.761E-02 0.233E-02 0.704E-02
   -.306E+01 -.166E+01 -.107E+04   0.307E+01 0.168E+01 0.107E+04   0.761E-02 -.286E-02 0.161E+01   -.142E-01 -.178E-01 0.107E-02
   0.969E+03 0.391E+03 -.430E+03   -.966E+03 -.389E+03 0.429E+03   -.182E+01 -.149E+01 0.226E+00   0.528E-02 -.112E-01 0.431E-02
   -.396E+03 -.973E+03 -.419E+03   0.394E+03 0.970E+03 0.418E+03   0.150E+01 0.182E+01 0.232E+00   -.795E-02 0.130E-01 -.158E-01
   -.326E+03 0.319E+03 -.459E+03   0.326E+03 -.320E+03 0.459E+03   -.372E+00 0.371E+00 -.521E+00   -.107E-01 -.223E-01 -.120E-01
   0.307E+03 -.337E+03 0.438E+03   -.307E+03 0.337E+03 -.438E+03   0.404E+00 -.355E+00 0.557E+00   0.243E-02 0.549E-02 -.133E-01
   0.315E+03 0.319E+03 -.463E+03   -.316E+03 -.319E+03 0.464E+03   0.369E+00 0.363E+00 -.526E+00   0.816E-03 -.175E-01 -.244E-02
   -.973E+03 0.393E+03 -.419E+03   0.970E+03 -.391E+03 0.418E+03   0.182E+01 -.150E+01 0.225E+00   0.135E-02 -.201E-01 -.120E-01
   0.391E+03 -.974E+03 -.420E+03   -.389E+03 0.971E+03 0.420E+03   -.151E+01 0.183E+01 0.220E+00   -.506E-02 0.869E-02 -.147E-01
   -.331E+03 -.327E+03 0.446E+03   0.331E+03 0.328E+03 -.447E+03   -.368E+00 -.371E+00 0.519E+00   -.164E-01 0.206E-02 -.929E-02
   0.631E+03 -.948E+01 -.211E+02   -.632E+03 0.946E+01 0.211E+02   0.747E+00 0.108E-01 0.269E-01   0.114E-01 -.451E-02 -.163E-01
   -.644E+03 -.238E+01 -.511E+01   0.645E+03 0.240E+01 0.513E+01   -.732E+00 0.280E-02 0.352E-03   -.994E-02 -.138E-01 -.183E-01
   -.111E+02 -.598E+03 0.960E+03   0.111E+02 0.598E+03 -.956E+03   0.311E-02 0.316E+00 -.234E+01   -.943E-02 0.330E-02 0.121E-01
   -.236E+01 -.588E+03 -.966E+03   0.235E+01 0.587E+03 0.963E+03   0.106E-01 0.313E+00 0.235E+01   -.106E-01 0.357E-02 0.387E-02
   -.961E+01 -.510E+01 -.112E+02   0.963E+01 0.512E+01 0.113E+02   -.141E-01 -.433E-02 -.156E-01   -.378E-02 -.790E-02 -.207E-01
   0.317E+03 -.325E+03 -.460E+03   -.317E+03 0.325E+03 0.461E+03   0.356E+00 -.372E+00 -.534E+00   -.453E-02 -.623E-02 -.117E-01
   -.325E+03 -.323E+03 -.457E+03   0.325E+03 0.324E+03 0.458E+03   -.369E+00 -.360E+00 -.515E+00   -.145E-01 -.795E-02 -.205E-01
   -.557E+01 -.644E+03 -.646E+01   0.560E+01 0.645E+03 0.651E+01   -.158E-01 -.734E+00 -.140E-01   -.891E-02 0.686E-02 -.318E-01
   0.130E+03 0.309E+02 0.139E+03   -.113E+03 -.229E+02 -.120E+03   -.130E+02 -.763E+01 -.159E+02   0.326E-02 0.607E-03 0.176E-02
   0.425E+03 0.211E+03 0.496E+03   -.464E+03 -.231E+03 -.543E+03   0.369E+02 0.197E+02 0.440E+02   0.337E-02 0.541E-03 0.211E-02
 -----------------------------------------------------------------------------------------------
   -.253E+02 -.115E+02 -.291E+02   0.341E-12 -.148E-11 -.909E-12   0.254E+02 0.117E+02 0.294E+02   -.140E+00 -.184E+00 -.318E+00
 
 
 POSITION                                       TOTAL-FORCE (eV/Angst)
 -----------------------------------------------------------------------------------
     13.37281      9.84801     12.50759         0.721875      1.114082      0.270633
     20.15199     16.62719     12.50759        -1.107838     -0.706537      0.290142
     16.62719      9.84801     12.50759        -0.722769      1.111143      0.271359
      9.84801     16.62719     12.50759         1.118222     -0.689544      0.305925
     15.00000     11.47521     10.20639         0.039066      0.386106      1.309750
     15.00000     11.47521     19.79360        -0.000257      0.410129     -1.283678
     15.00000      8.28283     15.00000         0.007917      1.510635      0.020404
      8.28283     15.00000     15.00000         1.520231     -0.014725     -0.009755
     21.71717     15.00000     15.00000        -1.517815     -0.000668     -0.002762
     15.00000     21.71717     15.00000         0.000458     -1.518674      0.002434
     18.35858     11.64142     10.25025        -0.742392      0.759255      1.073497
     18.35858     11.64142     19.74975        -0.758544      0.754779     -1.073933
     11.64142     18.35858     10.25025         0.759816     -0.768365      1.069425
     11.64142     18.35858     19.74975         0.757910     -0.755455     -1.072948
     11.64142     11.64142     10.25025        -0.596199      1.195378      0.034057
     11.64142     11.64142     19.74975         0.757687      0.756028     -1.073740
     18.35858     18.35858     10.25025        -0.756080     -0.757793      1.072602
     18.35858     18.35858     19.74975        -0.755364     -0.756836     -1.072576
     13.37281      9.84801     17.49241         0.708913      1.108773     -0.290217
     20.15199     16.62719     17.49241        -1.108695     -0.705236     -0.291222
     16.73751     13.26249     12.54279         0.104585     -0.110579     -0.157541
      9.84801     13.37281     12.50759         1.052689      0.756681      0.342623
     16.62719     20.15199     12.50759        -0.702486     -1.108599      0.293286
     16.62719      9.84801     17.49241        -0.710482      1.111185     -0.290711
      9.84801     16.62719     17.49241         1.110201     -0.702410     -0.291776
     20.15199     13.37281     12.50759        -1.110792      0.710952      0.291071
     13.37281     20.15199     12.50759         0.703435     -1.112425      0.293884
     13.26249     13.26249     12.54279        -0.028846     -0.098768     -0.081209
     15.00000     11.52498     15.00000        -0.007315     -0.224764     -0.004338
     18.52479     15.00000     10.20639        -0.410165     -0.000281      1.284879
     18.52479     15.00000     19.79360        -0.412512     -0.000001     -1.282181
     11.47521     15.00000     10.20640         0.326072      0.032854      1.230991
     11.47521     15.00000     19.79360         0.415033      0.000147     -1.280235
     11.49535     11.49535     15.00000         0.832337      0.828596      0.009259
     18.50465     18.50465     15.00000        -0.828458     -0.828840     -0.001410
     18.50465     11.49535     15.00000        -0.823553      0.831969      0.005439
     11.49535     18.50465     15.00000         0.824213     -0.835181     -0.008319
     15.00000     15.00000     10.04368         0.014563      0.007705      1.181664
     15.00000     15.00000     19.95633        -0.000433     -0.000793     -1.177781
      9.84801     13.37281     17.49241         1.108692      0.704264     -0.291875
     16.62719     20.15199     17.49241        -0.707241     -1.106370     -0.298508
     16.73751     13.26249     17.45721         0.112539     -0.112786      0.159747
     13.26249     16.73751     12.54279        -0.111402      0.102600     -0.164958
     13.26249     13.26249     17.45721        -0.112376     -0.113423      0.155016
     20.15199     13.37281     17.49241        -1.107167      0.703942     -0.291160
     13.37281     20.15199     17.49241         0.705402     -1.104119     -0.287995
     16.73751     16.73751     12.54279         0.110209      0.110053     -0.158223
     11.52498     15.00000     15.00000        -0.228268     -0.005602     -0.002420
     18.47502     15.00000     15.00000         0.232414      0.002280      0.000140
     15.00000     18.52480     10.20639        -0.000750     -0.414341      1.282475
     15.00000     18.52480     19.79360        -0.007571     -0.415705     -1.282756
     15.00000     15.00000     15.00000         0.006965      0.013583      0.014707
     13.26249     16.73751     17.45721        -0.110055      0.116923      0.163715
     16.73751     16.73751     17.45721         0.113834      0.106244      0.155766
     15.00000     18.47502     15.00000         0.003780      0.238804      0.006296
      9.83556     12.30883      8.87661         3.542153      0.380354      3.437873
      9.14619     11.94960      8.05924        -2.225383     -0.896621     -2.504828
 -----------------------------------------------------------------------------------
    total drift:                               -0.001472      0.003555     -0.002671


--------------------------------------------------------------------------------------------------------



  FREE ENERGIE OF THE ION-ELECTRON SYSTEM (eV)
  ---------------------------------------------------
  free  energy   TOTEN  =      -174.29710478 eV

  energy  without entropy=     -174.18635693  energy(sigma->0) =     -174.26941782
 


--------------------------------------------------------------------------------------------------------


    POTLOK:  cpu time   11.8588: real time   11.8590


--------------------------------------------------------------------------------------------------------


     LOOP+:  cpu time15434.3386: real time15435.1278
    4ORBIT:  cpu time    0.0000: real time    0.0000

 total amount of memory used by VASP MPI-rank0  5486941. kBytes
=======================================================================

   base      :      30000. kBytes
   nonlr-proj:      17126. kBytes
   fftplans  :     924480. kBytes
   grid      :    1872000. kBytes
   one-center:        886. kBytes
   wavefun   :    2642449. kBytes
 
  
  
 General timing and accounting informations for this job:
 ========================================================
  
                  Total CPU time used (sec):    15508.972
                            User time (sec):    14598.248
                          System time (sec):      910.725
                         Elapsed time (sec):    15509.814
  
                   Maximum memory used (kb):     7178696.
                   Average memory used (kb):           0.
  
                          Minor page faults:    767483127
                          Major page faults:            0
                 Voluntary context switches:          661
