<?xml version="1.0" encoding="ISO-8859-1"?>
<modeling>
 <generator>
  <i name="program" type="string">vasp </i>
  <i name="version" type="string">5.4.4.18Apr17-6-g9f103f2a35  </i>
  <i name="subversion" type="string">(build Sep 03 2018 23:53:05) complex            parallel </i>
  <i name="platform" type="string">LinuxIFC </i>
  <i name="date" type="string">2021 11 30 </i>
  <i name="time" type="string">22:03:57 </i>
 </generator>
 <incar>
  <i type="string" name="SYSTEM"> 6_Pd100_top_free_z(O)</i>
  <i type="int" name="ISTART">     0</i>
  <i type="string" name="PREC">normal   			! encut=max(enmax), ngx,y,z</i>
  <i type="string" name="ALGO"> Fast     			! Mix RMM-DIIS and Dav</i>
  <i type="logical" name="ADDGRID"> F  </i>
  <i type="int" name="ISPIN">     1</i>
  <i type="int" name="ICHARG">     2</i>
  <i type="int" name="NELM">   100</i>
  <i type="int" name="NELMIN">     6</i>
  <i type="int" name="IBRION">     2</i>
  <i name="EDIFF">      0.00010000</i>
  <i name="EDIFFG">     -0.05000000</i>
  <i type="int" name="NSW">     0</i>
  <i type="int" name="ISIF">     2</i>
  <i type="int" name="ISYM">     2</i>
  <i name="ENCUT">    400.00000000</i>
  <i type="string" name="LREAL"> Auto     			! Auto or A projection done</i>
  <i type="int" name="ISMEAR">     2</i>
  <i name="SIGMA">      0.20000000</i>
  <i type="logical" name="LWAVE"> F  </i>
  <i type="logical" name="LCHARG"> F  </i>
  <v type="int" name="KPOINT_BSE">    -1     0     0     0</v>
  <i type="int" name="MAXMEM"> 10000</i>
  <i type="int" name="NELM">   100</i>
  <i type="string" name="GGA"> RP         			! Revised PBE</i>
 </incar>
 <structure name="primitive_cell" >
  <crystal>
   <varray name="basis" >
    <v>      30.00000000       0.00000000       0.00000000 </v>
    <v>       0.00000000      30.00000000       0.00000000 </v>
    <v>       0.00000000       0.00000000      30.00000000 </v>
   </varray>
   <i name="volume">  27000.00000000 </i>
   <varray name="rec_basis" >
    <v>       0.03333333       0.00000000       0.00000000 </v>
    <v>       0.00000000       0.03333333       0.00000000 </v>
    <v>       0.00000000       0.00000000       0.03333333 </v>
   </varray>
  </crystal>
  <varray name="positions" >
   <v>       0.44576020       0.32826710       0.41691983 </v>
   <v>      -0.44576020       0.32826710       0.41691983 </v>
   <v>      -0.50000000       0.38250690       0.34021317 </v>
   <v>      -0.50000000       0.27609440      -0.50000000 </v>
   <v>       0.38804720       0.38804720       0.34167483 </v>
   <v>      -0.50000000       0.38416601      -0.50000000 </v>
   <v>       0.44208300       0.44208300       0.41809300 </v>
   <v>       0.38317830       0.38317830      -0.50000000 </v>
   <v>      -0.44208300       0.44208300       0.41809300 </v>
   <v>       0.44576020       0.32826710      -0.41691977 </v>
   <v>       0.32826705       0.44576024       0.41691983 </v>
   <v>      -0.38804720       0.38804720       0.34167483 </v>
   <v>      -0.38317830       0.38317830      -0.50000000 </v>
   <v>      -0.50000000      -0.50000000       0.33478917 </v>
   <v>      -0.50000000      -0.50000000      -0.50000000 </v>
   <v>      -0.44576020       0.32826710      -0.41691977 </v>
   <v>       0.38250685      -0.49999995       0.34021317 </v>
   <v>       0.44208300       0.44208300      -0.41809297 </v>
   <v>       0.38416599      -0.49999998      -0.50000000 </v>
   <v>      -0.44208300       0.44208300      -0.41809297 </v>
   <v>       0.44208298      -0.44208298       0.41809300 </v>
   <v>       0.32826705       0.44576024      -0.41691977 </v>
   <v>      -0.50000000       0.38250690      -0.34021320 </v>
   <v>       0.32826712      -0.44576022       0.41691983 </v>
   <v>      -0.38250685      -0.49999995       0.34021317 </v>
   <v>      -0.32826705       0.44576024       0.41691983 </v>
   <v>       0.27609443       0.49999998      -0.50000000 </v>
   <v>       0.38804720       0.38804720      -0.34167487 </v>
   <v>      -0.38416599      -0.49999998      -0.50000000 </v>
   <v>      -0.44208298      -0.44208298       0.41809300 </v>
   <v>       0.44208298      -0.44208298      -0.41809297 </v>
   <v>      -0.38804720       0.38804720      -0.34167487 </v>
   <v>       0.38804722      -0.38804722       0.34167483 </v>
   <v>       0.38250685      -0.49999995      -0.34021320 </v>
   <v>       0.32826712      -0.44576022      -0.41691977 </v>
   <v>      -0.32826705       0.44576024      -0.41691977 </v>
   <v>       0.50000000      -0.38250681       0.34021317 </v>
   <v>      -0.50000000      -0.38416596      -0.50000000 </v>
   <v>      -0.44208298      -0.44208298      -0.41809297 </v>
   <v>      -0.50000000      -0.50000000      -0.33478913 </v>
   <v>       0.38317828      -0.38317828      -0.50000000 </v>
   <v>      -0.32826712      -0.44576022       0.41691983 </v>
   <v>      -0.25013407       0.44414833       0.42123427 </v>
   <v>      -0.27609443       0.49999998      -0.50000000 </v>
   <v>      -0.38804722      -0.38804722       0.34167483 </v>
   <v>      -0.38250685      -0.49999995      -0.34021320 </v>
   <v>       0.44576027      -0.32826707       0.41691983 </v>
   <v>      -0.38317828      -0.38317828      -0.50000000 </v>
   <v>      -0.21506177       0.43630877       0.41017837 </v>
   <v>      -0.32826712      -0.44576022      -0.41691977 </v>
   <v>      -0.44576027      -0.32826707       0.41691983 </v>
   <v>       0.38804722      -0.38804722      -0.34167487 </v>
   <v>      -0.50000000      -0.38250681      -0.34021320 </v>
   <v>       0.44576027      -0.32826707      -0.41691977 </v>
   <v>      -0.44576027      -0.32826707      -0.41691977 </v>
   <v>      -0.50000000      -0.27609445       0.50000000 </v>
   <v>      -0.38804722      -0.38804722      -0.34167487 </v>
  </varray>
 </structure>
 <varray name="primitive_index" >
  <v type="int" >        1 </v>
  <v type="int" >        3 </v>
  <v type="int" >        5 </v>
  <v type="int" >        7 </v>
  <v type="int" >       15 </v>
  <v type="int" >       29 </v>
  <v type="int" >       28 </v>
  <v type="int" >       34 </v>
  <v type="int" >       21 </v>
  <v type="int" >       19 </v>
  <v type="int" >       22 </v>
  <v type="int" >       11 </v>
  <v type="int" >       36 </v>
  <v type="int" >       38 </v>
  <v type="int" >       52 </v>
  <v type="int" >       24 </v>
  <v type="int" >       32 </v>
  <v type="int" >       44 </v>
  <v type="int" >       48 </v>
  <v type="int" >       42 </v>
  <v type="int" >       43 </v>
  <v type="int" >       40 </v>
  <v type="int" >        6 </v>
  <v type="int" >        4 </v>
  <v type="int" >       30 </v>
  <v type="int" >       26 </v>
  <v type="int" >        8 </v>
  <v type="int" >       16 </v>
  <v type="int" >       49 </v>
  <v type="int" >       47 </v>
  <v type="int" >       53 </v>
  <v type="int" >       12 </v>
  <v type="int" >       13 </v>
  <v type="int" >       33 </v>
  <v type="int" >       25 </v>
  <v type="int" >       45 </v>
  <v type="int" >       50 </v>
  <v type="int" >       55 </v>
  <v type="int" >       54 </v>
  <v type="int" >       39 </v>
  <v type="int" >       37 </v>
  <v type="int" >        2 </v>
  <v type="int" >       56 </v>
  <v type="int" >        9 </v>
  <v type="int" >       17 </v>
  <v type="int" >       31 </v>
  <v type="int" >       27 </v>
  <v type="int" >       35 </v>
  <v type="int" >       57 </v>
  <v type="int" >       20 </v>
  <v type="int" >       23 </v>
  <v type="int" >       14 </v>
  <v type="int" >       51 </v>
  <v type="int" >       46 </v>
  <v type="int" >       41 </v>
  <v type="int" >       10 </v>
  <v type="int" >       18 </v>
 </varray>
 <kpoints>
  <generation param="Monkhorst-Pack">
   <v type="int" name="divisions">       1        1        1 </v>
   <v name="usershift">      0.00000000       0.00000000       0.00000000 </v>
   <v name="genvec1">      1.00000000       0.00000000       0.00000000 </v>
   <v name="genvec2">      0.00000000       1.00000000       0.00000000 </v>
   <v name="genvec3">      0.00000000       0.00000000       1.00000000 </v>
   <v name="shift">      0.00000000       0.00000000       0.00000000 </v>
  </generation>
  <varray name="kpointlist" >
   <v>       0.00000000       0.00000000       0.00000000 </v>
  </varray>
  <varray name="weights" >
   <v>       1.00000000 </v>
  </varray>
 </kpoints>
 <parameters>
  <separator name="general" >
   <i type="string" name="SYSTEM">6_Pd100_top_free_z(O)</i>
   <i type="logical" name="LCOMPAT"> F  </i>
  </separator>
  <separator name="electronic" >
   <i type="string" name="PREC">normal</i>
   <i name="ENMAX">    400.00000000</i>
   <i name="ENAUG">    644.87300000</i>
   <i name="EDIFF">      0.00010000</i>
   <i type="int" name="IALGO">    68</i>
   <i type="int" name="IWAVPR">    10</i>
   <i type="int" name="NBANDS">   336</i>
   <i name="NELECT">    560.00000000</i>
   <i type="int" name="TURBO">     0</i>
   <i type="int" name="IRESTART">     0</i>
   <i type="int" name="NREBOOT">     0</i>
   <i type="int" name="NMIN">     0</i>
   <i name="EREF">      0.00000000</i>
   <separator name="electronic smearing" >
    <i type="int" name="ISMEAR">     2</i>
    <i name="SIGMA">      0.20000000</i>
    <i name="KSPACING">      0.50000000</i>
    <i type="logical" name="KGAMMA"> T  </i>
   </separator>
   <separator name="electronic projectors" >
    <i type="logical" name="LREAL"> T  </i>
    <v name="ROPT">     -0.00050000     -0.00050000     -0.00050000</v>
    <i type="int" name="LMAXPAW">  -100</i>
    <i type="int" name="LMAXMIX">     2</i>
    <i type="logical" name="NLSPLINE"> F  </i>
   </separator>
   <separator name="electronic startup" >
    <i type="int" name="ISTART">     0</i>
    <i type="int" name="ICHARG">     2</i>
    <i type="int" name="INIWAV">     1</i>
   </separator>
   <separator name="electronic spin" >
    <i type="int" name="ISPIN">     1</i>
    <i type="logical" name="LNONCOLLINEAR"> F  </i>
    <v name="MAGMOM">      1.00000000      1.00000000      1.00000000      1.00000000      1.00000000      1.00000000      1.00000000      1.00000000      1.00000000      1.00000000      1.00000000      1.00000000      1.00000000      1.00000000      1.00000000      1.00000000      1.00000000      1.00000000      1.00000000      1.00000000
      1.00000000      1.00000000      1.00000000      1.00000000      1.00000000      1.00000000      1.00000000      1.00000000      1.00000000      1.00000000      1.00000000      1.00000000      1.00000000      1.00000000      1.00000000      1.00000000      1.00000000      1.00000000      1.00000000      1.00000000
      1.00000000      1.00000000      1.00000000      1.00000000      1.00000000      1.00000000      1.00000000      1.00000000      1.00000000      1.00000000      1.00000000      1.00000000      1.00000000      1.00000000      1.00000000      1.00000000      1.00000000</v>
    <i name="NUPDOWN">     -1.00000000</i>
    <i type="logical" name="LSORBIT"> F  </i>
    <v name="SAXIS">      0.00000000      0.00000000      1.00000000</v>
    <i type="logical" name="LSPIRAL"> F  </i>
    <v name="QSPIRAL">      0.00000000      0.00000000      0.00000000</v>
    <i type="logical" name="LZEROZ"> F  </i>
   </separator>
   <separator name="electronic exchange-correlation" >
    <i type="logical" name="LASPH"> F  </i>
    <i type="logical" name="LMETAGGA"> F  </i>
   </separator>
   <separator name="electronic convergence" >
    <i type="int" name="NELM">   100</i>
    <i type="int" name="NELMDL">    -5</i>
    <i type="int" name="NELMIN">     6</i>
    <i name="ENINI">    400.00000000</i>
    <separator name="electronic convergence detail" >
     <i type="logical" name="LDIAG"> T  </i>
     <i type="logical" name="LSUBROT"> F  </i>
     <i name="WEIMIN">      0.00000000</i>
     <i name="EBREAK">      0.00000007</i>
     <i name="DEPER">      0.30000000</i>
     <i type="int" name="NRMM">     4</i>
     <i name="TIME">      0.40000000</i>
    </separator>
   </separator>
   <separator name="electronic mixer" >
    <i name="AMIX">      0.40000000</i>
    <i name="BMIX">      1.00000000</i>
    <i name="AMIN">      0.10000000</i>
    <i name="AMIX_MAG">      1.60000000</i>
    <i name="BMIX_MAG">      1.00000000</i>
    <separator name="electronic mixer details" >
     <i type="int" name="IMIX">     4</i>
     <i type="logical" name="MIXFIRST"> F  </i>
     <i type="int" name="MAXMIX">   -45</i>
     <i name="WC">    100.00000000</i>
     <i type="int" name="INIMIX">     1</i>
     <i type="int" name="MIXPRE">     1</i>
     <i type="int" name="MREMOVE">     5</i>
    </separator>
   </separator>
   <separator name="electronic dipolcorrection" >
    <i type="logical" name="LDIPOL"> F  </i>
    <i type="logical" name="LMONO"> F  </i>
    <i type="int" name="IDIPOL">     0</i>
    <i name="EPSILON">      1.00000000</i>
    <v name="DIPOL">   -100.00000000   -100.00000000   -100.00000000</v>
    <i name="EFIELD">      0.00000000</i>
   </separator>
  </separator>
  <separator name="grids" >
   <i type="int" name="NGX">   150</i>
   <i type="int" name="NGY">   150</i>
   <i type="int" name="NGZ">   150</i>
   <i type="int" name="NGXF">   300</i>
   <i type="int" name="NGYF">   300</i>
   <i type="int" name="NGZF">   300</i>
   <i type="logical" name="ADDGRID"> F  </i>
  </separator>
  <separator name="ionic" >
   <i type="int" name="NSW">     0</i>
   <i type="int" name="IBRION">    -1</i>
   <i type="int" name="MDALGO">     0</i>
   <i type="int" name="ISIF">     2</i>
   <i name="PSTRESS">      0.00000000</i>
   <i name="EDIFFG">     -0.05000000</i>
   <i type="int" name="NFREE">     1</i>
   <i name="POTIM">      0.50000000</i>
   <i name="SMASS">     -3.00000000</i>
   <i name="SCALEE">      1.00000000</i>
  </separator>
  <separator name="ionic md" >
   <i name="TEBEG">      0.00010000</i>
   <i name="TEEND">      0.00010000</i>
   <i type="int" name="NBLOCK">     1</i>
   <i type="int" name="KBLOCK">     1</i>
   <i type="int" name="NPACO">   256</i>
   <i name="APACO">     16.00000000</i>
  </separator>
  <separator name="symmetry" >
   <i type="int" name="ISYM">     2</i>
   <i name="SYMPREC">      0.00001000</i>
  </separator>
  <separator name="dos" >
   <i type="int" name="LORBIT">     0</i>
   <v name="RWIGS">     -1.00000000     -1.00000000     -1.00000000</v>
   <i type="int" name="NEDOS">   301</i>
   <i name="EMIN">     10.00000000</i>
   <i name="EMAX">    -10.00000000</i>
   <i name="EFERMI">      0.00000000</i>
  </separator>
  <separator name="writing" >
   <i type="int" name="NWRITE">     2</i>
   <i type="logical" name="LWAVE"> F  </i>
   <i type="logical" name="LDOWNSAMPLE"> F  </i>
   <i type="logical" name="LCHARG"> F  </i>
   <i type="logical" name="LPARD"> F  </i>
   <i type="logical" name="LVTOT"> F  </i>
   <i type="logical" name="LVHAR"> F  </i>
   <i type="logical" name="LELF"> F  </i>
   <i type="logical" name="LOPTICS"> F  </i>
   <v name="STM">      0.00000000      0.00000000      0.00000000      0.00000000      0.00000000      0.00000000      0.00000000</v>
  </separator>
  <separator name="performance" >
   <i type="int" name="NPAR">     1</i>
   <i type="int" name="NSIM">     4</i>
   <i type="int" name="NBLK">    -1</i>
   <i type="logical" name="LPLANE"> T  </i>
   <i type="logical" name="LSCALAPACK"> T  </i>
   <i type="logical" name="LSCAAWARE"> F  </i>
   <i type="logical" name="LSCALU"> F  </i>
   <i type="logical" name="LASYNC"> F  </i>
   <i type="logical" name="LORBITALREAL"> F  </i>
  </separator>
  <separator name="miscellaneous" >
   <i type="int" name="IDIOT">     3</i>
   <i type="int" name="ISPECIAL">     0</i>
   <i type="logical" name="LMUSIC"> F  </i>
   <v name="POMASS">    106.42000000     12.01100000     16.00000000</v>
   <v name="DARWINR">      0.00000000      0.00000000      0.00000000</v>
   <v name="DARWINV">      1.00000000      1.00000000      1.00000000</v>
   <i type="logical" name="LCORR"> T  </i>
  </separator>
  <i type="logical" name="GGA_COMPAT"> T  </i>
  <i type="logical" name="LBERRY"> F  </i>
  <i type="int" name="ICORELEVEL">     0</i>
  <i type="logical" name="LDAU"> F  </i>
  <i type="int" name="I_CONSTRAINED_M">     0</i>
  <separator name="electronic exchange-correlation" >
   <i type="string" name="GGA">RP</i>
   <i type="int" name="VOSKOWN">     0</i>
   <i type="logical" name="LHFCALC"> F  </i>
   <i type="string" name="PRECFOCK"></i>
   <i type="logical" name="LSYMGRAD"> F  </i>
   <i type="logical" name="LHFONE"> F  </i>
   <i type="logical" name="LRHFCALC"> F  </i>
   <i type="logical" name="LTHOMAS"> F  </i>
   <i type="logical" name="LMODELHF"> F  </i>
   <i name="ENCUT4O">     -1.00000000</i>
   <i type="int" name="EXXOEP">     0</i>
   <i type="int" name="FOURORBIT">     0</i>
   <i name="AEXX">      0.00000000</i>
   <i name="HFALPHA">      0.00000000</i>
   <i name="MCALPHA">      0.00000000</i>
   <i name="ALDAX">      1.00000000</i>
   <i name="AGGAX">      1.00000000</i>
   <i name="ALDAC">      1.00000000</i>
   <i name="AGGAC">      1.00000000</i>
   <i type="int" name="NKREDX">     1</i>
   <i type="int" name="NKREDY">     1</i>
   <i type="int" name="NKREDZ">     1</i>
   <i type="logical" name="SHIFTRED"> F  </i>
   <i type="logical" name="ODDONLY"> F  </i>
   <i type="logical" name="EVENONLY"> F  </i>
   <i type="int" name="LMAXFOCK">     0</i>
   <i type="int" name="NMAXFOCKAE">     0</i>
   <i type="logical" name="LFOCKAEDFT"> F  </i>
   <i name="HFSCREEN">      0.00000000</i>
   <i name="HFSCREENC">      0.00000000</i>
   <i type="int" name="NBANDSGWLOW">     0</i>
  </separator>
  <separator name="vdW DFT" >
   <i type="logical" name="LUSE_VDW"> F  </i>
   <i name="Zab_VDW">     -0.84910000</i>
   <i name="PARAM1">      0.12340000</i>
   <i name="PARAM2">      1.00000000</i>
   <i name="PARAM3">      0.00000000</i>
  </separator>
  <separator name="model GW" >
   <i type="int" name="MODEL_GW">     0</i>
   <i name="MODEL_EPS0">    284.21052632</i>
   <i name="MODEL_ALPHA">      1.00000000</i>
  </separator>
  <separator name="linear response parameters" >
   <i type="logical" name="LEPSILON"> F  </i>
   <i type="logical" name="LRPA"> F  </i>
   <i type="logical" name="LNABLA"> F  </i>
   <i type="logical" name="LVEL"> F  </i>
   <i type="int" name="KINTER">     0</i>
   <i name="CSHIFT">      0.10000000</i>
   <i name="OMEGAMAX">     -1.00000000</i>
   <i name="DEG_THRESHOLD">      0.00200000</i>
   <i name="RTIME">     -0.10000000</i>
   <i name="WPLASMAI">      0.00000000</i>
   <v name="DFIELD">      0.00000000      0.00000000      0.00000000</v>
   <v name="WPLASMA">      0.00000000      0.00000000      0.00000000      0.00000000      0.00000000      0.00000000      0.00000000      0.00000000      0.00000000</v>
  </separator>
  <separator name="orbital magnetization" >
   <i type="logical" name="NUCIND"> F  </i>
   <v name="MAGPOS">      0.00000000      0.00000000      0.00000000</v>
   <i type="logical" name="LNICSALL"> T  </i>
   <i type="logical" name="ORBITALMAG"> F  </i>
   <i type="logical" name="LMAGBLOCH"> F  </i>
   <i type="logical" name="LCHIMAG"> F  </i>
   <i type="logical" name="LGAUGE"> T  </i>
   <i type="int" name="MAGATOM">     0</i>
   <v name="MAGDIPOL">      0.00000000      0.00000000      0.00000000</v>
   <v name="AVECCONST">      0.00000000      0.00000000      0.00000000</v>
  </separator>
  <separator name="response functions" >
   <i type="logical" name="LADDER"> F  </i>
   <i type="logical" name="LRPAFORCE"> F  </i>
   <i type="logical" name="LFXC"> F  </i>
   <i type="logical" name="LHARTREE"> T  </i>
   <i type="int" name="IBSE">     0</i>
   <v type="int" name="KPOINT">    -1     0     0     0</v>
   <i type="logical" name="LTCTE"> F  </i>
   <i type="logical" name="LTETE"> F  </i>
   <i type="logical" name="LTRIPLET"> F  </i>
   <i type="logical" name="LFXCEPS"> F  </i>
   <i type="logical" name="LFXHEG"> F  </i>
   <i type="int" name="NATURALO">     2</i>
   <i type="logical" name="L2ORDER"> F  </i>
   <i type="logical" name="LMP2LT"> F  </i>
   <i type="logical" name="LUSEW"> F  </i>
   <i name="ENCUTGW">     -2.00000000</i>
   <i name="ENCUTGWSOFT">     -2.00000000</i>
   <i name="ENCUTLF">     -1.00000000</i>
   <i type="int" name="LMAXMP2">    -1</i>
   <i name="SCISSOR">      0.00000000</i>
   <i type="int" name="NOMEGA">     0</i>
   <i type="int" name="NOMEGAR">     0</i>
   <i type="int" name="NBANDSGW">    -1</i>
   <i type="int" name="NBANDSO">    -1</i>
   <i type="int" name="NBANDSV">    -1</i>
   <i type="int" name="NELM">   100</i>
   <i type="int" name="NELMHF">     1</i>
   <i type="int" name="DIM">     3</i>
   <i type="int" name="ANTIRES">     0</i>
   <i name="OMEGAMAX">    -30.00000000</i>
   <i name="OMEGAMIN">    -30.00000000</i>
   <i name="OMEGATL">   -200.00000000</i>
   <i type="int" name="OMEGAGRID">   140</i>
   <i name="CSHIFT">     -0.10000000</i>
   <i type="logical" name="SELFENERGY"> F  </i>
   <i type="logical" name="LSPECTRAL"> F  </i>
   <i type="logical" name="LSPECTRALGW"> F  </i>
   <i type="logical" name="LSINGLES"> F  </i>
   <i type="logical" name="LFERMIGW"> F  </i>
   <i type="logical" name="ODDONLYGW"> F  </i>
   <i type="logical" name="EVENONLYGW"> F  </i>
   <i type="int" name="NKREDLFX">     1</i>
   <i type="int" name="NKREDLFY">     1</i>
   <i type="int" name="NKREDLFZ">     1</i>
   <i type="int" name="MAXMEM"> 10000</i>
   <i type="int" name="TELESCOPE">     0</i>
   <i type="int" name="TAUPAR">     1</i>
   <i type="int" name="OMEGAPAR">    -1</i>
   <i name="LAMBDA">      1.00000000</i>
  </separator>
  <separator name="External order field" >
   <i name="OFIELD_KAPPA">      0.00000000</i>
   <v name="OFIELD_K">      0.00000000      0.00000000      0.00000000</v>
   <i name="OFIELD_Q6_NEAR">      0.00000000</i>
   <i name="OFIELD_Q6_FAR">      0.00000000</i>
   <i name="OFIELD_A">      0.00000000</i>
  </separator>
 </parameters>
 <atominfo>
  <atoms>      57 </atoms>
  <types>       3 </types>
  <array name="atoms" >
   <dimension dim="1">ion</dimension>
   <field type="string">element</field>
   <field type="int">atomtype</field>
   <set>
    <rc><c>Pd</c><c>   1</c></rc>
    <rc><c>Pd</c><c>   1</c></rc>
    <rc><c>Pd</c><c>   1</c></rc>
    <rc><c>Pd</c><c>   1</c></rc>
    <rc><c>Pd</c><c>   1</c></rc>
    <rc><c>Pd</c><c>   1</c></rc>
    <rc><c>Pd</c><c>   1</c></rc>
    <rc><c>Pd</c><c>   1</c></rc>
    <rc><c>Pd</c><c>   1</c></rc>
    <rc><c>Pd</c><c>   1</c></rc>
    <rc><c>Pd</c><c>   1</c></rc>
    <rc><c>Pd</c><c>   1</c></rc>
    <rc><c>Pd</c><c>   1</c></rc>
    <rc><c>Pd</c><c>   1</c></rc>
    <rc><c>Pd</c><c>   1</c></rc>
    <rc><c>Pd</c><c>   1</c></rc>
    <rc><c>Pd</c><c>   1</c></rc>
    <rc><c>Pd</c><c>   1</c></rc>
    <rc><c>Pd</c><c>   1</c></rc>
    <rc><c>Pd</c><c>   1</c></rc>
    <rc><c>Pd</c><c>   1</c></rc>
    <rc><c>Pd</c><c>   1</c></rc>
    <rc><c>Pd</c><c>   1</c></rc>
    <rc><c>Pd</c><c>   1</c></rc>
    <rc><c>Pd</c><c>   1</c></rc>
    <rc><c>Pd</c><c>   1</c></rc>
    <rc><c>Pd</c><c>   1</c></rc>
    <rc><c>Pd</c><c>   1</c></rc>
    <rc><c>Pd</c><c>   1</c></rc>
    <rc><c>Pd</c><c>   1</c></rc>
    <rc><c>Pd</c><c>   1</c></rc>
    <rc><c>Pd</c><c>   1</c></rc>
    <rc><c>Pd</c><c>   1</c></rc>
    <rc><c>Pd</c><c>   1</c></rc>
    <rc><c>Pd</c><c>   1</c></rc>
    <rc><c>Pd</c><c>   1</c></rc>
    <rc><c>Pd</c><c>   1</c></rc>
    <rc><c>Pd</c><c>   1</c></rc>
    <rc><c>Pd</c><c>   1</c></rc>
    <rc><c>Pd</c><c>   1</c></rc>
    <rc><c>Pd</c><c>   1</c></rc>
    <rc><c>Pd</c><c>   1</c></rc>
    <rc><c>Pd</c><c>   1</c></rc>
    <rc><c>Pd</c><c>   1</c></rc>
    <rc><c>Pd</c><c>   1</c></rc>
    <rc><c>Pd</c><c>   1</c></rc>
    <rc><c>Pd</c><c>   1</c></rc>
    <rc><c>Pd</c><c>   1</c></rc>
    <rc><c>Pd</c><c>   1</c></rc>
    <rc><c>Pd</c><c>   1</c></rc>
    <rc><c>Pd</c><c>   1</c></rc>
    <rc><c>Pd</c><c>   1</c></rc>
    <rc><c>Pd</c><c>   1</c></rc>
    <rc><c>Pd</c><c>   1</c></rc>
    <rc><c>Pd</c><c>   1</c></rc>
    <rc><c>C </c><c>   2</c></rc>
    <rc><c>O </c><c>   3</c></rc>
   </set>
  </array>
  <array name="atomtypes" >
   <dimension dim="1">type</dimension>
   <field type="int">atomspertype</field>
   <field type="string">element</field>
   <field>mass</field>
   <field>valence</field>
   <field type="string">pseudopotential</field>
   <set>
    <rc><c>  55</c><c>Pd</c><c>    106.42000000</c><c>     10.00000000</c><c>  PAW_PBE Pd 04Jan2005                  </c></rc>
    <rc><c>   1</c><c>C </c><c>     12.01100000</c><c>      4.00000000</c><c>  PAW_PBE C 08Apr2002                   </c></rc>
    <rc><c>   1</c><c>O </c><c>     16.00000000</c><c>      6.00000000</c><c>  PAW_PBE O 08Apr2002                   </c></rc>
   </set>
  </array>
 </atominfo>
 <structure name="initialpos" >
  <crystal>
   <varray name="basis" >
    <v>      30.00000000       0.00000000       0.00000000 </v>
    <v>       0.00000000      30.00000000       0.00000000 </v>
    <v>       0.00000000       0.00000000      30.00000000 </v>
   </varray>
   <i name="volume">  27000.00000000 </i>
   <varray name="rec_basis" >
    <v>       0.03333333       0.00000000       0.00000000 </v>
    <v>       0.00000000       0.03333333       0.00000000 </v>
    <v>       0.00000000       0.00000000       0.03333333 </v>
   </varray>
  </crystal>
  <varray name="positions" >
   <v>       0.44576020       0.32826710       0.41691983 </v>
   <v>       0.67173288       0.55423978       0.41691983 </v>
   <v>       0.55423980       0.32826710       0.41691983 </v>
   <v>       0.32826712       0.55423978       0.41691983 </v>
   <v>       0.50000000       0.38250690       0.34021317 </v>
   <v>       0.50000000       0.38250690       0.65978680 </v>
   <v>       0.50000000       0.27609440       0.50000000 </v>
   <v>       0.27609443       0.49999998       0.50000000 </v>
   <v>       0.72390557       0.49999998       0.50000000 </v>
   <v>       0.50000000       0.72390555       0.50000000 </v>
   <v>       0.61195280       0.38804720       0.34167483 </v>
   <v>       0.61195280       0.38804720       0.65832513 </v>
   <v>       0.38804722       0.61195278       0.34167483 </v>
   <v>       0.38804722       0.61195278       0.65832513 </v>
   <v>       0.38804720       0.38804720       0.34167483 </v>
   <v>       0.38804720       0.38804720       0.65832513 </v>
   <v>       0.61195278       0.61195278       0.34167483 </v>
   <v>       0.61195278       0.61195278       0.65832513 </v>
   <v>       0.44576020       0.32826710       0.58308023 </v>
   <v>       0.67173288       0.55423978       0.58308023 </v>
   <v>       0.55791699       0.44208301       0.41809300 </v>
   <v>       0.32826705       0.44576024       0.41691983 </v>
   <v>       0.55423973       0.67173293       0.41691983 </v>
   <v>       0.55423980       0.32826710       0.58308023 </v>
   <v>       0.32826712       0.55423978       0.58308023 </v>
   <v>       0.67173295       0.44576024       0.41691983 </v>
   <v>       0.44576027       0.67173293       0.41691983 </v>
   <v>       0.44208301       0.44208301       0.41809300 </v>
   <v>       0.50000000       0.38416601       0.50000000 </v>
   <v>       0.61749315       0.50000005       0.34021317 </v>
   <v>       0.61749315       0.50000005       0.65978680 </v>
   <v>       0.38250685       0.50000005       0.34021317 </v>
   <v>       0.38250685       0.50000005       0.65978680 </v>
   <v>       0.38317830       0.38317830       0.50000000 </v>
   <v>       0.61682172       0.61682172       0.50000000 </v>
   <v>       0.61682170       0.38317830       0.50000000 </v>
   <v>       0.38317828       0.61682172       0.50000000 </v>
   <v>       0.50000000       0.50000000       0.33478917 </v>
   <v>       0.50000000       0.50000000       0.66521087 </v>
   <v>       0.32826705       0.44576024       0.58308023 </v>
   <v>       0.55423973       0.67173293       0.58308023 </v>
   <v>       0.55791699       0.44208301       0.58190703 </v>
   <v>       0.44208298       0.55791702       0.41809300 </v>
   <v>       0.44208301       0.44208301       0.58190703 </v>
   <v>       0.67173295       0.44576024       0.58308023 </v>
   <v>       0.44576027       0.67173293       0.58308023 </v>
   <v>       0.55791702       0.55791702       0.41809300 </v>
   <v>       0.38416599       0.50000002       0.50000000 </v>
   <v>       0.61583401       0.50000002       0.50000000 </v>
   <v>       0.50000000       0.61749319       0.34021317 </v>
   <v>       0.50000000       0.61749319       0.65978680 </v>
   <v>       0.50000000       0.50000000       0.50000000 </v>
   <v>       0.44208298       0.55791702       0.58190703 </v>
   <v>       0.55791702       0.55791702       0.58190703 </v>
   <v>       0.50000000       0.61583404       0.50000000 </v>
   <v>       0.74986593       0.44414833       0.42123427 </v>
   <v>       0.78493823       0.43630877       0.41017837 </v>
  </varray>
  <varray name="selective"  type="logical" >
   <v type="logical" >  F  F  F </v>
   <v type="logical" >  F  F  F </v>
   <v type="logical" >  F  F  F </v>
   <v type="logical" >  F  F  F </v>
   <v type="logical" >  F  F  F </v>
   <v type="logical" >  F  F  F </v>
   <v type="logical" >  F  F  F </v>
   <v type="logical" >  F  F  F </v>
   <v type="logical" >  F  F  F </v>
   <v type="logical" >  F  F  F </v>
   <v type="logical" >  F  F  F </v>
   <v type="logical" >  F  F  F </v>
   <v type="logical" >  F  F  F </v>
   <v type="logical" >  F  F  F </v>
   <v type="logical" >  F  F  F </v>
   <v type="logical" >  F  F  F </v>
   <v type="logical" >  F  F  F </v>
   <v type="logical" >  F  F  F </v>
   <v type="logical" >  F  F  F </v>
   <v type="logical" >  F  F  F </v>
   <v type="logical" >  F  F  F </v>
   <v type="logical" >  F  F  F </v>
   <v type="logical" >  F  F  F </v>
   <v type="logical" >  F  F  F </v>
   <v type="logical" >  F  F  F </v>
   <v type="logical" >  F  F  F </v>
   <v type="logical" >  F  F  F </v>
   <v type="logical" >  F  F  F </v>
   <v type="logical" >  F  F  F </v>
   <v type="logical" >  F  F  F </v>
   <v type="logical" >  F  F  F </v>
   <v type="logical" >  F  F  F </v>
   <v type="logical" >  F  F  F </v>
   <v type="logical" >  F  F  F </v>
   <v type="logical" >  F  F  F </v>
   <v type="logical" >  F  F  F </v>
   <v type="logical" >  F  F  F </v>
   <v type="logical" >  F  F  F </v>
   <v type="logical" >  F  F  F </v>
   <v type="logical" >  F  F  F </v>
   <v type="logical" >  F  F  F </v>
   <v type="logical" >  F  F  F </v>
   <v type="logical" >  F  F  F </v>
   <v type="logical" >  F  F  F </v>
   <v type="logical" >  F  F  F </v>
   <v type="logical" >  F  F  F </v>
   <v type="logical" >  F  F  F </v>
   <v type="logical" >  F  F  F </v>
   <v type="logical" >  F  F  F </v>
   <v type="logical" >  F  F  F </v>
   <v type="logical" >  F  F  F </v>
   <v type="logical" >  F  F  F </v>
   <v type="logical" >  F  F  F </v>
   <v type="logical" >  F  F  F </v>
   <v type="logical" >  F  F  F </v>
   <v type="logical" >  F  F  F </v>
   <v type="logical" >  F  F  F </v>
  </varray>
  <nose>
   <v>      -3.00000000       0.00000000       0.00010000       0.00010000 </v>
  </nose>
 </structure>
 <calculation>
  <scstep>
   <time name="dav">  543.74  543.94</time>
   <time name="total">  561.39  561.58</time>
   <energy>
    <i name="alphaZ">     75.25431677 </i>
    <i name="ewald"> 137713.53208954 </i>
    <i name="hartreedc">-181079.46625707 </i>
    <i name="XCdc">  -1703.61892469 </i>
    <i name="pawpsdc">  44873.02882129 </i>
    <i name="pawaedc"> -41398.84523641 </i>
    <i name="eentropy">      0.00033586 </i>
    <i name="bandstr">    816.84968420 </i>
    <i name="atom">  45086.50549395 </i>
    <i name="e_fr_energy">   4383.24032345 </i>
    <i name="e_wo_entrp">   4383.23998759 </i>
    <i name="e_0_energy">   4383.24023949 </i>
   </energy>
  </scstep>
  <scstep>
   <time name="dav">  822.50  822.57</time>
   <time name="total">  822.50  822.57</time>
   <energy>
    <i name="e_fr_energy">   2026.41686991 </i>
    <i name="e_wo_entrp">   2026.42087724 </i>
    <i name="e_0_energy">   2026.41787174 </i>
   </energy>
  </scstep>
  <scstep>
   <time name="dav">  689.31  689.36</time>
   <time name="total">  689.31  689.37</time>
   <energy>
    <i name="e_fr_energy">    240.94938346 </i>
    <i name="e_wo_entrp">    240.97133157 </i>
    <i name="e_0_energy">    240.95487049 </i>
   </energy>
  </scstep>
  <scstep>
   <time name="dav">  621.36  621.41</time>
   <time name="total">  621.36  621.41</time>
   <energy>
    <i name="e_fr_energy">   -132.63677275 </i>
    <i name="e_wo_entrp">   -132.59091706 </i>
    <i name="e_0_energy">   -132.62530882 </i>
   </energy>
  </scstep>
  <scstep>
   <time name="dav">  724.52  724.58</time>
   <time name="total">  756.73  756.79</time>
   <energy>
    <i name="e_fr_energy">   -178.88990027 </i>
    <i name="e_wo_entrp">   -179.39069075 </i>
    <i name="e_0_energy">   -179.01509789 </i>
   </energy>
  </scstep>
  <scstep>
   <time name="diag">   92.33   92.34</time>
   <time name="diis">  230.19  230.21</time>
   <time name="orth">   26.24   26.24</time>
   <time name="total">  401.89  401.93</time>
   <energy>
    <i name="e_fr_energy">   -179.46829957 </i>
    <i name="e_wo_entrp">   -179.47548780 </i>
    <i name="e_0_energy">   -179.47009663 </i>
   </energy>
  </scstep>
  <scstep>
   <time name="diag">   96.20   96.21</time>
   <time name="diis">  289.36  289.39</time>
   <time name="orth">   26.64   26.64</time>
   <time name="total">  464.16  464.20</time>
   <energy>
    <i name="e_fr_energy">   -181.65727721 </i>
    <i name="e_wo_entrp">   -181.67439163 </i>
    <i name="e_0_energy">   -181.66155581 </i>
   </energy>
  </scstep>
  <scstep>
   <time name="diag">  107.82  107.83</time>
   <time name="diis">  280.60  280.63</time>
   <time name="orth">   25.37   25.37</time>
   <time name="total">  463.21  463.26</time>
   <energy>
    <i name="e_fr_energy">   -182.69525769 </i>
    <i name="e_wo_entrp">   -182.52864165 </i>
    <i name="e_0_energy">   -182.65360368 </i>
   </energy>
  </scstep>
  <scstep>
   <time name="diag">   92.09   92.10</time>
   <time name="diis">  218.06  218.07</time>
   <time name="orth">   25.10   25.10</time>
   <time name="total">  380.77  380.80</time>
   <energy>
    <i name="e_fr_energy">   -181.36409526 </i>
    <i name="e_wo_entrp">   -181.22939637 </i>
    <i name="e_0_energy">   -181.33042053 </i>
   </energy>
  </scstep>
  <scstep>
   <time name="diag">   95.41   95.41</time>
   <time name="diis">  245.78  245.80</time>
   <time name="orth">   25.97   25.97</time>
   <time name="total">  412.35  412.39</time>
   <energy>
    <i name="e_fr_energy">   -179.14939147 </i>
    <i name="e_wo_entrp">   -179.04356863 </i>
    <i name="e_0_energy">   -179.12293576 </i>
   </energy>
  </scstep>
  <scstep>
   <time name="diag">   96.71   96.72</time>
   <time name="diis">  234.52  234.54</time>
   <time name="orth">   26.05   26.06</time>
   <time name="total">  403.45  403.49</time>
   <energy>
    <i name="e_fr_energy">   -177.97374274 </i>
    <i name="e_wo_entrp">   -177.85197683 </i>
    <i name="e_0_energy">   -177.94330126 </i>
   </energy>
  </scstep>
  <scstep>
   <time name="diag">   99.32   99.32</time>
   <time name="diis">  259.95  259.98</time>
   <time name="orth">   26.90   26.90</time>
   <time name="total">  437.32  437.36</time>
   <energy>
    <i name="e_fr_energy">   -176.95704324 </i>
    <i name="e_wo_entrp">   -176.94399298 </i>
    <i name="e_0_energy">   -176.95378067 </i>
   </energy>
  </scstep>
  <scstep>
   <time name="diag">  106.03  106.05</time>
   <time name="diis">  272.04  272.07</time>
   <time name="orth">   28.21   28.21</time>
   <time name="total">  460.39  460.44</time>
   <energy>
    <i name="e_fr_energy">   -176.21122846 </i>
    <i name="e_wo_entrp">   -176.04507458 </i>
    <i name="e_0_energy">   -176.16968999 </i>
   </energy>
  </scstep>
  <scstep>
   <time name="diag">  115.88  115.89</time>
   <time name="diis">  259.00  259.02</time>
   <time name="orth">   26.60   26.60</time>
   <time name="total">  455.61  455.66</time>
   <energy>
    <i name="e_fr_energy">   -176.51864756 </i>
    <i name="e_wo_entrp">   -176.47004900 </i>
    <i name="e_0_energy">   -176.50649792 </i>
   </energy>
  </scstep>
  <scstep>
   <time name="diag">   98.97   98.98</time>
   <time name="diis">  230.74  230.76</time>
   <time name="orth">   25.73   25.73</time>
   <time name="total">  401.20  401.24</time>
   <energy>
    <i name="e_fr_energy">   -175.86432011 </i>
    <i name="e_wo_entrp">   -175.81691220 </i>
    <i name="e_0_energy">   -175.85246813 </i>
   </energy>
  </scstep>
  <scstep>
   <time name="diag">   97.80   97.81</time>
   <time name="diis">  228.54  228.57</time>
   <time name="orth">   24.92   24.92</time>
   <time name="total">  396.86  396.90</time>
   <energy>
    <i name="e_fr_energy">   -175.95307654 </i>
    <i name="e_wo_entrp">   -176.09656686 </i>
    <i name="e_0_energy">   -175.98894912 </i>
   </energy>
  </scstep>
  <scstep>
   <time name="diag">   98.87   98.88</time>
   <time name="diis">  227.97  227.99</time>
   <time name="orth">   25.88   25.88</time>
   <time name="total">  401.06  401.10</time>
   <energy>
    <i name="e_fr_energy">   -175.63862841 </i>
    <i name="e_wo_entrp">   -175.60724318 </i>
    <i name="e_0_energy">   -175.63078210 </i>
   </energy>
  </scstep>
  <scstep>
   <time name="diag">   95.68   95.69</time>
   <time name="diis">  223.30  223.32</time>
   <time name="orth">   26.18   26.18</time>
   <time name="total">  393.68  393.72</time>
   <energy>
    <i name="e_fr_energy">   -175.67316391 </i>
    <i name="e_wo_entrp">   -175.68616954 </i>
    <i name="e_0_energy">   -175.67641531 </i>
   </energy>
  </scstep>
  <scstep>
   <time name="diag">   96.17   96.18</time>
   <time name="diis">  233.69  233.71</time>
   <time name="orth">   27.40   27.40</time>
   <time name="total">  413.00  413.04</time>
   <energy>
    <i name="e_fr_energy">   -175.79384299 </i>
    <i name="e_wo_entrp">   -175.89021881 </i>
    <i name="e_0_energy">   -175.81793694 </i>
   </energy>
  </scstep>
  <scstep>
   <time name="diag">  102.83  102.84</time>
   <time name="diis">  237.55  237.57</time>
   <time name="orth">   26.14   26.14</time>
   <time name="total">  419.88  419.93</time>
   <energy>
    <i name="e_fr_energy">   -175.49680981 </i>
    <i name="e_wo_entrp">   -175.52628744 </i>
    <i name="e_0_energy">   -175.50417922 </i>
   </energy>
  </scstep>
  <scstep>
   <time name="diag">  107.85  107.86</time>
   <time name="diis">  275.43  275.45</time>
   <time name="orth">   26.98   26.98</time>
   <time name="total">  464.15  464.19</time>
   <energy>
    <i name="e_fr_energy">   -175.20005661 </i>
    <i name="e_wo_entrp">   -175.20974139 </i>
    <i name="e_0_energy">   -175.20247780 </i>
   </energy>
  </scstep>
  <scstep>
   <time name="diag">  102.18  102.19</time>
   <time name="diis">  221.12  221.14</time>
   <time name="orth">   24.78   24.78</time>
   <time name="total">  397.69  397.72</time>
   <energy>
    <i name="e_fr_energy">   -175.07643927 </i>
    <i name="e_wo_entrp">   -174.99332504 </i>
    <i name="e_0_energy">   -175.05566071 </i>
   </energy>
  </scstep>
  <scstep>
   <time name="diag">   96.35   96.36</time>
   <time name="diis">  229.98  230.00</time>
   <time name="orth">   24.90   24.90</time>
   <time name="total">  399.69  399.73</time>
   <energy>
    <i name="e_fr_energy">   -174.89962109 </i>
    <i name="e_wo_entrp">   -174.76640082 </i>
    <i name="e_0_energy">   -174.86631602 </i>
   </energy>
  </scstep>
  <scstep>
   <time name="diag">   96.85   96.86</time>
   <time name="diis">  224.68  224.70</time>
   <time name="orth">   25.83   25.83</time>
   <time name="total">  397.69  397.73</time>
   <energy>
    <i name="e_fr_energy">   -174.62203179 </i>
    <i name="e_wo_entrp">   -174.49397276 </i>
    <i name="e_0_energy">   -174.59001703 </i>
   </energy>
  </scstep>
  <scstep>
   <time name="diag">   99.15   99.16</time>
   <time name="diis">  223.58  223.60</time>
   <time name="orth">   25.91   25.91</time>
   <time name="total">  399.51  399.54</time>
   <energy>
    <i name="e_fr_energy">   -174.63739125 </i>
    <i name="e_wo_entrp">   -174.52569441 </i>
    <i name="e_0_energy">   -174.60946704 </i>
   </energy>
  </scstep>
  <scstep>
   <time name="diag">   99.39   99.40</time>
   <time name="diis">  221.65  221.67</time>
   <time name="orth">   25.49   25.49</time>
   <time name="total">  396.91  396.95</time>
   <energy>
    <i name="e_fr_energy">   -174.55360053 </i>
    <i name="e_wo_entrp">   -174.47305107 </i>
    <i name="e_0_energy">   -174.53346317 </i>
   </energy>
  </scstep>
  <scstep>
   <time name="diag">   99.60   99.61</time>
   <time name="diis">  222.19  222.21</time>
   <time name="orth">   26.37   26.37</time>
   <time name="total">  397.24  397.28</time>
   <energy>
    <i name="e_fr_energy">   -174.48824654 </i>
    <i name="e_wo_entrp">   -174.38674530 </i>
    <i name="e_0_energy">   -174.46287123 </i>
   </energy>
  </scstep>
  <scstep>
   <time name="diag">  101.29  101.30</time>
   <time name="diis">  236.34  236.36</time>
   <time name="orth">   27.44   27.44</time>
   <time name="total">  422.68  422.72</time>
   <energy>
    <i name="e_fr_energy">   -174.48942124 </i>
    <i name="e_wo_entrp">   -174.38312068 </i>
    <i name="e_0_energy">   -174.46284610 </i>
   </energy>
  </scstep>
  <scstep>
   <time name="diag">  104.76  104.77</time>
   <time name="diis">  248.14  248.17</time>
   <time name="orth">   28.31   28.31</time>
   <time name="total">  438.49  438.53</time>
   <energy>
    <i name="e_fr_energy">   -174.45096520 </i>
    <i name="e_wo_entrp">   -174.34501200 </i>
    <i name="e_0_energy">   -174.42447690 </i>
   </energy>
  </scstep>
  <scstep>
   <time name="diag">  110.33  110.34</time>
   <time name="diis">  255.42  255.45</time>
   <time name="orth">   27.25   27.26</time>
   <time name="total">  452.50  452.55</time>
   <energy>
    <i name="e_fr_energy">   -174.43683109 </i>
    <i name="e_wo_entrp">   -174.32641264 </i>
    <i name="e_0_energy">   -174.40922648 </i>
   </energy>
  </scstep>
  <scstep>
   <time name="diag">  113.75  113.76</time>
   <time name="diis">  251.69  251.72</time>
   <time name="orth">   26.46   26.46</time>
   <time name="total">  451.26  451.30</time>
   <energy>
    <i name="e_fr_energy">   -174.43219938 </i>
    <i name="e_wo_entrp">   -174.31302990 </i>
    <i name="e_0_energy">   -174.40240701 </i>
   </energy>
  </scstep>
  <scstep>
   <time name="diag">  101.18  101.19</time>
   <time name="diis">  212.27  212.29</time>
   <time name="orth">   24.77   24.77</time>
   <time name="total">  388.30  388.33</time>
   <energy>
    <i name="e_fr_energy">   -174.41536049 </i>
    <i name="e_wo_entrp">   -174.30342679 </i>
    <i name="e_0_energy">   -174.38737706 </i>
   </energy>
  </scstep>
  <scstep>
   <time name="diag">   97.52   97.53</time>
   <time name="diis">  214.51  214.53</time>
   <time name="orth">   24.79   24.79</time>
   <time name="total">  383.60  383.64</time>
   <energy>
    <i name="e_fr_energy">   -174.41175135 </i>
    <i name="e_wo_entrp">   -174.30365153 </i>
    <i name="e_0_energy">   -174.38472639 </i>
   </energy>
  </scstep>
  <scstep>
   <time name="diag">   93.06   93.07</time>
   <time name="diis">  202.90  202.92</time>
   <time name="orth">   25.31   25.31</time>
   <time name="total">  370.22  370.25</time>
   <energy>
    <i name="e_fr_energy">   -174.40927399 </i>
    <i name="e_wo_entrp">   -174.29785684 </i>
    <i name="e_0_energy">   -174.38141971 </i>
   </energy>
  </scstep>
  <scstep>
   <time name="diag">   98.22   98.23</time>
   <time name="diis">  215.14  215.16</time>
   <time name="orth">   25.56   25.56</time>
   <time name="total">  389.21  389.25</time>
   <energy>
    <i name="e_fr_energy">   -174.40403216 </i>
    <i name="e_wo_entrp">   -174.29065814 </i>
    <i name="e_0_energy">   -174.37568865 </i>
   </energy>
  </scstep>
  <scstep>
   <time name="diag">   97.47   97.48</time>
   <time name="diis">  213.61  213.63</time>
   <time name="orth">   25.72   25.72</time>
   <time name="total">  387.10  387.14</time>
   <energy>
    <i name="e_fr_energy">   -174.40407670 </i>
    <i name="e_wo_entrp">   -174.29211721 </i>
    <i name="e_0_energy">   -174.37608683 </i>
   </energy>
  </scstep>
  <scstep>
   <time name="diag">   97.38   97.39</time>
   <time name="diis">  215.45  215.47</time>
   <time name="orth">   25.17   25.17</time>
   <time name="total">  387.51  387.54</time>
   <energy>
    <i name="e_fr_energy">   -174.40458763 </i>
    <i name="e_wo_entrp">   -174.29184993 </i>
    <i name="e_0_energy">   -174.37640320 </i>
   </energy>
  </scstep>
  <scstep>
   <time name="diag">   96.66   96.67</time>
   <time name="diis">  215.26  215.28</time>
   <time name="orth">   25.77   25.77</time>
   <time name="total">  387.95  387.99</time>
   <energy>
    <i name="e_fr_energy">   -174.40525631 </i>
    <i name="e_wo_entrp">   -174.29347290 </i>
    <i name="e_0_energy">   -174.37731046 </i>
   </energy>
  </scstep>
  <scstep>
   <time name="diag">   96.50   96.51</time>
   <time name="diis">  213.70  213.73</time>
   <time name="orth">   25.56   25.56</time>
   <time name="total">  352.26  352.30</time>
   <energy>
    <i name="alphaZ">     75.25431677 </i>
    <i name="ewald"> 137713.53208954 </i>
    <i name="hartreedc">-182034.82708094 </i>
    <i name="XCdc">  -1693.18098174 </i>
    <i name="pawpsdc">  46071.47188142 </i>
    <i name="pawaedc"> -42541.23653120 </i>
    <i name="eentropy">     -0.11155145 </i>
    <i name="bandstr">  -2851.81295378 </i>
    <i name="atom">  45086.50549395 </i>
    <i name="e_fr_energy">   -174.40531743 </i>
    <i name="e_wo_entrp">   -174.29376599 </i>
    <i name="e_0_energy">   -174.37742957 </i>
   </energy>
  </scstep>
  <structure>
   <crystal>
    <varray name="basis" >
     <v>      30.00000000       0.00000000       0.00000000 </v>
     <v>       0.00000000      30.00000000       0.00000000 </v>
     <v>       0.00000000       0.00000000      30.00000000 </v>
    </varray>
    <i name="volume">  27000.00000000 </i>
    <varray name="rec_basis" >
     <v>       0.03333333       0.00000000       0.00000000 </v>
     <v>       0.00000000       0.03333333       0.00000000 </v>
     <v>       0.00000000       0.00000000       0.03333333 </v>
    </varray>
   </crystal>
   <varray name="positions" >
    <v>       0.44576020       0.32826710       0.41691983 </v>
    <v>       0.67173288       0.55423978       0.41691983 </v>
    <v>       0.55423980       0.32826710       0.41691983 </v>
    <v>       0.32826712       0.55423978       0.41691983 </v>
    <v>       0.50000000       0.38250690       0.34021317 </v>
    <v>       0.50000000       0.38250690       0.65978680 </v>
    <v>       0.50000000       0.27609440       0.50000000 </v>
    <v>       0.27609443       0.49999998       0.50000000 </v>
    <v>       0.72390557       0.49999998       0.50000000 </v>
    <v>       0.50000000       0.72390555       0.50000000 </v>
    <v>       0.61195280       0.38804720       0.34167483 </v>
    <v>       0.61195280       0.38804720       0.65832513 </v>
    <v>       0.38804722       0.61195278       0.34167483 </v>
    <v>       0.38804722       0.61195278       0.65832513 </v>
    <v>       0.38804720       0.38804720       0.34167483 </v>
    <v>       0.38804720       0.38804720       0.65832513 </v>
    <v>       0.61195278       0.61195278       0.34167483 </v>
    <v>       0.61195278       0.61195278       0.65832513 </v>
    <v>       0.44576020       0.32826710       0.58308023 </v>
    <v>       0.67173288       0.55423978       0.58308023 </v>
    <v>       0.55791699       0.44208301       0.41809300 </v>
    <v>       0.32826705       0.44576024       0.41691983 </v>
    <v>       0.55423973       0.67173293       0.41691983 </v>
    <v>       0.55423980       0.32826710       0.58308023 </v>
    <v>       0.32826712       0.55423978       0.58308023 </v>
    <v>       0.67173295       0.44576024       0.41691983 </v>
    <v>       0.44576027       0.67173293       0.41691983 </v>
    <v>       0.44208301       0.44208301       0.41809300 </v>
    <v>       0.50000000       0.38416601       0.50000000 </v>
    <v>       0.61749315       0.50000005       0.34021317 </v>
    <v>       0.61749315       0.50000005       0.65978680 </v>
    <v>       0.38250685       0.50000005       0.34021317 </v>
    <v>       0.38250685       0.50000005       0.65978680 </v>
    <v>       0.38317830       0.38317830       0.50000000 </v>
    <v>       0.61682172       0.61682172       0.50000000 </v>
    <v>       0.61682170       0.38317830       0.50000000 </v>
    <v>       0.38317828       0.61682172       0.50000000 </v>
    <v>       0.50000000       0.50000000       0.33478917 </v>
    <v>       0.50000000       0.50000000       0.66521087 </v>
    <v>       0.32826705       0.44576024       0.58308023 </v>
    <v>       0.55423973       0.67173293       0.58308023 </v>
    <v>       0.55791699       0.44208301       0.58190703 </v>
    <v>       0.44208298       0.55791702       0.41809300 </v>
    <v>       0.44208301       0.44208301       0.58190703 </v>
    <v>       0.67173295       0.44576024       0.58308023 </v>
    <v>       0.44576027       0.67173293       0.58308023 </v>
    <v>       0.55791702       0.55791702       0.41809300 </v>
    <v>       0.38416599       0.50000002       0.50000000 </v>
    <v>       0.61583401       0.50000002       0.50000000 </v>
    <v>       0.50000000       0.61749319       0.34021317 </v>
    <v>       0.50000000       0.61749319       0.65978680 </v>
    <v>       0.50000000       0.50000000       0.50000000 </v>
    <v>       0.44208298       0.55791702       0.58190703 </v>
    <v>       0.55791702       0.55791702       0.58190703 </v>
    <v>       0.50000000       0.61583404       0.50000000 </v>
    <v>       0.74986593       0.44414833       0.42123427 </v>
    <v>       0.78493823       0.43630877       0.41017837 </v>
   </varray>
  </structure>
  <varray name="forces" >
   <v>       0.69829108       1.09738107       0.29010065 </v>
   <v>      -1.14706374      -0.61051177       0.25476655 </v>
   <v>      -0.70562861       1.11049111       0.29072954 </v>
   <v>       1.11338204      -0.69652626       0.28109596 </v>
   <v>       0.00658619       0.41855260       1.28359459 </v>
   <v>      -0.00314306       0.40769192      -1.28433507 </v>
   <v>       0.00092804       1.52528604       0.00239303 </v>
   <v>       1.45584689      -0.00152027       0.00131947 </v>
   <v>      -1.35433474      -0.17399439      -0.24401165 </v>
   <v>       0.00140897      -1.51826308       0.00388286 </v>
   <v>      -0.77464185       0.75810550       1.07335264 </v>
   <v>      -0.75699113       0.75642349      -1.07123920 </v>
   <v>       0.74567730      -0.74726768       1.05770356 </v>
   <v>       0.76070190      -0.75549968      -1.07224897 </v>
   <v>       0.75257421       0.76326926       1.07830260 </v>
   <v>       0.76150720       0.75146785      -1.07099196 </v>
   <v>      -0.73536119      -0.75910106       1.09081069 </v>
   <v>      -0.77460065      -0.74618962      -1.07267971 </v>
   <v>       0.70789232       1.10909117      -0.28756869 </v>
   <v>      -1.09789433      -0.71137773      -0.27686075 </v>
   <v>       0.20097028      -0.10521530      -0.15880353 </v>
   <v>       1.11522049       0.69442916       0.27942607 </v>
   <v>      -0.70157164      -1.10430765       0.29152699 </v>
   <v>      -0.70976640       1.10125632      -0.28491989 </v>
   <v>       1.10908520      -0.70125923      -0.28380798 </v>
   <v>       0.76159876       0.56331915       0.26023894 </v>
   <v>       0.70638056      -1.10863489       0.29332335 </v>
   <v>      -0.14067876      -0.11404629      -0.17227574 </v>
   <v>       0.00530262      -0.23037001      -0.00346377 </v>
   <v>      -0.47570789       0.00954947       1.25319383 </v>
   <v>      -0.39699208      -0.00411219      -1.28775788 </v>
   <v>       0.40471761      -0.00449905       1.27371390 </v>
   <v>       0.41149976       0.00054648      -1.27976156 </v>
   <v>       0.82411771       0.82117667       0.00064399 </v>
   <v>      -0.83419958      -0.82890662      -0.00546315 </v>
   <v>      -0.84983735       0.79629696       0.02856747 </v>
   <v>       0.83007394      -0.82590238      -0.00039668 </v>
   <v>       0.02083537      -0.00092725       1.18421220 </v>
   <v>      -0.00379225       0.00082077      -1.16401615 </v>
   <v>       1.10901676       0.70101192      -0.28494820 </v>
   <v>      -0.70513293      -1.10811062      -0.28661240 </v>
   <v>       0.11362321      -0.10812431       0.15889411 </v>
   <v>      -0.11681452       0.11039858      -0.15608474 </v>
   <v>      -0.11337660      -0.11608699       0.15781568 </v>
   <v>      -1.12226531       0.71108432      -0.25335982 </v>
   <v>       0.70738581      -1.10238178      -0.29116934 </v>
   <v>       0.11337529       0.10695304      -0.15649358 </v>
   <v>      -0.22228700       0.00251019       0.00576665 </v>
   <v>       0.15573990       0.02171546       0.05178031 </v>
   <v>      -0.00012804      -0.41421749       1.27742803 </v>
   <v>       0.00991345      -0.41107533      -1.27847131 </v>
   <v>       0.01299629       0.00211486      -0.00659627 </v>
   <v>      -0.11500499       0.11408490       0.16050168 </v>
   <v>       0.10274659       0.12158369       0.16225581 </v>
   <v>       0.00386388       0.23251875       0.00122043 </v>
   <v>      -5.16457228       0.91940785       1.21497074 </v>
   <v>       3.29852731      -0.72010964      -1.02919435 </v>
  </varray>
  <varray name="stress" >
   <v>      -6.78144493      -0.03654758      -0.07493570 </v>
   <v>      -0.03654760      -6.70191426       0.00423634 </v>
   <v>      -0.07493569       0.00423637      -6.71442289 </v>
  </varray>
  <energy>
   <i name="e_fr_energy">   -174.40531743 </i>
   <i name="e_wo_entrp">   -174.37742957 </i>
   <i name="e_0_energy">     -0.11155145 </i>
  </energy>
  <time name="totalsc">17835.3217837.13</time>
  <eigenvalues>
   <array>
    <dimension dim="1">band</dimension>
    <dimension dim="2">kpoint</dimension>
    <dimension dim="3">spin</dimension>
    <field>eigene</field>
    <field>occ</field>
    <set>
     <set comment="spin 1">
      <set comment="kpoint 1">
       <r>  -29.0348    1.0000 </r>
       <r>  -13.6162    1.0000 </r>
       <r>  -11.3861    1.0000 </r>
       <r>  -11.3670    1.0000 </r>
       <r>   -9.8991    1.0000 </r>
       <r>   -6.7159    1.0000 </r>
       <r>   -6.2012    1.0000 </r>
       <r>   -6.1981    1.0000 </r>
       <r>   -6.1876    1.0000 </r>
       <r>   -5.8956    1.0000 </r>
       <r>   -5.8836    1.0000 </r>
       <r>   -5.8779    1.0000 </r>
       <r>   -5.8289    1.0000 </r>
       <r>   -5.7746    1.0000 </r>
       <r>   -5.7635    1.0000 </r>
       <r>   -5.7568    1.0000 </r>
       <r>   -5.7556    1.0000 </r>
       <r>   -5.7303    1.0000 </r>
       <r>   -5.7000    1.0000 </r>
       <r>   -5.6930    1.0000 </r>
       <r>   -5.6909    1.0000 </r>
       <r>   -5.6732    1.0000 </r>
       <r>   -5.6678    1.0000 </r>
       <r>   -5.6481    1.0000 </r>
       <r>   -5.6357    1.0000 </r>
       <r>   -5.6200    1.0000 </r>
       <r>   -5.6191    1.0000 </r>
       <r>   -5.6127    1.0000 </r>
       <r>   -5.6069    1.0000 </r>
       <r>   -5.5931    1.0000 </r>
       <r>   -5.5905    1.0000 </r>
       <r>   -5.5891    1.0000 </r>
       <r>   -5.5862    1.0000 </r>
       <r>   -5.5848    1.0000 </r>
       <r>   -5.5803    1.0000 </r>
       <r>   -5.5708    1.0000 </r>
       <r>   -5.5548    1.0000 </r>
       <r>   -5.5534    1.0000 </r>
       <r>   -5.5454    1.0000 </r>
       <r>   -5.5415    1.0000 </r>
       <r>   -5.5410    1.0000 </r>
       <r>   -5.5397    1.0000 </r>
       <r>   -5.5388    1.0000 </r>
       <r>   -5.5188    1.0000 </r>
       <r>   -5.5082    1.0000 </r>
       <r>   -5.5061    1.0000 </r>
       <r>   -5.5017    1.0000 </r>
       <r>   -5.4994    1.0000 </r>
       <r>   -5.4989    1.0000 </r>
       <r>   -5.4956    1.0000 </r>
       <r>   -5.4925    1.0000 </r>
       <r>   -5.4886    1.0000 </r>
       <r>   -5.4780    1.0000 </r>
       <r>   -5.4767    1.0000 </r>
       <r>   -5.4648    1.0000 </r>
       <r>   -5.4198    1.0000 </r>
       <r>   -5.4169    1.0000 </r>
       <r>   -5.4018    1.0000 </r>
       <r>   -5.3984    1.0000 </r>
       <r>   -5.3973    1.0000 </r>
       <r>   -5.3929    1.0000 </r>
       <r>   -5.3885    1.0000 </r>
       <r>   -5.3810    1.0000 </r>
       <r>   -5.3735    1.0000 </r>
       <r>   -5.3718    1.0000 </r>
       <r>   -5.3667    1.0000 </r>
       <r>   -5.3611    1.0000 </r>
       <r>   -5.3179    1.0000 </r>
       <r>   -5.2931    1.0000 </r>
       <r>   -5.2893    1.0000 </r>
       <r>   -5.2779    1.0000 </r>
       <r>   -5.2714    1.0000 </r>
       <r>   -5.2622    1.0000 </r>
       <r>   -5.2570    1.0000 </r>
       <r>   -5.2519    1.0000 </r>
       <r>   -5.2510    1.0000 </r>
       <r>   -5.2492    1.0000 </r>
       <r>   -5.2352    1.0000 </r>
       <r>   -5.2342    1.0000 </r>
       <r>   -5.2252    1.0000 </r>
       <r>   -5.2123    1.0000 </r>
       <r>   -5.2069    1.0000 </r>
       <r>   -5.1968    1.0000 </r>
       <r>   -5.1955    1.0000 </r>
       <r>   -5.1808    1.0000 </r>
       <r>   -5.1786    1.0000 </r>
       <r>   -5.1746    1.0000 </r>
       <r>   -5.1691    1.0000 </r>
       <r>   -5.1403    1.0000 </r>
       <r>   -5.1296    1.0000 </r>
       <r>   -5.1280    1.0000 </r>
       <r>   -5.1260    1.0000 </r>
       <r>   -5.1251    1.0000 </r>
       <r>   -5.1222    1.0000 </r>
       <r>   -5.1205    1.0000 </r>
       <r>   -5.1084    1.0000 </r>
       <r>   -5.1043    1.0000 </r>
       <r>   -5.1010    1.0000 </r>
       <r>   -5.0979    1.0000 </r>
       <r>   -5.0891    1.0000 </r>
       <r>   -5.0881    1.0000 </r>
       <r>   -5.0855    1.0000 </r>
       <r>   -5.0763    1.0000 </r>
       <r>   -5.0738    1.0000 </r>
       <r>   -5.0693    1.0000 </r>
       <r>   -5.0652    1.0000 </r>
       <r>   -5.0608    1.0000 </r>
       <r>   -5.0560    1.0000 </r>
       <r>   -5.0538    1.0000 </r>
       <r>   -5.0459    1.0000 </r>
       <r>   -5.0427    1.0000 </r>
       <r>   -5.0384    1.0000 </r>
       <r>   -5.0322    1.0000 </r>
       <r>   -5.0283    1.0000 </r>
       <r>   -5.0270    1.0000 </r>
       <r>   -5.0246    1.0000 </r>
       <r>   -5.0165    1.0000 </r>
       <r>   -4.9983    1.0000 </r>
       <r>   -4.9952    1.0000 </r>
       <r>   -4.9896    1.0000 </r>
       <r>   -4.9855    1.0000 </r>
       <r>   -4.9797    1.0000 </r>
       <r>   -4.9756    1.0000 </r>
       <r>   -4.9741    1.0000 </r>
       <r>   -4.9727    1.0000 </r>
       <r>   -4.9706    1.0000 </r>
       <r>   -4.9305    1.0000 </r>
       <r>   -4.9228    1.0000 </r>
       <r>   -4.9189    1.0000 </r>
       <r>   -4.9158    1.0000 </r>
       <r>   -4.9119    1.0000 </r>
       <r>   -4.9102    1.0000 </r>
       <r>   -4.9063    1.0000 </r>
       <r>   -4.9021    1.0000 </r>
       <r>   -4.9007    1.0000 </r>
       <r>   -4.8828    0.9999 </r>
       <r>   -4.8685    0.9999 </r>
       <r>   -4.8646    0.9999 </r>
       <r>   -4.8619    0.9999 </r>
       <r>   -4.8450    0.9998 </r>
       <r>   -4.8406    0.9998 </r>
       <r>   -4.8357    0.9998 </r>
       <r>   -4.8188    0.9997 </r>
       <r>   -4.8138    0.9997 </r>
       <r>   -4.8096    0.9996 </r>
       <r>   -4.8027    0.9996 </r>
       <r>   -4.7959    0.9995 </r>
       <r>   -4.7864    0.9994 </r>
       <r>   -4.7830    0.9993 </r>
       <r>   -4.7697    0.9991 </r>
       <r>   -4.7587    0.9989 </r>
       <r>   -4.7569    0.9989 </r>
       <r>   -4.7530    0.9988 </r>
       <r>   -4.7503    0.9987 </r>
       <r>   -4.7478    0.9987 </r>
       <r>   -4.7460    0.9986 </r>
       <r>   -4.7437    0.9986 </r>
       <r>   -4.7412    0.9985 </r>
       <r>   -4.7361    0.9984 </r>
       <r>   -4.7326    0.9983 </r>
       <r>   -4.7252    0.9981 </r>
       <r>   -4.7209    0.9980 </r>
       <r>   -4.7191    0.9979 </r>
       <r>   -4.7181    0.9979 </r>
       <r>   -4.7170    0.9978 </r>
       <r>   -4.7158    0.9978 </r>
       <r>   -4.7152    0.9978 </r>
       <r>   -4.7089    0.9976 </r>
       <r>   -4.7017    0.9973 </r>
       <r>   -4.7012    0.9973 </r>
       <r>   -4.6821    0.9966 </r>
       <r>   -4.6778    0.9964 </r>
       <r>   -4.6719    0.9962 </r>
       <r>   -4.6701    0.9961 </r>
       <r>   -4.6669    0.9960 </r>
       <r>   -4.6652    0.9960 </r>
       <r>   -4.6640    0.9959 </r>
       <r>   -4.6617    0.9958 </r>
       <r>   -4.6555    0.9956 </r>
       <r>   -4.6465    0.9954 </r>
       <r>   -4.6459    0.9954 </r>
       <r>   -4.6422    0.9953 </r>
       <r>   -4.6327    0.9951 </r>
       <r>   -4.6281    0.9951 </r>
       <r>   -4.6272    0.9951 </r>
       <r>   -4.6241    0.9951 </r>
       <r>   -4.6232    0.9951 </r>
       <r>   -4.6195    0.9951 </r>
       <r>   -4.6183    0.9951 </r>
       <r>   -4.6169    0.9951 </r>
       <r>   -4.5966    0.9958 </r>
       <r>   -4.5804    0.9971 </r>
       <r>   -4.5785    0.9973 </r>
       <r>   -4.5766    0.9975 </r>
       <r>   -4.5753    0.9977 </r>
       <r>   -4.5681    0.9986 </r>
       <r>   -4.5605    0.9999 </r>
       <r>   -4.5535    1.0013 </r>
       <r>   -4.5523    1.0015 </r>
       <r>   -4.5510    1.0018 </r>
       <r>   -4.5445    1.0034 </r>
       <r>   -4.5361    1.0056 </r>
       <r>   -4.5336    1.0064 </r>
       <r>   -4.5298    1.0076 </r>
       <r>   -4.5266    1.0086 </r>
       <r>   -4.5201    1.0108 </r>
       <r>   -4.5178    1.0117 </r>
       <r>   -4.5162    1.0123 </r>
       <r>   -4.5150    1.0127 </r>
       <r>   -4.5093    1.0150 </r>
       <r>   -4.4956    1.0209 </r>
       <r>   -4.4902    1.0233 </r>
       <r>   -4.4856    1.0255 </r>
       <r>   -4.4824    1.0270 </r>
       <r>   -4.4807    1.0279 </r>
       <r>   -4.4776    1.0293 </r>
       <r>   -4.4753    1.0304 </r>
       <r>   -4.4741    1.0310 </r>
       <r>   -4.4707    1.0326 </r>
       <r>   -4.4478    1.0430 </r>
       <r>   -4.4428    1.0450 </r>
       <r>   -4.4368    1.0471 </r>
       <r>   -4.4331    1.0482 </r>
       <r>   -4.4281    1.0495 </r>
       <r>   -4.4149    1.0515 </r>
       <r>   -4.4099    1.0516 </r>
       <r>   -4.4073    1.0515 </r>
       <r>   -4.4068    1.0514 </r>
       <r>   -4.4049    1.0512 </r>
       <r>   -4.4029    1.0509 </r>
       <r>   -4.4023    1.0509 </r>
       <r>   -4.4006    1.0505 </r>
       <r>   -4.3983    1.0500 </r>
       <r>   -4.3960    1.0493 </r>
       <r>   -4.3943    1.0488 </r>
       <r>   -4.3927    1.0482 </r>
       <r>   -4.3906    1.0473 </r>
       <r>   -4.3889    1.0466 </r>
       <r>   -4.3874    1.0459 </r>
       <r>   -4.3862    1.0452 </r>
       <r>   -4.3749    1.0373 </r>
       <r>   -4.3710    1.0338 </r>
       <r>   -4.3638    1.0259 </r>
       <r>   -4.3582    1.0187 </r>
       <r>   -4.3555    1.0149 </r>
       <r>   -4.3543    1.0130 </r>
       <r>   -4.3537    1.0122 </r>
       <r>   -4.3513    1.0083 </r>
       <r>   -4.3482    1.0030 </r>
       <r>   -4.3384    0.9843 </r>
       <r>   -4.3343    0.9753 </r>
       <r>   -4.3309    0.9675 </r>
       <r>   -4.3271    0.9582 </r>
       <r>   -4.3240    0.9501 </r>
       <r>   -4.3235    0.9488 </r>
       <r>   -4.3207    0.9412 </r>
       <r>   -4.3172    0.9313 </r>
       <r>   -4.3159    0.9272 </r>
       <r>   -4.3141    0.9219 </r>
       <r>   -4.3128    0.9180 </r>
       <r>   -4.3114    0.9135 </r>
       <r>   -4.3103    0.9101 </r>
       <r>   -4.3086    0.9046 </r>
       <r>   -4.3072    0.9000 </r>
       <r>   -4.3052    0.8933 </r>
       <r>   -4.2966    0.8630 </r>
       <r>   -4.2945    0.8550 </r>
       <r>   -4.2921    0.8458 </r>
       <r>   -4.2901    0.8383 </r>
       <r>   -4.2888    0.8328 </r>
       <r>   -4.2865    0.8239 </r>
       <r>   -4.2796    0.7952 </r>
       <r>   -4.2679    0.7430 </r>
       <r>   -4.2641    0.7256 </r>
       <r>   -4.2534    0.6737 </r>
       <r>   -4.2509    0.6611 </r>
       <r>   -4.2460    0.6363 </r>
       <r>   -4.2453    0.6329 </r>
       <r>   -4.2431    0.6219 </r>
       <r>   -4.2409    0.6103 </r>
       <r>   -4.2351    0.5801 </r>
       <r>   -4.2264    0.5348 </r>
       <r>   -4.2007    0.3995 </r>
       <r>   -4.1975    0.3830 </r>
       <r>   -4.1972    0.3814 </r>
       <r>   -4.1962    0.3760 </r>
       <r>   -4.1849    0.3195 </r>
       <r>   -4.1840    0.3150 </r>
       <r>   -4.1783    0.2874 </r>
       <r>   -4.0336   -0.0514 </r>
       <r>   -3.9507   -0.0239 </r>
       <r>   -3.8886   -0.0018 </r>
       <r>   -3.8818   -0.0004 </r>
       <r>   -3.8177    0.0049 </r>
       <r>   -3.5658    0.0001 </r>
       <r>   -3.5553    0.0001 </r>
       <r>   -3.4992    0.0000 </r>
       <r>   -3.1376    0.0000 </r>
       <r>   -3.1239    0.0000 </r>
       <r>   -3.1110    0.0000 </r>
       <r>   -3.1042    0.0000 </r>
       <r>   -3.0818    0.0000 </r>
       <r>   -3.0224    0.0000 </r>
       <r>   -3.0004    0.0000 </r>
       <r>   -2.9465    0.0000 </r>
       <r>   -2.5974    0.0000 </r>
       <r>   -2.5886    0.0000 </r>
       <r>   -2.5186    0.0000 </r>
       <r>   -2.4114    0.0000 </r>
       <r>   -2.2670    0.0000 </r>
       <r>   -2.1849    0.0000 </r>
       <r>   -2.1520    0.0000 </r>
       <r>   -2.1422    0.0000 </r>
       <r>   -2.0408    0.0000 </r>
       <r>   -1.9989    0.0000 </r>
       <r>   -1.9419    0.0000 </r>
       <r>   -1.8861    0.0000 </r>
       <r>   -1.8289    0.0000 </r>
       <r>   -1.7903    0.0000 </r>
       <r>   -1.7085    0.0000 </r>
       <r>   -1.6960    0.0000 </r>
       <r>   -1.6285    0.0000 </r>
       <r>   -1.5764    0.0000 </r>
       <r>   -1.5251    0.0000 </r>
       <r>   -1.4293    0.0000 </r>
       <r>   -1.3016    0.0000 </r>
       <r>   -1.2652    0.0000 </r>
       <r>   -1.1942    0.0000 </r>
       <r>   -1.0714    0.0000 </r>
       <r>   -1.0651    0.0000 </r>
       <r>   -1.0409    0.0000 </r>
       <r>   -1.0163    0.0000 </r>
       <r>   -1.0043    0.0000 </r>
       <r>   -0.9974    0.0000 </r>
       <r>   -0.8450    0.0000 </r>
       <r>   -0.6425    0.0000 </r>
      </set>
     </set>
    </set>
   </array>
  </eigenvalues>
  <separator name="orbital magnetization" >
   <v name="MAGDIPOLOUT">      0.00000000      0.00000000      0.00000000</v>
  </separator>
  <dos>
   <i name="efermi">     -4.21985394 </i>
   <total>
    <array>
     <dimension dim="1">gridpoints</dimension>
     <dimension dim="2">spin</dimension>
     <field>energy</field>
     <field>total</field>
     <field>integrated</field>
     <set>
      <set comment="spin 1">
       <r>   -31.0348     0.0000     0.0000 </r>
       <r>   -30.9268     0.0000     0.0000 </r>
       <r>   -30.8188     0.0000     0.0000 </r>
       <r>   -30.7108     0.0000     0.0000 </r>
       <r>   -30.6029     0.0000     0.0000 </r>
       <r>   -30.4949     0.0000     0.0000 </r>
       <r>   -30.3869     0.0000     0.0000 </r>
       <r>   -30.2789     0.0000     0.0000 </r>
       <r>   -30.1710     0.0000     0.0000 </r>
       <r>   -30.0630     0.0000     0.0000 </r>
       <r>   -29.9550     0.0000     0.0000 </r>
       <r>   -29.8470     0.0000     0.0000 </r>
       <r>   -29.7391     0.0003     0.0000 </r>
       <r>   -29.6311     0.0057     0.0006 </r>
       <r>   -29.5231     0.0395     0.0049 </r>
       <r>   -29.4152     0.0363     0.0088 </r>
       <r>   -29.3072    -0.4966    -0.0448 </r>
       <r>   -29.1992    -0.4024    -0.0882 </r>
       <r>   -29.0912     4.8754     0.4382 </r>
       <r>   -28.9833     9.9987     1.5178 </r>
       <r>   -28.8753     5.2225     2.0817 </r>
       <r>   -28.7673    -0.2992     2.0494 </r>
       <r>   -28.6593    -0.5343     1.9917 </r>
       <r>   -28.5514     0.0282     1.9947 </r>
       <r>   -28.4434     0.0420     1.9993 </r>
       <r>   -28.3354     0.0063     2.0000 </r>
       <r>   -28.2274     0.0004     2.0000 </r>
       <r>   -28.1195     0.0000     2.0000 </r>
       <r>   -28.0115     0.0000     2.0000 </r>
       <r>   -27.9035     0.0000     2.0000 </r>
       <r>   -27.7955     0.0000     2.0000 </r>
       <r>   -27.6876     0.0000     2.0000 </r>
       <r>   -27.5796     0.0000     2.0000 </r>
       <r>   -27.4716     0.0000     2.0000 </r>
       <r>   -27.3636     0.0000     2.0000 </r>
       <r>   -27.2557     0.0000     2.0000 </r>
       <r>   -27.1477     0.0000     2.0000 </r>
       <r>   -27.0397     0.0000     2.0000 </r>
       <r>   -26.9317     0.0000     2.0000 </r>
       <r>   -26.8238     0.0000     2.0000 </r>
       <r>   -26.7158     0.0000     2.0000 </r>
       <r>   -26.6078     0.0000     2.0000 </r>
       <r>   -26.4998     0.0000     2.0000 </r>
       <r>   -26.3919     0.0000     2.0000 </r>
       <r>   -26.2839     0.0000     2.0000 </r>
       <r>   -26.1759     0.0000     2.0000 </r>
       <r>   -26.0679     0.0000     2.0000 </r>
       <r>   -25.9600     0.0000     2.0000 </r>
       <r>   -25.8520     0.0000     2.0000 </r>
       <r>   -25.7440     0.0000     2.0000 </r>
       <r>   -25.6360     0.0000     2.0000 </r>
       <r>   -25.5281     0.0000     2.0000 </r>
       <r>   -25.4201     0.0000     2.0000 </r>
       <r>   -25.3121     0.0000     2.0000 </r>
       <r>   -25.2042     0.0000     2.0000 </r>
       <r>   -25.0962     0.0000     2.0000 </r>
       <r>   -24.9882     0.0000     2.0000 </r>
       <r>   -24.8802     0.0000     2.0000 </r>
       <r>   -24.7723     0.0000     2.0000 </r>
       <r>   -24.6643     0.0000     2.0000 </r>
       <r>   -24.5563     0.0000     2.0000 </r>
       <r>   -24.4483     0.0000     2.0000 </r>
       <r>   -24.3404     0.0000     2.0000 </r>
       <r>   -24.2324     0.0000     2.0000 </r>
       <r>   -24.1244     0.0000     2.0000 </r>
       <r>   -24.0164     0.0000     2.0000 </r>
       <r>   -23.9085     0.0000     2.0000 </r>
       <r>   -23.8005     0.0000     2.0000 </r>
       <r>   -23.6925     0.0000     2.0000 </r>
       <r>   -23.5845     0.0000     2.0000 </r>
       <r>   -23.4766     0.0000     2.0000 </r>
       <r>   -23.3686     0.0000     2.0000 </r>
       <r>   -23.2606     0.0000     2.0000 </r>
       <r>   -23.1526     0.0000     2.0000 </r>
       <r>   -23.0447     0.0000     2.0000 </r>
       <r>   -22.9367     0.0000     2.0000 </r>
       <r>   -22.8287     0.0000     2.0000 </r>
       <r>   -22.7207     0.0000     2.0000 </r>
       <r>   -22.6128     0.0000     2.0000 </r>
       <r>   -22.5048     0.0000     2.0000 </r>
       <r>   -22.3968     0.0000     2.0000 </r>
       <r>   -22.2888     0.0000     2.0000 </r>
       <r>   -22.1809     0.0000     2.0000 </r>
       <r>   -22.0729     0.0000     2.0000 </r>
       <r>   -21.9649     0.0000     2.0000 </r>
       <r>   -21.8569     0.0000     2.0000 </r>
       <r>   -21.7490     0.0000     2.0000 </r>
       <r>   -21.6410     0.0000     2.0000 </r>
       <r>   -21.5330     0.0000     2.0000 </r>
       <r>   -21.4250     0.0000     2.0000 </r>
       <r>   -21.3171     0.0000     2.0000 </r>
       <r>   -21.2091     0.0000     2.0000 </r>
       <r>   -21.1011     0.0000     2.0000 </r>
       <r>   -20.9932     0.0000     2.0000 </r>
       <r>   -20.8852     0.0000     2.0000 </r>
       <r>   -20.7772     0.0000     2.0000 </r>
       <r>   -20.6692     0.0000     2.0000 </r>
       <r>   -20.5613     0.0000     2.0000 </r>
       <r>   -20.4533     0.0000     2.0000 </r>
       <r>   -20.3453     0.0000     2.0000 </r>
       <r>   -20.2373     0.0000     2.0000 </r>
       <r>   -20.1294     0.0000     2.0000 </r>
       <r>   -20.0214     0.0000     2.0000 </r>
       <r>   -19.9134     0.0000     2.0000 </r>
       <r>   -19.8054     0.0000     2.0000 </r>
       <r>   -19.6975     0.0000     2.0000 </r>
       <r>   -19.5895     0.0000     2.0000 </r>
       <r>   -19.4815     0.0000     2.0000 </r>
       <r>   -19.3735     0.0000     2.0000 </r>
       <r>   -19.2656     0.0000     2.0000 </r>
       <r>   -19.1576     0.0000     2.0000 </r>
       <r>   -19.0496     0.0000     2.0000 </r>
       <r>   -18.9416     0.0000     2.0000 </r>
       <r>   -18.8337     0.0000     2.0000 </r>
       <r>   -18.7257     0.0000     2.0000 </r>
       <r>   -18.6177     0.0000     2.0000 </r>
       <r>   -18.5097     0.0000     2.0000 </r>
       <r>   -18.4018     0.0000     2.0000 </r>
       <r>   -18.2938     0.0000     2.0000 </r>
       <r>   -18.1858     0.0000     2.0000 </r>
       <r>   -18.0778     0.0000     2.0000 </r>
       <r>   -17.9699     0.0000     2.0000 </r>
       <r>   -17.8619     0.0000     2.0000 </r>
       <r>   -17.7539     0.0000     2.0000 </r>
       <r>   -17.6459     0.0000     2.0000 </r>
       <r>   -17.5380     0.0000     2.0000 </r>
       <r>   -17.4300     0.0000     2.0000 </r>
       <r>   -17.3220     0.0000     2.0000 </r>
       <r>   -17.2140     0.0000     2.0000 </r>
       <r>   -17.1061     0.0000     2.0000 </r>
       <r>   -16.9981     0.0000     2.0000 </r>
       <r>   -16.8901     0.0000     2.0000 </r>
       <r>   -16.7822     0.0000     2.0000 </r>
       <r>   -16.6742     0.0000     2.0000 </r>
       <r>   -16.5662     0.0000     2.0000 </r>
       <r>   -16.4582     0.0000     2.0000 </r>
       <r>   -16.3503     0.0000     2.0000 </r>
       <r>   -16.2423     0.0000     2.0000 </r>
       <r>   -16.1343     0.0000     2.0000 </r>
       <r>   -16.0263     0.0000     2.0000 </r>
       <r>   -15.9184     0.0000     2.0000 </r>
       <r>   -15.8104     0.0000     2.0000 </r>
       <r>   -15.7024     0.0000     2.0000 </r>
       <r>   -15.5944     0.0000     2.0000 </r>
       <r>   -15.4865     0.0000     2.0000 </r>
       <r>   -15.3785     0.0000     2.0000 </r>
       <r>   -15.2705     0.0000     2.0000 </r>
       <r>   -15.1625     0.0000     2.0000 </r>
       <r>   -15.0546     0.0000     2.0000 </r>
       <r>   -14.9466     0.0000     2.0000 </r>
       <r>   -14.8386     0.0000     2.0000 </r>
       <r>   -14.7306     0.0000     2.0000 </r>
       <r>   -14.6227     0.0000     2.0000 </r>
       <r>   -14.5147     0.0000     2.0000 </r>
       <r>   -14.4067     0.0000     2.0000 </r>
       <r>   -14.2987     0.0006     2.0001 </r>
       <r>   -14.1908     0.0091     2.0011 </r>
       <r>   -14.0828     0.0505     2.0065 </r>
       <r>   -13.9748    -0.0098     2.0054 </r>
       <r>   -13.8668    -0.6567     1.9345 </r>
       <r>   -13.7589     0.1540     1.9512 </r>
       <r>   -13.6509     6.3913     2.6413 </r>
       <r>   -13.5429     9.8027     3.6997 </r>
       <r>   -13.4349     3.7189     4.1012 </r>
       <r>   -13.3270    -0.6584     4.0302 </r>
       <r>   -13.2190    -0.3700     3.9902 </r>
       <r>   -13.1110     0.0552     3.9962 </r>
       <r>   -13.0030     0.0315     3.9996 </r>
       <r>   -12.8951     0.0038     4.0000 </r>
       <r>   -12.7871     0.0002     4.0000 </r>
       <r>   -12.6791     0.0000     4.0000 </r>
       <r>   -12.5712     0.0000     4.0000 </r>
       <r>   -12.4632     0.0000     4.0000 </r>
       <r>   -12.3552     0.0000     4.0000 </r>
       <r>   -12.2472     0.0000     4.0000 </r>
       <r>   -12.1393     0.0001     4.0000 </r>
       <r>   -12.0313     0.0028     4.0003 </r>
       <r>   -11.9233     0.0318     4.0037 </r>
       <r>   -11.8153     0.1223     4.0170 </r>
       <r>   -11.7074    -0.2344     3.9916 </r>
       <r>   -11.5994    -1.5778     3.8213 </r>
       <r>   -11.4914     2.5952     4.1015 </r>
       <r>   -11.3834    16.2368     5.8547 </r>
       <r>   -11.2755    17.6443     7.7598 </r>
       <r>   -11.1675     4.0339     8.1953 </r>
       <r>   -11.0595    -1.6012     8.0225 </r>
       <r>   -10.9515    -0.3792     7.9815 </r>
       <r>   -10.8436     0.1263     7.9952 </r>
       <r>   -10.7356     0.0407     7.9996 </r>
       <r>   -10.6276     0.0041     8.0000 </r>
       <r>   -10.5196     0.0034     8.0004 </r>
       <r>   -10.4117     0.0281     8.0034 </r>
       <r>   -10.3037     0.0599     8.0099 </r>
       <r>   -10.1957    -0.3167     7.9757 </r>
       <r>   -10.0877    -0.7295     7.8969 </r>
       <r>    -9.9798     3.2277     8.2454 </r>
       <r>    -9.8718     9.6218     9.2843 </r>
       <r>    -9.7638     6.8921    10.0285 </r>
       <r>    -9.6558     0.4079    10.0725 </r>
       <r>    -9.5479    -0.7049     9.9964 </r>
       <r>    -9.4399    -0.0324     9.9929 </r>
       <r>    -9.3319     0.0540     9.9988 </r>
       <r>    -9.2239     0.0106     9.9999 </r>
       <r>    -9.1160     0.0008    10.0000 </r>
       <r>    -9.0080     0.0000    10.0000 </r>
       <r>    -8.9000     0.0000    10.0000 </r>
       <r>    -8.7920     0.0000    10.0000 </r>
       <r>    -8.6841     0.0000    10.0000 </r>
       <r>    -8.5761     0.0000    10.0000 </r>
       <r>    -8.4681     0.0000    10.0000 </r>
       <r>    -8.3602     0.0000    10.0000 </r>
       <r>    -8.2522     0.0000    10.0000 </r>
       <r>    -8.1442     0.0000    10.0000 </r>
       <r>    -8.0362     0.0000    10.0000 </r>
       <r>    -7.9283     0.0000    10.0000 </r>
       <r>    -7.8203     0.0000    10.0000 </r>
       <r>    -7.7123     0.0000    10.0000 </r>
       <r>    -7.6043     0.0000    10.0000 </r>
       <r>    -7.4964     0.0000    10.0000 </r>
       <r>    -7.3884     0.0008    10.0001 </r>
       <r>    -7.2804     0.0112    10.0013 </r>
       <r>    -7.1724     0.0552    10.0073 </r>
       <r>    -7.0645    -0.0414    10.0028 </r>
       <r>    -6.9565    -0.7206     9.9250 </r>
       <r>    -6.8485     0.5118     9.9802 </r>
       <r>    -6.7405     7.1172    10.7487 </r>
       <r>    -6.6326     9.7295    11.7992 </r>
       <r>    -6.5246     2.6899    12.0897 </r>
       <r>    -6.4166    -3.0719    11.7580 </r>
       <r>    -6.3086     4.1482    12.2059 </r>
       <r>    -6.2007    24.7261    14.8757 </r>
       <r>    -6.0927    23.8299    17.4487 </r>
       <r>    -5.9847     7.8471    18.2960 </r>
       <r>    -5.8767    25.4850    21.0477 </r>
       <r>    -5.7688    73.2536    28.9572 </r>
       <r>    -5.6608   162.0659    46.4562 </r>
       <r>    -5.5528   277.2171    76.3885 </r>
       <r>    -5.4448   295.7229   108.3190 </r>
       <r>    -5.3369   224.2316   132.5303 </r>
       <r>    -5.2289   220.8453   156.3759 </r>
       <r>    -5.1209   311.0298   189.9592 </r>
       <r>    -5.0129   364.5278   229.3188 </r>
       <r>    -4.9050   312.5962   263.0712 </r>
       <r>    -4.7970   303.9301   295.8879 </r>
       <r>    -4.6890   396.6700   338.7180 </r>
       <r>    -4.5810   429.6912   385.1137 </r>
       <r>    -4.4731   431.3047   431.6835 </r>
       <r>    -4.3651   527.5532   488.6458 </r>
       <r>    -4.2571   528.7721   545.7396 </r>
       <r>    -4.1492   280.7521   576.0536 </r>
       <r>    -4.0412    47.8027   581.2151 </r>
       <r>    -3.9332     9.9508   582.2895 </r>
       <r>    -3.8252    32.3898   585.7868 </r>
       <r>    -3.7173    18.8751   587.8248 </r>
       <r>    -3.6093    13.4052   589.2722 </r>
       <r>    -3.5013    26.9799   592.1854 </r>
       <r>    -3.3933    15.9449   593.9070 </r>
       <r>    -3.2854    -2.4314   593.6445 </r>
       <r>    -3.1774    18.0611   595.5946 </r>
       <r>    -3.0694    59.1965   601.9863 </r>
       <r>    -2.9614    56.9814   608.1388 </r>
       <r>    -2.8535    18.8485   610.1740 </r>
       <r>    -2.7455    -2.0294   609.9549 </r>
       <r>    -2.6375     9.9860   611.0331 </r>
       <r>    -2.5295    28.4826   614.1085 </r>
       <r>    -2.4216    24.2539   616.7273 </r>
       <r>    -2.3136    15.0440   618.3516 </r>
       <r>    -2.2056    25.4611   621.1008 </r>
       <r>    -2.0976    38.3463   625.2412 </r>
       <r>    -1.9897    37.5170   629.2921 </r>
       <r>    -1.8817    35.9463   633.1734 </r>
       <r>    -1.7737    38.0789   637.2849 </r>
       <r>    -1.6657    40.4199   641.6492 </r>
       <r>    -1.5578    37.3233   645.6792 </r>
       <r>    -1.4498    26.4078   648.5306 </r>
       <r>    -1.3418    19.9169   650.6811 </r>
       <r>    -1.2338    22.8863   653.1522 </r>
       <r>    -1.1259    34.8999   656.9205 </r>
       <r>    -1.0179    56.1008   662.9779 </r>
       <r>    -0.9099    47.1161   668.0653 </r>
       <r>    -0.8019    16.2012   669.8146 </r>
       <r>    -0.6940     6.9714   670.5673 </r>
       <r>    -0.5860     9.3061   671.5721 </r>
       <r>    -0.4780     4.6142   672.0704 </r>
       <r>    -0.3700    -0.3001   672.0380 </r>
       <r>    -0.2621    -0.4419   671.9902 </r>
       <r>    -0.1541     0.0443   671.9950 </r>
       <r>    -0.0461     0.0401   671.9993 </r>
       <r>     0.0618     0.0057   672.0000 </r>
       <r>     0.1698     0.0003   672.0000 </r>
       <r>     0.2778     0.0000   672.0000 </r>
       <r>     0.3858     0.0000   672.0000 </r>
       <r>     0.4937     0.0000   672.0000 </r>
       <r>     0.6017     0.0000   672.0000 </r>
       <r>     0.7097     0.0000   672.0000 </r>
       <r>     0.8177     0.0000   672.0000 </r>
       <r>     0.9256     0.0000   672.0000 </r>
       <r>     1.0336     0.0000   672.0000 </r>
       <r>     1.1416     0.0000   672.0000 </r>
       <r>     1.2496     0.0000   672.0000 </r>
       <r>     1.3575     0.0000   672.0000 </r>
      </set>
     </set>
    </array>
   </total>
  </dos>
 </calculation>
 <structure name="finalpos" >
  <crystal>
   <varray name="basis" >
    <v>      30.00000000       0.00000000       0.00000000 </v>
    <v>       0.00000000      30.00000000       0.00000000 </v>
    <v>       0.00000000       0.00000000      30.00000000 </v>
   </varray>
   <i name="volume">  27000.00000000 </i>
   <varray name="rec_basis" >
    <v>       0.03333333       0.00000000       0.00000000 </v>
    <v>       0.00000000       0.03333333       0.00000000 </v>
    <v>       0.00000000       0.00000000       0.03333333 </v>
   </varray>
  </crystal>
  <varray name="positions" >
   <v>       0.44576020       0.32826710       0.41691983 </v>
   <v>       0.67173288       0.55423978       0.41691983 </v>
   <v>       0.55423980       0.32826710       0.41691983 </v>
   <v>       0.32826712       0.55423978       0.41691983 </v>
   <v>       0.50000000       0.38250690       0.34021317 </v>
   <v>       0.50000000       0.38250690       0.65978680 </v>
   <v>       0.50000000       0.27609440       0.50000000 </v>
   <v>       0.27609443       0.49999998       0.50000000 </v>
   <v>       0.72390557       0.49999998       0.50000000 </v>
   <v>       0.50000000       0.72390555       0.50000000 </v>
   <v>       0.61195280       0.38804720       0.34167483 </v>
   <v>       0.61195280       0.38804720       0.65832513 </v>
   <v>       0.38804722       0.61195278       0.34167483 </v>
   <v>       0.38804722       0.61195278       0.65832513 </v>
   <v>       0.38804720       0.38804720       0.34167483 </v>
   <v>       0.38804720       0.38804720       0.65832513 </v>
   <v>       0.61195278       0.61195278       0.34167483 </v>
   <v>       0.61195278       0.61195278       0.65832513 </v>
   <v>       0.44576020       0.32826710       0.58308023 </v>
   <v>       0.67173288       0.55423978       0.58308023 </v>
   <v>       0.55791699       0.44208301       0.41809300 </v>
   <v>       0.32826705       0.44576024       0.41691983 </v>
   <v>       0.55423973       0.67173293       0.41691983 </v>
   <v>       0.55423980       0.32826710       0.58308023 </v>
   <v>       0.32826712       0.55423978       0.58308023 </v>
   <v>       0.67173295       0.44576024       0.41691983 </v>
   <v>       0.44576027       0.67173293       0.41691983 </v>
   <v>       0.44208301       0.44208301       0.41809300 </v>
   <v>       0.50000000       0.38416601       0.50000000 </v>
   <v>       0.61749315       0.50000005       0.34021317 </v>
   <v>       0.61749315       0.50000005       0.65978680 </v>
   <v>       0.38250685       0.50000005       0.34021317 </v>
   <v>       0.38250685       0.50000005       0.65978680 </v>
   <v>       0.38317830       0.38317830       0.50000000 </v>
   <v>       0.61682172       0.61682172       0.50000000 </v>
   <v>       0.61682170       0.38317830       0.50000000 </v>
   <v>       0.38317828       0.61682172       0.50000000 </v>
   <v>       0.50000000       0.50000000       0.33478917 </v>
   <v>       0.50000000       0.50000000       0.66521087 </v>
   <v>       0.32826705       0.44576024       0.58308023 </v>
   <v>       0.55423973       0.67173293       0.58308023 </v>
   <v>       0.55791699       0.44208301       0.58190703 </v>
   <v>       0.44208298       0.55791702       0.41809300 </v>
   <v>       0.44208301       0.44208301       0.58190703 </v>
   <v>       0.67173295       0.44576024       0.58308023 </v>
   <v>       0.44576027       0.67173293       0.58308023 </v>
   <v>       0.55791702       0.55791702       0.41809300 </v>
   <v>       0.38416599       0.50000002       0.50000000 </v>
   <v>       0.61583401       0.50000002       0.50000000 </v>
   <v>       0.50000000       0.61749319       0.34021317 </v>
   <v>       0.50000000       0.61749319       0.65978680 </v>
   <v>       0.50000000       0.50000000       0.50000000 </v>
   <v>       0.44208298       0.55791702       0.58190703 </v>
   <v>       0.55791702       0.55791702       0.58190703 </v>
   <v>       0.50000000       0.61583404       0.50000000 </v>
   <v>       0.74986593       0.44414833       0.42123427 </v>
   <v>       0.78493823       0.43630877       0.41017837 </v>
  </varray>
  <varray name="selective"  type="logical" >
   <v type="logical" >  F  F  F </v>
   <v type="logical" >  F  F  F </v>
   <v type="logical" >  F  F  F </v>
   <v type="logical" >  F  F  F </v>
   <v type="logical" >  F  F  F </v>
   <v type="logical" >  F  F  F </v>
   <v type="logical" >  F  F  F </v>
   <v type="logical" >  F  F  F </v>
   <v type="logical" >  F  F  F </v>
   <v type="logical" >  F  F  F </v>
   <v type="logical" >  F  F  F </v>
   <v type="logical" >  F  F  F </v>
   <v type="logical" >  F  F  F </v>
   <v type="logical" >  F  F  F </v>
   <v type="logical" >  F  F  F </v>
   <v type="logical" >  F  F  F </v>
   <v type="logical" >  F  F  F </v>
   <v type="logical" >  F  F  F </v>
   <v type="logical" >  F  F  F </v>
   <v type="logical" >  F  F  F </v>
   <v type="logical" >  F  F  F </v>
   <v type="logical" >  F  F  F </v>
   <v type="logical" >  F  F  F </v>
   <v type="logical" >  F  F  F </v>
   <v type="logical" >  F  F  F </v>
   <v type="logical" >  F  F  F </v>
   <v type="logical" >  F  F  F </v>
   <v type="logical" >  F  F  F </v>
   <v type="logical" >  F  F  F </v>
   <v type="logical" >  F  F  F </v>
   <v type="logical" >  F  F  F </v>
   <v type="logical" >  F  F  F </v>
   <v type="logical" >  F  F  F </v>
   <v type="logical" >  F  F  F </v>
   <v type="logical" >  F  F  F </v>
   <v type="logical" >  F  F  F </v>
   <v type="logical" >  F  F  F </v>
   <v type="logical" >  F  F  F </v>
   <v type="logical" >  F  F  F </v>
   <v type="logical" >  F  F  F </v>
   <v type="logical" >  F  F  F </v>
   <v type="logical" >  F  F  F </v>
   <v type="logical" >  F  F  F </v>
   <v type="logical" >  F  F  F </v>
   <v type="logical" >  F  F  F </v>
   <v type="logical" >  F  F  F </v>
   <v type="logical" >  F  F  F </v>
   <v type="logical" >  F  F  F </v>
   <v type="logical" >  F  F  F </v>
   <v type="logical" >  F  F  F </v>
   <v type="logical" >  F  F  F </v>
   <v type="logical" >  F  F  F </v>
   <v type="logical" >  F  F  F </v>
   <v type="logical" >  F  F  F </v>
   <v type="logical" >  F  F  F </v>
   <v type="logical" >  F  F  F </v>
   <v type="logical" >  F  F  F </v>
  </varray>
  <nose>
   <v>      -3.00000000       0.00000000       0.00010000       0.00010000 </v>
  </nose>
 </structure>
</modeling>
