<?xml version="1.0" encoding="ISO-8859-1"?>
<modeling>
 <generator>
  <i name="program" type="string">vasp </i>
  <i name="version" type="string">5.4.4.18Apr17-6-g9f103f2a35  </i>
  <i name="subversion" type="string">(build Sep 03 2018 23:53:05) complex            parallel </i>
  <i name="platform" type="string">LinuxIFC </i>
  <i name="date" type="string">2021 11 30 </i>
  <i name="time" type="string">23:01:21 </i>
 </generator>
 <incar>
  <i type="string" name="SYSTEM"> 6_Pd100_top_free_z(O)</i>
  <i type="int" name="ISTART">     0</i>
  <i type="string" name="PREC">normal   			! encut=max(enmax), ngx,y,z</i>
  <i type="string" name="ALGO"> Fast     			! Mix RMM-DIIS and Dav</i>
  <i type="logical" name="ADDGRID"> F  </i>
  <i type="int" name="ISPIN">     1</i>
  <i type="int" name="ICHARG">     2</i>
  <i type="int" name="NELM">   100</i>
  <i type="int" name="NELMIN">     6</i>
  <i type="int" name="IBRION">     2</i>
  <i name="EDIFF">      0.00010000</i>
  <i name="EDIFFG">     -0.05000000</i>
  <i type="int" name="NSW">     0</i>
  <i type="int" name="ISIF">     2</i>
  <i type="int" name="ISYM">     2</i>
  <i name="ENCUT">    400.00000000</i>
  <i type="string" name="LREAL"> Auto     			! Auto or A projection done</i>
  <i type="int" name="ISMEAR">     2</i>
  <i name="SIGMA">      0.20000000</i>
  <i type="logical" name="LWAVE"> F  </i>
  <i type="logical" name="LCHARG"> F  </i>
  <v type="int" name="KPOINT_BSE">    -1     0     0     0</v>
  <i type="int" name="MAXMEM"> 10000</i>
  <i type="int" name="NELM">   100</i>
  <i type="string" name="GGA"> RP         			! Revised PBE</i>
 </incar>
 <structure name="primitive_cell" >
  <crystal>
   <varray name="basis" >
    <v>      30.00000000       0.00000000       0.00000000 </v>
    <v>       0.00000000      30.00000000       0.00000000 </v>
    <v>       0.00000000       0.00000000      30.00000000 </v>
   </varray>
   <i name="volume">  27000.00000000 </i>
   <varray name="rec_basis" >
    <v>       0.03333333       0.00000000       0.00000000 </v>
    <v>       0.00000000       0.03333333       0.00000000 </v>
    <v>       0.00000000       0.00000000       0.03333333 </v>
   </varray>
  </crystal>
  <varray name="positions" >
   <v>       0.44576020       0.32826710       0.41691983 </v>
   <v>      -0.44576020       0.32826710       0.41691983 </v>
   <v>      -0.50000000       0.38250690       0.34021317 </v>
   <v>      -0.50000000       0.27609440      -0.50000000 </v>
   <v>       0.38804720       0.38804720       0.34167483 </v>
   <v>      -0.50000000       0.38416601      -0.50000000 </v>
   <v>       0.44208300       0.44208300       0.41809300 </v>
   <v>       0.38317830       0.38317830      -0.50000000 </v>
   <v>      -0.44208300       0.44208300       0.41809300 </v>
   <v>       0.44576020       0.32826710      -0.41691977 </v>
   <v>       0.32826705       0.44576024       0.41691983 </v>
   <v>      -0.38804720       0.38804720       0.34167483 </v>
   <v>      -0.38317830       0.38317830      -0.50000000 </v>
   <v>      -0.50000000      -0.50000000       0.33478917 </v>
   <v>      -0.50000000      -0.50000000      -0.50000000 </v>
   <v>      -0.44576020       0.32826710      -0.41691977 </v>
   <v>       0.38250685      -0.49999995       0.34021317 </v>
   <v>       0.44208300       0.44208300      -0.41809297 </v>
   <v>       0.38416599      -0.49999998      -0.50000000 </v>
   <v>      -0.44208300       0.44208300      -0.41809297 </v>
   <v>       0.44208298      -0.44208298       0.41809300 </v>
   <v>       0.32826705       0.44576024      -0.41691977 </v>
   <v>      -0.50000000       0.38250690      -0.34021320 </v>
   <v>       0.32826712      -0.44576022       0.41691983 </v>
   <v>      -0.38250685      -0.49999995       0.34021317 </v>
   <v>      -0.32826705       0.44576024       0.41691983 </v>
   <v>       0.27609443       0.49999998      -0.50000000 </v>
   <v>       0.38804720       0.38804720      -0.34167487 </v>
   <v>      -0.38416599      -0.49999998      -0.50000000 </v>
   <v>      -0.44208298      -0.44208298       0.41809300 </v>
   <v>       0.44208298      -0.44208298      -0.41809297 </v>
   <v>      -0.38804720       0.38804720      -0.34167487 </v>
   <v>       0.38804722      -0.38804722       0.34167483 </v>
   <v>       0.38250685      -0.49999995      -0.34021320 </v>
   <v>       0.32826712      -0.44576022      -0.41691977 </v>
   <v>      -0.32826705       0.44576024      -0.41691977 </v>
   <v>       0.50000000      -0.38250681       0.34021317 </v>
   <v>      -0.50000000      -0.38416596      -0.50000000 </v>
   <v>      -0.44208298      -0.44208298      -0.41809297 </v>
   <v>      -0.50000000      -0.50000000      -0.33478913 </v>
   <v>       0.38317828      -0.38317828      -0.50000000 </v>
   <v>      -0.32826712      -0.44576022       0.41691983 </v>
   <v>      -0.27609443       0.49999998      -0.50000000 </v>
   <v>      -0.38804722      -0.38804722       0.34167483 </v>
   <v>      -0.38250685      -0.49999995      -0.34021320 </v>
   <v>       0.44576027      -0.32826707       0.41691983 </v>
   <v>      -0.38317828      -0.38317828      -0.50000000 </v>
   <v>      -0.32826712      -0.44576022      -0.41691977 </v>
   <v>      -0.44576027      -0.32826707       0.41691983 </v>
   <v>       0.38804722      -0.38804722      -0.34167487 </v>
   <v>      -0.50000000      -0.38250681      -0.34021320 </v>
   <v>       0.44576027      -0.32826707      -0.41691977 </v>
   <v>      -0.44576027      -0.32826707      -0.41691977 </v>
   <v>      -0.50000000      -0.27609445       0.50000000 </v>
   <v>      -0.38804722      -0.38804722      -0.34167487 </v>
   <v>       0.36414107      -0.36414107      -0.27504053 </v>
   <v>       0.34687407      -0.34687407      -0.24644927 </v>
  </varray>
 </structure>
 <varray name="primitive_index" >
  <v type="int" >        1 </v>
  <v type="int" >        3 </v>
  <v type="int" >        5 </v>
  <v type="int" >        7 </v>
  <v type="int" >       15 </v>
  <v type="int" >       29 </v>
  <v type="int" >       28 </v>
  <v type="int" >       34 </v>
  <v type="int" >       21 </v>
  <v type="int" >       19 </v>
  <v type="int" >       22 </v>
  <v type="int" >       11 </v>
  <v type="int" >       36 </v>
  <v type="int" >       38 </v>
  <v type="int" >       52 </v>
  <v type="int" >       24 </v>
  <v type="int" >       32 </v>
  <v type="int" >       44 </v>
  <v type="int" >       48 </v>
  <v type="int" >       42 </v>
  <v type="int" >       43 </v>
  <v type="int" >       40 </v>
  <v type="int" >        6 </v>
  <v type="int" >        4 </v>
  <v type="int" >       30 </v>
  <v type="int" >       26 </v>
  <v type="int" >        8 </v>
  <v type="int" >       16 </v>
  <v type="int" >       49 </v>
  <v type="int" >       47 </v>
  <v type="int" >       53 </v>
  <v type="int" >       12 </v>
  <v type="int" >       13 </v>
  <v type="int" >       33 </v>
  <v type="int" >       25 </v>
  <v type="int" >       45 </v>
  <v type="int" >       50 </v>
  <v type="int" >       55 </v>
  <v type="int" >       54 </v>
  <v type="int" >       39 </v>
  <v type="int" >       37 </v>
  <v type="int" >        2 </v>
  <v type="int" >        9 </v>
  <v type="int" >       17 </v>
  <v type="int" >       31 </v>
  <v type="int" >       27 </v>
  <v type="int" >       35 </v>
  <v type="int" >       20 </v>
  <v type="int" >       23 </v>
  <v type="int" >       14 </v>
  <v type="int" >       51 </v>
  <v type="int" >       46 </v>
  <v type="int" >       41 </v>
  <v type="int" >       10 </v>
  <v type="int" >       18 </v>
  <v type="int" >       56 </v>
  <v type="int" >       57 </v>
 </varray>
 <kpoints>
  <generation param="Monkhorst-Pack">
   <v type="int" name="divisions">       1        1        1 </v>
   <v name="usershift">      0.00000000       0.00000000       0.00000000 </v>
   <v name="genvec1">      1.00000000       0.00000000       0.00000000 </v>
   <v name="genvec2">      0.00000000       1.00000000       0.00000000 </v>
   <v name="genvec3">      0.00000000       0.00000000       1.00000000 </v>
   <v name="shift">      0.00000000       0.00000000       0.00000000 </v>
  </generation>
  <varray name="kpointlist" >
   <v>       0.00000000       0.00000000       0.00000000 </v>
  </varray>
  <varray name="weights" >
   <v>       1.00000000 </v>
  </varray>
 </kpoints>
 <parameters>
  <separator name="general" >
   <i type="string" name="SYSTEM">6_Pd100_top_free_z(O)</i>
   <i type="logical" name="LCOMPAT"> F  </i>
  </separator>
  <separator name="electronic" >
   <i type="string" name="PREC">normal</i>
   <i name="ENMAX">    400.00000000</i>
   <i name="ENAUG">    644.87300000</i>
   <i name="EDIFF">      0.00010000</i>
   <i type="int" name="IALGO">    68</i>
   <i type="int" name="IWAVPR">    10</i>
   <i type="int" name="NBANDS">   336</i>
   <i name="NELECT">    560.00000000</i>
   <i type="int" name="TURBO">     0</i>
   <i type="int" name="IRESTART">     0</i>
   <i type="int" name="NREBOOT">     0</i>
   <i type="int" name="NMIN">     0</i>
   <i name="EREF">      0.00000000</i>
   <separator name="electronic smearing" >
    <i type="int" name="ISMEAR">     2</i>
    <i name="SIGMA">      0.20000000</i>
    <i name="KSPACING">      0.50000000</i>
    <i type="logical" name="KGAMMA"> T  </i>
   </separator>
   <separator name="electronic projectors" >
    <i type="logical" name="LREAL"> T  </i>
    <v name="ROPT">     -0.00050000     -0.00050000     -0.00050000</v>
    <i type="int" name="LMAXPAW">  -100</i>
    <i type="int" name="LMAXMIX">     2</i>
    <i type="logical" name="NLSPLINE"> F  </i>
   </separator>
   <separator name="electronic startup" >
    <i type="int" name="ISTART">     0</i>
    <i type="int" name="ICHARG">     2</i>
    <i type="int" name="INIWAV">     1</i>
   </separator>
   <separator name="electronic spin" >
    <i type="int" name="ISPIN">     1</i>
    <i type="logical" name="LNONCOLLINEAR"> F  </i>
    <v name="MAGMOM">      1.00000000      1.00000000      1.00000000      1.00000000      1.00000000      1.00000000      1.00000000      1.00000000      1.00000000      1.00000000      1.00000000      1.00000000      1.00000000      1.00000000      1.00000000      1.00000000      1.00000000      1.00000000      1.00000000      1.00000000
      1.00000000      1.00000000      1.00000000      1.00000000      1.00000000      1.00000000      1.00000000      1.00000000      1.00000000      1.00000000      1.00000000      1.00000000      1.00000000      1.00000000      1.00000000      1.00000000      1.00000000      1.00000000      1.00000000      1.00000000
      1.00000000      1.00000000      1.00000000      1.00000000      1.00000000      1.00000000      1.00000000      1.00000000      1.00000000      1.00000000      1.00000000      1.00000000      1.00000000      1.00000000      1.00000000      1.00000000      1.00000000</v>
    <i name="NUPDOWN">     -1.00000000</i>
    <i type="logical" name="LSORBIT"> F  </i>
    <v name="SAXIS">      0.00000000      0.00000000      1.00000000</v>
    <i type="logical" name="LSPIRAL"> F  </i>
    <v name="QSPIRAL">      0.00000000      0.00000000      0.00000000</v>
    <i type="logical" name="LZEROZ"> F  </i>
   </separator>
   <separator name="electronic exchange-correlation" >
    <i type="logical" name="LASPH"> F  </i>
    <i type="logical" name="LMETAGGA"> F  </i>
   </separator>
   <separator name="electronic convergence" >
    <i type="int" name="NELM">   100</i>
    <i type="int" name="NELMDL">    -5</i>
    <i type="int" name="NELMIN">     6</i>
    <i name="ENINI">    400.00000000</i>
    <separator name="electronic convergence detail" >
     <i type="logical" name="LDIAG"> T  </i>
     <i type="logical" name="LSUBROT"> F  </i>
     <i name="WEIMIN">      0.00000000</i>
     <i name="EBREAK">      0.00000007</i>
     <i name="DEPER">      0.30000000</i>
     <i type="int" name="NRMM">     4</i>
     <i name="TIME">      0.40000000</i>
    </separator>
   </separator>
   <separator name="electronic mixer" >
    <i name="AMIX">      0.40000000</i>
    <i name="BMIX">      1.00000000</i>
    <i name="AMIN">      0.10000000</i>
    <i name="AMIX_MAG">      1.60000000</i>
    <i name="BMIX_MAG">      1.00000000</i>
    <separator name="electronic mixer details" >
     <i type="int" name="IMIX">     4</i>
     <i type="logical" name="MIXFIRST"> F  </i>
     <i type="int" name="MAXMIX">   -45</i>
     <i name="WC">    100.00000000</i>
     <i type="int" name="INIMIX">     1</i>
     <i type="int" name="MIXPRE">     1</i>
     <i type="int" name="MREMOVE">     5</i>
    </separator>
   </separator>
   <separator name="electronic dipolcorrection" >
    <i type="logical" name="LDIPOL"> F  </i>
    <i type="logical" name="LMONO"> F  </i>
    <i type="int" name="IDIPOL">     0</i>
    <i name="EPSILON">      1.00000000</i>
    <v name="DIPOL">   -100.00000000   -100.00000000   -100.00000000</v>
    <i name="EFIELD">      0.00000000</i>
   </separator>
  </separator>
  <separator name="grids" >
   <i type="int" name="NGX">   150</i>
   <i type="int" name="NGY">   150</i>
   <i type="int" name="NGZ">   150</i>
   <i type="int" name="NGXF">   300</i>
   <i type="int" name="NGYF">   300</i>
   <i type="int" name="NGZF">   300</i>
   <i type="logical" name="ADDGRID"> F  </i>
  </separator>
  <separator name="ionic" >
   <i type="int" name="NSW">     0</i>
   <i type="int" name="IBRION">    -1</i>
   <i type="int" name="MDALGO">     0</i>
   <i type="int" name="ISIF">     2</i>
   <i name="PSTRESS">      0.00000000</i>
   <i name="EDIFFG">     -0.05000000</i>
   <i type="int" name="NFREE">     1</i>
   <i name="POTIM">      0.50000000</i>
   <i name="SMASS">     -3.00000000</i>
   <i name="SCALEE">      1.00000000</i>
  </separator>
  <separator name="ionic md" >
   <i name="TEBEG">      0.00010000</i>
   <i name="TEEND">      0.00010000</i>
   <i type="int" name="NBLOCK">     1</i>
   <i type="int" name="KBLOCK">     1</i>
   <i type="int" name="NPACO">   256</i>
   <i name="APACO">     16.00000000</i>
  </separator>
  <separator name="symmetry" >
   <i type="int" name="ISYM">     2</i>
   <i name="SYMPREC">      0.00001000</i>
  </separator>
  <separator name="dos" >
   <i type="int" name="LORBIT">     0</i>
   <v name="RWIGS">     -1.00000000     -1.00000000     -1.00000000</v>
   <i type="int" name="NEDOS">   301</i>
   <i name="EMIN">     10.00000000</i>
   <i name="EMAX">    -10.00000000</i>
   <i name="EFERMI">      0.00000000</i>
  </separator>
  <separator name="writing" >
   <i type="int" name="NWRITE">     2</i>
   <i type="logical" name="LWAVE"> F  </i>
   <i type="logical" name="LDOWNSAMPLE"> F  </i>
   <i type="logical" name="LCHARG"> F  </i>
   <i type="logical" name="LPARD"> F  </i>
   <i type="logical" name="LVTOT"> F  </i>
   <i type="logical" name="LVHAR"> F  </i>
   <i type="logical" name="LELF"> F  </i>
   <i type="logical" name="LOPTICS"> F  </i>
   <v name="STM">      0.00000000      0.00000000      0.00000000      0.00000000      0.00000000      0.00000000      0.00000000</v>
  </separator>
  <separator name="performance" >
   <i type="int" name="NPAR">     1</i>
   <i type="int" name="NSIM">     4</i>
   <i type="int" name="NBLK">    -1</i>
   <i type="logical" name="LPLANE"> T  </i>
   <i type="logical" name="LSCALAPACK"> T  </i>
   <i type="logical" name="LSCAAWARE"> F  </i>
   <i type="logical" name="LSCALU"> F  </i>
   <i type="logical" name="LASYNC"> F  </i>
   <i type="logical" name="LORBITALREAL"> F  </i>
  </separator>
  <separator name="miscellaneous" >
   <i type="int" name="IDIOT">     3</i>
   <i type="int" name="ISPECIAL">     0</i>
   <i type="logical" name="LMUSIC"> F  </i>
   <v name="POMASS">    106.42000000     12.01100000     16.00000000</v>
   <v name="DARWINR">      0.00000000      0.00000000      0.00000000</v>
   <v name="DARWINV">      1.00000000      1.00000000      1.00000000</v>
   <i type="logical" name="LCORR"> T  </i>
  </separator>
  <i type="logical" name="GGA_COMPAT"> T  </i>
  <i type="logical" name="LBERRY"> F  </i>
  <i type="int" name="ICORELEVEL">     0</i>
  <i type="logical" name="LDAU"> F  </i>
  <i type="int" name="I_CONSTRAINED_M">     0</i>
  <separator name="electronic exchange-correlation" >
   <i type="string" name="GGA">RP</i>
   <i type="int" name="VOSKOWN">     0</i>
   <i type="logical" name="LHFCALC"> F  </i>
   <i type="string" name="PRECFOCK"></i>
   <i type="logical" name="LSYMGRAD"> F  </i>
   <i type="logical" name="LHFONE"> F  </i>
   <i type="logical" name="LRHFCALC"> F  </i>
   <i type="logical" name="LTHOMAS"> F  </i>
   <i type="logical" name="LMODELHF"> F  </i>
   <i name="ENCUT4O">     -1.00000000</i>
   <i type="int" name="EXXOEP">     0</i>
   <i type="int" name="FOURORBIT">     0</i>
   <i name="AEXX">      0.00000000</i>
   <i name="HFALPHA">      0.00000000</i>
   <i name="MCALPHA">      0.00000000</i>
   <i name="ALDAX">      1.00000000</i>
   <i name="AGGAX">      1.00000000</i>
   <i name="ALDAC">      1.00000000</i>
   <i name="AGGAC">      1.00000000</i>
   <i type="int" name="NKREDX">     1</i>
   <i type="int" name="NKREDY">     1</i>
   <i type="int" name="NKREDZ">     1</i>
   <i type="logical" name="SHIFTRED"> F  </i>
   <i type="logical" name="ODDONLY"> F  </i>
   <i type="logical" name="EVENONLY"> F  </i>
   <i type="int" name="LMAXFOCK">     0</i>
   <i type="int" name="NMAXFOCKAE">     0</i>
   <i type="logical" name="LFOCKAEDFT"> F  </i>
   <i name="HFSCREEN">      0.00000000</i>
   <i name="HFSCREENC">      0.00000000</i>
   <i type="int" name="NBANDSGWLOW">     0</i>
  </separator>
  <separator name="vdW DFT" >
   <i type="logical" name="LUSE_VDW"> F  </i>
   <i name="Zab_VDW">     -0.84910000</i>
   <i name="PARAM1">      0.12340000</i>
   <i name="PARAM2">      1.00000000</i>
   <i name="PARAM3">      0.00000000</i>
  </separator>
  <separator name="model GW" >
   <i type="int" name="MODEL_GW">     0</i>
   <i name="MODEL_EPS0">    284.21052632</i>
   <i name="MODEL_ALPHA">      1.00000000</i>
  </separator>
  <separator name="linear response parameters" >
   <i type="logical" name="LEPSILON"> F  </i>
   <i type="logical" name="LRPA"> F  </i>
   <i type="logical" name="LNABLA"> F  </i>
   <i type="logical" name="LVEL"> F  </i>
   <i type="int" name="KINTER">     0</i>
   <i name="CSHIFT">      0.10000000</i>
   <i name="OMEGAMAX">     -1.00000000</i>
   <i name="DEG_THRESHOLD">      0.00200000</i>
   <i name="RTIME">     -0.10000000</i>
   <i name="WPLASMAI">      0.00000000</i>
   <v name="DFIELD">      0.00000000      0.00000000      0.00000000</v>
   <v name="WPLASMA">      0.00000000      0.00000000      0.00000000      0.00000000      0.00000000      0.00000000      0.00000000      0.00000000      0.00000000</v>
  </separator>
  <separator name="orbital magnetization" >
   <i type="logical" name="NUCIND"> F  </i>
   <v name="MAGPOS">      0.00000000      0.00000000      0.00000000</v>
   <i type="logical" name="LNICSALL"> T  </i>
   <i type="logical" name="ORBITALMAG"> F  </i>
   <i type="logical" name="LMAGBLOCH"> F  </i>
   <i type="logical" name="LCHIMAG"> F  </i>
   <i type="logical" name="LGAUGE"> T  </i>
   <i type="int" name="MAGATOM">     0</i>
   <v name="MAGDIPOL">      0.00000000      0.00000000      0.00000000</v>
   <v name="AVECCONST">      0.00000000      0.00000000      0.00000000</v>
  </separator>
  <separator name="response functions" >
   <i type="logical" name="LADDER"> F  </i>
   <i type="logical" name="LRPAFORCE"> F  </i>
   <i type="logical" name="LFXC"> F  </i>
   <i type="logical" name="LHARTREE"> T  </i>
   <i type="int" name="IBSE">     0</i>
   <v type="int" name="KPOINT">    -1     0     0     0</v>
   <i type="logical" name="LTCTE"> F  </i>
   <i type="logical" name="LTETE"> F  </i>
   <i type="logical" name="LTRIPLET"> F  </i>
   <i type="logical" name="LFXCEPS"> F  </i>
   <i type="logical" name="LFXHEG"> F  </i>
   <i type="int" name="NATURALO">     2</i>
   <i type="logical" name="L2ORDER"> F  </i>
   <i type="logical" name="LMP2LT"> F  </i>
   <i type="logical" name="LUSEW"> F  </i>
   <i name="ENCUTGW">     -2.00000000</i>
   <i name="ENCUTGWSOFT">     -2.00000000</i>
   <i name="ENCUTLF">     -1.00000000</i>
   <i type="int" name="LMAXMP2">    -1</i>
   <i name="SCISSOR">      0.00000000</i>
   <i type="int" name="NOMEGA">     0</i>
   <i type="int" name="NOMEGAR">     0</i>
   <i type="int" name="NBANDSGW">    -1</i>
   <i type="int" name="NBANDSO">    -1</i>
   <i type="int" name="NBANDSV">    -1</i>
   <i type="int" name="NELM">   100</i>
   <i type="int" name="NELMHF">     1</i>
   <i type="int" name="DIM">     3</i>
   <i type="int" name="ANTIRES">     0</i>
   <i name="OMEGAMAX">    -30.00000000</i>
   <i name="OMEGAMIN">    -30.00000000</i>
   <i name="OMEGATL">   -200.00000000</i>
   <i type="int" name="OMEGAGRID">   140</i>
   <i name="CSHIFT">     -0.10000000</i>
   <i type="logical" name="SELFENERGY"> F  </i>
   <i type="logical" name="LSPECTRAL"> F  </i>
   <i type="logical" name="LSPECTRALGW"> F  </i>
   <i type="logical" name="LSINGLES"> F  </i>
   <i type="logical" name="LFERMIGW"> F  </i>
   <i type="logical" name="ODDONLYGW"> F  </i>
   <i type="logical" name="EVENONLYGW"> F  </i>
   <i type="int" name="NKREDLFX">     1</i>
   <i type="int" name="NKREDLFY">     1</i>
   <i type="int" name="NKREDLFZ">     1</i>
   <i type="int" name="MAXMEM"> 10000</i>
   <i type="int" name="TELESCOPE">     0</i>
   <i type="int" name="TAUPAR">     1</i>
   <i type="int" name="OMEGAPAR">    -1</i>
   <i name="LAMBDA">      1.00000000</i>
  </separator>
  <separator name="External order field" >
   <i name="OFIELD_KAPPA">      0.00000000</i>
   <v name="OFIELD_K">      0.00000000      0.00000000      0.00000000</v>
   <i name="OFIELD_Q6_NEAR">      0.00000000</i>
   <i name="OFIELD_Q6_FAR">      0.00000000</i>
   <i name="OFIELD_A">      0.00000000</i>
  </separator>
 </parameters>
 <atominfo>
  <atoms>      57 </atoms>
  <types>       3 </types>
  <array name="atoms" >
   <dimension dim="1">ion</dimension>
   <field type="string">element</field>
   <field type="int">atomtype</field>
   <set>
    <rc><c>Pd</c><c>   1</c></rc>
    <rc><c>Pd</c><c>   1</c></rc>
    <rc><c>Pd</c><c>   1</c></rc>
    <rc><c>Pd</c><c>   1</c></rc>
    <rc><c>Pd</c><c>   1</c></rc>
    <rc><c>Pd</c><c>   1</c></rc>
    <rc><c>Pd</c><c>   1</c></rc>
    <rc><c>Pd</c><c>   1</c></rc>
    <rc><c>Pd</c><c>   1</c></rc>
    <rc><c>Pd</c><c>   1</c></rc>
    <rc><c>Pd</c><c>   1</c></rc>
    <rc><c>Pd</c><c>   1</c></rc>
    <rc><c>Pd</c><c>   1</c></rc>
    <rc><c>Pd</c><c>   1</c></rc>
    <rc><c>Pd</c><c>   1</c></rc>
    <rc><c>Pd</c><c>   1</c></rc>
    <rc><c>Pd</c><c>   1</c></rc>
    <rc><c>Pd</c><c>   1</c></rc>
    <rc><c>Pd</c><c>   1</c></rc>
    <rc><c>Pd</c><c>   1</c></rc>
    <rc><c>Pd</c><c>   1</c></rc>
    <rc><c>Pd</c><c>   1</c></rc>
    <rc><c>Pd</c><c>   1</c></rc>
    <rc><c>Pd</c><c>   1</c></rc>
    <rc><c>Pd</c><c>   1</c></rc>
    <rc><c>Pd</c><c>   1</c></rc>
    <rc><c>Pd</c><c>   1</c></rc>
    <rc><c>Pd</c><c>   1</c></rc>
    <rc><c>Pd</c><c>   1</c></rc>
    <rc><c>Pd</c><c>   1</c></rc>
    <rc><c>Pd</c><c>   1</c></rc>
    <rc><c>Pd</c><c>   1</c></rc>
    <rc><c>Pd</c><c>   1</c></rc>
    <rc><c>Pd</c><c>   1</c></rc>
    <rc><c>Pd</c><c>   1</c></rc>
    <rc><c>Pd</c><c>   1</c></rc>
    <rc><c>Pd</c><c>   1</c></rc>
    <rc><c>Pd</c><c>   1</c></rc>
    <rc><c>Pd</c><c>   1</c></rc>
    <rc><c>Pd</c><c>   1</c></rc>
    <rc><c>Pd</c><c>   1</c></rc>
    <rc><c>Pd</c><c>   1</c></rc>
    <rc><c>Pd</c><c>   1</c></rc>
    <rc><c>Pd</c><c>   1</c></rc>
    <rc><c>Pd</c><c>   1</c></rc>
    <rc><c>Pd</c><c>   1</c></rc>
    <rc><c>Pd</c><c>   1</c></rc>
    <rc><c>Pd</c><c>   1</c></rc>
    <rc><c>Pd</c><c>   1</c></rc>
    <rc><c>Pd</c><c>   1</c></rc>
    <rc><c>Pd</c><c>   1</c></rc>
    <rc><c>Pd</c><c>   1</c></rc>
    <rc><c>Pd</c><c>   1</c></rc>
    <rc><c>Pd</c><c>   1</c></rc>
    <rc><c>Pd</c><c>   1</c></rc>
    <rc><c>C </c><c>   2</c></rc>
    <rc><c>O </c><c>   3</c></rc>
   </set>
  </array>
  <array name="atomtypes" >
   <dimension dim="1">type</dimension>
   <field type="int">atomspertype</field>
   <field type="string">element</field>
   <field>mass</field>
   <field>valence</field>
   <field type="string">pseudopotential</field>
   <set>
    <rc><c>  55</c><c>Pd</c><c>    106.42000000</c><c>     10.00000000</c><c>  PAW_PBE Pd 04Jan2005                  </c></rc>
    <rc><c>   1</c><c>C </c><c>     12.01100000</c><c>      4.00000000</c><c>  PAW_PBE C 08Apr2002                   </c></rc>
    <rc><c>   1</c><c>O </c><c>     16.00000000</c><c>      6.00000000</c><c>  PAW_PBE O 08Apr2002                   </c></rc>
   </set>
  </array>
 </atominfo>
 <structure name="initialpos" >
  <crystal>
   <varray name="basis" >
    <v>      30.00000000       0.00000000       0.00000000 </v>
    <v>       0.00000000      30.00000000       0.00000000 </v>
    <v>       0.00000000       0.00000000      30.00000000 </v>
   </varray>
   <i name="volume">  27000.00000000 </i>
   <varray name="rec_basis" >
    <v>       0.03333333       0.00000000       0.00000000 </v>
    <v>       0.00000000       0.03333333       0.00000000 </v>
    <v>       0.00000000       0.00000000       0.03333333 </v>
   </varray>
  </crystal>
  <varray name="positions" >
   <v>       0.44576020       0.32826710       0.41691983 </v>
   <v>       0.67173288       0.55423978       0.41691983 </v>
   <v>       0.55423980       0.32826710       0.41691983 </v>
   <v>       0.32826712       0.55423978       0.41691983 </v>
   <v>       0.50000000       0.38250690       0.34021317 </v>
   <v>       0.50000000       0.38250690       0.65978680 </v>
   <v>       0.50000000       0.27609440       0.50000000 </v>
   <v>       0.27609443       0.49999998       0.50000000 </v>
   <v>       0.72390557       0.49999998       0.50000000 </v>
   <v>       0.50000000       0.72390555       0.50000000 </v>
   <v>       0.61195280       0.38804720       0.34167483 </v>
   <v>       0.61195280       0.38804720       0.65832513 </v>
   <v>       0.38804722       0.61195278       0.34167483 </v>
   <v>       0.38804722       0.61195278       0.65832513 </v>
   <v>       0.38804720       0.38804720       0.34167483 </v>
   <v>       0.38804720       0.38804720       0.65832513 </v>
   <v>       0.61195278       0.61195278       0.34167483 </v>
   <v>       0.61195278       0.61195278       0.65832513 </v>
   <v>       0.44576020       0.32826710       0.58308023 </v>
   <v>       0.67173288       0.55423978       0.58308023 </v>
   <v>       0.55791699       0.44208301       0.41809300 </v>
   <v>       0.32826705       0.44576024       0.41691983 </v>
   <v>       0.55423973       0.67173293       0.41691983 </v>
   <v>       0.55423980       0.32826710       0.58308023 </v>
   <v>       0.32826712       0.55423978       0.58308023 </v>
   <v>       0.67173295       0.44576024       0.41691983 </v>
   <v>       0.44576027       0.67173293       0.41691983 </v>
   <v>       0.44208301       0.44208301       0.41809300 </v>
   <v>       0.50000000       0.38416601       0.50000000 </v>
   <v>       0.61749315       0.50000005       0.34021317 </v>
   <v>       0.61749315       0.50000005       0.65978680 </v>
   <v>       0.38250685       0.50000005       0.34021317 </v>
   <v>       0.38250685       0.50000005       0.65978680 </v>
   <v>       0.38317830       0.38317830       0.50000000 </v>
   <v>       0.61682172       0.61682172       0.50000000 </v>
   <v>       0.61682170       0.38317830       0.50000000 </v>
   <v>       0.38317828       0.61682172       0.50000000 </v>
   <v>       0.50000000       0.50000000       0.33478917 </v>
   <v>       0.50000000       0.50000000       0.66521087 </v>
   <v>       0.32826705       0.44576024       0.58308023 </v>
   <v>       0.55423973       0.67173293       0.58308023 </v>
   <v>       0.55791699       0.44208301       0.58190703 </v>
   <v>       0.44208298       0.55791702       0.41809300 </v>
   <v>       0.44208301       0.44208301       0.58190703 </v>
   <v>       0.67173295       0.44576024       0.58308023 </v>
   <v>       0.44576027       0.67173293       0.58308023 </v>
   <v>       0.55791702       0.55791702       0.41809300 </v>
   <v>       0.38416599       0.50000002       0.50000000 </v>
   <v>       0.61583401       0.50000002       0.50000000 </v>
   <v>       0.50000000       0.61749319       0.34021317 </v>
   <v>       0.50000000       0.61749319       0.65978680 </v>
   <v>       0.50000000       0.50000000       0.50000000 </v>
   <v>       0.44208298       0.55791702       0.58190703 </v>
   <v>       0.55791702       0.55791702       0.58190703 </v>
   <v>       0.50000000       0.61583404       0.50000000 </v>
   <v>       0.36414107       0.63585893       0.72495947 </v>
   <v>       0.34687407       0.65312593       0.75355073 </v>
  </varray>
  <varray name="selective"  type="logical" >
   <v type="logical" >  F  F  F </v>
   <v type="logical" >  F  F  F </v>
   <v type="logical" >  F  F  F </v>
   <v type="logical" >  F  F  F </v>
   <v type="logical" >  F  F  F </v>
   <v type="logical" >  F  F  F </v>
   <v type="logical" >  F  F  F </v>
   <v type="logical" >  F  F  F </v>
   <v type="logical" >  F  F  F </v>
   <v type="logical" >  F  F  F </v>
   <v type="logical" >  F  F  F </v>
   <v type="logical" >  F  F  F </v>
   <v type="logical" >  F  F  F </v>
   <v type="logical" >  F  F  F </v>
   <v type="logical" >  F  F  F </v>
   <v type="logical" >  F  F  F </v>
   <v type="logical" >  F  F  F </v>
   <v type="logical" >  F  F  F </v>
   <v type="logical" >  F  F  F </v>
   <v type="logical" >  F  F  F </v>
   <v type="logical" >  F  F  F </v>
   <v type="logical" >  F  F  F </v>
   <v type="logical" >  F  F  F </v>
   <v type="logical" >  F  F  F </v>
   <v type="logical" >  F  F  F </v>
   <v type="logical" >  F  F  F </v>
   <v type="logical" >  F  F  F </v>
   <v type="logical" >  F  F  F </v>
   <v type="logical" >  F  F  F </v>
   <v type="logical" >  F  F  F </v>
   <v type="logical" >  F  F  F </v>
   <v type="logical" >  F  F  F </v>
   <v type="logical" >  F  F  F </v>
   <v type="logical" >  F  F  F </v>
   <v type="logical" >  F  F  F </v>
   <v type="logical" >  F  F  F </v>
   <v type="logical" >  F  F  F </v>
   <v type="logical" >  F  F  F </v>
   <v type="logical" >  F  F  F </v>
   <v type="logical" >  F  F  F </v>
   <v type="logical" >  F  F  F </v>
   <v type="logical" >  F  F  F </v>
   <v type="logical" >  F  F  F </v>
   <v type="logical" >  F  F  F </v>
   <v type="logical" >  F  F  F </v>
   <v type="logical" >  F  F  F </v>
   <v type="logical" >  F  F  F </v>
   <v type="logical" >  F  F  F </v>
   <v type="logical" >  F  F  F </v>
   <v type="logical" >  F  F  F </v>
   <v type="logical" >  F  F  F </v>
   <v type="logical" >  F  F  F </v>
   <v type="logical" >  F  F  F </v>
   <v type="logical" >  F  F  F </v>
   <v type="logical" >  F  F  F </v>
   <v type="logical" >  F  F  F </v>
   <v type="logical" >  F  F  F </v>
  </varray>
  <nose>
   <v>      -3.00000000       0.00000000       0.00010000       0.00010000 </v>
  </nose>
 </structure>
 <calculation>
  <scstep>
   <time name="dav">  458.62  458.71</time>
   <time name="total">  475.08  475.17</time>
   <energy>
    <i name="alphaZ">     75.25431677 </i>
    <i name="ewald"> 137000.19270045 </i>
    <i name="hartreedc">-180365.80165406 </i>
    <i name="XCdc">  -1703.66212181 </i>
    <i name="pawpsdc">  44873.02882129 </i>
    <i name="pawaedc"> -41398.84523641 </i>
    <i name="eentropy">      0.01253572 </i>
    <i name="bandstr">    815.52640838 </i>
    <i name="atom">  45086.50549395 </i>
    <i name="e_fr_energy">   4382.21126428 </i>
    <i name="e_wo_entrp">   4382.19872855 </i>
    <i name="e_0_energy">   4382.20813035 </i>
   </energy>
  </scstep>
  <scstep>
   <time name="dav">  714.51  714.52</time>
   <time name="total">  714.51  714.52</time>
   <energy>
    <i name="e_fr_energy">   2011.85618046 </i>
    <i name="e_wo_entrp">   2011.88838683 </i>
    <i name="e_0_energy">   2011.86423206 </i>
   </energy>
  </scstep>
  <scstep>
   <time name="dav">  592.86  592.87</time>
   <time name="total">  592.86  592.87</time>
   <energy>
    <i name="e_fr_energy">    234.66377033 </i>
    <i name="e_wo_entrp">    234.66118913 </i>
    <i name="e_0_energy">    234.66312503 </i>
   </energy>
  </scstep>
  <scstep>
   <time name="dav">  523.51  523.52</time>
   <time name="total">  523.51  523.52</time>
   <energy>
    <i name="e_fr_energy">   -135.37169023 </i>
    <i name="e_wo_entrp">   -135.41354417 </i>
    <i name="e_0_energy">   -135.38215371 </i>
   </energy>
  </scstep>
  <scstep>
   <time name="dav">  638.49  638.51</time>
   <time name="total">  670.58  670.60</time>
   <energy>
    <i name="e_fr_energy">   -179.43607810 </i>
    <i name="e_wo_entrp">   -179.93747945 </i>
    <i name="e_0_energy">   -179.56142844 </i>
   </energy>
  </scstep>
  <scstep>
   <time name="diag">   85.92   85.92</time>
   <time name="diis">  238.42  238.43</time>
   <time name="orth">   17.00   17.00</time>
   <time name="total">  387.79  387.81</time>
   <energy>
    <i name="e_fr_energy">   -178.08754596 </i>
    <i name="e_wo_entrp">   -177.92901922 </i>
    <i name="e_0_energy">   -178.04791428 </i>
   </energy>
  </scstep>
  <scstep>
   <time name="diag">   86.13   86.13</time>
   <time name="diis">  276.92  276.93</time>
   <time name="orth">   16.84   16.84</time>
   <time name="total">  426.18  426.19</time>
   <energy>
    <i name="e_fr_energy">   -181.27873039 </i>
    <i name="e_wo_entrp">   -181.13994064 </i>
    <i name="e_0_energy">   -181.24403295 </i>
   </energy>
  </scstep>
  <scstep>
   <time name="diag">   85.74   85.75</time>
   <time name="diis">  259.77  259.78</time>
   <time name="orth">   16.90   16.90</time>
   <time name="total">  408.62  408.64</time>
   <energy>
    <i name="e_fr_energy">   -184.10918753 </i>
    <i name="e_wo_entrp">   -183.99909127 </i>
    <i name="e_0_energy">   -184.08166346 </i>
   </energy>
  </scstep>
  <scstep>
   <time name="diag">   85.50   85.50</time>
   <time name="diis">  247.45  247.45</time>
   <time name="orth">   16.75   16.75</time>
   <time name="total">  396.12  396.14</time>
   <energy>
    <i name="e_fr_energy">   -181.49510254 </i>
    <i name="e_wo_entrp">   -181.35279374 </i>
    <i name="e_0_energy">   -181.45952534 </i>
   </energy>
  </scstep>
  <scstep>
   <time name="diag">   85.51   85.51</time>
   <time name="diis">  240.27  240.28</time>
   <time name="orth">   16.65   16.65</time>
   <time name="total">  389.03  389.04</time>
   <energy>
    <i name="e_fr_energy">   -178.41107791 </i>
    <i name="e_wo_entrp">   -178.32091559 </i>
    <i name="e_0_energy">   -178.38853733 </i>
   </energy>
  </scstep>
  <scstep>
   <time name="diag">   85.24   85.25</time>
   <time name="diis">  242.14  242.15</time>
   <time name="orth">   16.63   16.63</time>
   <time name="total">  390.47  390.48</time>
   <energy>
    <i name="e_fr_energy">   -177.21201991 </i>
    <i name="e_wo_entrp">   -177.18421106 </i>
    <i name="e_0_energy">   -177.20506770 </i>
   </energy>
  </scstep>
  <scstep>
   <time name="diag">   85.36   85.36</time>
   <time name="diis">  237.35  237.35</time>
   <time name="orth">   16.72   16.72</time>
   <time name="total">  386.01  386.02</time>
   <energy>
    <i name="e_fr_energy">   -176.22761474 </i>
    <i name="e_wo_entrp">   -176.11566972 </i>
    <i name="e_0_energy">   -176.19962849 </i>
   </energy>
  </scstep>
  <scstep>
   <time name="diag">   85.10   85.11</time>
   <time name="diis">  236.96  236.96</time>
   <time name="orth">   16.68   16.68</time>
   <time name="total">  385.15  385.17</time>
   <energy>
    <i name="e_fr_energy">   -176.15664403 </i>
    <i name="e_wo_entrp">   -176.04492525 </i>
    <i name="e_0_energy">   -176.12871433 </i>
   </energy>
  </scstep>
  <scstep>
   <time name="diag">   85.16   85.16</time>
   <time name="diis">  237.46  237.46</time>
   <time name="orth">   16.73   16.73</time>
   <time name="total">  385.92  385.93</time>
   <energy>
    <i name="e_fr_energy">   -176.04858638 </i>
    <i name="e_wo_entrp">   -175.92542831 </i>
    <i name="e_0_energy">   -176.01779686 </i>
   </energy>
  </scstep>
  <scstep>
   <time name="diag">   85.27   85.27</time>
   <time name="diis">  235.29  235.30</time>
   <time name="orth">   16.73   16.73</time>
   <time name="total">  383.81  383.83</time>
   <energy>
    <i name="e_fr_energy">   -176.14724539 </i>
    <i name="e_wo_entrp">   -176.02757024 </i>
    <i name="e_0_energy">   -176.11732660 </i>
   </energy>
  </scstep>
  <scstep>
   <time name="diag">   85.19   85.19</time>
   <time name="diis">  232.76  232.77</time>
   <time name="orth">   16.66   16.66</time>
   <time name="total">  381.22  381.24</time>
   <energy>
    <i name="e_fr_energy">   -175.47503749 </i>
    <i name="e_wo_entrp">   -175.45640921 </i>
    <i name="e_0_energy">   -175.47038042 </i>
   </energy>
  </scstep>
  <scstep>
   <time name="diag">   85.07   85.07</time>
   <time name="diis">  236.40  236.41</time>
   <time name="orth">   16.72   16.72</time>
   <time name="total">  384.91  384.93</time>
   <energy>
    <i name="e_fr_energy">   -175.27762385 </i>
    <i name="e_wo_entrp">   -175.28811899 </i>
    <i name="e_0_energy">   -175.28024764 </i>
   </energy>
  </scstep>
  <scstep>
   <time name="diag">   84.86   84.86</time>
   <time name="diis">  232.59  232.60</time>
   <time name="orth">   16.74   16.74</time>
   <time name="total">  380.94  380.95</time>
   <energy>
    <i name="e_fr_energy">   -175.40967199 </i>
    <i name="e_wo_entrp">   -175.39332076 </i>
    <i name="e_0_energy">   -175.40558418 </i>
   </energy>
  </scstep>
  <scstep>
   <time name="diag">   85.22   85.22</time>
   <time name="diis">  233.18  233.19</time>
   <time name="orth">   16.76   16.76</time>
   <time name="total">  381.89  381.90</time>
   <energy>
    <i name="e_fr_energy">   -175.11982211 </i>
    <i name="e_wo_entrp">   -175.08204354 </i>
    <i name="e_0_energy">   -175.11037747 </i>
   </energy>
  </scstep>
  <scstep>
   <time name="diag">   85.07   85.07</time>
   <time name="diis">  233.55  233.56</time>
   <time name="orth">   16.83   16.83</time>
   <time name="total">  382.45  382.47</time>
   <energy>
    <i name="e_fr_energy">   -174.83809897 </i>
    <i name="e_wo_entrp">   -174.77357649 </i>
    <i name="e_0_energy">   -174.82196835 </i>
   </energy>
  </scstep>
  <scstep>
   <time name="diag">   85.39   85.39</time>
   <time name="diis">  232.63  232.64</time>
   <time name="orth">   16.90   16.90</time>
   <time name="total">  381.85  381.86</time>
   <energy>
    <i name="e_fr_energy">   -174.81277526 </i>
    <i name="e_wo_entrp">   -174.73953228 </i>
    <i name="e_0_energy">   -174.79446452 </i>
   </energy>
  </scstep>
  <scstep>
   <time name="diag">   85.20   85.20</time>
   <time name="diis">  232.32  232.32</time>
   <time name="orth">   16.90   16.90</time>
   <time name="total">  381.43  381.45</time>
   <energy>
    <i name="e_fr_energy">   -174.72444986 </i>
    <i name="e_wo_entrp">   -174.64180501 </i>
    <i name="e_0_energy">   -174.70378865 </i>
   </energy>
  </scstep>
  <scstep>
   <time name="diag">   85.16   85.16</time>
   <time name="diis">  232.74  232.75</time>
   <time name="orth">   16.97   16.97</time>
   <time name="total">  381.77  381.78</time>
   <energy>
    <i name="e_fr_energy">   -174.67617495 </i>
    <i name="e_wo_entrp">   -174.58625167 </i>
    <i name="e_0_energy">   -174.65369413 </i>
   </energy>
  </scstep>
  <scstep>
   <time name="diag">   85.15   85.15</time>
   <time name="diis">  239.01  239.02</time>
   <time name="orth">   18.83   18.83</time>
   <time name="total">  392.77  392.79</time>
   <energy>
    <i name="e_fr_energy">   -174.65671531 </i>
    <i name="e_wo_entrp">   -174.55950490 </i>
    <i name="e_0_energy">   -174.63241270 </i>
   </energy>
  </scstep>
  <scstep>
   <time name="diag">   93.07   93.07</time>
   <time name="diis">  248.36  248.36</time>
   <time name="orth">   18.72   18.72</time>
   <time name="total">  411.33  411.34</time>
   <energy>
    <i name="e_fr_energy">   -174.64313535 </i>
    <i name="e_wo_entrp">   -174.55167056 </i>
    <i name="e_0_energy">   -174.62026915 </i>
   </energy>
  </scstep>
  <scstep>
   <time name="diag">   93.22   93.22</time>
   <time name="diis">  247.84  247.85</time>
   <time name="orth">   18.75   18.75</time>
   <time name="total">  411.63  411.64</time>
   <energy>
    <i name="e_fr_energy">   -174.62581964 </i>
    <i name="e_wo_entrp">   -174.54827418 </i>
    <i name="e_0_energy">   -174.60643328 </i>
   </energy>
  </scstep>
  <scstep>
   <time name="diag">   93.15   93.15</time>
   <time name="diis">  248.40  248.40</time>
   <time name="orth">   18.72   18.72</time>
   <time name="total">  411.83  411.84</time>
   <energy>
    <i name="e_fr_energy">   -174.61657950 </i>
    <i name="e_wo_entrp">   -174.53050000 </i>
    <i name="e_0_energy">   -174.59505963 </i>
   </energy>
  </scstep>
  <scstep>
   <time name="diag">   93.01   93.01</time>
   <time name="diis">  249.19  249.20</time>
   <time name="orth">   18.79   18.79</time>
   <time name="total">  412.57  412.58</time>
   <energy>
    <i name="e_fr_energy">   -174.60816145 </i>
    <i name="e_wo_entrp">   -174.51904232 </i>
    <i name="e_0_energy">   -174.58588167 </i>
   </energy>
  </scstep>
  <scstep>
   <time name="diag">   93.22   93.22</time>
   <time name="diis">  248.50  248.51</time>
   <time name="orth">   18.83   18.83</time>
   <time name="total">  411.90  411.91</time>
   <energy>
    <i name="e_fr_energy">   -174.60436501 </i>
    <i name="e_wo_entrp">   -174.51344604 </i>
    <i name="e_0_energy">   -174.58163527 </i>
   </energy>
  </scstep>
  <scstep>
   <time name="diag">   93.37   93.37</time>
   <time name="diis">  247.63  247.64</time>
   <time name="orth">   19.01   19.01</time>
   <time name="total">  411.59  411.60</time>
   <energy>
    <i name="e_fr_energy">   -174.60370665 </i>
    <i name="e_wo_entrp">   -174.51259840 </i>
    <i name="e_0_energy">   -174.58092959 </i>
   </energy>
  </scstep>
  <scstep>
   <time name="diag">   93.44   93.45</time>
   <time name="diis">  246.21  246.21</time>
   <time name="orth">   18.83   18.83</time>
   <time name="total">  410.37  410.38</time>
   <energy>
    <i name="e_fr_energy">   -174.60219037 </i>
    <i name="e_wo_entrp">   -174.50938227 </i>
    <i name="e_0_energy">   -174.57898834 </i>
   </energy>
  </scstep>
  <scstep>
   <time name="diag">   93.56   93.57</time>
   <time name="diis">  246.27  246.27</time>
   <time name="orth">   18.80   18.80</time>
   <time name="total">  410.73  410.73</time>
   <energy>
    <i name="e_fr_energy">   -174.60256495 </i>
    <i name="e_wo_entrp">   -174.50994265 </i>
    <i name="e_0_energy">   -174.57940938 </i>
   </energy>
  </scstep>
  <scstep>
   <time name="diag">   93.62   93.62</time>
   <time name="diis">  246.40  246.41</time>
   <time name="orth">   18.78   18.78</time>
   <time name="total">  411.06  411.07</time>
   <energy>
    <i name="e_fr_energy">   -174.60521261 </i>
    <i name="e_wo_entrp">   -174.51332849 </i>
    <i name="e_0_energy">   -174.58224158 </i>
   </energy>
  </scstep>
  <scstep>
   <time name="diag">   93.54   93.54</time>
   <time name="diis">  244.29  244.29</time>
   <time name="orth">   18.78   18.78</time>
   <time name="total">  408.70  408.70</time>
   <energy>
    <i name="e_fr_energy">   -174.60677878 </i>
    <i name="e_wo_entrp">   -174.51245572 </i>
    <i name="e_0_energy">   -174.58319802 </i>
   </energy>
  </scstep>
  <scstep>
   <time name="diag">   93.34   93.34</time>
   <time name="diis">  232.36  232.36</time>
   <time name="orth">   19.10   19.10</time>
   <time name="total">  398.39  398.40</time>
   <energy>
    <i name="e_fr_energy">   -174.60951108 </i>
    <i name="e_wo_entrp">   -174.51860490 </i>
    <i name="e_0_energy">   -174.58678453 </i>
   </energy>
  </scstep>
  <scstep>
   <time name="diag">   96.74   96.74</time>
   <time name="diis">  194.66  194.66</time>
   <time name="orth">   19.26   19.26</time>
   <time name="total">  365.62  365.63</time>
   <energy>
    <i name="e_fr_energy">   -174.61115762 </i>
    <i name="e_wo_entrp">   -174.51859649 </i>
    <i name="e_0_energy">   -174.58801733 </i>
   </energy>
  </scstep>
  <scstep>
   <time name="diag">   96.16   96.17</time>
   <time name="diis">  237.91  237.92</time>
   <time name="orth">   19.34   19.34</time>
   <time name="total">  408.38  408.39</time>
   <energy>
    <i name="e_fr_energy">   -174.61563168 </i>
    <i name="e_wo_entrp">   -174.52340871 </i>
    <i name="e_0_energy">   -174.59257593 </i>
   </energy>
  </scstep>
  <scstep>
   <time name="diag">   96.06   96.06</time>
   <time name="diis">  177.18  177.19</time>
   <time name="orth">   19.36   19.36</time>
   <time name="total">  347.74  347.75</time>
   <energy>
    <i name="e_fr_energy">   -174.61717934 </i>
    <i name="e_wo_entrp">   -174.52537899 </i>
    <i name="e_0_energy">   -174.59422925 </i>
   </energy>
  </scstep>
  <scstep>
   <time name="diag">   96.16   96.16</time>
   <time name="diis">  189.25  189.26</time>
   <time name="orth">   19.24   19.24</time>
   <time name="total">  359.11  359.12</time>
   <energy>
    <i name="e_fr_energy">   -174.62005333 </i>
    <i name="e_wo_entrp">   -174.52763615 </i>
    <i name="e_0_energy">   -174.59694903 </i>
   </energy>
  </scstep>
  <scstep>
   <time name="diag">   95.92   95.92</time>
   <time name="diis">  184.25  184.25</time>
   <time name="orth">   19.21   19.21</time>
   <time name="total">  355.06  355.07</time>
   <energy>
    <i name="e_fr_energy">   -174.62219983 </i>
    <i name="e_wo_entrp">   -174.53112760 </i>
    <i name="e_0_energy">   -174.59943177 </i>
   </energy>
  </scstep>
  <scstep>
   <time name="diag">   96.62   96.62</time>
   <time name="diis">  167.05  167.05</time>
   <time name="orth">   19.10   19.10</time>
   <time name="total">  338.21  338.22</time>
   <energy>
    <i name="e_fr_energy">   -174.62367219 </i>
    <i name="e_wo_entrp">   -174.53222621 </i>
    <i name="e_0_energy">   -174.60081070 </i>
   </energy>
  </scstep>
  <scstep>
   <time name="diag">   96.31   96.31</time>
   <time name="diis">  169.95  169.95</time>
   <time name="orth">   18.87   18.87</time>
   <time name="total">  340.32  340.33</time>
   <energy>
    <i name="e_fr_energy">   -174.62584475 </i>
    <i name="e_wo_entrp">   -174.53441442 </i>
    <i name="e_0_energy">   -174.60298717 </i>
   </energy>
  </scstep>
  <scstep>
   <time name="diag">   95.97   95.98</time>
   <time name="diis">  164.76  164.77</time>
   <time name="orth">   19.32   19.32</time>
   <time name="total">  336.55  336.56</time>
   <energy>
    <i name="e_fr_energy">   -174.62643249 </i>
    <i name="e_wo_entrp">   -174.53480044 </i>
    <i name="e_0_energy">   -174.60352448 </i>
   </energy>
  </scstep>
  <scstep>
   <time name="diag">   97.79   97.79</time>
   <time name="diis">  162.72  162.73</time>
   <time name="orth">   19.30   19.30</time>
   <time name="total">  336.94  336.95</time>
   <energy>
    <i name="e_fr_energy">   -174.62749702 </i>
    <i name="e_wo_entrp">   -174.53573632 </i>
    <i name="e_0_energy">   -174.60455684 </i>
   </energy>
  </scstep>
  <scstep>
   <time name="diag">   97.34   97.34</time>
   <time name="diis">  161.28  161.28</time>
   <time name="orth">   19.28   19.28</time>
   <time name="total">  335.30  335.31</time>
   <energy>
    <i name="e_fr_energy">   -174.62794924 </i>
    <i name="e_wo_entrp">   -174.53648203 </i>
    <i name="e_0_energy">   -174.60508244 </i>
   </energy>
  </scstep>
  <scstep>
   <time name="diag">   97.35   97.35</time>
   <time name="diis">  159.25  159.25</time>
   <time name="orth">   19.18   19.18</time>
   <time name="total">  333.41  333.42</time>
   <energy>
    <i name="e_fr_energy">   -174.62905307 </i>
    <i name="e_wo_entrp">   -174.53770599 </i>
    <i name="e_0_energy">   -174.60621630 </i>
   </energy>
  </scstep>
  <scstep>
   <time name="diag">   97.25   97.25</time>
   <time name="diis">  131.46  131.46</time>
   <time name="orth">   19.21   19.21</time>
   <time name="total">  304.19  304.20</time>
   <energy>
    <i name="e_fr_energy">   -174.62937930 </i>
    <i name="e_wo_entrp">   -174.53792888 </i>
    <i name="e_0_energy">   -174.60651670 </i>
   </energy>
  </scstep>
  <scstep>
   <time name="diag">   95.19   95.19</time>
   <time name="diis">  149.35  149.36</time>
   <time name="orth">   19.06   19.06</time>
   <time name="total">  320.45  320.46</time>
   <energy>
    <i name="e_fr_energy">   -174.63012993 </i>
    <i name="e_wo_entrp">   -174.53837973 </i>
    <i name="e_0_energy">   -174.60719238 </i>
   </energy>
  </scstep>
  <scstep>
   <time name="diag">   95.26   95.26</time>
   <time name="diis">  131.86  131.87</time>
   <time name="orth">   19.22   19.22</time>
   <time name="total">  303.17  303.18</time>
   <energy>
    <i name="e_fr_energy">   -174.63051382 </i>
    <i name="e_wo_entrp">   -174.53886708 </i>
    <i name="e_0_energy">   -174.60760214 </i>
   </energy>
  </scstep>
  <scstep>
   <time name="diag">   95.08   95.08</time>
   <time name="diis">  117.46  117.47</time>
   <time name="orth">   19.38   19.38</time>
   <time name="total">  288.54  288.55</time>
   <energy>
    <i name="e_fr_energy">   -174.63067022 </i>
    <i name="e_wo_entrp">   -174.53910758 </i>
    <i name="e_0_energy">   -174.60777956 </i>
   </energy>
  </scstep>
  <scstep>
   <time name="diag">   94.75   94.75</time>
   <time name="diis">  137.89  137.90</time>
   <time name="orth">   18.93   18.93</time>
   <time name="total">  308.22  308.23</time>
   <energy>
    <i name="e_fr_energy">   -174.63102356 </i>
    <i name="e_wo_entrp">   -174.53946287 </i>
    <i name="e_0_energy">   -174.60813339 </i>
   </energy>
  </scstep>
  <scstep>
   <time name="diag">   94.76   94.77</time>
   <time name="diis">  108.74  108.74</time>
   <time name="orth">   18.79   18.79</time>
   <time name="total">  239.84  239.84</time>
   <energy>
    <i name="alphaZ">     75.25431677 </i>
    <i name="ewald"> 137000.19270045 </i>
    <i name="hartreedc">-181361.31552929 </i>
    <i name="XCdc">  -1693.06442233 </i>
    <i name="pawpsdc">  46082.59811979 </i>
    <i name="pawaedc"> -42552.80208520 </i>
    <i name="eentropy">     -0.09155669 </i>
    <i name="bandstr">  -2811.90815110 </i>
    <i name="atom">  45086.50549395 </i>
    <i name="e_fr_energy">   -174.63111365 </i>
    <i name="e_wo_entrp">   -174.53955696 </i>
    <i name="e_0_energy">   -174.60822448 </i>
   </energy>
  </scstep>
  <structure>
   <crystal>
    <varray name="basis" >
     <v>      30.00000000       0.00000000       0.00000000 </v>
     <v>       0.00000000      30.00000000       0.00000000 </v>
     <v>       0.00000000       0.00000000      30.00000000 </v>
    </varray>
    <i name="volume">  27000.00000000 </i>
    <varray name="rec_basis" >
     <v>       0.03333333       0.00000000       0.00000000 </v>
     <v>       0.00000000       0.03333333       0.00000000 </v>
     <v>       0.00000000       0.00000000       0.03333333 </v>
    </varray>
   </crystal>
   <varray name="positions" >
    <v>       0.44576020       0.32826710       0.41691983 </v>
    <v>       0.67173288       0.55423978       0.41691983 </v>
    <v>       0.55423980       0.32826710       0.41691983 </v>
    <v>       0.32826712       0.55423978       0.41691983 </v>
    <v>       0.50000000       0.38250690       0.34021317 </v>
    <v>       0.50000000       0.38250690       0.65978680 </v>
    <v>       0.50000000       0.27609440       0.50000000 </v>
    <v>       0.27609443       0.49999998       0.50000000 </v>
    <v>       0.72390557       0.49999998       0.50000000 </v>
    <v>       0.50000000       0.72390555       0.50000000 </v>
    <v>       0.61195280       0.38804720       0.34167483 </v>
    <v>       0.61195280       0.38804720       0.65832513 </v>
    <v>       0.38804722       0.61195278       0.34167483 </v>
    <v>       0.38804722       0.61195278       0.65832513 </v>
    <v>       0.38804720       0.38804720       0.34167483 </v>
    <v>       0.38804720       0.38804720       0.65832513 </v>
    <v>       0.61195278       0.61195278       0.34167483 </v>
    <v>       0.61195278       0.61195278       0.65832513 </v>
    <v>       0.44576020       0.32826710       0.58308023 </v>
    <v>       0.67173288       0.55423978       0.58308023 </v>
    <v>       0.55791699       0.44208301       0.41809300 </v>
    <v>       0.32826705       0.44576024       0.41691983 </v>
    <v>       0.55423973       0.67173293       0.41691983 </v>
    <v>       0.55423980       0.32826710       0.58308023 </v>
    <v>       0.32826712       0.55423978       0.58308023 </v>
    <v>       0.67173295       0.44576024       0.41691983 </v>
    <v>       0.44576027       0.67173293       0.41691983 </v>
    <v>       0.44208301       0.44208301       0.41809300 </v>
    <v>       0.50000000       0.38416601       0.50000000 </v>
    <v>       0.61749315       0.50000005       0.34021317 </v>
    <v>       0.61749315       0.50000005       0.65978680 </v>
    <v>       0.38250685       0.50000005       0.34021317 </v>
    <v>       0.38250685       0.50000005       0.65978680 </v>
    <v>       0.38317830       0.38317830       0.50000000 </v>
    <v>       0.61682172       0.61682172       0.50000000 </v>
    <v>       0.61682170       0.38317830       0.50000000 </v>
    <v>       0.38317828       0.61682172       0.50000000 </v>
    <v>       0.50000000       0.50000000       0.33478917 </v>
    <v>       0.50000000       0.50000000       0.66521087 </v>
    <v>       0.32826705       0.44576024       0.58308023 </v>
    <v>       0.55423973       0.67173293       0.58308023 </v>
    <v>       0.55791699       0.44208301       0.58190703 </v>
    <v>       0.44208298       0.55791702       0.41809300 </v>
    <v>       0.44208301       0.44208301       0.58190703 </v>
    <v>       0.67173295       0.44576024       0.58308023 </v>
    <v>       0.44576027       0.67173293       0.58308023 </v>
    <v>       0.55791702       0.55791702       0.41809300 </v>
    <v>       0.38416599       0.50000002       0.50000000 </v>
    <v>       0.61583401       0.50000002       0.50000000 </v>
    <v>       0.50000000       0.61749319       0.34021317 </v>
    <v>       0.50000000       0.61749319       0.65978680 </v>
    <v>       0.50000000       0.50000000       0.50000000 </v>
    <v>       0.44208298       0.55791702       0.58190703 </v>
    <v>       0.55791702       0.55791702       0.58190703 </v>
    <v>       0.50000000       0.61583404       0.50000000 </v>
    <v>       0.36414107       0.63585893       0.72495947 </v>
    <v>       0.34687407       0.65312593       0.75355073 </v>
   </varray>
  </structure>
  <varray name="forces" >
   <v>       0.70026750       1.10441939       0.29070701 </v>
   <v>      -1.10441939      -0.70026750       0.29070701 </v>
   <v>      -0.70185834       1.10740639       0.29482603 </v>
   <v>       1.10932059      -0.70547879       0.28960682 </v>
   <v>      -0.00171164       0.41469768       1.27960855 </v>
   <v>       0.00048899       0.41449222      -1.28174664 </v>
   <v>       0.00053941       1.51707150       0.00015096 </v>
   <v>       1.51131070       0.00233956      -0.00681773 </v>
   <v>      -1.51707150      -0.00053941       0.00015096 </v>
   <v>      -0.00233956      -1.51131070      -0.00681773 </v>
   <v>      -0.75760500       0.75760500       1.07543356 </v>
   <v>      -0.75594444       0.75594444      -1.07144556 </v>
   <v>       0.75636342      -0.75636342       1.07102049 </v>
   <v>       0.12485920      -0.12485920       0.99374249 </v>
   <v>       0.75575525       0.75657020       1.07285369 </v>
   <v>       0.75425915       0.75963931      -1.06969476 </v>
   <v>      -0.75657020      -0.75575525       1.07285369 </v>
   <v>      -0.75963931      -0.75425915      -1.06969476 </v>
   <v>       0.70484155       1.10831062      -0.29444940 </v>
   <v>      -1.10831062      -0.70484155      -0.29444940 </v>
   <v>       0.11253215      -0.11253215      -0.15907677 </v>
   <v>       1.11071008       0.70327411       0.28675496 </v>
   <v>      -0.70327411      -1.11071008       0.28675496 </v>
   <v>      -0.70128763       1.10817777      -0.29383526 </v>
   <v>       1.07530671      -0.76206886      -0.32652433 </v>
   <v>      -1.10740639       0.70185834       0.29482603 </v>
   <v>       0.70547879      -1.10932059       0.28960682 </v>
   <v>      -0.11277509      -0.11324670      -0.16139085 </v>
   <v>       0.00329626      -0.23330856      -0.00123106 </v>
   <v>      -0.41469768       0.00171164       1.27960855 </v>
   <v>      -0.41449222      -0.00048899      -1.28174664 </v>
   <v>       0.41455834      -0.00012025       1.28004586 </v>
   <v>       0.39536905      -0.06468977      -1.30326775 </v>
   <v>       0.83283326       0.83244824       0.00251188 </v>
   <v>      -0.83244824      -0.83283326       0.00251188 </v>
   <v>      -0.82894068       0.82894068       0.00118850 </v>
   <v>       0.83642413      -0.83642413       0.00213427 </v>
   <v>      -0.00137844       0.00137844       1.17886386 </v>
   <v>       0.00780860      -0.00780860      -1.18683547 </v>
   <v>       1.11365251       0.70848909      -0.28654267 </v>
   <v>      -0.70848909      -1.11365251      -0.28654267 </v>
   <v>       0.10887445      -0.10887445       0.15767289 </v>
   <v>      -0.11170627       0.11170627      -0.15384715 </v>
   <v>      -0.11152005      -0.10887226       0.15638675 </v>
   <v>      -1.10817777       0.70128763      -0.29383526 </v>
   <v>       0.76206886      -1.07530671      -0.32652433 </v>
   <v>       0.11324670       0.11277509      -0.16139085 </v>
   <v>      -0.22561607       0.01045850       0.00969503 </v>
   <v>       0.23330856      -0.00329626      -0.00123106 </v>
   <v>       0.00012025      -0.41455834       1.28004586 </v>
   <v>       0.06468977      -0.39536905      -1.30326775 </v>
   <v>       0.02404129      -0.02404129      -0.02954007 </v>
   <v>      -0.16424757       0.16424757       0.16537825 </v>
   <v>       0.10887226       0.11152005       0.15638675 </v>
   <v>      -0.01045850       0.22561607       0.00969503 </v>
   <v>       2.04167247      -2.04167247      -4.56471098 </v>
   <v>      -1.46048447       1.46048447       2.64472750 </v>
  </varray>
  <varray name="stress" >
   <v>      -6.72170601      -0.01259961      -0.00958902 </v>
   <v>      -0.01259961      -6.72170601       0.00958902 </v>
   <v>      -0.00958905       0.00958905      -6.83627111 </v>
  </varray>
  <energy>
   <i name="e_fr_energy">   -174.63111365 </i>
   <i name="e_wo_entrp">   -174.60822448 </i>
   <i name="e_0_energy">     -0.09155669 </i>
  </energy>
  <time name="totalsc">20965.5620966.23</time>
  <eigenvalues>
   <array>
    <dimension dim="1">band</dimension>
    <dimension dim="2">kpoint</dimension>
    <dimension dim="3">spin</dimension>
    <field>eigene</field>
    <field>occ</field>
    <set>
     <set comment="spin 1">
      <set comment="kpoint 1">
       <r>  -29.0227    1.0000 </r>
       <r>  -13.6079    1.0000 </r>
       <r>  -11.3548    1.0000 </r>
       <r>  -11.3454    1.0000 </r>
       <r>   -9.9868    1.0000 </r>
       <r>   -6.6454    1.0000 </r>
       <r>   -6.1258    1.0000 </r>
       <r>   -6.1255    1.0000 </r>
       <r>   -6.1221    1.0000 </r>
       <r>   -5.8118    1.0000 </r>
       <r>   -5.8097    1.0000 </r>
       <r>   -5.8087    1.0000 </r>
       <r>   -5.7577    1.0000 </r>
       <r>   -5.7436    1.0000 </r>
       <r>   -5.6894    1.0000 </r>
       <r>   -5.6846    1.0000 </r>
       <r>   -5.6830    1.0000 </r>
       <r>   -5.6262    1.0000 </r>
       <r>   -5.6207    1.0000 </r>
       <r>   -5.6184    1.0000 </r>
       <r>   -5.6091    1.0000 </r>
       <r>   -5.5956    1.0000 </r>
       <r>   -5.5944    1.0000 </r>
       <r>   -5.5593    1.0000 </r>
       <r>   -5.5512    1.0000 </r>
       <r>   -5.5496    1.0000 </r>
       <r>   -5.5448    1.0000 </r>
       <r>   -5.5423    1.0000 </r>
       <r>   -5.5295    1.0000 </r>
       <r>   -5.5183    1.0000 </r>
       <r>   -5.5161    1.0000 </r>
       <r>   -5.5156    1.0000 </r>
       <r>   -5.5120    1.0000 </r>
       <r>   -5.5116    1.0000 </r>
       <r>   -5.5085    1.0000 </r>
       <r>   -5.5025    1.0000 </r>
       <r>   -5.4778    1.0000 </r>
       <r>   -5.4725    1.0000 </r>
       <r>   -5.4723    1.0000 </r>
       <r>   -5.4688    1.0000 </r>
       <r>   -5.4670    1.0000 </r>
       <r>   -5.4669    1.0000 </r>
       <r>   -5.4662    1.0000 </r>
       <r>   -5.4439    1.0000 </r>
       <r>   -5.4313    1.0000 </r>
       <r>   -5.4288    1.0000 </r>
       <r>   -5.4282    1.0000 </r>
       <r>   -5.4263    1.0000 </r>
       <r>   -5.4225    1.0000 </r>
       <r>   -5.4204    1.0000 </r>
       <r>   -5.4197    1.0000 </r>
       <r>   -5.4039    1.0000 </r>
       <r>   -5.4031    1.0000 </r>
       <r>   -5.4020    1.0000 </r>
       <r>   -5.3870    1.0000 </r>
       <r>   -5.3467    1.0000 </r>
       <r>   -5.3285    1.0000 </r>
       <r>   -5.3266    1.0000 </r>
       <r>   -5.3257    1.0000 </r>
       <r>   -5.3235    1.0000 </r>
       <r>   -5.3177    1.0000 </r>
       <r>   -5.3160    1.0000 </r>
       <r>   -5.3000    1.0000 </r>
       <r>   -5.2985    1.0000 </r>
       <r>   -5.2984    1.0000 </r>
       <r>   -5.2904    1.0000 </r>
       <r>   -5.2863    1.0000 </r>
       <r>   -5.2537    1.0000 </r>
       <r>   -5.2090    1.0000 </r>
       <r>   -5.2065    1.0000 </r>
       <r>   -5.2037    1.0000 </r>
       <r>   -5.2031    1.0000 </r>
       <r>   -5.1904    1.0000 </r>
       <r>   -5.1819    1.0000 </r>
       <r>   -5.1792    1.0000 </r>
       <r>   -5.1753    1.0000 </r>
       <r>   -5.1624    1.0000 </r>
       <r>   -5.1615    1.0000 </r>
       <r>   -5.1597    1.0000 </r>
       <r>   -5.1577    1.0000 </r>
       <r>   -5.1400    1.0000 </r>
       <r>   -5.1254    1.0000 </r>
       <r>   -5.1231    1.0000 </r>
       <r>   -5.1203    1.0000 </r>
       <r>   -5.1110    1.0000 </r>
       <r>   -5.1071    1.0000 </r>
       <r>   -5.1031    1.0000 </r>
       <r>   -5.0973    1.0000 </r>
       <r>   -5.0925    1.0000 </r>
       <r>   -5.0637    1.0000 </r>
       <r>   -5.0546    1.0000 </r>
       <r>   -5.0536    1.0000 </r>
       <r>   -5.0504    1.0000 </r>
       <r>   -5.0491    1.0000 </r>
       <r>   -5.0470    1.0000 </r>
       <r>   -5.0292    1.0000 </r>
       <r>   -5.0287    1.0000 </r>
       <r>   -5.0272    1.0000 </r>
       <r>   -5.0260    1.0000 </r>
       <r>   -5.0175    1.0000 </r>
       <r>   -5.0099    1.0000 </r>
       <r>   -5.0042    1.0000 </r>
       <r>   -5.0036    1.0000 </r>
       <r>   -5.0021    1.0000 </r>
       <r>   -4.9907    1.0000 </r>
       <r>   -4.9894    1.0000 </r>
       <r>   -4.9877    1.0000 </r>
       <r>   -4.9845    1.0000 </r>
       <r>   -4.9773    1.0000 </r>
       <r>   -4.9711    1.0000 </r>
       <r>   -4.9663    1.0000 </r>
       <r>   -4.9589    1.0000 </r>
       <r>   -4.9545    1.0000 </r>
       <r>   -4.9542    1.0000 </r>
       <r>   -4.9528    1.0000 </r>
       <r>   -4.9481    1.0000 </r>
       <r>   -4.9442    1.0000 </r>
       <r>   -4.9363    1.0000 </r>
       <r>   -4.9257    1.0000 </r>
       <r>   -4.9209    1.0000 </r>
       <r>   -4.9141    1.0000 </r>
       <r>   -4.9124    1.0000 </r>
       <r>   -4.9024    1.0000 </r>
       <r>   -4.8995    1.0000 </r>
       <r>   -4.8979    1.0000 </r>
       <r>   -4.8973    1.0000 </r>
       <r>   -4.8684    1.0000 </r>
       <r>   -4.8599    1.0000 </r>
       <r>   -4.8488    1.0000 </r>
       <r>   -4.8408    1.0000 </r>
       <r>   -4.8398    1.0000 </r>
       <r>   -4.8392    1.0000 </r>
       <r>   -4.8384    1.0000 </r>
       <r>   -4.8356    1.0000 </r>
       <r>   -4.8302    1.0000 </r>
       <r>   -4.8284    1.0000 </r>
       <r>   -4.8088    0.9999 </r>
       <r>   -4.7906    0.9999 </r>
       <r>   -4.7897    0.9999 </r>
       <r>   -4.7887    0.9999 </r>
       <r>   -4.7834    0.9999 </r>
       <r>   -4.7638    0.9998 </r>
       <r>   -4.7626    0.9998 </r>
       <r>   -4.7616    0.9998 </r>
       <r>   -4.7460    0.9997 </r>
       <r>   -4.7381    0.9996 </r>
       <r>   -4.7251    0.9995 </r>
       <r>   -4.7206    0.9995 </r>
       <r>   -4.7177    0.9994 </r>
       <r>   -4.7166    0.9994 </r>
       <r>   -4.6951    0.9991 </r>
       <r>   -4.6902    0.9990 </r>
       <r>   -4.6858    0.9989 </r>
       <r>   -4.6843    0.9989 </r>
       <r>   -4.6808    0.9988 </r>
       <r>   -4.6799    0.9988 </r>
       <r>   -4.6742    0.9987 </r>
       <r>   -4.6705    0.9986 </r>
       <r>   -4.6681    0.9985 </r>
       <r>   -4.6594    0.9983 </r>
       <r>   -4.6576    0.9983 </r>
       <r>   -4.6511    0.9981 </r>
       <r>   -4.6462    0.9979 </r>
       <r>   -4.6448    0.9979 </r>
       <r>   -4.6445    0.9979 </r>
       <r>   -4.6442    0.9979 </r>
       <r>   -4.6436    0.9978 </r>
       <r>   -4.6428    0.9978 </r>
       <r>   -4.6396    0.9977 </r>
       <r>   -4.6311    0.9974 </r>
       <r>   -4.6178    0.9969 </r>
       <r>   -4.6172    0.9969 </r>
       <r>   -4.6062    0.9965 </r>
       <r>   -4.5940    0.9960 </r>
       <r>   -4.5939    0.9960 </r>
       <r>   -4.5936    0.9960 </r>
       <r>   -4.5930    0.9960 </r>
       <r>   -4.5900    0.9959 </r>
       <r>   -4.5758    0.9955 </r>
       <r>   -4.5733    0.9954 </r>
       <r>   -4.5729    0.9954 </r>
       <r>   -4.5685    0.9953 </r>
       <r>   -4.5623    0.9952 </r>
       <r>   -4.5611    0.9951 </r>
       <r>   -4.5511    0.9951 </r>
       <r>   -4.5495    0.9951 </r>
       <r>   -4.5491    0.9951 </r>
       <r>   -4.5462    0.9951 </r>
       <r>   -4.5461    0.9951 </r>
       <r>   -4.5453    0.9951 </r>
       <r>   -4.5127    0.9965 </r>
       <r>   -4.5047    0.9973 </r>
       <r>   -4.5024    0.9976 </r>
       <r>   -4.5023    0.9976 </r>
       <r>   -4.4999    0.9979 </r>
       <r>   -4.4960    0.9985 </r>
       <r>   -4.4907    0.9993 </r>
       <r>   -4.4838    1.0005 </r>
       <r>   -4.4828    1.0007 </r>
       <r>   -4.4687    1.0040 </r>
       <r>   -4.4656    1.0048 </r>
       <r>   -4.4617    1.0060 </r>
       <r>   -4.4594    1.0066 </r>
       <r>   -4.4554    1.0079 </r>
       <r>   -4.4517    1.0091 </r>
       <r>   -4.4460    1.0111 </r>
       <r>   -4.4449    1.0115 </r>
       <r>   -4.4434    1.0121 </r>
       <r>   -4.4379    1.0142 </r>
       <r>   -4.4374    1.0144 </r>
       <r>   -4.4311    1.0170 </r>
       <r>   -4.4218    1.0211 </r>
       <r>   -4.4189    1.0224 </r>
       <r>   -4.4081    1.0275 </r>
       <r>   -4.4066    1.0282 </r>
       <r>   -4.4065    1.0283 </r>
       <r>   -4.4014    1.0307 </r>
       <r>   -4.3982    1.0323 </r>
       <r>   -4.3979    1.0324 </r>
       <r>   -4.3681    1.0455 </r>
       <r>   -4.3672    1.0458 </r>
       <r>   -4.3639    1.0469 </r>
       <r>   -4.3616    1.0477 </r>
       <r>   -4.3445    1.0513 </r>
       <r>   -4.3373    1.0516 </r>
       <r>   -4.3363    1.0516 </r>
       <r>   -4.3345    1.0515 </r>
       <r>   -4.3340    1.0515 </r>
       <r>   -4.3316    1.0512 </r>
       <r>   -4.3310    1.0512 </r>
       <r>   -4.3295    1.0509 </r>
       <r>   -4.3243    1.0498 </r>
       <r>   -4.3231    1.0495 </r>
       <r>   -4.3225    1.0493 </r>
       <r>   -4.3197    1.0483 </r>
       <r>   -4.3186    1.0479 </r>
       <r>   -4.3186    1.0479 </r>
       <r>   -4.3148    1.0462 </r>
       <r>   -4.3146    1.0461 </r>
       <r>   -4.3111    1.0442 </r>
       <r>   -4.2989    1.0349 </r>
       <r>   -4.2978    1.0339 </r>
       <r>   -4.2886    1.0236 </r>
       <r>   -4.2832    1.0163 </r>
       <r>   -4.2824    1.0152 </r>
       <r>   -4.2810    1.0130 </r>
       <r>   -4.2808    1.0127 </r>
       <r>   -4.2799    1.0114 </r>
       <r>   -4.2755    1.0042 </r>
       <r>   -4.2622    0.9782 </r>
       <r>   -4.2612    0.9759 </r>
       <r>   -4.2570    0.9661 </r>
       <r>   -4.2511    0.9512 </r>
       <r>   -4.2510    0.9510 </r>
       <r>   -4.2470    0.9399 </r>
       <r>   -4.2469    0.9396 </r>
       <r>   -4.2441    0.9317 </r>
       <r>   -4.2437    0.9305 </r>
       <r>   -4.2394    0.9176 </r>
       <r>   -4.2392    0.9171 </r>
       <r>   -4.2375    0.9117 </r>
       <r>   -4.2360    0.9068 </r>
       <r>   -4.2352    0.9045 </r>
       <r>   -4.2332    0.8977 </r>
       <r>   -4.2298    0.8864 </r>
       <r>   -4.2270    0.8765 </r>
       <r>   -4.2227    0.8606 </r>
       <r>   -4.2189    0.8462 </r>
       <r>   -4.2171    0.8394 </r>
       <r>   -4.2144    0.8288 </r>
       <r>   -4.2139    0.8266 </r>
       <r>   -4.2120    0.8191 </r>
       <r>   -4.1995    0.7656 </r>
       <r>   -4.1939    0.7398 </r>
       <r>   -4.1821    0.6836 </r>
       <r>   -4.1779    0.6628 </r>
       <r>   -4.1740    0.6434 </r>
       <r>   -4.1729    0.6377 </r>
       <r>   -4.1691    0.6180 </r>
       <r>   -4.1684    0.6147 </r>
       <r>   -4.1670    0.6073 </r>
       <r>   -4.1528    0.5331 </r>
       <r>   -4.1251    0.3878 </r>
       <r>   -4.1248    0.3858 </r>
       <r>   -4.1235    0.3792 </r>
       <r>   -4.1220    0.3715 </r>
       <r>   -4.1099    0.3113 </r>
       <r>   -4.1089    0.3064 </r>
       <r>   -4.0943    0.2379 </r>
       <r>   -3.9666   -0.0503 </r>
       <r>   -3.9014   -0.0354 </r>
       <r>   -3.8111   -0.0009 </r>
       <r>   -3.8109   -0.0009 </r>
       <r>   -3.7345    0.0049 </r>
       <r>   -3.4912    0.0001 </r>
       <r>   -3.4879    0.0001 </r>
       <r>   -3.4670    0.0000 </r>
       <r>   -3.0608    0.0000 </r>
       <r>   -3.0508    0.0000 </r>
       <r>   -3.0298    0.0000 </r>
       <r>   -3.0256    0.0000 </r>
       <r>   -3.0057    0.0000 </r>
       <r>   -2.9751    0.0000 </r>
       <r>   -2.9298    0.0000 </r>
       <r>   -2.8084    0.0000 </r>
       <r>   -2.5334    0.0000 </r>
       <r>   -2.5262    0.0000 </r>
       <r>   -2.5150    0.0000 </r>
       <r>   -2.3359    0.0000 </r>
       <r>   -2.1198    0.0000 </r>
       <r>   -2.1119    0.0000 </r>
       <r>   -2.0616    0.0000 </r>
       <r>   -2.0144    0.0000 </r>
       <r>   -1.9567    0.0000 </r>
       <r>   -1.9014    0.0000 </r>
       <r>   -1.8797    0.0000 </r>
       <r>   -1.8444    0.0000 </r>
       <r>   -1.7929    0.0000 </r>
       <r>   -1.7140    0.0000 </r>
       <r>   -1.6364    0.0000 </r>
       <r>   -1.5984    0.0000 </r>
       <r>   -1.5597    0.0000 </r>
       <r>   -1.4754    0.0000 </r>
       <r>   -1.3989    0.0000 </r>
       <r>   -1.3677    0.0000 </r>
       <r>   -1.2325    0.0000 </r>
       <r>   -1.2303    0.0000 </r>
       <r>   -1.1841    0.0000 </r>
       <r>   -0.9806    0.0000 </r>
       <r>   -0.9634    0.0000 </r>
       <r>   -0.9467    0.0000 </r>
       <r>   -0.9255    0.0000 </r>
       <r>   -0.9001    0.0000 </r>
       <r>   -0.8624    0.0000 </r>
       <r>   -0.7924    0.0000 </r>
       <r>   -0.6367    0.0000 </r>
      </set>
     </set>
    </set>
   </array>
  </eigenvalues>
  <separator name="orbital magnetization" >
   <v name="MAGDIPOLOUT">      0.00000000      0.00000000      0.00000000</v>
  </separator>
  <dos>
   <i name="efermi">     -4.14654309 </i>
   <total>
    <array>
     <dimension dim="1">gridpoints</dimension>
     <dimension dim="2">spin</dimension>
     <field>energy</field>
     <field>total</field>
     <field>integrated</field>
     <set>
      <set comment="spin 1">
       <r>   -31.0227     0.0000     0.0000 </r>
       <r>   -30.9148     0.0000     0.0000 </r>
       <r>   -30.8068     0.0000     0.0000 </r>
       <r>   -30.6989     0.0000     0.0000 </r>
       <r>   -30.5909     0.0000     0.0000 </r>
       <r>   -30.4830     0.0000     0.0000 </r>
       <r>   -30.3750     0.0000     0.0000 </r>
       <r>   -30.2671     0.0000     0.0000 </r>
       <r>   -30.1591     0.0000     0.0000 </r>
       <r>   -30.0512     0.0000     0.0000 </r>
       <r>   -29.9432     0.0000     0.0000 </r>
       <r>   -29.8353     0.0000     0.0000 </r>
       <r>   -29.7273     0.0003     0.0000 </r>
       <r>   -29.6193     0.0056     0.0006 </r>
       <r>   -29.5114     0.0394     0.0049 </r>
       <r>   -29.4034     0.0368     0.0089 </r>
       <r>   -29.2955    -0.4942    -0.0445 </r>
       <r>   -29.1875    -0.4091    -0.0886 </r>
       <r>   -29.0796     4.8500     0.4349 </r>
       <r>   -28.9716     9.9978     1.5142 </r>
       <r>   -28.8637     5.2508     2.0811 </r>
       <r>   -28.7557    -0.2898     2.0498 </r>
       <r>   -28.6478    -0.5377     1.9917 </r>
       <r>   -28.5398     0.0274     1.9947 </r>
       <r>   -28.4319     0.0423     1.9993 </r>
       <r>   -28.3239     0.0064     2.0000 </r>
       <r>   -28.2160     0.0004     2.0000 </r>
       <r>   -28.1080     0.0000     2.0000 </r>
       <r>   -28.0000     0.0000     2.0000 </r>
       <r>   -27.8921     0.0000     2.0000 </r>
       <r>   -27.7841     0.0000     2.0000 </r>
       <r>   -27.6762     0.0000     2.0000 </r>
       <r>   -27.5682     0.0000     2.0000 </r>
       <r>   -27.4603     0.0000     2.0000 </r>
       <r>   -27.3523     0.0000     2.0000 </r>
       <r>   -27.2444     0.0000     2.0000 </r>
       <r>   -27.1364     0.0000     2.0000 </r>
       <r>   -27.0285     0.0000     2.0000 </r>
       <r>   -26.9205     0.0000     2.0000 </r>
       <r>   -26.8126     0.0000     2.0000 </r>
       <r>   -26.7046     0.0000     2.0000 </r>
       <r>   -26.5966     0.0000     2.0000 </r>
       <r>   -26.4887     0.0000     2.0000 </r>
       <r>   -26.3807     0.0000     2.0000 </r>
       <r>   -26.2728     0.0000     2.0000 </r>
       <r>   -26.1648     0.0000     2.0000 </r>
       <r>   -26.0569     0.0000     2.0000 </r>
       <r>   -25.9489     0.0000     2.0000 </r>
       <r>   -25.8410     0.0000     2.0000 </r>
       <r>   -25.7330     0.0000     2.0000 </r>
       <r>   -25.6251     0.0000     2.0000 </r>
       <r>   -25.5171     0.0000     2.0000 </r>
       <r>   -25.4092     0.0000     2.0000 </r>
       <r>   -25.3012     0.0000     2.0000 </r>
       <r>   -25.1932     0.0000     2.0000 </r>
       <r>   -25.0853     0.0000     2.0000 </r>
       <r>   -24.9773     0.0000     2.0000 </r>
       <r>   -24.8694     0.0000     2.0000 </r>
       <r>   -24.7614     0.0000     2.0000 </r>
       <r>   -24.6535     0.0000     2.0000 </r>
       <r>   -24.5455     0.0000     2.0000 </r>
       <r>   -24.4376     0.0000     2.0000 </r>
       <r>   -24.3296     0.0000     2.0000 </r>
       <r>   -24.2217     0.0000     2.0000 </r>
       <r>   -24.1137     0.0000     2.0000 </r>
       <r>   -24.0058     0.0000     2.0000 </r>
       <r>   -23.8978     0.0000     2.0000 </r>
       <r>   -23.7899     0.0000     2.0000 </r>
       <r>   -23.6819     0.0000     2.0000 </r>
       <r>   -23.5739     0.0000     2.0000 </r>
       <r>   -23.4660     0.0000     2.0000 </r>
       <r>   -23.3580     0.0000     2.0000 </r>
       <r>   -23.2501     0.0000     2.0000 </r>
       <r>   -23.1421     0.0000     2.0000 </r>
       <r>   -23.0342     0.0000     2.0000 </r>
       <r>   -22.9262     0.0000     2.0000 </r>
       <r>   -22.8183     0.0000     2.0000 </r>
       <r>   -22.7103     0.0000     2.0000 </r>
       <r>   -22.6024     0.0000     2.0000 </r>
       <r>   -22.4944     0.0000     2.0000 </r>
       <r>   -22.3865     0.0000     2.0000 </r>
       <r>   -22.2785     0.0000     2.0000 </r>
       <r>   -22.1705     0.0000     2.0000 </r>
       <r>   -22.0626     0.0000     2.0000 </r>
       <r>   -21.9546     0.0000     2.0000 </r>
       <r>   -21.8467     0.0000     2.0000 </r>
       <r>   -21.7387     0.0000     2.0000 </r>
       <r>   -21.6308     0.0000     2.0000 </r>
       <r>   -21.5228     0.0000     2.0000 </r>
       <r>   -21.4149     0.0000     2.0000 </r>
       <r>   -21.3069     0.0000     2.0000 </r>
       <r>   -21.1990     0.0000     2.0000 </r>
       <r>   -21.0910     0.0000     2.0000 </r>
       <r>   -20.9831     0.0000     2.0000 </r>
       <r>   -20.8751     0.0000     2.0000 </r>
       <r>   -20.7671     0.0000     2.0000 </r>
       <r>   -20.6592     0.0000     2.0000 </r>
       <r>   -20.5512     0.0000     2.0000 </r>
       <r>   -20.4433     0.0000     2.0000 </r>
       <r>   -20.3353     0.0000     2.0000 </r>
       <r>   -20.2274     0.0000     2.0000 </r>
       <r>   -20.1194     0.0000     2.0000 </r>
       <r>   -20.0115     0.0000     2.0000 </r>
       <r>   -19.9035     0.0000     2.0000 </r>
       <r>   -19.7956     0.0000     2.0000 </r>
       <r>   -19.6876     0.0000     2.0000 </r>
       <r>   -19.5797     0.0000     2.0000 </r>
       <r>   -19.4717     0.0000     2.0000 </r>
       <r>   -19.3638     0.0000     2.0000 </r>
       <r>   -19.2558     0.0000     2.0000 </r>
       <r>   -19.1478     0.0000     2.0000 </r>
       <r>   -19.0399     0.0000     2.0000 </r>
       <r>   -18.9319     0.0000     2.0000 </r>
       <r>   -18.8240     0.0000     2.0000 </r>
       <r>   -18.7160     0.0000     2.0000 </r>
       <r>   -18.6081     0.0000     2.0000 </r>
       <r>   -18.5001     0.0000     2.0000 </r>
       <r>   -18.3922     0.0000     2.0000 </r>
       <r>   -18.2842     0.0000     2.0000 </r>
       <r>   -18.1763     0.0000     2.0000 </r>
       <r>   -18.0683     0.0000     2.0000 </r>
       <r>   -17.9604     0.0000     2.0000 </r>
       <r>   -17.8524     0.0000     2.0000 </r>
       <r>   -17.7444     0.0000     2.0000 </r>
       <r>   -17.6365     0.0000     2.0000 </r>
       <r>   -17.5285     0.0000     2.0000 </r>
       <r>   -17.4206     0.0000     2.0000 </r>
       <r>   -17.3126     0.0000     2.0000 </r>
       <r>   -17.2047     0.0000     2.0000 </r>
       <r>   -17.0967     0.0000     2.0000 </r>
       <r>   -16.9888     0.0000     2.0000 </r>
       <r>   -16.8808     0.0000     2.0000 </r>
       <r>   -16.7729     0.0000     2.0000 </r>
       <r>   -16.6649     0.0000     2.0000 </r>
       <r>   -16.5570     0.0000     2.0000 </r>
       <r>   -16.4490     0.0000     2.0000 </r>
       <r>   -16.3410     0.0000     2.0000 </r>
       <r>   -16.2331     0.0000     2.0000 </r>
       <r>   -16.1251     0.0000     2.0000 </r>
       <r>   -16.0172     0.0000     2.0000 </r>
       <r>   -15.9092     0.0000     2.0000 </r>
       <r>   -15.8013     0.0000     2.0000 </r>
       <r>   -15.6933     0.0000     2.0000 </r>
       <r>   -15.5854     0.0000     2.0000 </r>
       <r>   -15.4774     0.0000     2.0000 </r>
       <r>   -15.3695     0.0000     2.0000 </r>
       <r>   -15.2615     0.0000     2.0000 </r>
       <r>   -15.1536     0.0000     2.0000 </r>
       <r>   -15.0456     0.0000     2.0000 </r>
       <r>   -14.9377     0.0000     2.0000 </r>
       <r>   -14.8297     0.0000     2.0000 </r>
       <r>   -14.7217     0.0000     2.0000 </r>
       <r>   -14.6138     0.0000     2.0000 </r>
       <r>   -14.5058     0.0000     2.0000 </r>
       <r>   -14.3979     0.0000     2.0000 </r>
       <r>   -14.2899     0.0006     2.0001 </r>
       <r>   -14.1820     0.0092     2.0011 </r>
       <r>   -14.0740     0.0507     2.0065 </r>
       <r>   -13.9661    -0.0111     2.0053 </r>
       <r>   -13.8581    -0.6598     1.9341 </r>
       <r>   -13.7502     0.1676     1.9522 </r>
       <r>   -13.6422     6.4192     2.6452 </r>
       <r>   -13.5343     9.7949     3.7026 </r>
       <r>   -13.4263     3.6943     4.1014 </r>
       <r>   -13.3183    -0.6623     4.0299 </r>
       <r>   -13.2104    -0.3676     3.9902 </r>
       <r>   -13.1024     0.0554     3.9962 </r>
       <r>   -12.9945     0.0313     3.9996 </r>
       <r>   -12.8865     0.0038     4.0000 </r>
       <r>   -12.7786     0.0002     4.0000 </r>
       <r>   -12.6706     0.0000     4.0000 </r>
       <r>   -12.5627     0.0000     4.0000 </r>
       <r>   -12.4547     0.0000     4.0000 </r>
       <r>   -12.3468     0.0000     4.0000 </r>
       <r>   -12.2388     0.0000     4.0000 </r>
       <r>   -12.1309     0.0001     4.0000 </r>
       <r>   -12.0229     0.0017     4.0002 </r>
       <r>   -11.9149     0.0223     4.0026 </r>
       <r>   -11.8070     0.1099     4.0145 </r>
       <r>   -11.6990    -0.0813     4.0057 </r>
       <r>   -11.5911    -1.4335     3.8509 </r>
       <r>   -11.4831     0.9912     3.9579 </r>
       <r>   -11.3752    14.0618     5.4760 </r>
       <r>   -11.2672    19.0974     7.5376 </r>
       <r>   -11.1593     6.1889     8.2057 </r>
       <r>   -11.0513    -1.4820     8.0457 </r>
       <r>   -10.9434    -0.6055     7.9803 </r>
       <r>   -10.8354     0.1210     7.9934 </r>
       <r>   -10.7275     0.0547     7.9993 </r>
       <r>   -10.6195     0.0085     8.0002 </r>
       <r>   -10.5116     0.0235     8.0028 </r>
       <r>   -10.4036     0.0637     8.0096 </r>
       <r>   -10.2956    -0.2356     7.9842 </r>
       <r>   -10.1877    -0.7977     7.8981 </r>
       <r>   -10.0797     2.4646     8.1642 </r>
       <r>    -9.9718     9.2072     9.1581 </r>
       <r>    -9.8638     7.6732     9.9865 </r>
       <r>    -9.7559     0.8997    10.0836 </r>
       <r>    -9.6479    -0.7699    10.0005 </r>
       <r>    -9.5400    -0.0782     9.9920 </r>
       <r>    -9.4320     0.0592     9.9984 </r>
       <r>    -9.3241     0.0135     9.9999 </r>
       <r>    -9.2161     0.0011    10.0000 </r>
       <r>    -9.1082     0.0000    10.0000 </r>
       <r>    -9.0002     0.0000    10.0000 </r>
       <r>    -8.8922     0.0000    10.0000 </r>
       <r>    -8.7843     0.0000    10.0000 </r>
       <r>    -8.6763     0.0000    10.0000 </r>
       <r>    -8.5684     0.0000    10.0000 </r>
       <r>    -8.4604     0.0000    10.0000 </r>
       <r>    -8.3525     0.0000    10.0000 </r>
       <r>    -8.2445     0.0000    10.0000 </r>
       <r>    -8.1366     0.0000    10.0000 </r>
       <r>    -8.0286     0.0000    10.0000 </r>
       <r>    -7.9207     0.0000    10.0000 </r>
       <r>    -7.8127     0.0000    10.0000 </r>
       <r>    -7.7048     0.0000    10.0000 </r>
       <r>    -7.5968     0.0000    10.0000 </r>
       <r>    -7.4888     0.0000    10.0000 </r>
       <r>    -7.3809     0.0001    10.0000 </r>
       <r>    -7.2729     0.0027    10.0003 </r>
       <r>    -7.1650     0.0252    10.0030 </r>
       <r>    -7.0570     0.0626    10.0098 </r>
       <r>    -6.9491    -0.2687     9.9808 </r>
       <r>    -6.8411    -0.7752     9.8971 </r>
       <r>    -6.7332     2.7904    10.1983 </r>
       <r>    -6.6252     9.4987    11.2237 </r>
       <r>    -6.5173     7.5096    12.0344 </r>
       <r>    -6.4093    -0.5050    11.9799 </r>
       <r>    -6.3014    -2.4011    11.7207 </r>
       <r>    -6.1934    12.3762    13.0568 </r>
       <r>    -6.0855    28.7436    16.1597 </r>
       <r>    -5.9775    15.4622    17.8289 </r>
       <r>    -5.8695    10.8608    19.0014 </r>
       <r>    -5.7616    42.3264    23.5707 </r>
       <r>    -5.6536    96.2026    33.9561 </r>
       <r>    -5.5457   205.2402    56.1126 </r>
       <r>    -5.4377   302.0483    88.7198 </r>
       <r>    -5.3298   271.0944   117.9854 </r>
       <r>    -5.2218   211.1022   140.7747 </r>
       <r>    -5.1139   251.7977   167.9571 </r>
       <r>    -5.0059   344.2993   205.1255 </r>
       <r>    -4.8980   360.4042   244.0325 </r>
       <r>    -4.7900   307.9265   277.2743 </r>
       <r>    -4.6821   336.1046   313.5580 </r>
       <r>    -4.5741   408.4906   357.6560 </r>
       <r>    -4.4661   413.0546   402.2468 </r>
       <r>    -4.3582   458.9694   451.7942 </r>
       <r>    -4.2502   558.9580   512.1358 </r>
       <r>    -4.1423   456.0905   561.3724 </r>
       <r>    -4.0343   171.2808   579.8628 </r>
       <r>    -3.9264    15.7379   581.5618 </r>
       <r>    -3.8184    19.4706   583.6637 </r>
       <r>    -3.7105    28.1828   586.7061 </r>
       <r>    -3.6025    14.5767   588.2797 </r>
       <r>    -3.4946    22.6404   590.7239 </r>
       <r>    -3.3866    26.1216   593.5438 </r>
       <r>    -3.2787     3.4978   593.9214 </r>
       <r>    -3.1707    -1.3080   593.7802 </r>
       <r>    -3.0627    35.9013   597.6558 </r>
       <r>    -2.9548    64.1798   604.5843 </r>
       <r>    -2.8468    39.4070   608.8384 </r>
       <r>    -2.7389     8.0728   609.7099 </r>
       <r>    -2.6309     5.7721   610.3330 </r>
       <r>    -2.5230    24.5850   612.9871 </r>
       <r>    -2.4150    27.9506   616.0044 </r>
       <r>    -2.3071    12.0412   617.3043 </r>
       <r>    -2.1991     9.0914   618.2858 </r>
       <r>    -2.0912    27.2868   621.2315 </r>
       <r>    -1.9832    44.1019   625.9925 </r>
       <r>    -1.8753    47.1739   631.0851 </r>
       <r>    -1.7673    40.0373   635.4072 </r>
       <r>    -1.6594    32.8478   638.9533 </r>
       <r>    -1.5514    33.9076   642.6137 </r>
       <r>    -1.4434    32.1125   646.0804 </r>
       <r>    -1.3355    29.9964   649.3186 </r>
       <r>    -1.2275    30.8993   652.6543 </r>
       <r>    -1.1196    22.8722   655.1234 </r>
       <r>    -1.0116    26.0475   657.9353 </r>
       <r>    -0.9037    52.2312   663.5739 </r>
       <r>    -0.7957    47.2661   668.6764 </r>
       <r>    -0.6878    19.4748   670.7788 </r>
       <r>    -0.5798     8.3277   671.6778 </r>
       <r>    -0.4719     3.5133   672.0571 </r>
       <r>    -0.3639    -0.2919   672.0256 </r>
       <r>    -0.2560    -0.3484   671.9880 </r>
       <r>    -0.1480     0.0639   671.9949 </r>
       <r>    -0.0400     0.0416   671.9993 </r>
       <r>     0.0679     0.0057   672.0000 </r>
       <r>     0.1759     0.0003   672.0000 </r>
       <r>     0.2838     0.0000   672.0000 </r>
       <r>     0.3918     0.0000   672.0000 </r>
       <r>     0.4997     0.0000   672.0000 </r>
       <r>     0.6077     0.0000   672.0000 </r>
       <r>     0.7156     0.0000   672.0000 </r>
       <r>     0.8236     0.0000   672.0000 </r>
       <r>     0.9315     0.0000   672.0000 </r>
       <r>     1.0395     0.0000   672.0000 </r>
       <r>     1.1474     0.0000   672.0000 </r>
       <r>     1.2554     0.0000   672.0000 </r>
       <r>     1.3633     0.0000   672.0000 </r>
      </set>
     </set>
    </array>
   </total>
  </dos>
 </calculation>
 <structure name="finalpos" >
  <crystal>
   <varray name="basis" >
    <v>      30.00000000       0.00000000       0.00000000 </v>
    <v>       0.00000000      30.00000000       0.00000000 </v>
    <v>       0.00000000       0.00000000      30.00000000 </v>
   </varray>
   <i name="volume">  27000.00000000 </i>
   <varray name="rec_basis" >
    <v>       0.03333333       0.00000000       0.00000000 </v>
    <v>       0.00000000       0.03333333       0.00000000 </v>
    <v>       0.00000000       0.00000000       0.03333333 </v>
   </varray>
  </crystal>
  <varray name="positions" >
   <v>       0.44576020       0.32826710       0.41691983 </v>
   <v>       0.67173288       0.55423978       0.41691983 </v>
   <v>       0.55423980       0.32826710       0.41691983 </v>
   <v>       0.32826712       0.55423978       0.41691983 </v>
   <v>       0.50000000       0.38250690       0.34021317 </v>
   <v>       0.50000000       0.38250690       0.65978680 </v>
   <v>       0.50000000       0.27609440       0.50000000 </v>
   <v>       0.27609443       0.49999998       0.50000000 </v>
   <v>       0.72390557       0.49999998       0.50000000 </v>
   <v>       0.50000000       0.72390555       0.50000000 </v>
   <v>       0.61195280       0.38804720       0.34167483 </v>
   <v>       0.61195280       0.38804720       0.65832513 </v>
   <v>       0.38804722       0.61195278       0.34167483 </v>
   <v>       0.38804722       0.61195278       0.65832513 </v>
   <v>       0.38804720       0.38804720       0.34167483 </v>
   <v>       0.38804720       0.38804720       0.65832513 </v>
   <v>       0.61195278       0.61195278       0.34167483 </v>
   <v>       0.61195278       0.61195278       0.65832513 </v>
   <v>       0.44576020       0.32826710       0.58308023 </v>
   <v>       0.67173288       0.55423978       0.58308023 </v>
   <v>       0.55791699       0.44208301       0.41809300 </v>
   <v>       0.32826705       0.44576024       0.41691983 </v>
   <v>       0.55423973       0.67173293       0.41691983 </v>
   <v>       0.55423980       0.32826710       0.58308023 </v>
   <v>       0.32826712       0.55423978       0.58308023 </v>
   <v>       0.67173295       0.44576024       0.41691983 </v>
   <v>       0.44576027       0.67173293       0.41691983 </v>
   <v>       0.44208301       0.44208301       0.41809300 </v>
   <v>       0.50000000       0.38416601       0.50000000 </v>
   <v>       0.61749315       0.50000005       0.34021317 </v>
   <v>       0.61749315       0.50000005       0.65978680 </v>
   <v>       0.38250685       0.50000005       0.34021317 </v>
   <v>       0.38250685       0.50000005       0.65978680 </v>
   <v>       0.38317830       0.38317830       0.50000000 </v>
   <v>       0.61682172       0.61682172       0.50000000 </v>
   <v>       0.61682170       0.38317830       0.50000000 </v>
   <v>       0.38317828       0.61682172       0.50000000 </v>
   <v>       0.50000000       0.50000000       0.33478917 </v>
   <v>       0.50000000       0.50000000       0.66521087 </v>
   <v>       0.32826705       0.44576024       0.58308023 </v>
   <v>       0.55423973       0.67173293       0.58308023 </v>
   <v>       0.55791699       0.44208301       0.58190703 </v>
   <v>       0.44208298       0.55791702       0.41809300 </v>
   <v>       0.44208301       0.44208301       0.58190703 </v>
   <v>       0.67173295       0.44576024       0.58308023 </v>
   <v>       0.44576027       0.67173293       0.58308023 </v>
   <v>       0.55791702       0.55791702       0.41809300 </v>
   <v>       0.38416599       0.50000002       0.50000000 </v>
   <v>       0.61583401       0.50000002       0.50000000 </v>
   <v>       0.50000000       0.61749319       0.34021317 </v>
   <v>       0.50000000       0.61749319       0.65978680 </v>
   <v>       0.50000000       0.50000000       0.50000000 </v>
   <v>       0.44208298       0.55791702       0.58190703 </v>
   <v>       0.55791702       0.55791702       0.58190703 </v>
   <v>       0.50000000       0.61583404       0.50000000 </v>
   <v>       0.36414107       0.63585893       0.72495947 </v>
   <v>       0.34687407       0.65312593       0.75355073 </v>
  </varray>
  <varray name="selective"  type="logical" >
   <v type="logical" >  F  F  F </v>
   <v type="logical" >  F  F  F </v>
   <v type="logical" >  F  F  F </v>
   <v type="logical" >  F  F  F </v>
   <v type="logical" >  F  F  F </v>
   <v type="logical" >  F  F  F </v>
   <v type="logical" >  F  F  F </v>
   <v type="logical" >  F  F  F </v>
   <v type="logical" >  F  F  F </v>
   <v type="logical" >  F  F  F </v>
   <v type="logical" >  F  F  F </v>
   <v type="logical" >  F  F  F </v>
   <v type="logical" >  F  F  F </v>
   <v type="logical" >  F  F  F </v>
   <v type="logical" >  F  F  F </v>
   <v type="logical" >  F  F  F </v>
   <v type="logical" >  F  F  F </v>
   <v type="logical" >  F  F  F </v>
   <v type="logical" >  F  F  F </v>
   <v type="logical" >  F  F  F </v>
   <v type="logical" >  F  F  F </v>
   <v type="logical" >  F  F  F </v>
   <v type="logical" >  F  F  F </v>
   <v type="logical" >  F  F  F </v>
   <v type="logical" >  F  F  F </v>
   <v type="logical" >  F  F  F </v>
   <v type="logical" >  F  F  F </v>
   <v type="logical" >  F  F  F </v>
   <v type="logical" >  F  F  F </v>
   <v type="logical" >  F  F  F </v>
   <v type="logical" >  F  F  F </v>
   <v type="logical" >  F  F  F </v>
   <v type="logical" >  F  F  F </v>
   <v type="logical" >  F  F  F </v>
   <v type="logical" >  F  F  F </v>
   <v type="logical" >  F  F  F </v>
   <v type="logical" >  F  F  F </v>
   <v type="logical" >  F  F  F </v>
   <v type="logical" >  F  F  F </v>
   <v type="logical" >  F  F  F </v>
   <v type="logical" >  F  F  F </v>
   <v type="logical" >  F  F  F </v>
   <v type="logical" >  F  F  F </v>
   <v type="logical" >  F  F  F </v>
   <v type="logical" >  F  F  F </v>
   <v type="logical" >  F  F  F </v>
   <v type="logical" >  F  F  F </v>
   <v type="logical" >  F  F  F </v>
   <v type="logical" >  F  F  F </v>
   <v type="logical" >  F  F  F </v>
   <v type="logical" >  F  F  F </v>
   <v type="logical" >  F  F  F </v>
   <v type="logical" >  F  F  F </v>
   <v type="logical" >  F  F  F </v>
   <v type="logical" >  F  F  F </v>
   <v type="logical" >  F  F  F </v>
   <v type="logical" >  F  F  F </v>
  </varray>
  <nose>
   <v>      -3.00000000       0.00000000       0.00010000       0.00010000 </v>
  </nose>
 </structure>
</modeling>
