 running on    1 total cores
 distrk:  each k-point on    1 cores,    1 groups
 distr:  one band on    1 cores,    1 groups
 using from now: INCAR     
 vasp.5.4.4.18Apr17-6-g9f103f2a35 (build Sep 03 2018 23:53:05) complex          
  
 POSCAR found type information on POSCAR  Pd C  O 
 POSCAR found :  3 types and      57 ions
 scaLAPACK will be used

 ----------------------------------------------------------------------------- 
|                                                                             |
|  ADVICE TO THIS USER RUNNING 'VASP/VAMP'   (HEAR YOUR MASTER'S VOICE ...):  |
|                                                                             |
|      You enforced a specific xc-type in the INCAR file,                     |
|      a different type was found on the POTCAR file                          |
|          I HOPE YOU KNOW, WHAT YOU ARE  DOING                               |
|                                                                             |
 ----------------------------------------------------------------------------- 

 LDA part: xc-table for Pade appr. of Perdew
 POSCAR, INCAR and KPOINTS ok, starting setup
 FFT: planning ...
 WAVECAR not read
 entering main loop
       N       E                     dE             d eps       ncg     rms          rms(c)
DAV:   1     0.438785922429E+04    0.43879E+04   -0.10051E+05   688   0.815E+02
DAV:   2     0.201100721909E+04   -0.23769E+04   -0.21370E+04  1224   0.105E+02
DAV:   3     0.230429896561E+03   -0.17806E+04   -0.16780E+04  1008   0.918E+01
DAV:   4    -0.132888654921E+03   -0.36332E+03   -0.30794E+03   824   0.434E+01
DAV:   5    -0.179563792853E+03   -0.46675E+02   -0.38646E+02  1048   0.146E+01    0.141E+01
RMM:   6    -0.180574623925E+03   -0.10108E+01   -0.56507E+01   730   0.874E+00    0.267E+01
RMM:   7    -0.181333820043E+03   -0.75920E+00   -0.17742E+01   856   0.388E+00    0.210E+01
RMM:   8    -0.183491101456E+03   -0.21573E+01   -0.72450E+00   762   0.346E+00    0.233E+01
RMM:   9    -0.181290857011E+03    0.22002E+01   -0.49031E+00   728   0.323E+00    0.231E+01
RMM:  10    -0.180107221906E+03    0.11836E+01   -0.29149E+00   725   0.240E+00    0.207E+01
RMM:  11    -0.178696206264E+03    0.14110E+01   -0.16087E+00   725   0.189E+00    0.179E+01
RMM:  12    -0.177279947752E+03    0.14163E+01   -0.10753E+00   717   0.155E+00    0.132E+01
RMM:  13    -0.176986946127E+03    0.29300E+00   -0.87080E-01   723   0.139E+00    0.143E+01
RMM:  14    -0.176879718553E+03    0.10723E+00   -0.11737E+00   703   0.157E+00    0.142E+01
RMM:  15    -0.177382019668E+03   -0.50230E+00   -0.10906E+00   701   0.153E+00    0.227E+01
RMM:  16    -0.176948115288E+03    0.43390E+00   -0.65330E-01   716   0.122E+00    0.196E+01
RMM:  17    -0.176006346790E+03    0.94177E+00   -0.65328E-01   703   0.123E+00    0.154E+01
RMM:  18    -0.175510140512E+03    0.49621E+00   -0.39598E-01   707   0.936E-01    0.715E+00
RMM:  19    -0.175391863657E+03    0.11828E+00   -0.37966E-01   696   0.897E-01    0.730E+00
RMM:  20    -0.175472103385E+03   -0.80240E-01   -0.27946E-01   706   0.791E-01    0.107E+01
RMM:  21    -0.175301463021E+03    0.17064E+00   -0.15770E-01   697   0.609E-01    0.680E+00
RMM:  22    -0.175219606027E+03    0.81857E-01   -0.14326E-01   700   0.589E-01    0.612E+00
RMM:  23    -0.175186977342E+03    0.32629E-01   -0.16872E-01   690   0.637E-01    0.648E+00
RMM:  24    -0.175203667493E+03   -0.16690E-01   -0.15938E-01   697   0.620E-01    0.614E+00
RMM:  25    -0.175186266303E+03    0.17401E-01   -0.12334E-01   698   0.555E-01    0.697E+00
RMM:  26    -0.175041670755E+03    0.14460E+00   -0.84909E-02   693   0.476E-01    0.416E+00
RMM:  27    -0.174992197497E+03    0.49473E-01   -0.63794E-02   688   0.401E-01    0.300E+00
RMM:  28    -0.174960573480E+03    0.31624E-01   -0.30520E-02   694   0.280E-01    0.249E+00
RMM:  29    -0.174942549969E+03    0.18024E-01   -0.13892E-02   695   0.198E-01    0.178E+00
RMM:  30    -0.174935267623E+03    0.72823E-02   -0.11795E-02   692   0.178E-01    0.153E+00
RMM:  31    -0.174924676042E+03    0.10592E-01   -0.85784E-03   691   0.153E-01    0.103E+00
RMM:  32    -0.174920758990E+03    0.39171E-02   -0.58577E-03   696   0.124E-01    0.790E-01
RMM:  33    -0.174921392563E+03   -0.63357E-03   -0.55507E-03   688   0.119E-01    0.946E-01
RMM:  34    -0.174922836214E+03   -0.14437E-02   -0.63234E-03   688   0.129E-01    0.129E+00
RMM:  35    -0.174918076301E+03    0.47599E-02   -0.40607E-03   687   0.102E-01    0.612E-01
RMM:  36    -0.174917750069E+03    0.32623E-03   -0.23252E-03   688   0.794E-02    0.475E-01
RMM:  37    -0.174919516457E+03   -0.17664E-02   -0.13883E-03   689   0.606E-02    0.564E-01
RMM:  38    -0.174921693580E+03   -0.21771E-02   -0.11284E-03   686   0.540E-02    0.399E-01
RMM:  39    -0.174922527748E+03   -0.83417E-03   -0.60990E-04   620   0.407E-02    0.244E-01
RMM:  40    -0.174924637910E+03   -0.21102E-02   -0.52339E-04   583   0.358E-02    0.269E-01
RMM:  41    -0.174926239876E+03   -0.16020E-02   -0.34807E-04   453   0.313E-02    0.156E-01
RMM:  42    -0.174928184494E+03   -0.19446E-02   -0.30298E-04   431   0.277E-02    0.228E-01
RMM:  43    -0.174930971513E+03   -0.27870E-02   -0.43827E-04   514   0.296E-02    0.191E-01
RMM:  44    -0.174933326525E+03   -0.23550E-02   -0.39201E-04   490   0.272E-02    0.204E-01
RMM:  45    -0.174935354549E+03   -0.20280E-02   -0.33411E-04   453   0.252E-02    0.136E-01
RMM:  46    -0.174936656189E+03   -0.13016E-02   -0.19539E-04   418   0.195E-02    0.109E-01
RMM:  47    -0.174937864551E+03   -0.12084E-02   -0.12500E-04   413   0.150E-02    0.903E-02
RMM:  48    -0.174938653597E+03   -0.78905E-03   -0.90974E-05   412   0.127E-02    0.759E-02
RMM:  49    -0.174939996749E+03   -0.13432E-02   -0.11828E-04   412   0.136E-02    0.804E-02
RMM:  50    -0.174940764489E+03   -0.76774E-03   -0.86365E-05   412   0.118E-02    0.636E-02
RMM:  51    -0.174941868294E+03   -0.11038E-02   -0.76532E-05   409   0.109E-02    0.606E-02
RMM:  52    -0.174942596352E+03   -0.72806E-03   -0.55350E-05   409   0.899E-03    0.381E-02
RMM:  53    -0.174943109977E+03   -0.51362E-03   -0.34343E-05   385   0.663E-03    0.409E-02
RMM:  54    -0.174943626203E+03   -0.51623E-03   -0.27004E-05   385   0.588E-03    0.217E-02
RMM:  55    -0.174943862823E+03   -0.23662E-03   -0.10977E-05   225   0.452E-03    0.206E-02
RMM:  56    -0.174943995039E+03   -0.13222E-03   -0.30399E-06   140   0.389E-03    0.343E-02
RMM:  57    -0.174944272275E+03   -0.27724E-03   -0.79709E-06   200   0.421E-03    0.120E-02
RMM:  58    -0.174944404663E+03   -0.13239E-03   -0.31763E-06   140   0.381E-03    0.116E-02
RMM:  59    -0.174944721964E+03   -0.31730E-03   -0.95396E-06   234   0.436E-03    0.905E-03
RMM:  60    -0.174944809768E+03   -0.87803E-04   -0.18857E-06   107   0.328E-03
   1 F= -.17494481E+03 E0= -.17491997E+03  d E =-.993709E-01
================================= SLURM INFO ===================================
Command: run-cluster -n 1 -m 10000 -j 0352_vasp --same-node /opt/VASP/vasp
Exit code: 0
Job name: 0352_vasp
Job time: 0 days 5h:6m:1s
MPI task count: 1
Working dir: /home/pashkov/pyFitIt/pyfitit/data/random_pd_co_new/sample/0352
Job was running on nodes: h11
Task per node: 1
       JobID     MaxRSS  MaxDiskRead MaxDiskWrite    Elapsed    JobName 
------------ ---------- ------------ ------------ ---------- ---------- 
105883                                              05:06:01  0352_vasp 
105883.batch                                        05:06:01      batch 
