<?xml version="1.0" encoding="ISO-8859-1"?>
<modeling>
 <generator>
  <i name="program" type="string">vasp </i>
  <i name="version" type="string">5.4.4.18Apr17-6-g9f103f2a35  </i>
  <i name="subversion" type="string">(build Sep 03 2018 23:53:05) complex            parallel </i>
  <i name="platform" type="string">LinuxIFC </i>
  <i name="date" type="string">2021 11 27 </i>
  <i name="time" type="string">12:19:32 </i>
 </generator>
 <incar>
  <i type="string" name="SYSTEM"> 6_Pd100_top_free_z(O)</i>
  <i type="int" name="ISTART">     0</i>
  <i type="string" name="PREC">normal   			! encut=max(enmax), ngx,y,z</i>
  <i type="string" name="ALGO"> Fast     			! Mix RMM-DIIS and Dav</i>
  <i type="logical" name="ADDGRID"> F  </i>
  <i type="int" name="ISPIN">     1</i>
  <i type="int" name="ICHARG">     2</i>
  <i type="int" name="NELM">   100</i>
  <i type="int" name="NELMIN">     6</i>
  <i type="int" name="IBRION">     2</i>
  <i name="EDIFF">      0.00010000</i>
  <i name="EDIFFG">     -0.05000000</i>
  <i type="int" name="NSW">     0</i>
  <i type="int" name="ISIF">     2</i>
  <i type="int" name="ISYM">     2</i>
  <i name="ENCUT">    400.00000000</i>
  <i type="string" name="LREAL"> Auto     			! Auto or A projection done</i>
  <i type="int" name="ISMEAR">     2</i>
  <i name="SIGMA">      0.20000000</i>
  <i type="logical" name="LWAVE"> F  </i>
  <i type="logical" name="LCHARG"> F  </i>
  <v type="int" name="KPOINT_BSE">    -1     0     0     0</v>
  <i type="int" name="MAXMEM"> 10000</i>
  <i type="int" name="NELM">   100</i>
  <i type="string" name="GGA"> RP         			! Revised PBE</i>
 </incar>
 <structure name="primitive_cell" >
  <crystal>
   <varray name="basis" >
    <v>      30.00000000       0.00000000       0.00000000 </v>
    <v>       0.00000000      30.00000000       0.00000000 </v>
    <v>       0.00000000       0.00000000      30.00000000 </v>
   </varray>
   <i name="volume">  27000.00000000 </i>
   <varray name="rec_basis" >
    <v>       0.03333333       0.00000000       0.00000000 </v>
    <v>       0.00000000       0.03333333       0.00000000 </v>
    <v>       0.00000000       0.00000000       0.03333333 </v>
   </varray>
  </crystal>
  <varray name="positions" >
   <v>       0.44576020       0.32826710       0.41691983 </v>
   <v>      -0.44576020       0.32826710       0.41691983 </v>
   <v>      -0.50000000       0.38250690       0.34021317 </v>
   <v>      -0.50000000       0.27609440      -0.50000000 </v>
   <v>       0.38804720       0.38804720       0.34167483 </v>
   <v>      -0.50000000       0.38416601      -0.50000000 </v>
   <v>       0.44208300       0.44208300       0.41809300 </v>
   <v>       0.38317830       0.38317830      -0.50000000 </v>
   <v>      -0.44208300       0.44208300       0.41809300 </v>
   <v>       0.44576020       0.32826710      -0.41691977 </v>
   <v>       0.32826705       0.44576024       0.41691983 </v>
   <v>      -0.38804720       0.38804720       0.34167483 </v>
   <v>      -0.38317830       0.38317830      -0.50000000 </v>
   <v>      -0.50000000      -0.50000000       0.33478917 </v>
   <v>      -0.50000000      -0.50000000      -0.50000000 </v>
   <v>      -0.44576020       0.32826710      -0.41691977 </v>
   <v>       0.38250685      -0.49999995       0.34021317 </v>
   <v>       0.44208300       0.44208300      -0.41809297 </v>
   <v>       0.38416599      -0.49999998      -0.50000000 </v>
   <v>      -0.44208300       0.44208300      -0.41809297 </v>
   <v>       0.44208298      -0.44208298       0.41809300 </v>
   <v>       0.32826705       0.44576024      -0.41691977 </v>
   <v>       0.25794683       0.40757640      -0.43229087 </v>
   <v>      -0.50000000       0.38250690      -0.34021320 </v>
   <v>       0.32826712      -0.44576022       0.41691983 </v>
   <v>      -0.38250685      -0.49999995       0.34021317 </v>
   <v>      -0.32826705       0.44576024       0.41691983 </v>
   <v>       0.27609443       0.49999998      -0.50000000 </v>
   <v>       0.38804720       0.38804720      -0.34167487 </v>
   <v>      -0.38416599      -0.49999998      -0.50000000 </v>
   <v>      -0.44208298      -0.44208298       0.41809300 </v>
   <v>       0.22396167       0.39459980      -0.42278427 </v>
   <v>       0.44208298      -0.44208298      -0.41809297 </v>
   <v>      -0.38804720       0.38804720      -0.34167487 </v>
   <v>       0.38804722      -0.38804722       0.34167483 </v>
   <v>       0.38250685      -0.49999995      -0.34021320 </v>
   <v>       0.32826712      -0.44576022      -0.41691977 </v>
   <v>      -0.32826705       0.44576024      -0.41691977 </v>
   <v>       0.50000000      -0.38250681       0.34021317 </v>
   <v>      -0.50000000      -0.38416596      -0.50000000 </v>
   <v>      -0.44208298      -0.44208298      -0.41809297 </v>
   <v>      -0.50000000      -0.50000000      -0.33478913 </v>
   <v>       0.38317828      -0.38317828      -0.50000000 </v>
   <v>      -0.32826712      -0.44576022       0.41691983 </v>
   <v>      -0.27609443       0.49999998      -0.50000000 </v>
   <v>      -0.38804722      -0.38804722       0.34167483 </v>
   <v>      -0.38250685      -0.49999995      -0.34021320 </v>
   <v>       0.44576027      -0.32826707       0.41691983 </v>
   <v>      -0.38317828      -0.38317828      -0.50000000 </v>
   <v>      -0.32826712      -0.44576022      -0.41691977 </v>
   <v>      -0.44576027      -0.32826707       0.41691983 </v>
   <v>       0.38804722      -0.38804722      -0.34167487 </v>
   <v>      -0.50000000      -0.38250681      -0.34021320 </v>
   <v>       0.44576027      -0.32826707      -0.41691977 </v>
   <v>      -0.44576027      -0.32826707      -0.41691977 </v>
   <v>      -0.50000000      -0.27609445       0.50000000 </v>
   <v>      -0.38804722      -0.38804722      -0.34167487 </v>
  </varray>
 </structure>
 <varray name="primitive_index" >
  <v type="int" >        1 </v>
  <v type="int" >        3 </v>
  <v type="int" >        5 </v>
  <v type="int" >        7 </v>
  <v type="int" >       15 </v>
  <v type="int" >       29 </v>
  <v type="int" >       28 </v>
  <v type="int" >       34 </v>
  <v type="int" >       21 </v>
  <v type="int" >       19 </v>
  <v type="int" >       22 </v>
  <v type="int" >       11 </v>
  <v type="int" >       36 </v>
  <v type="int" >       38 </v>
  <v type="int" >       52 </v>
  <v type="int" >       24 </v>
  <v type="int" >       32 </v>
  <v type="int" >       44 </v>
  <v type="int" >       48 </v>
  <v type="int" >       42 </v>
  <v type="int" >       43 </v>
  <v type="int" >       40 </v>
  <v type="int" >       56 </v>
  <v type="int" >        6 </v>
  <v type="int" >        4 </v>
  <v type="int" >       30 </v>
  <v type="int" >       26 </v>
  <v type="int" >        8 </v>
  <v type="int" >       16 </v>
  <v type="int" >       49 </v>
  <v type="int" >       47 </v>
  <v type="int" >       57 </v>
  <v type="int" >       53 </v>
  <v type="int" >       12 </v>
  <v type="int" >       13 </v>
  <v type="int" >       33 </v>
  <v type="int" >       25 </v>
  <v type="int" >       45 </v>
  <v type="int" >       50 </v>
  <v type="int" >       55 </v>
  <v type="int" >       54 </v>
  <v type="int" >       39 </v>
  <v type="int" >       37 </v>
  <v type="int" >        2 </v>
  <v type="int" >        9 </v>
  <v type="int" >       17 </v>
  <v type="int" >       31 </v>
  <v type="int" >       27 </v>
  <v type="int" >       35 </v>
  <v type="int" >       20 </v>
  <v type="int" >       23 </v>
  <v type="int" >       14 </v>
  <v type="int" >       51 </v>
  <v type="int" >       46 </v>
  <v type="int" >       41 </v>
  <v type="int" >       10 </v>
  <v type="int" >       18 </v>
 </varray>
 <kpoints>
  <generation param="Monkhorst-Pack">
   <v type="int" name="divisions">       1        1        1 </v>
   <v name="usershift">      0.00000000       0.00000000       0.00000000 </v>
   <v name="genvec1">      1.00000000       0.00000000       0.00000000 </v>
   <v name="genvec2">      0.00000000       1.00000000       0.00000000 </v>
   <v name="genvec3">      0.00000000       0.00000000       1.00000000 </v>
   <v name="shift">      0.00000000       0.00000000       0.00000000 </v>
  </generation>
  <varray name="kpointlist" >
   <v>       0.00000000       0.00000000       0.00000000 </v>
  </varray>
  <varray name="weights" >
   <v>       1.00000000 </v>
  </varray>
 </kpoints>
 <parameters>
  <separator name="general" >
   <i type="string" name="SYSTEM">6_Pd100_top_free_z(O)</i>
   <i type="logical" name="LCOMPAT"> F  </i>
  </separator>
  <separator name="electronic" >
   <i type="string" name="PREC">normal</i>
   <i name="ENMAX">    400.00000000</i>
   <i name="ENAUG">    644.87300000</i>
   <i name="EDIFF">      0.00010000</i>
   <i type="int" name="IALGO">    68</i>
   <i type="int" name="IWAVPR">    10</i>
   <i type="int" name="NBANDS">   336</i>
   <i name="NELECT">    560.00000000</i>
   <i type="int" name="TURBO">     0</i>
   <i type="int" name="IRESTART">     0</i>
   <i type="int" name="NREBOOT">     0</i>
   <i type="int" name="NMIN">     0</i>
   <i name="EREF">      0.00000000</i>
   <separator name="electronic smearing" >
    <i type="int" name="ISMEAR">     2</i>
    <i name="SIGMA">      0.20000000</i>
    <i name="KSPACING">      0.50000000</i>
    <i type="logical" name="KGAMMA"> T  </i>
   </separator>
   <separator name="electronic projectors" >
    <i type="logical" name="LREAL"> T  </i>
    <v name="ROPT">     -0.00050000     -0.00050000     -0.00050000</v>
    <i type="int" name="LMAXPAW">  -100</i>
    <i type="int" name="LMAXMIX">     2</i>
    <i type="logical" name="NLSPLINE"> F  </i>
   </separator>
   <separator name="electronic startup" >
    <i type="int" name="ISTART">     0</i>
    <i type="int" name="ICHARG">     2</i>
    <i type="int" name="INIWAV">     1</i>
   </separator>
   <separator name="electronic spin" >
    <i type="int" name="ISPIN">     1</i>
    <i type="logical" name="LNONCOLLINEAR"> F  </i>
    <v name="MAGMOM">      1.00000000      1.00000000      1.00000000      1.00000000      1.00000000      1.00000000      1.00000000      1.00000000      1.00000000      1.00000000      1.00000000      1.00000000      1.00000000      1.00000000      1.00000000      1.00000000      1.00000000      1.00000000      1.00000000      1.00000000
      1.00000000      1.00000000      1.00000000      1.00000000      1.00000000      1.00000000      1.00000000      1.00000000      1.00000000      1.00000000      1.00000000      1.00000000      1.00000000      1.00000000      1.00000000      1.00000000      1.00000000      1.00000000      1.00000000      1.00000000
      1.00000000      1.00000000      1.00000000      1.00000000      1.00000000      1.00000000      1.00000000      1.00000000      1.00000000      1.00000000      1.00000000      1.00000000      1.00000000      1.00000000      1.00000000      1.00000000      1.00000000</v>
    <i name="NUPDOWN">     -1.00000000</i>
    <i type="logical" name="LSORBIT"> F  </i>
    <v name="SAXIS">      0.00000000      0.00000000      1.00000000</v>
    <i type="logical" name="LSPIRAL"> F  </i>
    <v name="QSPIRAL">      0.00000000      0.00000000      0.00000000</v>
    <i type="logical" name="LZEROZ"> F  </i>
   </separator>
   <separator name="electronic exchange-correlation" >
    <i type="logical" name="LASPH"> F  </i>
    <i type="logical" name="LMETAGGA"> F  </i>
   </separator>
   <separator name="electronic convergence" >
    <i type="int" name="NELM">   100</i>
    <i type="int" name="NELMDL">    -5</i>
    <i type="int" name="NELMIN">     6</i>
    <i name="ENINI">    400.00000000</i>
    <separator name="electronic convergence detail" >
     <i type="logical" name="LDIAG"> T  </i>
     <i type="logical" name="LSUBROT"> F  </i>
     <i name="WEIMIN">      0.00000000</i>
     <i name="EBREAK">      0.00000007</i>
     <i name="DEPER">      0.30000000</i>
     <i type="int" name="NRMM">     4</i>
     <i name="TIME">      0.40000000</i>
    </separator>
   </separator>
   <separator name="electronic mixer" >
    <i name="AMIX">      0.40000000</i>
    <i name="BMIX">      1.00000000</i>
    <i name="AMIN">      0.10000000</i>
    <i name="AMIX_MAG">      1.60000000</i>
    <i name="BMIX_MAG">      1.00000000</i>
    <separator name="electronic mixer details" >
     <i type="int" name="IMIX">     4</i>
     <i type="logical" name="MIXFIRST"> F  </i>
     <i type="int" name="MAXMIX">   -45</i>
     <i name="WC">    100.00000000</i>
     <i type="int" name="INIMIX">     1</i>
     <i type="int" name="MIXPRE">     1</i>
     <i type="int" name="MREMOVE">     5</i>
    </separator>
   </separator>
   <separator name="electronic dipolcorrection" >
    <i type="logical" name="LDIPOL"> F  </i>
    <i type="logical" name="LMONO"> F  </i>
    <i type="int" name="IDIPOL">     0</i>
    <i name="EPSILON">      1.00000000</i>
    <v name="DIPOL">   -100.00000000   -100.00000000   -100.00000000</v>
    <i name="EFIELD">      0.00000000</i>
   </separator>
  </separator>
  <separator name="grids" >
   <i type="int" name="NGX">   150</i>
   <i type="int" name="NGY">   150</i>
   <i type="int" name="NGZ">   150</i>
   <i type="int" name="NGXF">   300</i>
   <i type="int" name="NGYF">   300</i>
   <i type="int" name="NGZF">   300</i>
   <i type="logical" name="ADDGRID"> F  </i>
  </separator>
  <separator name="ionic" >
   <i type="int" name="NSW">     0</i>
   <i type="int" name="IBRION">    -1</i>
   <i type="int" name="MDALGO">     0</i>
   <i type="int" name="ISIF">     2</i>
   <i name="PSTRESS">      0.00000000</i>
   <i name="EDIFFG">     -0.05000000</i>
   <i type="int" name="NFREE">     1</i>
   <i name="POTIM">      0.50000000</i>
   <i name="SMASS">     -3.00000000</i>
   <i name="SCALEE">      1.00000000</i>
  </separator>
  <separator name="ionic md" >
   <i name="TEBEG">      0.00010000</i>
   <i name="TEEND">      0.00010000</i>
   <i type="int" name="NBLOCK">     1</i>
   <i type="int" name="KBLOCK">     1</i>
   <i type="int" name="NPACO">   256</i>
   <i name="APACO">     16.00000000</i>
  </separator>
  <separator name="symmetry" >
   <i type="int" name="ISYM">     2</i>
   <i name="SYMPREC">      0.00001000</i>
  </separator>
  <separator name="dos" >
   <i type="int" name="LORBIT">     0</i>
   <v name="RWIGS">     -1.00000000     -1.00000000     -1.00000000</v>
   <i type="int" name="NEDOS">   301</i>
   <i name="EMIN">     10.00000000</i>
   <i name="EMAX">    -10.00000000</i>
   <i name="EFERMI">      0.00000000</i>
  </separator>
  <separator name="writing" >
   <i type="int" name="NWRITE">     2</i>
   <i type="logical" name="LWAVE"> F  </i>
   <i type="logical" name="LDOWNSAMPLE"> F  </i>
   <i type="logical" name="LCHARG"> F  </i>
   <i type="logical" name="LPARD"> F  </i>
   <i type="logical" name="LVTOT"> F  </i>
   <i type="logical" name="LVHAR"> F  </i>
   <i type="logical" name="LELF"> F  </i>
   <i type="logical" name="LOPTICS"> F  </i>
   <v name="STM">      0.00000000      0.00000000      0.00000000      0.00000000      0.00000000      0.00000000      0.00000000</v>
  </separator>
  <separator name="performance" >
   <i type="int" name="NPAR">     1</i>
   <i type="int" name="NSIM">     4</i>
   <i type="int" name="NBLK">    -1</i>
   <i type="logical" name="LPLANE"> T  </i>
   <i type="logical" name="LSCALAPACK"> T  </i>
   <i type="logical" name="LSCAAWARE"> F  </i>
   <i type="logical" name="LSCALU"> F  </i>
   <i type="logical" name="LASYNC"> F  </i>
   <i type="logical" name="LORBITALREAL"> F  </i>
  </separator>
  <separator name="miscellaneous" >
   <i type="int" name="IDIOT">     3</i>
   <i type="int" name="ISPECIAL">     0</i>
   <i type="logical" name="LMUSIC"> F  </i>
   <v name="POMASS">    106.42000000     12.01100000     16.00000000</v>
   <v name="DARWINR">      0.00000000      0.00000000      0.00000000</v>
   <v name="DARWINV">      1.00000000      1.00000000      1.00000000</v>
   <i type="logical" name="LCORR"> T  </i>
  </separator>
  <i type="logical" name="GGA_COMPAT"> T  </i>
  <i type="logical" name="LBERRY"> F  </i>
  <i type="int" name="ICORELEVEL">     0</i>
  <i type="logical" name="LDAU"> F  </i>
  <i type="int" name="I_CONSTRAINED_M">     0</i>
  <separator name="electronic exchange-correlation" >
   <i type="string" name="GGA">RP</i>
   <i type="int" name="VOSKOWN">     0</i>
   <i type="logical" name="LHFCALC"> F  </i>
   <i type="string" name="PRECFOCK"></i>
   <i type="logical" name="LSYMGRAD"> F  </i>
   <i type="logical" name="LHFONE"> F  </i>
   <i type="logical" name="LRHFCALC"> F  </i>
   <i type="logical" name="LTHOMAS"> F  </i>
   <i type="logical" name="LMODELHF"> F  </i>
   <i name="ENCUT4O">     -1.00000000</i>
   <i type="int" name="EXXOEP">     0</i>
   <i type="int" name="FOURORBIT">     0</i>
   <i name="AEXX">      0.00000000</i>
   <i name="HFALPHA">      0.00000000</i>
   <i name="MCALPHA">      0.00000000</i>
   <i name="ALDAX">      1.00000000</i>
   <i name="AGGAX">      1.00000000</i>
   <i name="ALDAC">      1.00000000</i>
   <i name="AGGAC">      1.00000000</i>
   <i type="int" name="NKREDX">     1</i>
   <i type="int" name="NKREDY">     1</i>
   <i type="int" name="NKREDZ">     1</i>
   <i type="logical" name="SHIFTRED"> F  </i>
   <i type="logical" name="ODDONLY"> F  </i>
   <i type="logical" name="EVENONLY"> F  </i>
   <i type="int" name="LMAXFOCK">     0</i>
   <i type="int" name="NMAXFOCKAE">     0</i>
   <i type="logical" name="LFOCKAEDFT"> F  </i>
   <i name="HFSCREEN">      0.00000000</i>
   <i name="HFSCREENC">      0.00000000</i>
   <i type="int" name="NBANDSGWLOW">     0</i>
  </separator>
  <separator name="vdW DFT" >
   <i type="logical" name="LUSE_VDW"> F  </i>
   <i name="Zab_VDW">     -0.84910000</i>
   <i name="PARAM1">      0.12340000</i>
   <i name="PARAM2">      1.00000000</i>
   <i name="PARAM3">      0.00000000</i>
  </separator>
  <separator name="model GW" >
   <i type="int" name="MODEL_GW">     0</i>
   <i name="MODEL_EPS0">    284.21052632</i>
   <i name="MODEL_ALPHA">      1.00000000</i>
  </separator>
  <separator name="linear response parameters" >
   <i type="logical" name="LEPSILON"> F  </i>
   <i type="logical" name="LRPA"> F  </i>
   <i type="logical" name="LNABLA"> F  </i>
   <i type="logical" name="LVEL"> F  </i>
   <i type="int" name="KINTER">     0</i>
   <i name="CSHIFT">      0.10000000</i>
   <i name="OMEGAMAX">     -1.00000000</i>
   <i name="DEG_THRESHOLD">      0.00200000</i>
   <i name="RTIME">     -0.10000000</i>
   <i name="WPLASMAI">      0.00000000</i>
   <v name="DFIELD">      0.00000000      0.00000000      0.00000000</v>
   <v name="WPLASMA">      0.00000000      0.00000000      0.00000000      0.00000000      0.00000000      0.00000000      0.00000000      0.00000000      0.00000000</v>
  </separator>
  <separator name="orbital magnetization" >
   <i type="logical" name="NUCIND"> F  </i>
   <v name="MAGPOS">      0.00000000      0.00000000      0.00000000</v>
   <i type="logical" name="LNICSALL"> T  </i>
   <i type="logical" name="ORBITALMAG"> F  </i>
   <i type="logical" name="LMAGBLOCH"> F  </i>
   <i type="logical" name="LCHIMAG"> F  </i>
   <i type="logical" name="LGAUGE"> T  </i>
   <i type="int" name="MAGATOM">     0</i>
   <v name="MAGDIPOL">      0.00000000      0.00000000      0.00000000</v>
   <v name="AVECCONST">      0.00000000      0.00000000      0.00000000</v>
  </separator>
  <separator name="response functions" >
   <i type="logical" name="LADDER"> F  </i>
   <i type="logical" name="LRPAFORCE"> F  </i>
   <i type="logical" name="LFXC"> F  </i>
   <i type="logical" name="LHARTREE"> T  </i>
   <i type="int" name="IBSE">     0</i>
   <v type="int" name="KPOINT">    -1     0     0     0</v>
   <i type="logical" name="LTCTE"> F  </i>
   <i type="logical" name="LTETE"> F  </i>
   <i type="logical" name="LTRIPLET"> F  </i>
   <i type="logical" name="LFXCEPS"> F  </i>
   <i type="logical" name="LFXHEG"> F  </i>
   <i type="int" name="NATURALO">     2</i>
   <i type="logical" name="L2ORDER"> F  </i>
   <i type="logical" name="LMP2LT"> F  </i>
   <i type="logical" name="LUSEW"> F  </i>
   <i name="ENCUTGW">     -2.00000000</i>
   <i name="ENCUTGWSOFT">     -2.00000000</i>
   <i name="ENCUTLF">     -1.00000000</i>
   <i type="int" name="LMAXMP2">    -1</i>
   <i name="SCISSOR">      0.00000000</i>
   <i type="int" name="NOMEGA">     0</i>
   <i type="int" name="NOMEGAR">     0</i>
   <i type="int" name="NBANDSGW">    -1</i>
   <i type="int" name="NBANDSO">    -1</i>
   <i type="int" name="NBANDSV">    -1</i>
   <i type="int" name="NELM">   100</i>
   <i type="int" name="NELMHF">     1</i>
   <i type="int" name="DIM">     3</i>
   <i type="int" name="ANTIRES">     0</i>
   <i name="OMEGAMAX">    -30.00000000</i>
   <i name="OMEGAMIN">    -30.00000000</i>
   <i name="OMEGATL">   -200.00000000</i>
   <i type="int" name="OMEGAGRID">   140</i>
   <i name="CSHIFT">     -0.10000000</i>
   <i type="logical" name="SELFENERGY"> F  </i>
   <i type="logical" name="LSPECTRAL"> F  </i>
   <i type="logical" name="LSPECTRALGW"> F  </i>
   <i type="logical" name="LSINGLES"> F  </i>
   <i type="logical" name="LFERMIGW"> F  </i>
   <i type="logical" name="ODDONLYGW"> F  </i>
   <i type="logical" name="EVENONLYGW"> F  </i>
   <i type="int" name="NKREDLFX">     1</i>
   <i type="int" name="NKREDLFY">     1</i>
   <i type="int" name="NKREDLFZ">     1</i>
   <i type="int" name="MAXMEM"> 10000</i>
   <i type="int" name="TELESCOPE">     0</i>
   <i type="int" name="TAUPAR">     1</i>
   <i type="int" name="OMEGAPAR">    -1</i>
   <i name="LAMBDA">      1.00000000</i>
  </separator>
  <separator name="External order field" >
   <i name="OFIELD_KAPPA">      0.00000000</i>
   <v name="OFIELD_K">      0.00000000      0.00000000      0.00000000</v>
   <i name="OFIELD_Q6_NEAR">      0.00000000</i>
   <i name="OFIELD_Q6_FAR">      0.00000000</i>
   <i name="OFIELD_A">      0.00000000</i>
  </separator>
 </parameters>
 <atominfo>
  <atoms>      57 </atoms>
  <types>       3 </types>
  <array name="atoms" >
   <dimension dim="1">ion</dimension>
   <field type="string">element</field>
   <field type="int">atomtype</field>
   <set>
    <rc><c>Pd</c><c>   1</c></rc>
    <rc><c>Pd</c><c>   1</c></rc>
    <rc><c>Pd</c><c>   1</c></rc>
    <rc><c>Pd</c><c>   1</c></rc>
    <rc><c>Pd</c><c>   1</c></rc>
    <rc><c>Pd</c><c>   1</c></rc>
    <rc><c>Pd</c><c>   1</c></rc>
    <rc><c>Pd</c><c>   1</c></rc>
    <rc><c>Pd</c><c>   1</c></rc>
    <rc><c>Pd</c><c>   1</c></rc>
    <rc><c>Pd</c><c>   1</c></rc>
    <rc><c>Pd</c><c>   1</c></rc>
    <rc><c>Pd</c><c>   1</c></rc>
    <rc><c>Pd</c><c>   1</c></rc>
    <rc><c>Pd</c><c>   1</c></rc>
    <rc><c>Pd</c><c>   1</c></rc>
    <rc><c>Pd</c><c>   1</c></rc>
    <rc><c>Pd</c><c>   1</c></rc>
    <rc><c>Pd</c><c>   1</c></rc>
    <rc><c>Pd</c><c>   1</c></rc>
    <rc><c>Pd</c><c>   1</c></rc>
    <rc><c>Pd</c><c>   1</c></rc>
    <rc><c>Pd</c><c>   1</c></rc>
    <rc><c>Pd</c><c>   1</c></rc>
    <rc><c>Pd</c><c>   1</c></rc>
    <rc><c>Pd</c><c>   1</c></rc>
    <rc><c>Pd</c><c>   1</c></rc>
    <rc><c>Pd</c><c>   1</c></rc>
    <rc><c>Pd</c><c>   1</c></rc>
    <rc><c>Pd</c><c>   1</c></rc>
    <rc><c>Pd</c><c>   1</c></rc>
    <rc><c>Pd</c><c>   1</c></rc>
    <rc><c>Pd</c><c>   1</c></rc>
    <rc><c>Pd</c><c>   1</c></rc>
    <rc><c>Pd</c><c>   1</c></rc>
    <rc><c>Pd</c><c>   1</c></rc>
    <rc><c>Pd</c><c>   1</c></rc>
    <rc><c>Pd</c><c>   1</c></rc>
    <rc><c>Pd</c><c>   1</c></rc>
    <rc><c>Pd</c><c>   1</c></rc>
    <rc><c>Pd</c><c>   1</c></rc>
    <rc><c>Pd</c><c>   1</c></rc>
    <rc><c>Pd</c><c>   1</c></rc>
    <rc><c>Pd</c><c>   1</c></rc>
    <rc><c>Pd</c><c>   1</c></rc>
    <rc><c>Pd</c><c>   1</c></rc>
    <rc><c>Pd</c><c>   1</c></rc>
    <rc><c>Pd</c><c>   1</c></rc>
    <rc><c>Pd</c><c>   1</c></rc>
    <rc><c>Pd</c><c>   1</c></rc>
    <rc><c>Pd</c><c>   1</c></rc>
    <rc><c>Pd</c><c>   1</c></rc>
    <rc><c>Pd</c><c>   1</c></rc>
    <rc><c>Pd</c><c>   1</c></rc>
    <rc><c>Pd</c><c>   1</c></rc>
    <rc><c>C </c><c>   2</c></rc>
    <rc><c>O </c><c>   3</c></rc>
   </set>
  </array>
  <array name="atomtypes" >
   <dimension dim="1">type</dimension>
   <field type="int">atomspertype</field>
   <field type="string">element</field>
   <field>mass</field>
   <field>valence</field>
   <field type="string">pseudopotential</field>
   <set>
    <rc><c>  55</c><c>Pd</c><c>    106.42000000</c><c>     10.00000000</c><c>  PAW_PBE Pd 04Jan2005                  </c></rc>
    <rc><c>   1</c><c>C </c><c>     12.01100000</c><c>      4.00000000</c><c>  PAW_PBE C 08Apr2002                   </c></rc>
    <rc><c>   1</c><c>O </c><c>     16.00000000</c><c>      6.00000000</c><c>  PAW_PBE O 08Apr2002                   </c></rc>
   </set>
  </array>
 </atominfo>
 <structure name="initialpos" >
  <crystal>
   <varray name="basis" >
    <v>      30.00000000       0.00000000       0.00000000 </v>
    <v>       0.00000000      30.00000000       0.00000000 </v>
    <v>       0.00000000       0.00000000      30.00000000 </v>
   </varray>
   <i name="volume">  27000.00000000 </i>
   <varray name="rec_basis" >
    <v>       0.03333333       0.00000000       0.00000000 </v>
    <v>       0.00000000       0.03333333       0.00000000 </v>
    <v>       0.00000000       0.00000000       0.03333333 </v>
   </varray>
  </crystal>
  <varray name="positions" >
   <v>       0.44576020       0.32826710       0.41691983 </v>
   <v>       0.67173288       0.55423978       0.41691983 </v>
   <v>       0.55423980       0.32826710       0.41691983 </v>
   <v>       0.32826712       0.55423978       0.41691983 </v>
   <v>       0.50000000       0.38250690       0.34021317 </v>
   <v>       0.50000000       0.38250690       0.65978680 </v>
   <v>       0.50000000       0.27609440       0.50000000 </v>
   <v>       0.27609443       0.49999998       0.50000000 </v>
   <v>       0.72390557       0.49999998       0.50000000 </v>
   <v>       0.50000000       0.72390555       0.50000000 </v>
   <v>       0.61195280       0.38804720       0.34167483 </v>
   <v>       0.61195280       0.38804720       0.65832513 </v>
   <v>       0.38804722       0.61195278       0.34167483 </v>
   <v>       0.38804722       0.61195278       0.65832513 </v>
   <v>       0.38804720       0.38804720       0.34167483 </v>
   <v>       0.38804720       0.38804720       0.65832513 </v>
   <v>       0.61195278       0.61195278       0.34167483 </v>
   <v>       0.61195278       0.61195278       0.65832513 </v>
   <v>       0.44576020       0.32826710       0.58308023 </v>
   <v>       0.67173288       0.55423978       0.58308023 </v>
   <v>       0.55791699       0.44208301       0.41809300 </v>
   <v>       0.32826705       0.44576024       0.41691983 </v>
   <v>       0.55423973       0.67173293       0.41691983 </v>
   <v>       0.55423980       0.32826710       0.58308023 </v>
   <v>       0.32826712       0.55423978       0.58308023 </v>
   <v>       0.67173295       0.44576024       0.41691983 </v>
   <v>       0.44576027       0.67173293       0.41691983 </v>
   <v>       0.44208301       0.44208301       0.41809300 </v>
   <v>       0.50000000       0.38416601       0.50000000 </v>
   <v>       0.61749315       0.50000005       0.34021317 </v>
   <v>       0.61749315       0.50000005       0.65978680 </v>
   <v>       0.38250685       0.50000005       0.34021317 </v>
   <v>       0.38250685       0.50000005       0.65978680 </v>
   <v>       0.38317830       0.38317830       0.50000000 </v>
   <v>       0.61682172       0.61682172       0.50000000 </v>
   <v>       0.61682170       0.38317830       0.50000000 </v>
   <v>       0.38317828       0.61682172       0.50000000 </v>
   <v>       0.50000000       0.50000000       0.33478917 </v>
   <v>       0.50000000       0.50000000       0.66521087 </v>
   <v>       0.32826705       0.44576024       0.58308023 </v>
   <v>       0.55423973       0.67173293       0.58308023 </v>
   <v>       0.55791699       0.44208301       0.58190703 </v>
   <v>       0.44208298       0.55791702       0.41809300 </v>
   <v>       0.44208301       0.44208301       0.58190703 </v>
   <v>       0.67173295       0.44576024       0.58308023 </v>
   <v>       0.44576027       0.67173293       0.58308023 </v>
   <v>       0.55791702       0.55791702       0.41809300 </v>
   <v>       0.38416599       0.50000002       0.50000000 </v>
   <v>       0.61583401       0.50000002       0.50000000 </v>
   <v>       0.50000000       0.61749319       0.34021317 </v>
   <v>       0.50000000       0.61749319       0.65978680 </v>
   <v>       0.50000000       0.50000000       0.50000000 </v>
   <v>       0.44208298       0.55791702       0.58190703 </v>
   <v>       0.55791702       0.55791702       0.58190703 </v>
   <v>       0.50000000       0.61583404       0.50000000 </v>
   <v>       0.25794683       0.40757640       0.56770913 </v>
   <v>       0.22396167       0.39459980       0.57721573 </v>
  </varray>
  <varray name="selective"  type="logical" >
   <v type="logical" >  F  F  F </v>
   <v type="logical" >  F  F  F </v>
   <v type="logical" >  F  F  F </v>
   <v type="logical" >  F  F  F </v>
   <v type="logical" >  F  F  F </v>
   <v type="logical" >  F  F  F </v>
   <v type="logical" >  F  F  F </v>
   <v type="logical" >  F  F  F </v>
   <v type="logical" >  F  F  F </v>
   <v type="logical" >  F  F  F </v>
   <v type="logical" >  F  F  F </v>
   <v type="logical" >  F  F  F </v>
   <v type="logical" >  F  F  F </v>
   <v type="logical" >  F  F  F </v>
   <v type="logical" >  F  F  F </v>
   <v type="logical" >  F  F  F </v>
   <v type="logical" >  F  F  F </v>
   <v type="logical" >  F  F  F </v>
   <v type="logical" >  F  F  F </v>
   <v type="logical" >  F  F  F </v>
   <v type="logical" >  F  F  F </v>
   <v type="logical" >  F  F  F </v>
   <v type="logical" >  F  F  F </v>
   <v type="logical" >  F  F  F </v>
   <v type="logical" >  F  F  F </v>
   <v type="logical" >  F  F  F </v>
   <v type="logical" >  F  F  F </v>
   <v type="logical" >  F  F  F </v>
   <v type="logical" >  F  F  F </v>
   <v type="logical" >  F  F  F </v>
   <v type="logical" >  F  F  F </v>
   <v type="logical" >  F  F  F </v>
   <v type="logical" >  F  F  F </v>
   <v type="logical" >  F  F  F </v>
   <v type="logical" >  F  F  F </v>
   <v type="logical" >  F  F  F </v>
   <v type="logical" >  F  F  F </v>
   <v type="logical" >  F  F  F </v>
   <v type="logical" >  F  F  F </v>
   <v type="logical" >  F  F  F </v>
   <v type="logical" >  F  F  F </v>
   <v type="logical" >  F  F  F </v>
   <v type="logical" >  F  F  F </v>
   <v type="logical" >  F  F  F </v>
   <v type="logical" >  F  F  F </v>
   <v type="logical" >  F  F  F </v>
   <v type="logical" >  F  F  F </v>
   <v type="logical" >  F  F  F </v>
   <v type="logical" >  F  F  F </v>
   <v type="logical" >  F  F  F </v>
   <v type="logical" >  F  F  F </v>
   <v type="logical" >  F  F  F </v>
   <v type="logical" >  F  F  F </v>
   <v type="logical" >  F  F  F </v>
   <v type="logical" >  F  F  F </v>
   <v type="logical" >  F  F  F </v>
   <v type="logical" >  F  F  F </v>
  </varray>
  <nose>
   <v>      -3.00000000       0.00000000       0.00010000       0.00010000 </v>
  </nose>
 </structure>
 <calculation>
  <scstep>
   <time name="dav">  366.21  366.30</time>
   <time name="total">  380.82  380.92</time>
   <energy>
    <i name="alphaZ">     75.25431677 </i>
    <i name="ewald"> 137631.86996983 </i>
    <i name="hartreedc">-180998.79951350 </i>
    <i name="XCdc">  -1703.80815722 </i>
    <i name="pawpsdc">  44873.02882129 </i>
    <i name="pawaedc"> -41398.84523641 </i>
    <i name="eentropy">      0.00338274 </i>
    <i name="bandstr">    817.39901237 </i>
    <i name="atom">  45086.50549395 </i>
    <i name="e_fr_energy">   4382.60808983 </i>
    <i name="e_wo_entrp">   4382.60470709 </i>
    <i name="e_0_energy">   4382.60724414 </i>
   </energy>
  </scstep>
  <scstep>
   <time name="dav">  583.83  583.87</time>
   <time name="total">  583.83  583.88</time>
   <energy>
    <i name="e_fr_energy">   2030.14729836 </i>
    <i name="e_wo_entrp">   2030.16463445 </i>
    <i name="e_0_energy">   2030.15163239 </i>
   </energy>
  </scstep>
  <scstep>
   <time name="dav">  496.31  496.35</time>
   <time name="total">  496.31  496.36</time>
   <energy>
    <i name="e_fr_energy">    245.20905182 </i>
    <i name="e_wo_entrp">    245.23167267 </i>
    <i name="e_0_energy">    245.21470704 </i>
   </energy>
  </scstep>
  <scstep>
   <time name="dav">  424.33  424.36</time>
   <time name="total">  424.33  424.36</time>
   <energy>
    <i name="e_fr_energy">   -131.38990986 </i>
    <i name="e_wo_entrp">   -131.32575709 </i>
    <i name="e_0_energy">   -131.37387167 </i>
   </energy>
  </scstep>
  <scstep>
   <time name="dav">  516.40  516.41</time>
   <time name="total">  542.93  542.94</time>
   <energy>
    <i name="e_fr_energy">   -178.57379516 </i>
    <i name="e_wo_entrp">   -179.07007510 </i>
    <i name="e_0_energy">   -178.69786515 </i>
   </energy>
  </scstep>
  <scstep>
   <time name="diag">   70.29   70.29</time>
   <time name="diis">  194.57  194.57</time>
   <time name="orth">   13.53   13.53</time>
   <time name="total">  318.27  318.28</time>
   <energy>
    <i name="e_fr_energy">   -177.79793898 </i>
    <i name="e_wo_entrp">   -177.72616220 </i>
    <i name="e_0_energy">   -177.77999478 </i>
   </energy>
  </scstep>
  <scstep>
   <time name="diag">   69.51   69.51</time>
   <time name="diis">  227.76  227.76</time>
   <time name="orth">   13.61   13.61</time>
   <time name="total">  350.51  350.52</time>
   <energy>
    <i name="e_fr_energy">   -180.72473965 </i>
    <i name="e_wo_entrp">   -180.58007231 </i>
    <i name="e_0_energy">   -180.68857281 </i>
   </energy>
  </scstep>
  <scstep>
   <time name="diag">   69.06   69.06</time>
   <time name="diis">  206.41  206.41</time>
   <time name="orth">   13.48   13.48</time>
   <time name="total">  329.23  329.23</time>
   <energy>
    <i name="e_fr_energy">   -183.41713788 </i>
    <i name="e_wo_entrp">   -183.29822219 </i>
    <i name="e_0_energy">   -183.38740896 </i>
   </energy>
  </scstep>
  <scstep>
   <time name="diag">   68.71   68.71</time>
   <time name="diis">  193.25  193.26</time>
   <time name="orth">   13.78   13.78</time>
   <time name="total">  316.08  316.08</time>
   <energy>
    <i name="e_fr_energy">   -181.21583253 </i>
    <i name="e_wo_entrp">   -181.02894145 </i>
    <i name="e_0_energy">   -181.16910976 </i>
   </energy>
  </scstep>
  <scstep>
   <time name="diag">   68.69   68.70</time>
   <time name="diis">  194.30  194.32</time>
   <time name="orth">   13.95   13.96</time>
   <time name="total">  317.03  317.06</time>
   <energy>
    <i name="e_fr_energy">   -178.40463050 </i>
    <i name="e_wo_entrp">   -178.31526804 </i>
    <i name="e_0_energy">   -178.38228989 </i>
   </energy>
  </scstep>
  <scstep>
   <time name="diag">   68.62   68.63</time>
   <time name="diis">  192.58  192.60</time>
   <time name="orth">   13.96   13.96</time>
   <time name="total">  315.46  315.49</time>
   <energy>
    <i name="e_fr_energy">   -177.37824794 </i>
    <i name="e_wo_entrp">   -177.26822953 </i>
    <i name="e_0_energy">   -177.35074334 </i>
   </energy>
  </scstep>
  <scstep>
   <time name="diag">   68.77   68.78</time>
   <time name="diis">  191.54  191.55</time>
   <time name="orth">   13.67   13.67</time>
   <time name="total">  314.10  314.13</time>
   <energy>
    <i name="e_fr_energy">   -176.33477755 </i>
    <i name="e_wo_entrp">   -176.21991190 </i>
    <i name="e_0_energy">   -176.30606114 </i>
   </energy>
  </scstep>
  <scstep>
   <time name="diag">   68.77   68.78</time>
   <time name="diis">  191.32  191.34</time>
   <time name="orth">   13.76   13.76</time>
   <time name="total">  314.17  314.20</time>
   <energy>
    <i name="e_fr_energy">   -176.23925839 </i>
    <i name="e_wo_entrp">   -176.22397053 </i>
    <i name="e_0_energy">   -176.23543643 </i>
   </energy>
  </scstep>
  <scstep>
   <time name="diag">   68.91   68.92</time>
   <time name="diis">  188.69  188.70</time>
   <time name="orth">   13.83   13.84</time>
   <time name="total">  311.68  311.71</time>
   <energy>
    <i name="e_fr_energy">   -176.25636035 </i>
    <i name="e_wo_entrp">   -176.11063150 </i>
    <i name="e_0_energy">   -176.21992814 </i>
   </energy>
  </scstep>
  <scstep>
   <time name="diag">   69.28   69.28</time>
   <time name="diis">  188.55  188.57</time>
   <time name="orth">   13.81   13.81</time>
   <time name="total">  312.16  312.19</time>
   <energy>
    <i name="e_fr_energy">   -175.82439904 </i>
    <i name="e_wo_entrp">   -175.77897147 </i>
    <i name="e_0_energy">   -175.81304214 </i>
   </energy>
  </scstep>
  <scstep>
   <time name="diag">   69.80   69.81</time>
   <time name="diis">  189.55  189.58</time>
   <time name="orth">   13.85   13.85</time>
   <time name="total">  313.73  313.77</time>
   <energy>
    <i name="e_fr_energy">   -175.12162003 </i>
    <i name="e_wo_entrp">   -174.99954621 </i>
    <i name="e_0_energy">   -175.09110157 </i>
   </energy>
  </scstep>
  <scstep>
   <time name="diag">   69.33   69.34</time>
   <time name="diis">  191.66  191.67</time>
   <time name="orth">   13.79   13.79</time>
   <time name="total">  315.42  315.45</time>
   <energy>
    <i name="e_fr_energy">   -175.11717522 </i>
    <i name="e_wo_entrp">   -175.11019124 </i>
    <i name="e_0_energy">   -175.11542922 </i>
   </energy>
  </scstep>
  <scstep>
   <time name="diag">   68.45   68.46</time>
   <time name="diis">  190.92  190.93</time>
   <time name="orth">   14.07   14.07</time>
   <time name="total">  313.47  313.50</time>
   <energy>
    <i name="e_fr_energy">   -174.89424390 </i>
    <i name="e_wo_entrp">   -174.91276305 </i>
    <i name="e_0_energy">   -174.89887369 </i>
   </energy>
  </scstep>
  <scstep>
   <time name="diag">   68.72   68.73</time>
   <time name="diis">  190.02  190.04</time>
   <time name="orth">   14.27   14.27</time>
   <time name="total">  313.39  313.43</time>
   <energy>
    <i name="e_fr_energy">   -174.82129634 </i>
    <i name="e_wo_entrp">   -174.78889315 </i>
    <i name="e_0_energy">   -174.81319554 </i>
   </energy>
  </scstep>
  <scstep>
   <time name="diag">   69.30   69.30</time>
   <time name="diis">  187.38  187.39</time>
   <time name="orth">   14.17   14.17</time>
   <time name="total">  311.72  311.73</time>
   <energy>
    <i name="e_fr_energy">   -174.71316916 </i>
    <i name="e_wo_entrp">   -174.68448104 </i>
    <i name="e_0_energy">   -174.70599713 </i>
   </energy>
  </scstep>
  <scstep>
   <time name="diag">   68.40   68.40</time>
   <time name="diis">  188.50  188.50</time>
   <time name="orth">   14.19   14.19</time>
   <time name="total">  311.86  311.86</time>
   <energy>
    <i name="e_fr_energy">   -174.60346795 </i>
    <i name="e_wo_entrp">   -174.58539886 </i>
    <i name="e_0_energy">   -174.59895067 </i>
   </energy>
  </scstep>
  <scstep>
   <time name="diag">   68.48   68.48</time>
   <time name="diis">  186.06  186.06</time>
   <time name="orth">   14.03   14.03</time>
   <time name="total">  309.19  309.19</time>
   <energy>
    <i name="e_fr_energy">   -174.43456969 </i>
    <i name="e_wo_entrp">   -174.36828156 </i>
    <i name="e_0_energy">   -174.41799766 </i>
   </energy>
  </scstep>
  <scstep>
   <time name="diag">   68.92   68.92</time>
   <time name="diis">  185.61  185.61</time>
   <time name="orth">   14.15   14.15</time>
   <time name="total">  310.08  310.09</time>
   <energy>
    <i name="e_fr_energy">   -174.43032330 </i>
    <i name="e_wo_entrp">   -174.34224549 </i>
    <i name="e_0_energy">   -174.40830385 </i>
   </energy>
  </scstep>
  <scstep>
   <time name="diag">   68.94   68.94</time>
   <time name="diis">  184.04  184.04</time>
   <time name="orth">   13.78   13.78</time>
   <time name="total">  307.73  307.74</time>
   <energy>
    <i name="e_fr_energy">   -174.33948694 </i>
    <i name="e_wo_entrp">   -174.23234695 </i>
    <i name="e_0_energy">   -174.31270194 </i>
   </energy>
  </scstep>
  <scstep>
   <time name="diag">   68.31   68.31</time>
   <time name="diis">  184.41  184.41</time>
   <time name="orth">   13.96   13.95</time>
   <time name="total">  307.81  307.82</time>
   <energy>
    <i name="e_fr_energy">   -174.29547173 </i>
    <i name="e_wo_entrp">   -174.20428262 </i>
    <i name="e_0_energy">   -174.27267446 </i>
   </energy>
  </scstep>
  <scstep>
   <time name="diag">   68.85   68.85</time>
   <time name="diis">  183.71  183.71</time>
   <time name="orth">   14.11   14.11</time>
   <time name="total">  308.25  308.26</time>
   <energy>
    <i name="e_fr_energy">   -174.22007992 </i>
    <i name="e_wo_entrp">   -174.12021566 </i>
    <i name="e_0_energy">   -174.19511385 </i>
   </energy>
  </scstep>
  <scstep>
   <time name="diag">   68.77   68.78</time>
   <time name="diis">  183.97  183.98</time>
   <time name="orth">   13.83   13.83</time>
   <time name="total">  308.21  308.22</time>
   <energy>
    <i name="e_fr_energy">   -174.19560438 </i>
    <i name="e_wo_entrp">   -174.10171735 </i>
    <i name="e_0_energy">   -174.17213263 </i>
   </energy>
  </scstep>
  <scstep>
   <time name="diag">   68.31   68.32</time>
   <time name="diis">  182.58  182.59</time>
   <time name="orth">   14.01   14.01</time>
   <time name="total">  306.25  306.25</time>
   <energy>
    <i name="e_fr_energy">   -174.19672388 </i>
    <i name="e_wo_entrp">   -174.10519087 </i>
    <i name="e_0_energy">   -174.17384063 </i>
   </energy>
  </scstep>
  <scstep>
   <time name="diag">   69.01   69.01</time>
   <time name="diis">  182.85  182.85</time>
   <time name="orth">   13.89   13.89</time>
   <time name="total">  307.74  307.75</time>
   <energy>
    <i name="e_fr_energy">   -174.16373578 </i>
    <i name="e_wo_entrp">   -174.06870289 </i>
    <i name="e_0_energy">   -174.13997756 </i>
   </energy>
  </scstep>
  <scstep>
   <time name="diag">   68.49   68.49</time>
   <time name="diis">  186.14  186.14</time>
   <time name="orth">   13.79   13.79</time>
   <time name="total">  309.59  309.60</time>
   <energy>
    <i name="e_fr_energy">   -174.15686793 </i>
    <i name="e_wo_entrp">   -174.05952207 </i>
    <i name="e_0_energy">   -174.13253146 </i>
   </energy>
  </scstep>
  <scstep>
   <time name="diag">   68.35   68.35</time>
   <time name="diis">  180.48  180.50</time>
   <time name="orth">   13.85   13.85</time>
   <time name="total">  303.72  303.74</time>
   <energy>
    <i name="e_fr_energy">   -174.15652842 </i>
    <i name="e_wo_entrp">   -174.05777157 </i>
    <i name="e_0_energy">   -174.13183921 </i>
   </energy>
  </scstep>
  <scstep>
   <time name="diag">   69.04   69.05</time>
   <time name="diis">  182.20  182.20</time>
   <time name="orth">   13.80   13.80</time>
   <time name="total">  306.64  306.65</time>
   <energy>
    <i name="e_fr_energy">   -174.14901031 </i>
    <i name="e_wo_entrp">   -174.04618643 </i>
    <i name="e_0_energy">   -174.12330434 </i>
   </energy>
  </scstep>
  <scstep>
   <time name="diag">   69.01   69.01</time>
   <time name="diis">  181.74  181.75</time>
   <time name="orth">   13.81   13.81</time>
   <time name="total">  306.28  306.29</time>
   <energy>
    <i name="e_fr_energy">   -174.14742503 </i>
    <i name="e_wo_entrp">   -174.05108456 </i>
    <i name="e_0_energy">   -174.12333992 </i>
   </energy>
  </scstep>
  <scstep>
   <time name="diag">   69.08   69.09</time>
   <time name="diis">  181.32  181.32</time>
   <time name="orth">   13.82   13.82</time>
   <time name="total">  305.95  305.95</time>
   <energy>
    <i name="e_fr_energy">   -174.14922153 </i>
    <i name="e_wo_entrp">   -174.05206607 </i>
    <i name="e_0_energy">   -174.12493266 </i>
   </energy>
  </scstep>
  <scstep>
   <time name="diag">   69.00   69.00</time>
   <time name="diis">  180.80  180.81</time>
   <time name="orth">   13.73   13.73</time>
   <time name="total">  305.66  305.66</time>
   <energy>
    <i name="e_fr_energy">   -174.14959051 </i>
    <i name="e_wo_entrp">   -174.05357799 </i>
    <i name="e_0_energy">   -174.12558738 </i>
   </energy>
  </scstep>
  <scstep>
   <time name="diag">   68.93   68.93</time>
   <time name="diis">  179.76  179.76</time>
   <time name="orth">   13.77   13.77</time>
   <time name="total">  304.46  304.47</time>
   <energy>
    <i name="e_fr_energy">   -174.14976820 </i>
    <i name="e_wo_entrp">   -174.05008223 </i>
    <i name="e_0_energy">   -174.12484671 </i>
   </energy>
  </scstep>
  <scstep>
   <time name="diag">   68.69   68.69</time>
   <time name="diis">  178.28  178.28</time>
   <time name="orth">   13.73   13.73</time>
   <time name="total">  302.66  302.67</time>
   <energy>
    <i name="e_fr_energy">   -174.15173642 </i>
    <i name="e_wo_entrp">   -174.05180175 </i>
    <i name="e_0_energy">   -174.12675275 </i>
   </energy>
  </scstep>
  <scstep>
   <time name="diag">   69.12   69.12</time>
   <time name="diis">  170.75  170.75</time>
   <time name="orth">   13.80   13.80</time>
   <time name="total">  295.64  295.64</time>
   <energy>
    <i name="e_fr_energy">   -174.15384066 </i>
    <i name="e_wo_entrp">   -174.05370708 </i>
    <i name="e_0_energy">   -174.12880726 </i>
   </energy>
  </scstep>
  <scstep>
   <time name="diag">   68.91   68.91</time>
   <time name="diis">  154.76  154.77</time>
   <time name="orth">   13.68   13.68</time>
   <time name="total">  279.56  279.56</time>
   <energy>
    <i name="e_fr_energy">   -174.15562215 </i>
    <i name="e_wo_entrp">   -174.05567990 </i>
    <i name="e_0_energy">   -174.13063659 </i>
   </energy>
  </scstep>
  <scstep>
   <time name="diag">   69.69   69.69</time>
   <time name="diis">  165.33  165.33</time>
   <time name="orth">   14.11   14.11</time>
   <time name="total">  291.80  291.81</time>
   <energy>
    <i name="e_fr_energy">   -174.15876978 </i>
    <i name="e_wo_entrp">   -174.05958867 </i>
    <i name="e_0_energy">   -174.13397450 </i>
   </energy>
  </scstep>
  <scstep>
   <time name="diag">   69.14   69.14</time>
   <time name="diis">  149.95  149.95</time>
   <time name="orth">   14.00   14.00</time>
   <time name="total">  276.28  276.29</time>
   <energy>
    <i name="e_fr_energy">   -174.16137519 </i>
    <i name="e_wo_entrp">   -174.06280329 </i>
    <i name="e_0_energy">   -174.13673222 </i>
   </energy>
  </scstep>
  <scstep>
   <time name="diag">   69.29   69.29</time>
   <time name="diis">  124.47  124.47</time>
   <time name="orth">   13.42   13.42</time>
   <time name="total">  249.90  249.90</time>
   <energy>
    <i name="e_fr_energy">   -174.16337190 </i>
    <i name="e_wo_entrp">   -174.06477543 </i>
    <i name="e_0_energy">   -174.13872279 </i>
   </energy>
  </scstep>
  <scstep>
   <time name="diag">   69.44   69.44</time>
   <time name="diis">  139.45  139.45</time>
   <time name="orth">   13.45   13.45</time>
   <time name="total">  264.55  264.56</time>
   <energy>
    <i name="e_fr_energy">   -174.16594207 </i>
    <i name="e_wo_entrp">   -174.06625708 </i>
    <i name="e_0_energy">   -174.14102082 </i>
   </energy>
  </scstep>
  <scstep>
   <time name="diag">   69.90   69.90</time>
   <time name="diis">  121.05  121.05</time>
   <time name="orth">   13.05   13.05</time>
   <time name="total">  246.83  246.84</time>
   <energy>
    <i name="e_fr_energy">   -174.16730143 </i>
    <i name="e_wo_entrp">   -174.06870101 </i>
    <i name="e_0_energy">   -174.14265132 </i>
   </energy>
  </scstep>
  <scstep>
   <time name="diag">   67.82   67.82</time>
   <time name="diis">  127.20  127.20</time>
   <time name="orth">   14.03   14.03</time>
   <time name="total">  252.53  252.54</time>
   <energy>
    <i name="e_fr_energy">   -174.16980819 </i>
    <i name="e_wo_entrp">   -174.07089656 </i>
    <i name="e_0_energy">   -174.14508029 </i>
   </energy>
  </scstep>
  <scstep>
   <time name="diag">   67.88   67.88</time>
   <time name="diis">  117.47  117.47</time>
   <time name="orth">   13.83   13.83</time>
   <time name="total">  243.20  243.20</time>
   <energy>
    <i name="e_fr_energy">   -174.17065480 </i>
    <i name="e_wo_entrp">   -174.07167330 </i>
    <i name="e_0_energy">   -174.14590942 </i>
   </energy>
  </scstep>
  <scstep>
   <time name="diag">   69.34   69.34</time>
   <time name="diis">  114.38  114.38</time>
   <time name="orth">   13.48   13.48</time>
   <time name="total">  240.86  240.87</time>
   <energy>
    <i name="e_fr_energy">   -174.17202396 </i>
    <i name="e_wo_entrp">   -174.07297849 </i>
    <i name="e_0_energy">   -174.14726260 </i>
   </energy>
  </scstep>
  <scstep>
   <time name="diag">   69.02   69.02</time>
   <time name="diis">  116.29  116.29</time>
   <time name="orth">   13.37   13.37</time>
   <time name="total">  241.12  241.12</time>
   <energy>
    <i name="e_fr_energy">   -174.17259208 </i>
    <i name="e_wo_entrp">   -174.07365162 </i>
    <i name="e_0_energy">   -174.14785697 </i>
   </energy>
  </scstep>
  <scstep>
   <time name="diag">   68.73   68.74</time>
   <time name="diis">  116.16  116.16</time>
   <time name="orth">   13.53   13.53</time>
   <time name="total">  241.27  241.28</time>
   <energy>
    <i name="e_fr_energy">   -174.17330826 </i>
    <i name="e_wo_entrp">   -174.07468409 </i>
    <i name="e_0_energy">   -174.14865221 </i>
   </energy>
  </scstep>
  <scstep>
   <time name="diag">   67.57   67.57</time>
   <time name="diis">  114.53  114.53</time>
   <time name="orth">   13.67   13.67</time>
   <time name="total">  239.21  239.22</time>
   <energy>
    <i name="e_fr_energy">   -174.17394626 </i>
    <i name="e_wo_entrp">   -174.07504220 </i>
    <i name="e_0_energy">   -174.14922025 </i>
   </energy>
  </scstep>
  <scstep>
   <time name="diag">   68.34   68.33</time>
   <time name="diis">   99.42   99.42</time>
   <time name="orth">   13.66   13.66</time>
   <time name="total">  224.99  224.99</time>
   <energy>
    <i name="e_fr_energy">   -174.17426408 </i>
    <i name="e_wo_entrp">   -174.07545968 </i>
    <i name="e_0_energy">   -174.14956298 </i>
   </energy>
  </scstep>
  <scstep>
   <time name="diag">   68.78   68.78</time>
   <time name="diis">  107.99  107.99</time>
   <time name="orth">   13.46   13.46</time>
   <time name="total">  233.46  233.46</time>
   <energy>
    <i name="e_fr_energy">   -174.17511476 </i>
    <i name="e_wo_entrp">   -174.07633361 </i>
    <i name="e_0_energy">   -174.15041947 </i>
   </energy>
  </scstep>
  <scstep>
   <time name="diag">   68.74   68.74</time>
   <time name="diis">   81.80   81.80</time>
   <time name="orth">   13.49   13.49</time>
   <time name="total">  207.31  207.32</time>
   <energy>
    <i name="e_fr_energy">   -174.17530666 </i>
    <i name="e_wo_entrp">   -174.07640134 </i>
    <i name="e_0_energy">   -174.15058033 </i>
   </energy>
  </scstep>
  <scstep>
   <time name="diag">   67.55   67.55</time>
   <time name="diis">   98.30   98.33</time>
   <time name="orth">   13.42   13.42</time>
   <time name="total">  222.42  222.45</time>
   <energy>
    <i name="e_fr_energy">   -174.17570840 </i>
    <i name="e_wo_entrp">   -174.07686587 </i>
    <i name="e_0_energy">   -174.15099777 </i>
   </energy>
  </scstep>
  <scstep>
   <time name="diag">   68.09   68.09</time>
   <time name="diis">   83.52   83.52</time>
   <time name="orth">   13.38   13.38</time>
   <time name="total">  207.94  207.95</time>
   <energy>
    <i name="e_fr_energy">   -174.17593931 </i>
    <i name="e_wo_entrp">   -174.07714376 </i>
    <i name="e_0_energy">   -174.15124042 </i>
   </energy>
  </scstep>
  <scstep>
   <time name="diag">   67.79   67.79</time>
   <time name="diis">   83.05   83.05</time>
   <time name="orth">   13.46   13.46</time>
   <time name="total">  207.48  207.48</time>
   <energy>
    <i name="e_fr_energy">   -174.17607871 </i>
    <i name="e_wo_entrp">   -174.07733584 </i>
    <i name="e_0_energy">   -174.15139299 </i>
   </energy>
  </scstep>
  <scstep>
   <time name="diag">   67.42   67.42</time>
   <time name="diis">   87.06   87.06</time>
   <time name="orth">   13.44   13.44</time>
   <time name="total">  211.32  211.33</time>
   <energy>
    <i name="e_fr_energy">   -174.17626838 </i>
    <i name="e_wo_entrp">   -174.07745350 </i>
    <i name="e_0_energy">   -174.15156466 </i>
   </energy>
  </scstep>
  <scstep>
   <time name="diag">   68.51   68.51</time>
   <time name="diis">   76.96   76.96</time>
   <time name="orth">   13.13   13.13</time>
   <time name="total">  201.96  201.96</time>
   <energy>
    <i name="e_fr_energy">   -174.17636898 </i>
    <i name="e_wo_entrp">   -174.07757781 </i>
    <i name="e_0_energy">   -174.15167119 </i>
   </energy>
  </scstep>
  <scstep>
   <time name="diag">   69.49   69.50</time>
   <time name="diis">   85.03   85.03</time>
   <time name="orth">   13.27   13.27</time>
   <time name="total">  211.25  211.27</time>
   <energy>
    <i name="e_fr_energy">   -174.17652945 </i>
    <i name="e_wo_entrp">   -174.07773457 </i>
    <i name="e_0_energy">   -174.15183073 </i>
   </energy>
  </scstep>
  <scstep>
   <time name="diag">   67.41   67.42</time>
   <time name="diis">   78.34   78.35</time>
   <time name="orth">   13.79   13.79</time>
   <time name="total">  173.53  173.55</time>
   <energy>
    <i name="alphaZ">     75.25431677 </i>
    <i name="ewald"> 137631.86996983 </i>
    <i name="hartreedc">-182001.32608252 </i>
    <i name="XCdc">  -1693.17414204 </i>
    <i name="pawpsdc">  46052.31272980 </i>
    <i name="pawaedc"> -42521.98560920 </i>
    <i name="eentropy">     -0.09881573 </i>
    <i name="bandstr">  -2803.53444606 </i>
    <i name="atom">  45086.50549395 </i>
    <i name="e_fr_energy">   -174.17658517 </i>
    <i name="e_wo_entrp">   -174.07776945 </i>
    <i name="e_0_energy">   -174.15188124 </i>
   </energy>
  </scstep>
  <structure>
   <crystal>
    <varray name="basis" >
     <v>      30.00000000       0.00000000       0.00000000 </v>
     <v>       0.00000000      30.00000000       0.00000000 </v>
     <v>       0.00000000       0.00000000      30.00000000 </v>
    </varray>
    <i name="volume">  27000.00000000 </i>
    <varray name="rec_basis" >
     <v>       0.03333333       0.00000000       0.00000000 </v>
     <v>       0.00000000       0.03333333       0.00000000 </v>
     <v>       0.00000000       0.00000000       0.03333333 </v>
    </varray>
   </crystal>
   <varray name="positions" >
    <v>       0.44576020       0.32826710       0.41691983 </v>
    <v>       0.67173288       0.55423978       0.41691983 </v>
    <v>       0.55423980       0.32826710       0.41691983 </v>
    <v>       0.32826712       0.55423978       0.41691983 </v>
    <v>       0.50000000       0.38250690       0.34021317 </v>
    <v>       0.50000000       0.38250690       0.65978680 </v>
    <v>       0.50000000       0.27609440       0.50000000 </v>
    <v>       0.27609443       0.49999998       0.50000000 </v>
    <v>       0.72390557       0.49999998       0.50000000 </v>
    <v>       0.50000000       0.72390555       0.50000000 </v>
    <v>       0.61195280       0.38804720       0.34167483 </v>
    <v>       0.61195280       0.38804720       0.65832513 </v>
    <v>       0.38804722       0.61195278       0.34167483 </v>
    <v>       0.38804722       0.61195278       0.65832513 </v>
    <v>       0.38804720       0.38804720       0.34167483 </v>
    <v>       0.38804720       0.38804720       0.65832513 </v>
    <v>       0.61195278       0.61195278       0.34167483 </v>
    <v>       0.61195278       0.61195278       0.65832513 </v>
    <v>       0.44576020       0.32826710       0.58308023 </v>
    <v>       0.67173288       0.55423978       0.58308023 </v>
    <v>       0.55791699       0.44208301       0.41809300 </v>
    <v>       0.32826705       0.44576024       0.41691983 </v>
    <v>       0.55423973       0.67173293       0.41691983 </v>
    <v>       0.55423980       0.32826710       0.58308023 </v>
    <v>       0.32826712       0.55423978       0.58308023 </v>
    <v>       0.67173295       0.44576024       0.41691983 </v>
    <v>       0.44576027       0.67173293       0.41691983 </v>
    <v>       0.44208301       0.44208301       0.41809300 </v>
    <v>       0.50000000       0.38416601       0.50000000 </v>
    <v>       0.61749315       0.50000005       0.34021317 </v>
    <v>       0.61749315       0.50000005       0.65978680 </v>
    <v>       0.38250685       0.50000005       0.34021317 </v>
    <v>       0.38250685       0.50000005       0.65978680 </v>
    <v>       0.38317830       0.38317830       0.50000000 </v>
    <v>       0.61682172       0.61682172       0.50000000 </v>
    <v>       0.61682170       0.38317830       0.50000000 </v>
    <v>       0.38317828       0.61682172       0.50000000 </v>
    <v>       0.50000000       0.50000000       0.33478917 </v>
    <v>       0.50000000       0.50000000       0.66521087 </v>
    <v>       0.32826705       0.44576024       0.58308023 </v>
    <v>       0.55423973       0.67173293       0.58308023 </v>
    <v>       0.55791699       0.44208301       0.58190703 </v>
    <v>       0.44208298       0.55791702       0.41809300 </v>
    <v>       0.44208301       0.44208301       0.58190703 </v>
    <v>       0.67173295       0.44576024       0.58308023 </v>
    <v>       0.44576027       0.67173293       0.58308023 </v>
    <v>       0.55791702       0.55791702       0.41809300 </v>
    <v>       0.38416599       0.50000002       0.50000000 </v>
    <v>       0.61583401       0.50000002       0.50000000 </v>
    <v>       0.50000000       0.61749319       0.34021317 </v>
    <v>       0.50000000       0.61749319       0.65978680 </v>
    <v>       0.50000000       0.50000000       0.50000000 </v>
    <v>       0.44208298       0.55791702       0.58190703 </v>
    <v>       0.55791702       0.55791702       0.58190703 </v>
    <v>       0.50000000       0.61583404       0.50000000 </v>
    <v>       0.25794683       0.40757640       0.56770913 </v>
    <v>       0.22396167       0.39459980       0.57721573 </v>
   </varray>
  </structure>
  <varray name="forces" >
   <v>       0.70239385       1.11037098       0.29349002 </v>
   <v>      -1.10708515      -0.70440228       0.28928963 </v>
   <v>      -0.70304022       1.10884753       0.29131153 </v>
   <v>       1.09902586      -0.70118627       0.29132978 </v>
   <v>       0.00258049       0.41148989       1.28193285 </v>
   <v>      -0.00716831       0.41424763      -1.27809750 </v>
   <v>      -0.00014308       1.51740338      -0.00020783 </v>
   <v>       1.46896540      -0.01519538      -0.00825481 </v>
   <v>      -1.51410802      -0.00226568      -0.00063876 </v>
   <v>      -0.00088763      -1.51696583       0.00011977 </v>
   <v>      -0.75804601       0.75432027       1.07188635 </v>
   <v>      -0.75027134       0.76130233      -1.07504302 </v>
   <v>       0.76232136      -0.74742579       1.06910090 </v>
   <v>       0.73759739      -0.75783835      -1.08170439 </v>
   <v>       0.75646972       0.75687931       1.07382284 </v>
   <v>       0.77629453       0.75817637      -1.06555894 </v>
   <v>      -0.75736445      -0.75696134       1.07084967 </v>
   <v>      -0.75701016      -0.75685889      -1.07119893 </v>
   <v>       0.71137492       1.10665690      -0.29118457 </v>
   <v>      -1.11086865      -0.70195768      -0.28862763 </v>
   <v>       0.11358859      -0.11416764      -0.15552255 </v>
   <v>       1.12202296       0.70754569       0.26646456 </v>
   <v>      -0.70625997      -1.10598989       0.29158482 </v>
   <v>      -0.70635730       1.10893168      -0.29210966 </v>
   <v>       1.13557183      -0.63570353      -0.27614604 </v>
   <v>      -1.10998976       0.70287713       0.29205624 </v>
   <v>       0.70413177      -1.10883748       0.29044396 </v>
   <v>      -0.11084317      -0.11109635      -0.15889561 </v>
   <v>      -0.00004686      -0.22795232       0.00129327 </v>
   <v>      -0.41247844       0.00001770       1.27949826 </v>
   <v>      -0.41060765      -0.00063197      -1.27865580 </v>
   <v>       0.40629158      -0.00428999       1.28723409 </v>
   <v>       0.42710729      -0.01688013      -1.31494003 </v>
   <v>       0.87063231       0.80324560      -0.03912995 </v>
   <v>      -0.83226746      -0.82892167       0.00231880 </v>
   <v>      -0.82733616       0.82768767      -0.00139511 </v>
   <v>       0.82739332      -0.83152011       0.00510136 </v>
   <v>       0.00365323       0.00027794       1.17626372 </v>
   <v>      -0.00927035      -0.00534982      -1.18355884 </v>
   <v>      -0.30647352      -0.13136323      -0.47317537 </v>
   <v>      -0.70316550      -1.10783650      -0.29130431 </v>
   <v>       0.13762722      -0.11176493       0.16073916 </v>
   <v>      -0.10120842       0.12053309      -0.16234623 </v>
   <v>      -0.11323873      -0.09137686       0.15955707 </v>
   <v>      -1.11433339       0.69727961      -0.28951171 </v>
   <v>       0.70564476      -1.10783875      -0.29588683 </v>
   <v>       0.11290373       0.11115989      -0.15763437 </v>
   <v>      -0.18059157       0.02672500      -0.03282382 </v>
   <v>       0.22659328       0.00082466      -0.00253188 </v>
   <v>      -0.00613386      -0.41498850       1.28265683 </v>
   <v>       0.00645037      -0.41305462      -1.28430482 </v>
   <v>      -0.00995429      -0.00052292       0.00677637 </v>
   <v>      -0.11090262       0.10673002       0.15155025 </v>
   <v>       0.11623117       0.11252082       0.15810682 </v>
   <v>      -0.00197556       0.22935124      -0.00090621 </v>
   <v>       4.20327922       1.92369422      -0.42152013 </v>
   <v>      -2.89671859      -1.14795187       0.72803676 </v>
  </varray>
  <varray name="stress" >
   <v>      -6.72933536      -0.02988287      -0.09029260 </v>
   <v>      -0.02988285      -6.77267366      -0.04414221 </v>
   <v>      -0.09029261      -0.04414222      -6.74675009 </v>
  </varray>
  <energy>
   <i name="e_fr_energy">   -174.17658517 </i>
   <i name="e_wo_entrp">   -174.15188124 </i>
   <i name="e_0_energy">     -0.09881573 </i>
  </energy>
  <time name="totalsc">18232.0318232.87</time>
  <eigenvalues>
   <array>
    <dimension dim="1">band</dimension>
    <dimension dim="2">kpoint</dimension>
    <dimension dim="3">spin</dimension>
    <field>eigene</field>
    <field>occ</field>
    <set>
     <set comment="spin 1">
      <set comment="kpoint 1">
       <r>  -29.0522    1.0000 </r>
       <r>  -13.6062    1.0000 </r>
       <r>  -11.3837    1.0000 </r>
       <r>  -11.3733    1.0000 </r>
       <r>   -9.5550    1.0000 </r>
       <r>   -6.6319    1.0000 </r>
       <r>   -6.1149    1.0000 </r>
       <r>   -6.1140    1.0000 </r>
       <r>   -6.1041    1.0000 </r>
       <r>   -5.8047    1.0000 </r>
       <r>   -5.7995    1.0000 </r>
       <r>   -5.7961    1.0000 </r>
       <r>   -5.7353    1.0000 </r>
       <r>   -5.6795    1.0000 </r>
       <r>   -5.6738    1.0000 </r>
       <r>   -5.6720    1.0000 </r>
       <r>   -5.6696    1.0000 </r>
       <r>   -5.6149    1.0000 </r>
       <r>   -5.6092    1.0000 </r>
       <r>   -5.6071    1.0000 </r>
       <r>   -5.5964    1.0000 </r>
       <r>   -5.5874    1.0000 </r>
       <r>   -5.5824    1.0000 </r>
       <r>   -5.5524    1.0000 </r>
       <r>   -5.5376    1.0000 </r>
       <r>   -5.5360    1.0000 </r>
       <r>   -5.5338    1.0000 </r>
       <r>   -5.5315    1.0000 </r>
       <r>   -5.5161    1.0000 </r>
       <r>   -5.5070    1.0000 </r>
       <r>   -5.5052    1.0000 </r>
       <r>   -5.5020    1.0000 </r>
       <r>   -5.5005    1.0000 </r>
       <r>   -5.5002    1.0000 </r>
       <r>   -5.4995    1.0000 </r>
       <r>   -5.4747    1.0000 </r>
       <r>   -5.4667    1.0000 </r>
       <r>   -5.4616    1.0000 </r>
       <r>   -5.4581    1.0000 </r>
       <r>   -5.4554    1.0000 </r>
       <r>   -5.4554    1.0000 </r>
       <r>   -5.4542    1.0000 </r>
       <r>   -5.4522    1.0000 </r>
       <r>   -5.4290    1.0000 </r>
       <r>   -5.4257    1.0000 </r>
       <r>   -5.4175    1.0000 </r>
       <r>   -5.4156    1.0000 </r>
       <r>   -5.4150    1.0000 </r>
       <r>   -5.4115    1.0000 </r>
       <r>   -5.4097    1.0000 </r>
       <r>   -5.4074    1.0000 </r>
       <r>   -5.3966    1.0000 </r>
       <r>   -5.3929    1.0000 </r>
       <r>   -5.3919    1.0000 </r>
       <r>   -5.3807    1.0000 </r>
       <r>   -5.3380    1.0000 </r>
       <r>   -5.3180    1.0000 </r>
       <r>   -5.3134    1.0000 </r>
       <r>   -5.3127    1.0000 </r>
       <r>   -5.3093    1.0000 </r>
       <r>   -5.3064    1.0000 </r>
       <r>   -5.3039    1.0000 </r>
       <r>   -5.3016    1.0000 </r>
       <r>   -5.2879    1.0000 </r>
       <r>   -5.2871    1.0000 </r>
       <r>   -5.2768    1.0000 </r>
       <r>   -5.2755    1.0000 </r>
       <r>   -5.2061    1.0000 </r>
       <r>   -5.2052    1.0000 </r>
       <r>   -5.1921    1.0000 </r>
       <r>   -5.1917    1.0000 </r>
       <r>   -5.1794    1.0000 </r>
       <r>   -5.1775    1.0000 </r>
       <r>   -5.1696    1.0000 </r>
       <r>   -5.1667    1.0000 </r>
       <r>   -5.1660    1.0000 </r>
       <r>   -5.1650    1.0000 </r>
       <r>   -5.1501    1.0000 </r>
       <r>   -5.1490    1.0000 </r>
       <r>   -5.1386    1.0000 </r>
       <r>   -5.1192    1.0000 </r>
       <r>   -5.1145    1.0000 </r>
       <r>   -5.1111    1.0000 </r>
       <r>   -5.1087    1.0000 </r>
       <r>   -5.0931    1.0000 </r>
       <r>   -5.0930    1.0000 </r>
       <r>   -5.0904    1.0000 </r>
       <r>   -5.0669    1.0000 </r>
       <r>   -5.0514    1.0000 </r>
       <r>   -5.0435    1.0000 </r>
       <r>   -5.0410    1.0000 </r>
       <r>   -5.0406    1.0000 </r>
       <r>   -5.0394    1.0000 </r>
       <r>   -5.0377    1.0000 </r>
       <r>   -5.0354    1.0000 </r>
       <r>   -5.0237    1.0000 </r>
       <r>   -5.0177    1.0000 </r>
       <r>   -5.0157    1.0000 </r>
       <r>   -5.0138    1.0000 </r>
       <r>   -5.0063    1.0000 </r>
       <r>   -5.0010    1.0000 </r>
       <r>   -4.9941    1.0000 </r>
       <r>   -4.9919    1.0000 </r>
       <r>   -4.9854    1.0000 </r>
       <r>   -4.9828    1.0000 </r>
       <r>   -4.9783    1.0000 </r>
       <r>   -4.9763    1.0000 </r>
       <r>   -4.9719    1.0000 </r>
       <r>   -4.9681    1.0000 </r>
       <r>   -4.9596    1.0000 </r>
       <r>   -4.9585    1.0000 </r>
       <r>   -4.9489    1.0000 </r>
       <r>   -4.9454    1.0000 </r>
       <r>   -4.9432    1.0000 </r>
       <r>   -4.9426    1.0000 </r>
       <r>   -4.9402    1.0000 </r>
       <r>   -4.9259    1.0000 </r>
       <r>   -4.9143    1.0000 </r>
       <r>   -4.9081    1.0000 </r>
       <r>   -4.9036    1.0000 </r>
       <r>   -4.8942    1.0000 </r>
       <r>   -4.8926    1.0000 </r>
       <r>   -4.8892    1.0000 </r>
       <r>   -4.8877    1.0000 </r>
       <r>   -4.8864    1.0000 </r>
       <r>   -4.8862    1.0000 </r>
       <r>   -4.8430    1.0000 </r>
       <r>   -4.8351    1.0000 </r>
       <r>   -4.8314    1.0000 </r>
       <r>   -4.8285    1.0000 </r>
       <r>   -4.8274    1.0000 </r>
       <r>   -4.8267    1.0000 </r>
       <r>   -4.8188    1.0000 </r>
       <r>   -4.8166    1.0000 </r>
       <r>   -4.8149    1.0000 </r>
       <r>   -4.7946    0.9999 </r>
       <r>   -4.7828    0.9999 </r>
       <r>   -4.7797    0.9999 </r>
       <r>   -4.7784    0.9999 </r>
       <r>   -4.7584    0.9998 </r>
       <r>   -4.7540    0.9998 </r>
       <r>   -4.7507    0.9998 </r>
       <r>   -4.7328    0.9997 </r>
       <r>   -4.7268    0.9996 </r>
       <r>   -4.7237    0.9996 </r>
       <r>   -4.7223    0.9996 </r>
       <r>   -4.7098    0.9995 </r>
       <r>   -4.6932    0.9993 </r>
       <r>   -4.6857    0.9991 </r>
       <r>   -4.6781    0.9990 </r>
       <r>   -4.6728    0.9989 </r>
       <r>   -4.6711    0.9989 </r>
       <r>   -4.6673    0.9988 </r>
       <r>   -4.6620    0.9987 </r>
       <r>   -4.6598    0.9986 </r>
       <r>   -4.6586    0.9986 </r>
       <r>   -4.6584    0.9986 </r>
       <r>   -4.6553    0.9985 </r>
       <r>   -4.6538    0.9985 </r>
       <r>   -4.6425    0.9982 </r>
       <r>   -4.6404    0.9981 </r>
       <r>   -4.6362    0.9980 </r>
       <r>   -4.6333    0.9979 </r>
       <r>   -4.6327    0.9979 </r>
       <r>   -4.6316    0.9978 </r>
       <r>   -4.6311    0.9978 </r>
       <r>   -4.6292    0.9977 </r>
       <r>   -4.6275    0.9977 </r>
       <r>   -4.6182    0.9974 </r>
       <r>   -4.6156    0.9973 </r>
       <r>   -4.5919    0.9964 </r>
       <r>   -4.5870    0.9962 </r>
       <r>   -4.5859    0.9962 </r>
       <r>   -4.5840    0.9961 </r>
       <r>   -4.5820    0.9960 </r>
       <r>   -4.5804    0.9960 </r>
       <r>   -4.5789    0.9959 </r>
       <r>   -4.5750    0.9958 </r>
       <r>   -4.5688    0.9956 </r>
       <r>   -4.5612    0.9954 </r>
       <r>   -4.5592    0.9953 </r>
       <r>   -4.5482    0.9951 </r>
       <r>   -4.5448    0.9951 </r>
       <r>   -4.5406    0.9951 </r>
       <r>   -4.5393    0.9951 </r>
       <r>   -4.5390    0.9951 </r>
       <r>   -4.5373    0.9951 </r>
       <r>   -4.5360    0.9951 </r>
       <r>   -4.5337    0.9951 </r>
       <r>   -4.5319    0.9951 </r>
       <r>   -4.5027    0.9964 </r>
       <r>   -4.4967    0.9969 </r>
       <r>   -4.4927    0.9974 </r>
       <r>   -4.4922    0.9974 </r>
       <r>   -4.4904    0.9977 </r>
       <r>   -4.4823    0.9988 </r>
       <r>   -4.4739    1.0002 </r>
       <r>   -4.4679    1.0014 </r>
       <r>   -4.4657    1.0019 </r>
       <r>   -4.4606    1.0031 </r>
       <r>   -4.4579    1.0038 </r>
       <r>   -4.4528    1.0051 </r>
       <r>   -4.4462    1.0071 </r>
       <r>   -4.4436    1.0079 </r>
       <r>   -4.4386    1.0096 </r>
       <r>   -4.4372    1.0101 </r>
       <r>   -4.4328    1.0117 </r>
       <r>   -4.4307    1.0125 </r>
       <r>   -4.4269    1.0139 </r>
       <r>   -4.4258    1.0144 </r>
       <r>   -4.4105    1.0209 </r>
       <r>   -4.4027    1.0245 </r>
       <r>   -4.3979    1.0268 </r>
       <r>   -4.3947    1.0283 </r>
       <r>   -4.3935    1.0289 </r>
       <r>   -4.3914    1.0299 </r>
       <r>   -4.3898    1.0307 </r>
       <r>   -4.3885    1.0313 </r>
       <r>   -4.3833    1.0338 </r>
       <r>   -4.3709    1.0396 </r>
       <r>   -4.3535    1.0465 </r>
       <r>   -4.3525    1.0469 </r>
       <r>   -4.3418    1.0499 </r>
       <r>   -4.3331    1.0513 </r>
       <r>   -4.3262    1.0516 </r>
       <r>   -4.3236    1.0515 </r>
       <r>   -4.3229    1.0515 </r>
       <r>   -4.3215    1.0514 </r>
       <r>   -4.3208    1.0513 </r>
       <r>   -4.3190    1.0511 </r>
       <r>   -4.3185    1.0510 </r>
       <r>   -4.3157    1.0505 </r>
       <r>   -4.3135    1.0500 </r>
       <r>   -4.3106    1.0492 </r>
       <r>   -4.3088    1.0486 </r>
       <r>   -4.3072    1.0480 </r>
       <r>   -4.3064    1.0477 </r>
       <r>   -4.3047    1.0469 </r>
       <r>   -4.3038    1.0465 </r>
       <r>   -4.3025    1.0459 </r>
       <r>   -4.2906    1.0379 </r>
       <r>   -4.2851    1.0329 </r>
       <r>   -4.2778    1.0247 </r>
       <r>   -4.2722    1.0173 </r>
       <r>   -4.2704    1.0147 </r>
       <r>   -4.2693    1.0130 </r>
       <r>   -4.2682    1.0114 </r>
       <r>   -4.2679    1.0108 </r>
       <r>   -4.2640    1.0044 </r>
       <r>   -4.2522    0.9818 </r>
       <r>   -4.2489    0.9745 </r>
       <r>   -4.2455    0.9664 </r>
       <r>   -4.2414    0.9562 </r>
       <r>   -4.2388    0.9495 </r>
       <r>   -4.2379    0.9471 </r>
       <r>   -4.2349    0.9389 </r>
       <r>   -4.2335    0.9349 </r>
       <r>   -4.2327    0.9324 </r>
       <r>   -4.2289    0.9213 </r>
       <r>   -4.2286    0.9204 </r>
       <r>   -4.2273    0.9164 </r>
       <r>   -4.2247    0.9083 </r>
       <r>   -4.2228    0.9020 </r>
       <r>   -4.2225    0.9009 </r>
       <r>   -4.2202    0.8934 </r>
       <r>   -4.2123    0.8653 </r>
       <r>   -4.2091    0.8535 </r>
       <r>   -4.2062    0.8424 </r>
       <r>   -4.2049    0.8375 </r>
       <r>   -4.2032    0.8306 </r>
       <r>   -4.2015    0.8237 </r>
       <r>   -4.1959    0.8007 </r>
       <r>   -4.1806    0.7321 </r>
       <r>   -4.1776    0.7183 </r>
       <r>   -4.1690    0.6766 </r>
       <r>   -4.1667    0.6650 </r>
       <r>   -4.1619    0.6408 </r>
       <r>   -4.1608    0.6351 </r>
       <r>   -4.1577    0.6197 </r>
       <r>   -4.1564    0.6126 </r>
       <r>   -4.1539    0.6000 </r>
       <r>   -4.1422    0.5387 </r>
       <r>   -4.1150    0.3956 </r>
       <r>   -4.1128    0.3844 </r>
       <r>   -4.1122    0.3814 </r>
       <r>   -4.1118    0.3794 </r>
       <r>   -4.0990    0.3151 </r>
       <r>   -4.0959    0.2999 </r>
       <r>   -4.0926    0.2840 </r>
       <r>   -3.9533   -0.0507 </r>
       <r>   -3.8805   -0.0309 </r>
       <r>   -3.8095   -0.0032 </r>
       <r>   -3.8003   -0.0011 </r>
       <r>   -3.7621    0.0040 </r>
       <r>   -3.4810    0.0001 </r>
       <r>   -3.4735    0.0001 </r>
       <r>   -3.4285    0.0000 </r>
       <r>   -3.0440    0.0000 </r>
       <r>   -3.0412    0.0000 </r>
       <r>   -3.0213    0.0000 </r>
       <r>   -3.0132    0.0000 </r>
       <r>   -3.0034    0.0000 </r>
       <r>   -2.9524    0.0000 </r>
       <r>   -2.9246    0.0000 </r>
       <r>   -2.9031    0.0000 </r>
       <r>   -2.5094    0.0000 </r>
       <r>   -2.5068    0.0000 </r>
       <r>   -2.4167    0.0000 </r>
       <r>   -2.3528    0.0000 </r>
       <r>   -2.1366    0.0000 </r>
       <r>   -2.1129    0.0000 </r>
       <r>   -2.1003    0.0000 </r>
       <r>   -2.0237    0.0000 </r>
       <r>   -1.9677    0.0000 </r>
       <r>   -1.9205    0.0000 </r>
       <r>   -1.8522    0.0000 </r>
       <r>   -1.8418    0.0000 </r>
       <r>   -1.7315    0.0000 </r>
       <r>   -1.7117    0.0000 </r>
       <r>   -1.6265    0.0000 </r>
       <r>   -1.6057    0.0000 </r>
       <r>   -1.5460    0.0000 </r>
       <r>   -1.5395    0.0000 </r>
       <r>   -1.4404    0.0000 </r>
       <r>   -1.3841    0.0000 </r>
       <r>   -1.2078    0.0000 </r>
       <r>   -1.1760    0.0000 </r>
       <r>   -1.1486    0.0000 </r>
       <r>   -0.9753    0.0000 </r>
       <r>   -0.9698    0.0000 </r>
       <r>   -0.9561    0.0000 </r>
       <r>   -0.9195    0.0000 </r>
       <r>   -0.9147    0.0000 </r>
       <r>   -0.8567    0.0000 </r>
       <r>   -0.7769    0.0000 </r>
       <r>   -0.5832    0.0000 </r>
      </set>
     </set>
    </set>
   </array>
  </eigenvalues>
  <separator name="orbital magnetization" >
   <v name="MAGDIPOLOUT">      0.00000000      0.00000000      0.00000000</v>
  </separator>
  <dos>
   <i name="efermi">     -4.13487385 </i>
   <total>
    <array>
     <dimension dim="1">gridpoints</dimension>
     <dimension dim="2">spin</dimension>
     <field>energy</field>
     <field>total</field>
     <field>integrated</field>
     <set>
      <set comment="spin 1">
       <r>   -31.0522     0.0000     0.0000 </r>
       <r>   -30.9440     0.0000     0.0000 </r>
       <r>   -30.8358     0.0000     0.0000 </r>
       <r>   -30.7275     0.0000     0.0000 </r>
       <r>   -30.6193     0.0000     0.0000 </r>
       <r>   -30.5111     0.0000     0.0000 </r>
       <r>   -30.4028     0.0000     0.0000 </r>
       <r>   -30.2946     0.0000     0.0000 </r>
       <r>   -30.1864     0.0000     0.0000 </r>
       <r>   -30.0781     0.0000     0.0000 </r>
       <r>   -29.9699     0.0000     0.0000 </r>
       <r>   -29.8617     0.0000     0.0000 </r>
       <r>   -29.7535     0.0004     0.0000 </r>
       <r>   -29.6452     0.0061     0.0007 </r>
       <r>   -29.5370     0.0413     0.0052 </r>
       <r>   -29.4288     0.0302     0.0084 </r>
       <r>   -29.3205    -0.5269    -0.0486 </r>
       <r>   -29.2123    -0.3139    -0.0826 </r>
       <r>   -29.1041     5.1894     0.4791 </r>
       <r>   -28.9958     9.9966     1.5610 </r>
       <r>   -28.8876     4.8730     2.0884 </r>
       <r>   -28.7794    -0.4068     2.0444 </r>
       <r>   -28.6712    -0.4925     1.9911 </r>
       <r>   -28.5629     0.0374     1.9951 </r>
       <r>   -28.4547     0.0390     1.9994 </r>
       <r>   -28.3465     0.0055     2.0000 </r>
       <r>   -28.2382     0.0003     2.0000 </r>
       <r>   -28.1300     0.0000     2.0000 </r>
       <r>   -28.0218     0.0000     2.0000 </r>
       <r>   -27.9135     0.0000     2.0000 </r>
       <r>   -27.8053     0.0000     2.0000 </r>
       <r>   -27.6971     0.0000     2.0000 </r>
       <r>   -27.5889     0.0000     2.0000 </r>
       <r>   -27.4806     0.0000     2.0000 </r>
       <r>   -27.3724     0.0000     2.0000 </r>
       <r>   -27.2642     0.0000     2.0000 </r>
       <r>   -27.1559     0.0000     2.0000 </r>
       <r>   -27.0477     0.0000     2.0000 </r>
       <r>   -26.9395     0.0000     2.0000 </r>
       <r>   -26.8312     0.0000     2.0000 </r>
       <r>   -26.7230     0.0000     2.0000 </r>
       <r>   -26.6148     0.0000     2.0000 </r>
       <r>   -26.5066     0.0000     2.0000 </r>
       <r>   -26.3983     0.0000     2.0000 </r>
       <r>   -26.2901     0.0000     2.0000 </r>
       <r>   -26.1819     0.0000     2.0000 </r>
       <r>   -26.0736     0.0000     2.0000 </r>
       <r>   -25.9654     0.0000     2.0000 </r>
       <r>   -25.8572     0.0000     2.0000 </r>
       <r>   -25.7489     0.0000     2.0000 </r>
       <r>   -25.6407     0.0000     2.0000 </r>
       <r>   -25.5325     0.0000     2.0000 </r>
       <r>   -25.4243     0.0000     2.0000 </r>
       <r>   -25.3160     0.0000     2.0000 </r>
       <r>   -25.2078     0.0000     2.0000 </r>
       <r>   -25.0996     0.0000     2.0000 </r>
       <r>   -24.9913     0.0000     2.0000 </r>
       <r>   -24.8831     0.0000     2.0000 </r>
       <r>   -24.7749     0.0000     2.0000 </r>
       <r>   -24.6666     0.0000     2.0000 </r>
       <r>   -24.5584     0.0000     2.0000 </r>
       <r>   -24.4502     0.0000     2.0000 </r>
       <r>   -24.3419     0.0000     2.0000 </r>
       <r>   -24.2337     0.0000     2.0000 </r>
       <r>   -24.1255     0.0000     2.0000 </r>
       <r>   -24.0173     0.0000     2.0000 </r>
       <r>   -23.9090     0.0000     2.0000 </r>
       <r>   -23.8008     0.0000     2.0000 </r>
       <r>   -23.6926     0.0000     2.0000 </r>
       <r>   -23.5843     0.0000     2.0000 </r>
       <r>   -23.4761     0.0000     2.0000 </r>
       <r>   -23.3679     0.0000     2.0000 </r>
       <r>   -23.2596     0.0000     2.0000 </r>
       <r>   -23.1514     0.0000     2.0000 </r>
       <r>   -23.0432     0.0000     2.0000 </r>
       <r>   -22.9350     0.0000     2.0000 </r>
       <r>   -22.8267     0.0000     2.0000 </r>
       <r>   -22.7185     0.0000     2.0000 </r>
       <r>   -22.6103     0.0000     2.0000 </r>
       <r>   -22.5020     0.0000     2.0000 </r>
       <r>   -22.3938     0.0000     2.0000 </r>
       <r>   -22.2856     0.0000     2.0000 </r>
       <r>   -22.1773     0.0000     2.0000 </r>
       <r>   -22.0691     0.0000     2.0000 </r>
       <r>   -21.9609     0.0000     2.0000 </r>
       <r>   -21.8527     0.0000     2.0000 </r>
       <r>   -21.7444     0.0000     2.0000 </r>
       <r>   -21.6362     0.0000     2.0000 </r>
       <r>   -21.5280     0.0000     2.0000 </r>
       <r>   -21.4197     0.0000     2.0000 </r>
       <r>   -21.3115     0.0000     2.0000 </r>
       <r>   -21.2033     0.0000     2.0000 </r>
       <r>   -21.0950     0.0000     2.0000 </r>
       <r>   -20.9868     0.0000     2.0000 </r>
       <r>   -20.8786     0.0000     2.0000 </r>
       <r>   -20.7704     0.0000     2.0000 </r>
       <r>   -20.6621     0.0000     2.0000 </r>
       <r>   -20.5539     0.0000     2.0000 </r>
       <r>   -20.4457     0.0000     2.0000 </r>
       <r>   -20.3374     0.0000     2.0000 </r>
       <r>   -20.2292     0.0000     2.0000 </r>
       <r>   -20.1210     0.0000     2.0000 </r>
       <r>   -20.0127     0.0000     2.0000 </r>
       <r>   -19.9045     0.0000     2.0000 </r>
       <r>   -19.7963     0.0000     2.0000 </r>
       <r>   -19.6881     0.0000     2.0000 </r>
       <r>   -19.5798     0.0000     2.0000 </r>
       <r>   -19.4716     0.0000     2.0000 </r>
       <r>   -19.3634     0.0000     2.0000 </r>
       <r>   -19.2551     0.0000     2.0000 </r>
       <r>   -19.1469     0.0000     2.0000 </r>
       <r>   -19.0387     0.0000     2.0000 </r>
       <r>   -18.9304     0.0000     2.0000 </r>
       <r>   -18.8222     0.0000     2.0000 </r>
       <r>   -18.7140     0.0000     2.0000 </r>
       <r>   -18.6058     0.0000     2.0000 </r>
       <r>   -18.4975     0.0000     2.0000 </r>
       <r>   -18.3893     0.0000     2.0000 </r>
       <r>   -18.2811     0.0000     2.0000 </r>
       <r>   -18.1728     0.0000     2.0000 </r>
       <r>   -18.0646     0.0000     2.0000 </r>
       <r>   -17.9564     0.0000     2.0000 </r>
       <r>   -17.8481     0.0000     2.0000 </r>
       <r>   -17.7399     0.0000     2.0000 </r>
       <r>   -17.6317     0.0000     2.0000 </r>
       <r>   -17.5235     0.0000     2.0000 </r>
       <r>   -17.4152     0.0000     2.0000 </r>
       <r>   -17.3070     0.0000     2.0000 </r>
       <r>   -17.1988     0.0000     2.0000 </r>
       <r>   -17.0905     0.0000     2.0000 </r>
       <r>   -16.9823     0.0000     2.0000 </r>
       <r>   -16.8741     0.0000     2.0000 </r>
       <r>   -16.7658     0.0000     2.0000 </r>
       <r>   -16.6576     0.0000     2.0000 </r>
       <r>   -16.5494     0.0000     2.0000 </r>
       <r>   -16.4412     0.0000     2.0000 </r>
       <r>   -16.3329     0.0000     2.0000 </r>
       <r>   -16.2247     0.0000     2.0000 </r>
       <r>   -16.1165     0.0000     2.0000 </r>
       <r>   -16.0082     0.0000     2.0000 </r>
       <r>   -15.9000     0.0000     2.0000 </r>
       <r>   -15.7918     0.0000     2.0000 </r>
       <r>   -15.6835     0.0000     2.0000 </r>
       <r>   -15.5753     0.0000     2.0000 </r>
       <r>   -15.4671     0.0000     2.0000 </r>
       <r>   -15.3588     0.0000     2.0000 </r>
       <r>   -15.2506     0.0000     2.0000 </r>
       <r>   -15.1424     0.0000     2.0000 </r>
       <r>   -15.0342     0.0000     2.0000 </r>
       <r>   -14.9259     0.0000     2.0000 </r>
       <r>   -14.8177     0.0000     2.0000 </r>
       <r>   -14.7095     0.0000     2.0000 </r>
       <r>   -14.6012     0.0000     2.0000 </r>
       <r>   -14.4930     0.0000     2.0000 </r>
       <r>   -14.3848     0.0000     2.0000 </r>
       <r>   -14.2765     0.0009     2.0001 </r>
       <r>   -14.1683     0.0117     2.0014 </r>
       <r>   -14.0601     0.0563     2.0075 </r>
       <r>   -13.9519    -0.0514     2.0019 </r>
       <r>   -13.8436    -0.7373     1.9221 </r>
       <r>   -13.7354     0.6361     1.9909 </r>
       <r>   -13.6272     7.2940     2.7804 </r>
       <r>   -13.5189     9.4183     3.7997 </r>
       <r>   -13.4107     2.8022     4.1030 </r>
       <r>   -13.3025    -0.7744     4.0192 </r>
       <r>   -13.1942    -0.2677     3.9902 </r>
       <r>   -13.0860     0.0627     3.9970 </r>
       <r>   -12.9778     0.0249     3.9997 </r>
       <r>   -12.8696     0.0026     4.0000 </r>
       <r>   -12.7613     0.0001     4.0000 </r>
       <r>   -12.6531     0.0000     4.0000 </r>
       <r>   -12.5449     0.0000     4.0000 </r>
       <r>   -12.4366     0.0000     4.0000 </r>
       <r>   -12.3284     0.0000     4.0000 </r>
       <r>   -12.2202     0.0000     4.0000 </r>
       <r>   -12.1119     0.0003     4.0000 </r>
       <r>   -12.0037     0.0058     4.0007 </r>
       <r>   -11.8955     0.0526     4.0063 </r>
       <r>   -11.7873     0.1225     4.0196 </r>
       <r>   -11.6790    -0.5799     3.9568 </r>
       <r>   -11.5708    -1.5006     3.7944 </r>
       <r>   -11.4626     6.0180     4.4458 </r>
       <r>   -11.3543    19.0202     6.5043 </r>
       <r>   -11.2461    14.1646     8.0374 </r>
       <r>   -11.1379     1.0388     8.1498 </r>
       <r>   -11.0296    -1.4354     7.9944 </r>
       <r>   -10.9214    -0.0820     7.9856 </r>
       <r>   -10.8132     0.1096     7.9974 </r>
       <r>   -10.7050     0.0220     7.9998 </r>
       <r>   -10.5967     0.0016     8.0000 </r>
       <r>   -10.4885     0.0001     8.0000 </r>
       <r>   -10.3803     0.0000     8.0000 </r>
       <r>   -10.2720     0.0002     8.0000 </r>
       <r>   -10.1638     0.0043     8.0005 </r>
       <r>   -10.0556     0.0336     8.0041 </r>
       <r>    -9.9473     0.0510     8.0096 </r>
       <r>    -9.8391    -0.4072     7.9656 </r>
       <r>    -9.7309    -0.5920     7.9015 </r>
       <r>    -9.6227     4.0931     8.3445 </r>
       <r>    -9.5144     9.9012     9.4161 </r>
       <r>    -9.4062     5.9760    10.0629 </r>
       <r>    -9.2980    -0.0331    10.0593 </r>
       <r>    -9.1897    -0.6107     9.9932 </r>
       <r>    -9.0815     0.0074     9.9940 </r>
       <r>    -8.9733     0.0470     9.9991 </r>
       <r>    -8.8650     0.0078     9.9999 </r>
       <r>    -8.7568     0.0005    10.0000 </r>
       <r>    -8.6486     0.0000    10.0000 </r>
       <r>    -8.5404     0.0000    10.0000 </r>
       <r>    -8.4321     0.0000    10.0000 </r>
       <r>    -8.3239     0.0000    10.0000 </r>
       <r>    -8.2157     0.0000    10.0000 </r>
       <r>    -8.1074     0.0000    10.0000 </r>
       <r>    -7.9992     0.0000    10.0000 </r>
       <r>    -7.8910     0.0000    10.0000 </r>
       <r>    -7.7827     0.0000    10.0000 </r>
       <r>    -7.6745     0.0000    10.0000 </r>
       <r>    -7.5663     0.0000    10.0000 </r>
       <r>    -7.4581     0.0000    10.0000 </r>
       <r>    -7.3498     0.0002    10.0000 </r>
       <r>    -7.2416     0.0042    10.0005 </r>
       <r>    -7.1334     0.0331    10.0041 </r>
       <r>    -7.0251     0.0519    10.0097 </r>
       <r>    -6.9169    -0.4004     9.9663 </r>
       <r>    -6.8087    -0.6029     9.9011 </r>
       <r>    -6.7004     4.0516    10.3396 </r>
       <r>    -6.5922    10.0171    11.4237 </r>
       <r>    -6.4840     6.1097    12.0850 </r>
       <r>    -6.3758    -1.6377    11.9077 </r>
       <r>    -6.2675    -1.0943    11.7893 </r>
       <r>    -6.1593    16.6272    13.5889 </r>
       <r>    -6.0511    28.5915    16.6833 </r>
       <r>    -5.9428    12.3872    18.0240 </r>
       <r>    -5.8346    12.9279    19.4232 </r>
       <r>    -5.7264    47.3667    24.5497 </r>
       <r>    -5.6181   116.4270    37.1506 </r>
       <r>    -5.5099   237.1730    62.8199 </r>
       <r>    -5.4017   308.4050    96.1986 </r>
       <r>    -5.2934   251.3485   123.4020 </r>
       <r>    -5.1852   205.3212   145.6240 </r>
       <r>    -5.0770   272.9964   175.1704 </r>
       <r>    -4.9688   360.0066   214.1340 </r>
       <r>    -4.8605   339.4217   250.8696 </r>
       <r>    -4.7523   290.5239   282.3130 </r>
       <r>    -4.6441   358.4700   321.1103 </r>
       <r>    -4.5358   429.8983   367.6382 </r>
       <r>    -4.4276   423.2171   413.4431 </r>
       <r>    -4.3194   488.8440   466.3507 </r>
       <r>    -4.2111   560.3817   527.0009 </r>
       <r>    -4.1029   387.9947   568.9936 </r>
       <r>    -3.9947   109.9724   580.8959 </r>
       <r>    -3.8865     9.0716   581.8777 </r>
       <r>    -3.7782    28.9954   585.0159 </r>
       <r>    -3.6700    23.7291   587.5841 </r>
       <r>    -3.5618     9.8808   588.6535 </r>
       <r>    -3.4535    24.2888   591.2823 </r>
       <r>    -3.3453    22.8883   593.7595 </r>
       <r>    -3.2371    -0.2995   593.7271 </r>
       <r>    -3.1288     5.0514   594.2738 </r>
       <r>    -3.0206    50.2430   599.7116 </r>
       <r>    -2.9124    68.4137   607.1160 </r>
       <r>    -2.8042    29.6564   610.3257 </r>
       <r>    -2.6959    -2.6966   610.0339 </r>
       <r>    -2.5877     2.6099   610.3163 </r>
       <r>    -2.4795    24.5792   612.9765 </r>
       <r>    -2.3712    29.5051   616.1699 </r>
       <r>    -2.2630    15.0720   617.8011 </r>
       <r>    -2.1548    18.2409   619.7753 </r>
       <r>    -2.0465    37.4336   623.8268 </r>
       <r>    -1.9383    41.7533   628.3457 </r>
       <r>    -1.8301    36.8823   632.3375 </r>
       <r>    -1.7219    34.8279   636.1069 </r>
       <r>    -1.6136    40.7817   640.5208 </r>
       <r>    -1.5054    42.9029   645.1641 </r>
       <r>    -1.3972    29.6345   648.3715 </r>
       <r>    -1.2889    17.7473   650.2923 </r>
       <r>    -1.1807    21.6470   652.6351 </r>
       <r>    -1.0725    27.9410   655.6592 </r>
       <r>    -0.9642    43.5866   660.3766 </r>
       <r>    -0.8560    54.2595   666.2491 </r>
       <r>    -0.7478    30.7345   669.5755 </r>
       <r>    -0.6396     9.9995   670.6577 </r>
       <r>    -0.5313     8.2659   671.5523 </r>
       <r>    -0.4231     4.6390   672.0544 </r>
       <r>    -0.3149    -0.1511   672.0381 </r>
       <r>    -0.2066    -0.4427   671.9902 </r>
       <r>    -0.0984     0.0424   671.9947 </r>
       <r>     0.0098     0.0421   671.9993 </r>
       <r>     0.1181     0.0061   672.0000 </r>
       <r>     0.2263     0.0004   672.0000 </r>
       <r>     0.3345     0.0000   672.0000 </r>
       <r>     0.4427     0.0000   672.0000 </r>
       <r>     0.5510     0.0000   672.0000 </r>
       <r>     0.6592     0.0000   672.0000 </r>
       <r>     0.7674     0.0000   672.0000 </r>
       <r>     0.8757     0.0000   672.0000 </r>
       <r>     0.9839     0.0000   672.0000 </r>
       <r>     1.0921     0.0000   672.0000 </r>
       <r>     1.2004     0.0000   672.0000 </r>
       <r>     1.3086     0.0000   672.0000 </r>
       <r>     1.4168     0.0000   672.0000 </r>
      </set>
     </set>
    </array>
   </total>
  </dos>
 </calculation>
 <structure name="finalpos" >
  <crystal>
   <varray name="basis" >
    <v>      30.00000000       0.00000000       0.00000000 </v>
    <v>       0.00000000      30.00000000       0.00000000 </v>
    <v>       0.00000000       0.00000000      30.00000000 </v>
   </varray>
   <i name="volume">  27000.00000000 </i>
   <varray name="rec_basis" >
    <v>       0.03333333       0.00000000       0.00000000 </v>
    <v>       0.00000000       0.03333333       0.00000000 </v>
    <v>       0.00000000       0.00000000       0.03333333 </v>
   </varray>
  </crystal>
  <varray name="positions" >
   <v>       0.44576020       0.32826710       0.41691983 </v>
   <v>       0.67173288       0.55423978       0.41691983 </v>
   <v>       0.55423980       0.32826710       0.41691983 </v>
   <v>       0.32826712       0.55423978       0.41691983 </v>
   <v>       0.50000000       0.38250690       0.34021317 </v>
   <v>       0.50000000       0.38250690       0.65978680 </v>
   <v>       0.50000000       0.27609440       0.50000000 </v>
   <v>       0.27609443       0.49999998       0.50000000 </v>
   <v>       0.72390557       0.49999998       0.50000000 </v>
   <v>       0.50000000       0.72390555       0.50000000 </v>
   <v>       0.61195280       0.38804720       0.34167483 </v>
   <v>       0.61195280       0.38804720       0.65832513 </v>
   <v>       0.38804722       0.61195278       0.34167483 </v>
   <v>       0.38804722       0.61195278       0.65832513 </v>
   <v>       0.38804720       0.38804720       0.34167483 </v>
   <v>       0.38804720       0.38804720       0.65832513 </v>
   <v>       0.61195278       0.61195278       0.34167483 </v>
   <v>       0.61195278       0.61195278       0.65832513 </v>
   <v>       0.44576020       0.32826710       0.58308023 </v>
   <v>       0.67173288       0.55423978       0.58308023 </v>
   <v>       0.55791699       0.44208301       0.41809300 </v>
   <v>       0.32826705       0.44576024       0.41691983 </v>
   <v>       0.55423973       0.67173293       0.41691983 </v>
   <v>       0.55423980       0.32826710       0.58308023 </v>
   <v>       0.32826712       0.55423978       0.58308023 </v>
   <v>       0.67173295       0.44576024       0.41691983 </v>
   <v>       0.44576027       0.67173293       0.41691983 </v>
   <v>       0.44208301       0.44208301       0.41809300 </v>
   <v>       0.50000000       0.38416601       0.50000000 </v>
   <v>       0.61749315       0.50000005       0.34021317 </v>
   <v>       0.61749315       0.50000005       0.65978680 </v>
   <v>       0.38250685       0.50000005       0.34021317 </v>
   <v>       0.38250685       0.50000005       0.65978680 </v>
   <v>       0.38317830       0.38317830       0.50000000 </v>
   <v>       0.61682172       0.61682172       0.50000000 </v>
   <v>       0.61682170       0.38317830       0.50000000 </v>
   <v>       0.38317828       0.61682172       0.50000000 </v>
   <v>       0.50000000       0.50000000       0.33478917 </v>
   <v>       0.50000000       0.50000000       0.66521087 </v>
   <v>       0.32826705       0.44576024       0.58308023 </v>
   <v>       0.55423973       0.67173293       0.58308023 </v>
   <v>       0.55791699       0.44208301       0.58190703 </v>
   <v>       0.44208298       0.55791702       0.41809300 </v>
   <v>       0.44208301       0.44208301       0.58190703 </v>
   <v>       0.67173295       0.44576024       0.58308023 </v>
   <v>       0.44576027       0.67173293       0.58308023 </v>
   <v>       0.55791702       0.55791702       0.41809300 </v>
   <v>       0.38416599       0.50000002       0.50000000 </v>
   <v>       0.61583401       0.50000002       0.50000000 </v>
   <v>       0.50000000       0.61749319       0.34021317 </v>
   <v>       0.50000000       0.61749319       0.65978680 </v>
   <v>       0.50000000       0.50000000       0.50000000 </v>
   <v>       0.44208298       0.55791702       0.58190703 </v>
   <v>       0.55791702       0.55791702       0.58190703 </v>
   <v>       0.50000000       0.61583404       0.50000000 </v>
   <v>       0.25794683       0.40757640       0.56770913 </v>
   <v>       0.22396167       0.39459980       0.57721573 </v>
  </varray>
  <varray name="selective"  type="logical" >
   <v type="logical" >  F  F  F </v>
   <v type="logical" >  F  F  F </v>
   <v type="logical" >  F  F  F </v>
   <v type="logical" >  F  F  F </v>
   <v type="logical" >  F  F  F </v>
   <v type="logical" >  F  F  F </v>
   <v type="logical" >  F  F  F </v>
   <v type="logical" >  F  F  F </v>
   <v type="logical" >  F  F  F </v>
   <v type="logical" >  F  F  F </v>
   <v type="logical" >  F  F  F </v>
   <v type="logical" >  F  F  F </v>
   <v type="logical" >  F  F  F </v>
   <v type="logical" >  F  F  F </v>
   <v type="logical" >  F  F  F </v>
   <v type="logical" >  F  F  F </v>
   <v type="logical" >  F  F  F </v>
   <v type="logical" >  F  F  F </v>
   <v type="logical" >  F  F  F </v>
   <v type="logical" >  F  F  F </v>
   <v type="logical" >  F  F  F </v>
   <v type="logical" >  F  F  F </v>
   <v type="logical" >  F  F  F </v>
   <v type="logical" >  F  F  F </v>
   <v type="logical" >  F  F  F </v>
   <v type="logical" >  F  F  F </v>
   <v type="logical" >  F  F  F </v>
   <v type="logical" >  F  F  F </v>
   <v type="logical" >  F  F  F </v>
   <v type="logical" >  F  F  F </v>
   <v type="logical" >  F  F  F </v>
   <v type="logical" >  F  F  F </v>
   <v type="logical" >  F  F  F </v>
   <v type="logical" >  F  F  F </v>
   <v type="logical" >  F  F  F </v>
   <v type="logical" >  F  F  F </v>
   <v type="logical" >  F  F  F </v>
   <v type="logical" >  F  F  F </v>
   <v type="logical" >  F  F  F </v>
   <v type="logical" >  F  F  F </v>
   <v type="logical" >  F  F  F </v>
   <v type="logical" >  F  F  F </v>
   <v type="logical" >  F  F  F </v>
   <v type="logical" >  F  F  F </v>
   <v type="logical" >  F  F  F </v>
   <v type="logical" >  F  F  F </v>
   <v type="logical" >  F  F  F </v>
   <v type="logical" >  F  F  F </v>
   <v type="logical" >  F  F  F </v>
   <v type="logical" >  F  F  F </v>
   <v type="logical" >  F  F  F </v>
   <v type="logical" >  F  F  F </v>
   <v type="logical" >  F  F  F </v>
   <v type="logical" >  F  F  F </v>
   <v type="logical" >  F  F  F </v>
   <v type="logical" >  F  F  F </v>
   <v type="logical" >  F  F  F </v>
  </varray>
  <nose>
   <v>      -3.00000000       0.00000000       0.00010000       0.00010000 </v>
  </nose>
 </structure>
</modeling>
