   57   57    1    1
  0.4736842E+03  0.3000000E-08  0.3000000E-08  0.3000000E-08  0.5000000E-15
  1.000000000000000E-004
  CAR 
 6_Pd100_top_free_z(O)                   
    560      1    336
 
  0.0000000E+00  0.0000000E+00  0.0000000E+00  0.1000000E+01
    1      -28.002959   1.000000
    2      -13.544142   1.000000
    3      -11.495831   1.000000
    4      -10.912488   1.000000
    5      -10.621614   1.000000
    6       -6.669069   1.000000
    7       -6.542781   1.000000
    8       -6.397532   1.000000
    9       -6.259091   1.000000
   10       -6.138891   1.000000
   11       -6.136949   1.000000
   12       -6.088677   1.000000
   13       -5.919488   1.000000
   14       -5.869612   1.000000
   15       -5.837738   1.000000
   16       -5.825301   1.000000
   17       -5.793919   1.000000
   18       -5.744939   1.000000
   19       -5.706326   1.000000
   20       -5.699725   1.000000
   21       -5.697782   1.000000
   22       -5.674837   1.000000
   23       -5.673334   1.000000
   24       -5.662440   1.000000
   25       -5.630561   1.000000
   26       -5.612986   1.000000
   27       -5.606509   1.000000
   28       -5.599127   1.000000
   29       -5.592764   1.000000
   30       -5.579290   1.000000
   31       -5.565909   1.000000
   32       -5.555570   1.000000
   33       -5.552250   1.000000
   34       -5.536088   1.000000
   35       -5.532445   1.000000
   36       -5.525188   1.000000
   37       -5.520925   1.000000
   38       -5.518387   1.000000
   39       -5.513703   1.000000
   40       -5.510675   1.000000
   41       -5.495470   1.000000
   42       -5.481507   1.000000
   43       -5.480047   1.000000
   44       -5.479047   1.000000
   45       -5.475423   1.000000
   46       -5.472209   1.000000
   47       -5.470411   1.000000
   48       -5.459334   1.000000
   49       -5.454679   1.000000
   50       -5.448040   1.000000
   51       -5.435902   1.000000
   52       -5.432861   1.000000
   53       -5.422762   1.000000
   54       -5.414474   1.000000
   55       -5.411392   1.000000
   56       -5.411024   1.000000
   57       -5.403104   1.000000
   58       -5.388579   1.000000
   59       -5.377162   1.000000
   60       -5.368454   1.000000
   61       -5.345646   1.000000
   62       -5.334725   1.000000
   63       -5.332863   1.000000
   64       -5.323122   1.000000
   65       -5.320180   1.000000
   66       -5.307109   1.000000
   67       -5.306285   1.000000
   68       -5.302923   1.000000
   69       -5.298570   1.000000
   70       -5.289053   1.000000
   71       -5.266020   1.000000
   72       -5.259588   1.000000
   73       -5.240065   1.000000
   74       -5.235426   1.000000
   75       -5.208821   1.000000
   76       -5.203710   1.000000
   77       -5.200963   1.000000
   78       -5.183980   1.000000
   79       -5.182480   1.000000
   80       -5.181845   1.000000
   81       -5.170765   1.000000
   82       -5.169308   1.000000
   83       -5.167929   1.000000
   84       -5.160182   1.000000
   85       -5.141414   1.000000
   86       -5.134391   1.000000
   87       -5.131230   1.000000
   88       -5.128202   1.000000
   89       -5.113567   1.000000
   90       -5.097326   1.000000
   91       -5.090756   1.000000
   92       -5.078662   1.000000
   93       -5.077605   1.000000
   94       -5.066062   1.000000
   95       -5.059215   1.000000
   96       -5.058357   1.000000
   97       -5.056356   1.000000
   98       -5.054468   1.000000
   99       -5.045319   1.000000
  100       -5.043262   1.000000
  101       -5.041956   1.000000
  102       -5.036110   1.000000
  103       -5.027948   1.000000
  104       -5.027374   1.000000
  105       -5.013131   1.000000
  106       -5.009407   1.000000
  107       -5.009025   1.000000
  108       -5.001082   1.000000
  109       -4.997471   1.000000
  110       -4.996913   1.000000
  111       -4.989893   1.000000
  112       -4.985647   1.000000
  113       -4.984082   1.000000
  114       -4.972243   1.000000
  115       -4.969874   1.000000
  116       -4.966888   0.999999
  117       -4.958019   0.999999
  118       -4.954447   0.999999
  119       -4.945012   0.999999
  120       -4.940787   0.999999
  121       -4.930679   0.999998
  122       -4.916598   0.999997
  123       -4.915510   0.999997
  124       -4.913013   0.999997
  125       -4.912712   0.999997
  126       -4.907648   0.999996
  127       -4.900120   0.999995
  128       -4.893178   0.999993
  129       -4.888127   0.999992
  130       -4.871224   0.999987
  131       -4.862732   0.999983
  132       -4.850050   0.999975
  133       -4.845883   0.999972
  134       -4.843111   0.999970
  135       -4.841505   0.999969
  136       -4.835118   0.999962
  137       -4.817652   0.999939
  138       -4.815433   0.999935
  139       -4.803015   0.999909
  140       -4.801968   0.999906
  141       -4.787484   0.999864
  142       -4.780214   0.999837
  143       -4.775039   0.999814
  144       -4.765210   0.999764
  145       -4.762458   0.999748
  146       -4.749775   0.999662
  147       -4.748768   0.999654
  148       -4.740791   0.999586
  149       -4.738828   0.999568
  150       -4.723770   0.999403
  151       -4.709850   0.999207
  152       -4.709112   0.999195
  153       -4.697650   0.998995
  154       -4.690355   0.998849
  155       -4.688270   0.998805
  156       -4.683984   0.998709
  157       -4.676213   0.998522
  158       -4.673606   0.998455
  159       -4.673457   0.998451
  160       -4.670112   0.998362
  161       -4.668248   0.998311
  162       -4.657010   0.997981
  163       -4.652574   0.997841
  164       -4.651798   0.997816
  165       -4.651319   0.997800
  166       -4.648457   0.997706
  167       -4.647055   0.997659
  168       -4.646773   0.997650
  169       -4.642924   0.997518
  170       -4.638694   0.997370
  171       -4.626807   0.996936
  172       -4.619843   0.996675
  173       -4.614211   0.996463
  174       -4.611800   0.996373
  175       -4.606406   0.996174
  176       -4.604400   0.996101
  177       -4.600812   0.995973
  178       -4.596165   0.995813
  179       -4.589746   0.995606
  180       -4.586580   0.995513
  181       -4.586458   0.995509
  182       -4.578877   0.995312
  183       -4.574436   0.995219
  184       -4.568237   0.995122
  185       -4.565609   0.995094
  186       -4.563963   0.995081
  187       -4.558316   0.995066
  188       -4.557562   0.995067
  189       -4.553752   0.995089
  190       -4.550544   0.995127
  191       -4.550230   0.995131
  192       -4.536498   0.995537
  193       -4.517071   0.996935
  194       -4.516139   0.997031
  195       -4.515004   0.997152
  196       -4.502310   0.998820
  197       -4.500306   0.999139
  198       -4.499553   0.999263
  199       -4.495406   0.999987
  200       -4.487978   1.001465
  201       -4.482049   1.002817
  202       -4.474734   1.004702
  203       -4.473692   1.004990
  204       -4.465830   1.007326
  205       -4.460876   1.008942
  206       -4.458111   1.009892
  207       -4.454260   1.011271
  208       -4.453541   1.011536
  209       -4.448707   1.013371
  210       -4.444804   1.014922
  211       -4.432318   1.020256
  212       -4.431108   1.020800
  213       -4.430114   1.021250
  214       -4.423834   1.024146
  215       -4.413837   1.028900
  216       -4.411367   1.030089
  217       -4.408398   1.031519
  218       -4.406846   1.032266
  219       -4.405793   1.032771
  220       -4.403762   1.033744
  221       -4.391350   1.039515
  222       -4.382993   1.043091
  223       -4.379123   1.044615
  224       -4.373810   1.046534
  225       -4.367071   1.048618
  226       -4.358939   1.050490
  227       -4.353382   1.051284
  228       -4.345831   1.051615
  229       -4.345507   1.051608
  230       -4.339841   1.051177
  231       -4.339061   1.051070
  232       -4.338287   1.050953
  233       -4.336915   1.050714
  234       -4.331026   1.049240
  235       -4.330354   1.049024
  236       -4.329277   1.048655
  237       -4.328367   1.048323
  238       -4.327133   1.047841
  239       -4.321690   1.045274
  240       -4.316725   1.042270
  241       -4.314360   1.040603
  242       -4.314200   1.040485
  243       -4.296372   1.022496
  244       -4.295615   1.021509
  245       -4.294595   1.020148
  246       -4.293161   1.018175
  247       -4.290257   1.013965
  248       -4.287199   1.009213
  249       -4.277412   0.991749
  250       -4.276271   0.989485
  251       -4.274529   0.985933
  252       -4.270952   0.978279
  253       -4.270073   0.976326
  254       -4.269052   0.974017
  255       -4.266580   0.968266
  256       -4.259151   0.949560
  257       -4.258009   0.946493
  258       -4.257370   0.944757
  259       -4.252307   0.930433
  260       -4.250236   0.924290
  261       -4.249503   0.922073
  262       -4.247213   0.915021
  263       -4.244930   0.907791
  264       -4.243183   0.902121
  265       -4.240965   0.894758
  266       -4.231650   0.861828
  267       -4.230538   0.857687
  268       -4.229407   0.853427
  269       -4.223689   0.831202
  270       -4.221772   0.823500
  271       -4.221062   0.820615
  272       -4.208848   0.768460
  273       -4.206992   0.760138
  274       -4.197617   0.716671
  275       -4.192227   0.690699
  276       -4.186114   0.660488
  277       -4.185287   0.656349
  278       -4.179684   0.627983
  279       -4.179407   0.626564
  280       -4.177749   0.618073
  281       -4.164622   0.549727
  282       -4.146709   0.455128
  283       -4.140003   0.419955
  284       -4.137823   0.408602
  285       -4.136923   0.403927
  286       -4.129976   0.368194
  287       -4.122712   0.331617
  288       -4.122245   0.329295
  289       -4.082427   0.152003
  290       -3.967639  -0.051474
  291       -3.840084  -0.005956
  292       -3.839769  -0.005863
  293       -3.821025  -0.001167
  294       -3.631566   0.001413
  295       -3.519590   0.000125
  296       -3.505461   0.000086
  297       -3.256418   0.000000
  298       -3.084668   0.000000
  299       -3.068298   0.000000
  300       -3.063977   0.000000
  301       -3.037528   0.000000
  302       -3.034864   0.000000
  303       -2.950209   0.000000
  304       -2.948192   0.000000
  305       -2.610974   0.000000
  306       -2.599712   0.000000
  307       -2.537902   0.000000
  308       -2.525519   0.000000
  309       -2.242755   0.000000
  310       -2.120530   0.000000
  311       -2.118293   0.000000
  312       -2.091831   0.000000
  313       -2.009148   0.000000
  314       -1.993277   0.000000
  315       -1.920570   0.000000
  316       -1.889270   0.000000
  317       -1.822802   0.000000
  318       -1.676439   0.000000
  319       -1.658847   0.000000
  320       -1.650572   0.000000
  321       -1.573313   0.000000
  322       -1.567942   0.000000
  323       -1.563195   0.000000
  324       -1.345880   0.000000
  325       -1.260521   0.000000
  326       -1.094073   0.000000
  327       -1.038410   0.000000
  328       -0.993351   0.000000
  329       -0.959985   0.000000
  330       -0.952004   0.000000
  331       -0.947480   0.000000
  332       -0.931224   0.000000
  333       -0.911517   0.000000
  334       -0.860117   0.000000
  335       -0.810746   0.000000
  336       -0.754824   0.000000
