 vasp.5.4.4.18Apr17-6-g9f103f2a35 (build Sep 03 2018 23:53:05) complex          
  
 executed on             LinuxIFC date 2021.11.27  07:21:10
 running on    1 total cores
 distrk:  each k-point on    1 cores,    1 groups
 distr:  one band on NCORES_PER_BAND=   1 cores,    1 groups


--------------------------------------------------------------------------------------------------------


 INCAR:
 POTCAR:    PAW_PBE Pd 04Jan2005                  
 POTCAR:    PAW_PBE C 08Apr2002                   
 POTCAR:    PAW_PBE O 08Apr2002                   
 POTCAR:    PAW_PBE Pd 04Jan2005                  
   VRHFIN =Pd : s1 d9                                                           
   LEXCH  = PE                                                                  
   EATOM  =   809.7530 eV,   59.5152 Ry                                         
                                                                                
   TITEL  = PAW_PBE Pd 04Jan2005                                                
   LULTRA =        F    use ultrasoft PP ?                                      
   IUNSCR =        1    unscreen: 0-lin 1-nonlin 2-no                           
   RPACOR =    2.000    partial core radius                                     
   POMASS =  106.420; ZVAL   =   10.000    mass and valenz                      
   RCORE  =    2.600    outmost cutoff radius                                   
   RWIGS  =    2.710; RWIGS  =    1.434    wigner-seitz radius (au A)           
   ENMAX  =  250.925; ENMIN  =  188.194 eV                                      
   ICORE  =        3    local potential                                         
   LCOR   =        T    correct aug charges                                     
   LPAW   =        T    paw PP                                                  
   EAUG   =  416.230                                                            
   DEXC   =    0.000                                                            
   RMAX   =    2.653    core radius for proj-oper                               
   RAUG   =    1.300    factor for augmentation sphere                          
   RDEP   =    2.734    radius for radial grids                                 
   RDEPT  =    2.103    core radius for aug-charge                              
                                                                                
   Atomic configuration                                                         
   12 entries                                                                   
     n  l   j            E        occ.                                          
     1  0  0.50    -24164.6631   2.0000                                         
     2  0  0.50     -3530.9218   2.0000                                         
     2  1  1.50     -3165.6822   6.0000                                         
     3  0  0.50      -639.4577   2.0000                                         
     3  1  1.50      -519.4532   6.0000                                         
     3  2  2.50      -328.9757  10.0000                                         
     4  0  0.50       -88.7014   2.0000                                         
     4  1  1.50       -54.4540   6.0000                                         
     4  2  2.50        -6.6878   9.0000                                         
     5  0  0.50        -4.3543   1.0000                                         
     5  1  0.50        -1.3606   0.0000                                         
     4  3  2.50        -1.3606   0.0000                                         
   Description                                                                  
     l       E           TYP  RCUT    TYP  RCUT                                 
     2     -6.6878251     23  2.400                                             
     2     -8.0484077     23  2.400                                             
     0     -4.3542939     23  2.400                                             
     0      4.3406793     23  2.400                                             
     1     -4.0817478     23  2.600                                             
     1     15.8380318     23  2.600                                             
     3     -4.0817478     23  2.400                                             
  local pseudopotential read in
  partial core-charges read in
  partial kinetic energy density read in
  atomic valenz-charges read in
  non local Contribution for L=           2  read in
    real space projection operators read in
  non local Contribution for L=           2  read in
    real space projection operators read in
  non local Contribution for L=           0  read in
    real space projection operators read in
  non local Contribution for L=           0  read in
    real space projection operators read in
  non local Contribution for L=           1  read in
    real space projection operators read in
  non local Contribution for L=           1  read in
    real space projection operators read in
    PAW grid and wavefunctions read in
 
   number of l-projection  operators is LMAX  =           6
   number of lm-projection operators is LMMAX =          18
 
 POTCAR:    PAW_PBE C 08Apr2002                   
   VRHFIN =C: s2p2                                                              
   LEXCH  = PE                                                                  
   EATOM  =   147.1560 eV,   10.8157 Ry                                         
                                                                                
   TITEL  = PAW_PBE C 08Apr2002                                                 
   LULTRA =        F    use ultrasoft PP ?                                      
   IUNSCR =        1    unscreen: 0-lin 1-nonlin 2-no                           
   RPACOR =    1.200    partial core radius                                     
   POMASS =   12.011; ZVAL   =    4.000    mass and valenz                      
   RCORE  =    1.500    outmost cutoff radius                                   
   RWIGS  =    1.630; RWIGS  =    0.863    wigner-seitz radius (au A)           
   ENMAX  =  400.000; ENMIN  =  300.000 eV                                      
   ICORE  =        2    local potential                                         
   LCOR   =        T    correct aug charges                                     
   LPAW   =        T    paw PP                                                  
   EAUG   =  644.873                                                            
   DEXC   =    0.000                                                            
   RMAX   =    1.529    core radius for proj-oper                               
   RAUG   =    1.300    factor for augmentation sphere                          
   RDEP   =    1.501    radius for radial grids                                 
   RDEPT  =    1.300    core radius for aug-charge                              
                                                                                
   Atomic configuration                                                         
    4 entries                                                                   
     n  l   j            E        occ.                                          
     1  0  0.50      -273.3789   2.0000                                         
     2  0  0.50       -13.7508   2.0000                                         
     2  1  0.50        -5.2854   2.0000                                         
     3  2  1.50        -5.4423   0.0000                                         
   Description                                                                  
     l       E           TYP  RCUT    TYP  RCUT                                 
     0    -13.7508458     23  1.200                                             
     0     -8.2022199     23  1.200                                             
     1     -5.2854383     23  1.500                                             
     1     34.0145650     23  1.500                                             
     2     -5.4423304      7  1.500                                             
  local pseudopotential read in
  partial core-charges read in
  partial kinetic energy density read in
  atomic valenz-charges read in
  non local Contribution for L=           0  read in
    real space projection operators read in
  non local Contribution for L=           0  read in
    real space projection operators read in
  non local Contribution for L=           1  read in
    real space projection operators read in
  non local Contribution for L=           1  read in
    real space projection operators read in
    PAW grid and wavefunctions read in
 
   number of l-projection  operators is LMAX  =           4
   number of lm-projection operators is LMMAX =           8
 
 POTCAR:    PAW_PBE O 08Apr2002                   
   VRHFIN =O: s2p4                                                              
   LEXCH  = PE                                                                  
   EATOM  =   432.3788 eV,   31.7789 Ry                                         
                                                                                
   TITEL  = PAW_PBE O 08Apr2002                                                 
   LULTRA =        F    use ultrasoft PP ?                                      
   IUNSCR =        1    unscreen: 0-lin 1-nonlin 2-no                           
   RPACOR =    1.200    partial core radius                                     
   POMASS =   16.000; ZVAL   =    6.000    mass and valenz                      
   RCORE  =    1.520    outmost cutoff radius                                   
   RWIGS  =    1.550; RWIGS  =    0.820    wigner-seitz radius (au A)           
   ENMAX  =  400.000; ENMIN  =  300.000 eV                                      
   ICORE  =        2    local potential                                         
   LCOR   =        T    correct aug charges                                     
   LPAW   =        T    paw PP                                                  
   EAUG   =  605.392                                                            
   DEXC   =    0.000                                                            
   RMAX   =    1.553    core radius for proj-oper                               
   RAUG   =    1.300    factor for augmentation sphere                          
   RDEP   =    1.550    radius for radial grids                                 
   RDEPT  =    1.329    core radius for aug-charge                              
                                                                                
   Atomic configuration                                                         
    4 entries                                                                   
     n  l   j            E        occ.                                          
     1  0  0.50      -514.6923   2.0000                                         
     2  0  0.50       -23.9615   2.0000                                         
     2  1  0.50        -9.0305   4.0000                                         
     3  2  1.50        -9.5241   0.0000                                         
   Description                                                                  
     l       E           TYP  RCUT    TYP  RCUT                                 
     0    -23.9615318     23  1.200                                             
     0     -9.5240782     23  1.200                                             
     1     -9.0304911     23  1.520                                             
     1      8.1634956     23  1.520                                             
     2     -9.5240782      7  1.500                                             
  local pseudopotential read in
  partial core-charges read in
  partial kinetic energy density read in
  kinetic energy density of atom read in
  atomic valenz-charges read in
  non local Contribution for L=           0  read in
    real space projection operators read in
  non local Contribution for L=           0  read in
    real space projection operators read in
  non local Contribution for L=           1  read in
    real space projection operators read in
  non local Contribution for L=           1  read in
    real space projection operators read in
    PAW grid and wavefunctions read in
 
   number of l-projection  operators is LMAX  =           4
   number of lm-projection operators is LMMAX =           8
 
 Optimization of the real space projectors (new method)

 maximal supplied QI-value         = 14.36
 optimisation between [QCUT,QGAM] = [ 10.20, 20.39] = [ 29.12,116.47] Ry 
 Optimized for a Real-space Cutoff    1.51 Angstroem

   l    n(q)    QCUT    max X(q) W(low)/X(q) W(high)/X(q)  e(spline) 
   2      8    10.197    59.108    0.26E-03    0.14E-03    0.96E-07
   2      8    10.197    58.101    0.27E-03    0.14E-03    0.98E-07
   0      9    10.197   102.235    0.54E-04    0.60E-05    0.72E-07
   0      9    10.197    58.388    0.52E-04    0.60E-05    0.68E-07
   1      9    10.197    22.191    0.18E-03    0.25E-03    0.79E-07
   1      9    10.197    15.590    0.15E-03    0.21E-03    0.69E-07
 Optimization of the real space projectors (new method)

 maximal supplied QI-value         = 25.13
 optimisation between [QCUT,QGAM] = [ 10.05, 20.36] = [ 28.30,116.06] Ry 
 Optimized for a Real-space Cutoff    1.30 Angstroem

   l    n(q)    QCUT    max X(q) W(low)/X(q) W(high)/X(q)  e(spline) 
   0      8    10.053   115.676    0.49E-03    0.72E-03    0.18E-06
   0      8    10.053    87.132    0.49E-03    0.71E-03    0.18E-06
   1      7    10.053     4.429    0.32E-03    0.31E-03    0.18E-06
   1      7    10.053     2.733    0.23E-03    0.19E-03    0.20E-06
 Optimization of the real space projectors (new method)

 maximal supplied QI-value         = 24.76
 optimisation between [QCUT,QGAM] = [ 10.15, 20.30] = [ 28.85,115.39] Ry 
 Optimized for a Real-space Cutoff    1.38 Angstroem

   l    n(q)    QCUT    max X(q) W(low)/X(q) W(high)/X(q)  e(spline) 
   0      8    10.150    20.381    0.22E-03    0.32E-03    0.29E-06
   0      8    10.150    15.268    0.23E-03    0.35E-03    0.30E-06
   1      8    10.150     5.964    0.46E-03    0.53E-03    0.21E-06
   1      8    10.150     5.382    0.38E-03    0.45E-03    0.19E-06

 ----------------------------------------------------------------------------- 
|                                                                             |
|  ADVICE TO THIS USER RUNNING 'VASP/VAMP'   (HEAR YOUR MASTER'S VOICE ...):  |
|                                                                             |
|      You enforced a specific xc-type in the INCAR file,                     |
|      a different type was found on the POTCAR file                          |
|          I HOPE YOU KNOW, WHAT YOU ARE  DOING                               |
|                                                                             |
 ----------------------------------------------------------------------------- 

  PAW_PBE Pd 04Jan2005                  :
 energy of atom  1       EATOM= -809.7530
 kinetic energy error for atom=    0.0091 (will be added to EATOM!!)
  PAW_PBE C 08Apr2002                   :
 energy of atom  2       EATOM= -147.1560
 kinetic energy error for atom=    0.0288 (will be added to EATOM!!)
  PAW_PBE O 08Apr2002                   :
 energy of atom  3       EATOM= -432.3788
 kinetic energy error for atom=    0.1156 (will be added to EATOM!!)
 
 
 POSCAR: Pd55PES                                 
  positions in cartesian coordinates
  No initial velocities read in
 exchange correlation table for  LEXCH =        9
   RHO(1)=    0.500       N(1)  =     2000
   RHO(2)=  100.500       N(2)  =     4000
 


--------------------------------------------------------------------------------------------------------


 ion  position               nearest neighbor table
   1  0.446  0.328  0.417-   3 3.25   5 3.25   7 3.36  15 3.36  29 3.42  28 3.42
   2  0.672  0.554  0.417-  26 3.25  30 3.25  17 3.36   9 3.36  47 3.42  49 3.42
   3  0.554  0.328  0.417-   1 3.25   5 3.25   7 3.36  11 3.36  29 3.42  21 3.42
   4  0.328  0.554  0.417-  32 3.25  22 3.25  13 3.36   8 3.36  43 3.42  48 3.42
   5  0.500  0.383  0.340-   1 3.25   3 3.25  11 3.36  15 3.36  21 3.42  28 3.42
   6  0.500  0.383  0.660-  56 1.91  57 2.64  24 3.25  19 3.25  16 3.36  12 3.36  42 3.42  44 3.42

   7  0.500  0.276  0.500-  29 3.24   3 3.36   1 3.36  19 3.36  24 3.36
   8  0.276  0.500  0.500-  48 3.24  22 3.36  40 3.36   4 3.36  25 3.36
   9  0.724  0.500  0.500-  49 3.24  26 3.36  45 3.36   2 3.36  20 3.36
  10  0.500  0.724  0.500-  55 3.24  27 3.36  23 3.36  46 3.36  41 3.36
  11  0.612  0.388  0.342-  21 3.24   5 3.36   3 3.36  30 3.36  26 3.36
  12  0.612  0.388  0.658-  42 3.24  24 3.36  45 3.36   6 3.36  31 3.36
  13  0.388  0.612  0.342-  43 3.24  32 3.36  50 3.36   4 3.36  27 3.36
  14  0.388  0.612  0.658-  53 3.24  25 3.36  33 3.36  51 3.36  46 3.36
  15  0.388  0.388  0.342-  28 3.24   5 3.36   1 3.36  32 3.36  22 3.36
  16  0.388  0.388  0.658-  44 3.24  19 3.36  40 3.36   6 3.36  33 3.36
  17  0.612  0.612  0.342-  47 3.24  30 3.36  50 3.36   2 3.36  23 3.36
  18  0.612  0.612  0.658-  54 3.24  31 3.36  20 3.36  51 3.36  41 3.36
  19  0.446  0.328  0.583-  56 1.87  57 2.60   6 3.25  24 3.25  16 3.36   7 3.36  44 3.42  29 3.42

  20  0.672  0.554  0.583-  31 3.25  45 3.25  18 3.36   9 3.36  54 3.42  49 3.42
  21  0.558  0.442  0.418-  11 3.24   5 3.42   3 3.42  30 3.42  26 3.42
  22  0.328  0.446  0.417-   4 3.25  32 3.25   8 3.36  15 3.36  48 3.42  28 3.42
  23  0.554  0.672  0.417-  27 3.25  50 3.25  10 3.36  17 3.36  55 3.42  47 3.42
  24  0.554  0.328  0.583-  56 2.72   6 3.25  19 3.25  12 3.36   7 3.36  42 3.42  29 3.42
  25  0.328  0.554  0.583-  33 3.25  40 3.25  14 3.36   8 3.36  53 3.42  48 3.42
  26  0.672  0.446  0.417-   2 3.25  30 3.25   9 3.36  11 3.36  49 3.42  21 3.42
  27  0.446  0.672  0.417-  23 3.25  50 3.25  10 3.36  13 3.36  55 3.42  43 3.42
  28  0.442  0.442  0.418-  15 3.24   5 3.42   1 3.42  32 3.42  22 3.42
  29  0.500  0.384  0.500-   7 3.24   3 3.42   1 3.42  24 3.42  19 3.42
  30  0.617  0.500  0.340-   2 3.25  26 3.25  17 3.36  11 3.36  47 3.42  21 3.42
  31  0.617  0.500  0.660-  20 3.25  45 3.25  18 3.36  12 3.36  54 3.42  42 3.42
  32  0.383  0.500  0.340-   4 3.25  22 3.25  13 3.36  15 3.36  43 3.42  28 3.42
  33  0.383  0.500  0.660-  25 3.25  40 3.25  14 3.36  16 3.36  53 3.42  44 3.42
  34  0.383  0.383  0.500-
  35  0.617  0.617  0.500-
  36  0.617  0.383  0.500-
  37  0.383  0.617  0.500-
  38  0.500  0.500  0.335-
  39  0.500  0.500  0.665-
  40  0.328  0.446  0.583-  33 3.25  25 3.25  16 3.36   8 3.36  44 3.42  48 3.42
  41  0.554  0.672  0.583-  46 3.25  51 3.25  10 3.36  18 3.36  54 3.42  55 3.42
  42  0.558  0.442  0.582-  12 3.24   6 3.42  24 3.42  31 3.42  45 3.42
  43  0.442  0.558  0.418-  13 3.24   4 3.42  32 3.42  27 3.42  50 3.42
  44  0.442  0.442  0.582-  16 3.24   6 3.42  19 3.42  33 3.42  40 3.42
  45  0.672  0.446  0.583-  20 3.25  31 3.25   9 3.36  12 3.36  49 3.42  42 3.42
  46  0.446  0.672  0.583-  41 3.25  51 3.25  10 3.36  14 3.36  53 3.42  55 3.42
  47  0.558  0.558  0.418-  17 3.24   2 3.42  30 3.42  23 3.42  50 3.42
  48  0.384  0.500  0.500-   8 3.24   4 3.42  22 3.42  25 3.42  40 3.42
  49  0.616  0.500  0.500-   9 3.24   2 3.42  26 3.42  20 3.42  45 3.42
  50  0.500  0.617  0.340-  27 3.25  23 3.25  13 3.36  17 3.36  43 3.42  47 3.42
  51  0.500  0.617  0.660-  41 3.25  46 3.25  14 3.36  18 3.36  53 3.42  54 3.42
  52  0.500  0.500  0.500-
  53  0.442  0.558  0.582-  14 3.24  25 3.42  33 3.42  51 3.42  46 3.42
  54  0.558  0.558  0.582-  18 3.24  31 3.42  20 3.42  51 3.42  41 3.42
  55  0.500  0.616  0.500-  10 3.24  23 3.42  27 3.42  41 3.42  46 3.42
  56  0.480  0.327  0.635-  57 1.13  19 1.87   6 1.91  24 2.72
  57  0.477  0.298  0.658-  56 1.13  19 2.60   6 2.64
 
  LATTYP: Found a simple cubic cell.
 ALAT       =    30.0000000000
  
  Lattice vectors:
  
 A1 = (  30.0000000000,   0.0000000000,   0.0000000000)
 A2 = (   0.0000000000,  30.0000000000,   0.0000000000)
 A3 = (   0.0000000000,   0.0000000000,  30.0000000000)


Analysis of symmetry for initial positions (statically):
=====================================================================
 Subroutine PRICEL returns:
 Original cell was already a primitive cell.
 

 Routine SETGRP: Setting up the symmetry group for a 
 simple cubic supercell.


 Subroutine GETGRP returns: Found  1 space group operations
 (whereof  1 operations were pure point group operations)
 out of a pool of 48 trial point group operations.


The static configuration has the point symmetry C_1 .


Analysis of symmetry for dynamics (positions and initial velocities):
=====================================================================
 Subroutine PRICEL returns:
 Original cell was already a primitive cell.
 

 Routine SETGRP: Setting up the symmetry group for a 
 simple cubic supercell.


 Subroutine GETGRP returns: Found  1 space group operations
 (whereof  1 operations were pure point group operations)
 out of a pool of 48 trial point group operations.


The dynamic configuration has the point symmetry C_1 .


Analysis of constrained symmetry for selective dynamics:
=====================================================================
 Subroutine PRICEL returns:
 Original cell was already a primitive cell.
 

 Routine SETGRP: Setting up the symmetry group for a 
 simple cubic supercell.


 Subroutine GETGRP returns: Found  1 space group operations
 (whereof  1 operations were pure point group operations)
 out of a pool of 48 trial point group operations.


The constrained configuration has the point symmetry C_1 .


 Subroutine INISYM returns: Found  1 space group operations
 (whereof  1 operations are pure point group operations),
 and found     1 'primitive' translations

 
 
 KPOINTS: K-points                                

Automatic generation of k-mesh.
Space group operators:
 irot       det(A)        alpha          n_x          n_y          n_z        tau_x        tau_y        tau_z
    1     1.000000     0.000000     1.000000     0.000000     0.000000     0.000000     0.000000     0.000000
 
 Subroutine IBZKPT returns following result:
 ===========================================
 
 Found      1 irreducible k-points:
 
 Following reciprocal coordinates:
            Coordinates               Weight
  0.000000  0.000000  0.000000      1.000000
 
 Following cartesian coordinates:
            Coordinates               Weight
  0.000000  0.000000  0.000000      1.000000
 


--------------------------------------------------------------------------------------------------------




 Dimension of arrays:
   k-points           NKPTS =      1   k-points in BZ     NKDIM =      1   number of bands    NBANDS=    336
   number of dos      NEDOS =    301   number of ions     NIONS =     57
   non local maximal  LDIM  =      6   non local SUM 2l+1 LMDIM =     18
   total plane-waves  NPLWV = ******
   max r-space proj   IRMAX =   1847   max aug-charges    IRDMAX=   6262
   dimension x,y,z NGX =   150 NGY =  150 NGZ =  150
   dimension x,y,z NGXF=   300 NGYF=  300 NGZF=  300
   support grid    NGXF=   300 NGYF=  300 NGZF=  300
   ions per type =              55   1   1
   NGX,Y,Z   is equivalent  to a cutoff of   8.31,  8.31,  8.31 a.u.
   NGXF,Y,Z  is equivalent  to a cutoff of  16.62, 16.62, 16.62 a.u.

 SYSTEM =  6_Pd100_top_free_z(O)                   
 POSCAR =  Pd55PES                                 

 Startparameter for this run:
   NWRITE =      2    write-flag & timer
   PREC   = normal    normal or accurate (medium, high low for compatibility)
   ISTART =      0    job   : 0-new  1-cont  2-samecut
   ICHARG =      2    charge: 1-file 2-atom 10-const
   ISPIN  =      1    spin polarized calculation?
   LNONCOLLINEAR =      F non collinear calculations
   LSORBIT =      F    spin-orbit coupling
   INIWAV =      1    electr: 0-lowe 1-rand  2-diag
   LASPH  =      F    aspherical Exc in radial PAW
   METAGGA=      F    non-selfconsistent MetaGGA calc.

 Electronic Relaxation 1
   ENCUT  =  400.0 eV  29.40 Ry    5.42 a.u.  48.92 48.92 48.92*2*pi/ulx,y,z
   ENINI  =  400.0     initial cutoff
   ENAUG  =  644.9 eV  augmentation charge cutoff
   NELM   =    100;   NELMIN=  6; NELMDL= -5     # of ELM steps 
   EDIFF  = 0.1E-03   stopping-criterion for ELM
   LREAL  =      T    real-space projection
   NLSPLINE    = F    spline interpolate recip. space projectors
   LCOMPAT=      F    compatible to vasp.4.4
   GGA_COMPAT  = T    GGA compatible to vasp.4.4-vasp.4.6
   LMAXPAW     = -100 max onsite density
   LMAXMIX     =    2 max onsite mixed and CHGCAR
   VOSKOWN=      0    Vosko Wilk Nusair interpolation
   ROPT   =   -0.00050  -0.00050  -0.00050
 Ionic relaxation
   EDIFFG = -.5E-01   stopping-criterion for IOM
   NSW    =      0    number of steps for IOM
   NBLOCK =      1;   KBLOCK =      1    inner block; outer block 
   IBRION =     -1    ionic relax: 0-MD 1-quasi-New 2-CG
   NFREE  =      1    steps in history (QN), initial steepest desc. (CG)
   ISIF   =      2    stress and relaxation
   IWAVPR =     10    prediction:  0-non 1-charg 2-wave 3-comb
   ISYM   =      2    0-nonsym 1-usesym 2-fastsym
   LCORR  =      T    Harris-Foulkes like correction to forces

   POTIM  = 0.5000    time-step for ionic-motion
   TEIN   =    0.0    initial temperature
   TEBEG  =    0.0;   TEEND  =   0.0 temperature during run
   SMASS  =  -3.00    Nose mass-parameter (am)
   estimated Nose-frequenzy (Omega)   =  0.10E-29 period in steps =****** mass=  -0.206E-25a.u.
   SCALEE = 1.0000    scale energy and forces
   NPACO  =    256;   APACO  = 16.0  distance and # of slots for P.C.
   PSTRESS=    0.0 pullay stress

  Mass of Ions in am
   POMASS = 106.42 12.01 16.00
  Ionic Valenz
   ZVAL   =  10.00  4.00  6.00
  Atomic Wigner-Seitz radii
   RWIGS  =  -1.00 -1.00 -1.00
  virtual crystal weights 
   VCA    =   1.00  1.00  1.00
   NELECT =     560.0000    total number of electrons
   NUPDOWN=      -1.0000    fix difference up-down

 DOS related values:
   EMIN   =  10.00;   EMAX   =-10.00  energy-range for DOS
   EFERMI =   0.00
   ISMEAR =     2;   SIGMA  =   0.20  broadening in eV -4-tet -1-fermi 0-gaus

 Electronic relaxation 2 (details)
   IALGO  =     68    algorithm
   LDIAG  =      T    sub-space diagonalisation (order eigenvalues)
   LSUBROT=      F    optimize rotation matrix (better conditioning)
   TURBO    =      0    0=normal 1=particle mesh
   IRESTART =      0    0=no restart 2=restart with 2 vectors
   NREBOOT  =      0    no. of reboots
   NMIN     =      0    reboot dimension
   EREF     =   0.00    reference energy to select bands
   IMIX   =      4    mixing-type and parameters
     AMIX     =   0.40;   BMIX     =  1.00
     AMIX_MAG =   1.60;   BMIX_MAG =  1.00
     AMIN     =   0.10
     WC   =   100.;   INIMIX=   1;  MIXPRE=   1;  MAXMIX= -45

 Intra band minimization:
   WEIMIN = 0.0000     energy-eigenvalue tresh-hold
   EBREAK =  0.74E-07  absolut break condition
   DEPER  =   0.30     relativ break condition  

   TIME   =   0.40     timestep for ELM

  volume/ion in A,a.u.               =     473.68      3196.58
  Fermi-wavevector in a.u.,A,eV,Ry     =   0.449797  0.849992  2.752691  0.202317
  Thomas-Fermi vector in A             =   1.430086
 
 Write flags
   LWAVE        =      F    write WAVECAR
   LDOWNSAMPLE  =      F    k-point downsampling of WAVECAR
   LCHARG       =      F    write CHGCAR
   LVTOT        =      F    write LOCPOT, total local potential
   LVHAR        =      F    write LOCPOT, Hartree potential only
   LELF         =      F    write electronic localiz. function (ELF)
   LORBIT       =      0    0 simple, 1 ext, 2 COOP (PROOUT), +10 PAW based schemes


 Dipole corrections
   LMONO  =      F    monopole corrections only (constant potential shift)
   LDIPOL =      F    correct potential (dipole corrections)
   IDIPOL =      0    1-x, 2-y, 3-z, 4-all directions 
   EPSILON=  1.0000000 bulk dielectric constant

 Exchange correlation treatment:
   GGA     =    RP    GGA type
   LEXCH   =     9    internal setting for exchange type
   VOSKOWN=      0    Vosko Wilk Nusair interpolation
   LHFCALC =     F    Hartree Fock is set to
   LHFONE  =     F    Hartree Fock one center treatment
   AEXX    =    0.0000 exact exchange contribution

 Linear response parameters
   LEPSILON=     F    determine dielectric tensor
   LRPA    =     F    only Hartree local field effects (RPA)
   LNABLA  =     F    use nabla operator in PAW spheres
   LVEL    =     F    velocity operator in full k-point grid
   LINTERFAST=   F  fast interpolation
   KINTER  =     0    interpolate to denser k-point grid
   CSHIFT  =0.1000    complex shift for real part using Kramers Kronig
   OMEGAMAX=  -1.0    maximum frequency
   DEG_THRESHOLD= 0.2000000E-02 threshold for treating states as degnerate
   RTIME   =   -0.100 relaxation time in fs
  (WPLASMAI=    0.000 imaginary part of plasma frequency in eV, 0.658/RTIME)
   DFIELD  = 0.0000000 0.0000000 0.0000000 field for delta impulse in time
 
 Orbital magnetization related:
   ORBITALMAG=     F  switch on orbital magnetization
   LCHIMAG   =     F  perturbation theory with respect to B field
   DQ        =  0.001000  dq finite difference perturbation B field
   LLRAUG    =     F  two centre corrections for induced B field



--------------------------------------------------------------------------------------------------------


 Static calculation
 charge density and potential will be updated during run
 non-spin polarized calculation
 RMM-DIIS sequential band-by-band and
  variant of blocked Davidson during initial phase
 perform sub-space diagonalisation
    before iterative eigenvector-optimisation
 modified Broyden-mixing scheme, WC =      100.0
 initial mixing is a Kerker type mixing with AMIX =  0.4000 and BMIX =      1.0000
 Hartree-type preconditioning will be used
 using additional bands           56
 real space projection scheme for non local part
 use partial core corrections
 calculate Harris-corrections to forces 
   (improved forces if not selfconsistent)
 use gradient corrections 
 use of overlap-Matrix (Vanderbilt PP)
 Methfessel and Paxton  Order N= 2 SIGMA  =   0.20


--------------------------------------------------------------------------------------------------------


  energy-cutoff  :      400.00
  volume of cell :    27000.00
      direct lattice vectors                 reciprocal lattice vectors
    30.000000000  0.000000000  0.000000000     0.033333333  0.000000000  0.000000000
     0.000000000 30.000000000  0.000000000     0.000000000  0.033333333  0.000000000
     0.000000000  0.000000000 30.000000000     0.000000000  0.000000000  0.033333333

  length of vectors
    30.000000000 30.000000000 30.000000000     0.033333333  0.033333333  0.033333333


 
 k-points in units of 2pi/SCALE and weight: K-points                                
   0.00000000  0.00000000  0.00000000       1.000
 
 k-points in reciprocal lattice and weights: K-points                                
   0.00000000  0.00000000  0.00000000       1.000
 
 position of ions in fractional coordinates (direct lattice) 
   0.44576020  0.32826710  0.41691983
   0.67173288  0.55423978  0.41691983
   0.55423980  0.32826710  0.41691983
   0.32826712  0.55423978  0.41691983
   0.50000000  0.38250690  0.34021317
   0.50000000  0.38250690  0.65978680
   0.50000000  0.27609440  0.50000000
   0.27609443  0.49999998  0.50000000
   0.72390557  0.49999998  0.50000000
   0.50000000  0.72390555  0.50000000
   0.61195280  0.38804720  0.34167483
   0.61195280  0.38804720  0.65832513
   0.38804722  0.61195278  0.34167483
   0.38804722  0.61195278  0.65832513
   0.38804720  0.38804720  0.34167483
   0.38804720  0.38804720  0.65832513
   0.61195278  0.61195278  0.34167483
   0.61195278  0.61195278  0.65832513
   0.44576020  0.32826710  0.58308023
   0.67173288  0.55423978  0.58308023
   0.55791699  0.44208301  0.41809300
   0.32826705  0.44576024  0.41691983
   0.55423973  0.67173293  0.41691983
   0.55423980  0.32826710  0.58308023
   0.32826712  0.55423978  0.58308023
   0.67173295  0.44576024  0.41691983
   0.44576027  0.67173293  0.41691983
   0.44208301  0.44208301  0.41809300
   0.50000000  0.38416601  0.50000000
   0.61749315  0.50000005  0.34021317
   0.61749315  0.50000005  0.65978680
   0.38250685  0.50000005  0.34021317
   0.38250685  0.50000005  0.65978680
   0.38317830  0.38317830  0.50000000
   0.61682172  0.61682172  0.50000000
   0.61682170  0.38317830  0.50000000
   0.38317828  0.61682172  0.50000000
   0.50000000  0.50000000  0.33478917
   0.50000000  0.50000000  0.66521087
   0.32826705  0.44576024  0.58308023
   0.55423973  0.67173293  0.58308023
   0.55791699  0.44208301  0.58190703
   0.44208298  0.55791702  0.41809300
   0.44208301  0.44208301  0.58190703
   0.67173295  0.44576024  0.58308023
   0.44576027  0.67173293  0.58308023
   0.55791702  0.55791702  0.41809300
   0.38416599  0.50000002  0.50000000
   0.61583401  0.50000002  0.50000000
   0.50000000  0.61749319  0.34021317
   0.50000000  0.61749319  0.65978680
   0.50000000  0.50000000  0.50000000
   0.44208298  0.55791702  0.58190703
   0.55791702  0.55791702  0.58190703
   0.50000000  0.61583404  0.50000000
   0.48009580  0.32723607  0.63497167
   0.47669613  0.29772770  0.65802503
 
 position of ions in cartesian coordinates  (Angst):
  13.37280588  9.84801292 12.50759500
  20.15198637 16.62719342 12.50759500
  16.62719412  9.84801292 12.50759500
   9.84801363 16.62719342 12.50759500
  15.00000000 11.47520705 10.20639500
  15.00000000 11.47520705 19.79360400
  15.00000000  8.28283206 15.00000000
   8.28283277 14.99999929 15.00000000
  21.71716723 14.99999929 15.00000000
  15.00000000 21.71716652 14.99999999
  18.35858397 11.64141603 10.25024500
  18.35858397 11.64141603 19.74975399
  11.64141674 18.35858326 10.25024500
  11.64141674 18.35858326 19.74975400
  11.64141603 11.64141603 10.25024500
  11.64141603 11.64141603 19.74975400
  18.35858326 18.35858326 10.25024500
  18.35858326 18.35858326 19.74975400
  13.37280588  9.84801291 17.49240700
  20.15198638 16.62719341 17.49240700
  16.73750985 13.26249015 12.54279000
   9.84801151 13.37280729 12.50759500
  16.62719200 20.15198779 12.50759500
  16.62719412  9.84801292 17.49240700
   9.84801363 16.62719342 17.49240700
  20.15198849 13.37280729 12.50759500
  13.37280800 20.15198779 12.50759500
  13.26249015 13.26249015 12.54279000
  15.00000000 11.52498029 15.00000000
  18.52479437 15.00000140 10.20639500
  18.52479437 15.00000141 19.79360400
  11.47520562 15.00000141 10.20639501
  11.47520563 15.00000141 19.79360400
  11.49534898 11.49534898 15.00000000
  18.50465172 18.50465172 15.00000000
  18.50465102 11.49534898 15.00000000
  11.49534828 18.50465172 15.00000000
  15.00000000 15.00000000 10.04367500
  15.00000000 15.00000000 19.95632599
   9.84801151 13.37280729 17.49240700
  16.62719200 20.15198779 17.49240700
  16.73750985 13.26249015 17.45721100
  13.26248944 16.73751056 12.54279001
  13.26249015 13.26249015 17.45721100
  20.15198849 13.37280729 17.49240699
  13.37280800 20.15198779 17.49240700
  16.73751056 16.73751056 12.54279000
  11.52497959 15.00000071 15.00000000
  18.47502041 15.00000071 15.00000000
  14.99999999 18.52479579 10.20639500
  15.00000000 18.52479578 19.79360400
  15.00000000 15.00000000 15.00000000
  13.26248944 16.73751057 17.45721101
  16.73751056 16.73751057 17.45721100
  15.00000000 18.47502112 15.00000000
  14.40287400  9.81708200 19.04915000
  14.30088400  8.93183100 19.74075100
 


--------------------------------------------------------------------------------------------------------


 k-point  1 :   0.0000 0.0000 0.0000  plane waves:  490521

 maximum and minimum number of plane-waves per node :    490521   490521

 maximum number of plane-waves:    490521
 maximum index in each direction: 
   IXMAX=   48   IYMAX=   48   IZMAX=   48
   IXMIN=  -48   IYMIN=  -48   IZMIN=  -48


 serial   3D FFT for wavefunctions
 parallel 3D FFT for charge:
    minimum data exchange during FFTs selected (reduces bandwidth)


 total amount of memory used by VASP MPI-rank0  5486942. kBytes
=======================================================================

   base      :      30000. kBytes
   nonlr-proj:      17127. kBytes
   fftplans  :     924480. kBytes
   grid      :    1872000. kBytes
   one-center:        886. kBytes
   wavefun   :    2642449. kBytes
 
     INWAV:  cpu time    0.0001: real time    0.0004
 Broyden mixing: mesh for mixing (old mesh)
   NGX = 97   NGY = 97   NGZ = 97
  (NGX  =300   NGY  =300   NGZ  =300)
  gives a total of 912673 points

 initial charge density was supplied:
 charge density of overlapping atoms calculated
 number of electron     560.0000000 magnetization 
 keeping initial charge density in first step


--------------------------------------------------------------------------------------------------------


 Maximum index for non-local projection operator         1763
 Maximum index for augmentation-charges         5898 (set IRDMAX)


--------------------------------------------------------------------------------------------------------


 First call to EWALD:  gamma=   0.059
 Maximum number of real-space cells 3x 3x 3
 Maximum number of reciprocal cells 3x 3x 3

    FEWALD:  cpu time    0.0149: real time    0.0149


--------------------------------------- Iteration      1(   1)  ---------------------------------------


    POTLOK:  cpu time   14.3782: real time   14.3818
    SETDIJ:  cpu time    0.1166: real time    0.1166
     EDDAV:  cpu time  367.3353: real time  367.4511
       DOS:  cpu time    0.0014: real time    0.0014
    --------------------------------------------
      LOOP:  cpu time  381.8315: real time  381.9509

 eigenvalue-minimisations  :   688
 total energy-change (2. order) : 0.4400281E+04  (-0.1005645E+05)
 number of electron     560.0000000 magnetization 
 augmentation part      560.0000000 magnetization 

 Free energy of the ion-electron system (eV)
  ---------------------------------------------------
  alpha Z        PSCENC =        75.25431677
  Ewald energy   TEWEN  =    139307.03660202
  -Hartree energ DENC   =   -182654.66933044
  -exchange      EXHF   =         0.00000000
  -V(xc)+E(xc)   XCENC  =     -1701.51546408
  PAW double counting   =     44873.02882129   -41398.84523641
  entropy T*S    EENTRO =        -0.00948089
  eigenvalues    EBANDS =       813.49494602
  atomic energy  EATOM  =     45086.50549395
  Solvation  Ediel_sol  =         0.00000000
  ---------------------------------------------------
  free energy    TOTEN  =      4400.28066824 eV

  energy without entropy =     4400.29014913  energy(sigma->0) =     4400.28303846


--------------------------------------------------------------------------------------------------------




--------------------------------------- Iteration      1(   2)  ---------------------------------------


     EDDAV:  cpu time  589.2841: real time  589.3426
       DOS:  cpu time    0.0013: real time    0.0013
    --------------------------------------------
      LOOP:  cpu time  589.2854: real time  589.3439

 eigenvalue-minimisations  :  1224
 total energy-change (2. order) :-0.2389702E+04  (-0.2151197E+04)
 number of electron     560.0000000 magnetization 
 augmentation part      560.0000000 magnetization 

 Free energy of the ion-electron system (eV)
  ---------------------------------------------------
  alpha Z        PSCENC =        75.25431677
  Ewald energy   TEWEN  =    139307.03660202
  -Hartree energ DENC   =   -182654.66933044
  -exchange      EXHF   =         0.00000000
  -V(xc)+E(xc)   XCENC  =     -1701.51546408
  PAW double counting   =     44873.02882129   -41398.84523641
  entropy T*S    EENTRO =        -0.04839897
  eigenvalues    EBANDS =     -1576.16810707
  atomic energy  EATOM  =     45086.50549395
  Solvation  Ediel_sol  =         0.00000000
  ---------------------------------------------------
  free energy    TOTEN  =      2010.57869707 eV

  energy without entropy =     2010.62709604  energy(sigma->0) =     2010.59079681


--------------------------------------------------------------------------------------------------------




--------------------------------------- Iteration      1(   3)  ---------------------------------------


     EDDAV:  cpu time  500.7770: real time  500.7962
       DOS:  cpu time    0.0013: real time    0.0013
    --------------------------------------------
      LOOP:  cpu time  500.7783: real time  500.7975

 eigenvalue-minimisations  :  1000
 total energy-change (2. order) :-0.1776583E+04  (-0.1672476E+04)
 number of electron     560.0000000 magnetization 
 augmentation part      560.0000000 magnetization 

 Free energy of the ion-electron system (eV)
  ---------------------------------------------------
  alpha Z        PSCENC =        75.25431677
  Ewald energy   TEWEN  =    139307.03660202
  -Hartree energ DENC   =   -182654.66933044
  -exchange      EXHF   =         0.00000000
  -V(xc)+E(xc)   XCENC  =     -1701.51546408
  PAW double counting   =     44873.02882129   -41398.84523641
  entropy T*S    EENTRO =        -0.00842127
  eigenvalues    EBANDS =     -3352.79059551
  atomic energy  EATOM  =     45086.50549395
  Solvation  Ediel_sol  =         0.00000000
  ---------------------------------------------------
  free energy    TOTEN  =       233.99618632 eV

  energy without entropy =      234.00460760  energy(sigma->0) =      233.99829164


--------------------------------------------------------------------------------------------------------




--------------------------------------- Iteration      1(   4)  ---------------------------------------


     EDDAV:  cpu time  431.7744: real time  431.7847
       DOS:  cpu time    0.0013: real time    0.0013
    --------------------------------------------
      LOOP:  cpu time  431.7757: real time  431.7860

 eigenvalue-minimisations  :   848
 total energy-change (2. order) :-0.3690749E+03  (-0.3158835E+03)
 number of electron     560.0000000 magnetization 
 augmentation part      560.0000000 magnetization 

 Free energy of the ion-electron system (eV)
  ---------------------------------------------------
  alpha Z        PSCENC =        75.25431677
  Ewald energy   TEWEN  =    139307.03660202
  -Hartree energ DENC   =   -182654.66933044
  -exchange      EXHF   =         0.00000000
  -V(xc)+E(xc)   XCENC  =     -1701.51546408
  PAW double counting   =     44873.02882129   -41398.84523641
  entropy T*S    EENTRO =        -0.05984001
  eigenvalues    EBANDS =     -3721.81407136
  atomic energy  EATOM  =     45086.50549395
  Solvation  Ediel_sol  =         0.00000000
  ---------------------------------------------------
  free energy    TOTEN  =      -135.07870826 eV

  energy without entropy =     -135.01886825  energy(sigma->0) =     -135.06374826


--------------------------------------------------------------------------------------------------------




--------------------------------------- Iteration      1(   5)  ---------------------------------------


     EDDAV:  cpu time  516.6511: real time  516.6548
       DOS:  cpu time    0.0015: real time    0.0015
    CHARGE:  cpu time   25.0344: real time   25.0341
    MIXING:  cpu time    0.4340: real time    0.4340
    --------------------------------------------
      LOOP:  cpu time  542.1211: real time  542.1245

 eigenvalue-minimisations  :  1040
 total energy-change (2. order) :-0.4636169E+02  (-0.3875488E+02)
 number of electron     559.9999852 magnetization 
 augmentation part      244.9659637 magnetization 

 Broyden mixing:
  rms(total) = 0.17727E+01    rms(broyden)= 0.17718E+01
  rms(prec ) = 0.18775E+01
  weight for this iteration     100.00

 Free energy of the ion-electron system (eV)
  ---------------------------------------------------
  alpha Z        PSCENC =        75.25431677
  Ewald energy   TEWEN  =    139307.03660202
  -Hartree energ DENC   =   -182654.66933044
  -exchange      EXHF   =         0.00000000
  -V(xc)+E(xc)   XCENC  =     -1701.51546408
  PAW double counting   =     44873.02882129   -41398.84523641
  entropy T*S    EENTRO =         0.49768418
  eigenvalues    EBANDS =     -3768.73328231
  atomic energy  EATOM  =     45086.50549395
  Solvation  Ediel_sol  =         0.00000000
  ---------------------------------------------------
  free energy    TOTEN  =      -181.44039503 eV

  energy without entropy =     -181.93807921  energy(sigma->0) =     -181.56481607


--------------------------------------------------------------------------------------------------------




--------------------------------------- Iteration      1(   6)  ---------------------------------------


    POTLOK:  cpu time   13.0735: real time   13.0758
    SETDIJ:  cpu time    0.1226: real time    0.1226
    EDDIAG:  cpu time   68.6847: real time   68.6877
  RMM-DIIS:  cpu time  191.4563: real time  191.4571
    ORTHCH:  cpu time   13.5425: real time   13.5425
       DOS:  cpu time    0.0016: real time    0.0016
    CHARGE:  cpu time   25.3082: real time   25.3083
    MIXING:  cpu time    0.4700: real time    0.4700
    --------------------------------------------
      LOOP:  cpu time  312.6593: real time  312.6657

 eigenvalue-minimisations  :   727
 total energy-change (2. order) : 0.7448624E+00  (-0.6882551E+01)
 number of electron     559.9999859 magnetization 
 augmentation part      240.5201622 magnetization 

 Broyden mixing:
  rms(total) = 0.25293E+01    rms(broyden)= 0.25291E+01
  rms(prec ) = 0.29027E+01
  weight for this iteration     100.00

 eigenvalues of (default mixing * dielectric matrix)
  average eigenvalue GAMMA=   0.3535
  0.3535

 Free energy of the ion-electron system (eV)
  ---------------------------------------------------
  alpha Z        PSCENC =        75.25431677
  Ewald energy   TEWEN  =    139307.03660202
  -Hartree energ DENC   =   -183060.61157627
  -exchange      EXHF   =         0.00000000
  -V(xc)+E(xc)   XCENC  =     -1694.95859356
  PAW double counting   =     45710.79781503   -42210.75324581
  entropy T*S    EENTRO =        -0.21521918
  eigenvalues    EBANDS =     -3393.75112559
  atomic energy  EATOM  =     45086.50549395
  Solvation  Ediel_sol  =         0.00000000
  ---------------------------------------------------
  free energy    TOTEN  =      -180.69553262 eV

  energy without entropy =     -180.48031345  energy(sigma->0) =     -180.64172783


--------------------------------------------------------------------------------------------------------




--------------------------------------- Iteration      1(   7)  ---------------------------------------


    POTLOK:  cpu time   13.4704: real time   13.4713
    SETDIJ:  cpu time    0.1180: real time    0.1180
    EDDIAG:  cpu time   68.5327: real time   68.5341
  RMM-DIIS:  cpu time  227.3419: real time  227.3459
    ORTHCH:  cpu time   13.2857: real time   13.2859
       DOS:  cpu time    0.0016: real time    0.0016
    CHARGE:  cpu time   25.3788: real time   25.3791
    MIXING:  cpu time    0.4670: real time    0.4671
    --------------------------------------------
      LOOP:  cpu time  348.5961: real time  348.6029

 eigenvalue-minimisations  :   869
 total energy-change (2. order) :-0.3785413E+01  (-0.2381781E+01)
 number of electron     559.9999834 magnetization 
 augmentation part      240.1043124 magnetization 

 Broyden mixing:
  rms(total) = 0.22993E+01    rms(broyden)= 0.22991E+01
  rms(prec ) = 0.28055E+01
  weight for this iteration     100.00

 eigenvalues of (default mixing * dielectric matrix)
  average eigenvalue GAMMA=   0.3551
  0.5334  0.1769

 Free energy of the ion-electron system (eV)
  ---------------------------------------------------
  alpha Z        PSCENC =        75.25431677
  Ewald energy   TEWEN  =    139307.03660202
  -Hartree energ DENC   =   -183149.40632778
  -exchange      EXHF   =         0.00000000
  -V(xc)+E(xc)   XCENC  =     -1695.26021865
  PAW double counting   =     45800.11476724   -42297.52566718
  entropy T*S    EENTRO =        -0.20550160
  eigenvalues    EBANDS =     -3310.99441015
  atomic energy  EATOM  =     45086.50549395
  Solvation  Ediel_sol  =         0.00000000
  ---------------------------------------------------
  free energy    TOTEN  =      -184.48094537 eV

  energy without entropy =     -184.27544377  energy(sigma->0) =     -184.42956997


--------------------------------------------------------------------------------------------------------




--------------------------------------- Iteration      1(   8)  ---------------------------------------


    POTLOK:  cpu time   13.0233: real time   13.0242
    SETDIJ:  cpu time    0.1232: real time    0.1233
    EDDIAG:  cpu time   67.6066: real time   67.6090
  RMM-DIIS:  cpu time  203.0097: real time  203.0137
    ORTHCH:  cpu time   13.3976: real time   13.3975
       DOS:  cpu time    0.0017: real time    0.0017
    CHARGE:  cpu time   25.4717: real time   25.4714
    MIXING:  cpu time    0.5124: real time    0.5124
    --------------------------------------------
      LOOP:  cpu time  323.1462: real time  323.1532

 eigenvalue-minimisations  :   767
 total energy-change (2. order) :-0.2808869E+01  (-0.8631985E+00)
 number of electron     559.9999839 magnetization 
 augmentation part      239.7818318 magnetization 

 Broyden mixing:
  rms(total) = 0.28486E+01    rms(broyden)= 0.28483E+01
  rms(prec ) = 0.33370E+01
  weight for this iteration     100.00

 eigenvalues of (default mixing * dielectric matrix)
  average eigenvalue GAMMA=   0.3347
  0.6909  0.1623  0.1511

 Free energy of the ion-electron system (eV)
  ---------------------------------------------------
  alpha Z        PSCENC =        75.25431677
  Ewald energy   TEWEN  =    139307.03660202
  -Hartree energ DENC   =   -183189.91698535
  -exchange      EXHF   =         0.00000000
  -V(xc)+E(xc)   XCENC  =     -1695.40790362
  PAW double counting   =     45883.76644825   -42378.79604413
  entropy T*S    EENTRO =        -0.14591159
  eigenvalues    EBANDS =     -3275.58583114
  atomic energy  EATOM  =     45086.50549395
  Solvation  Ediel_sol  =         0.00000000
  ---------------------------------------------------
  free energy    TOTEN  =      -187.28981484 eV

  energy without entropy =     -187.14390324  energy(sigma->0) =     -187.25333694


--------------------------------------------------------------------------------------------------------




--------------------------------------- Iteration      1(   9)  ---------------------------------------


    POTLOK:  cpu time   13.7799: real time   13.7829
    SETDIJ:  cpu time    0.1224: real time    0.1224
    EDDIAG:  cpu time   69.6049: real time   69.6046
  RMM-DIIS:  cpu time  190.6138: real time  190.6208
    ORTHCH:  cpu time   13.9479: real time   13.9478
       DOS:  cpu time    0.0016: real time    0.0016
    CHARGE:  cpu time   26.3833: real time   26.3831
    MIXING:  cpu time    0.5673: real time    0.5674
    --------------------------------------------
      LOOP:  cpu time  315.0212: real time  315.0306

 eigenvalue-minimisations  :   725
 total energy-change (2. order) : 0.3859451E+01  (-0.7236271E+00)
 number of electron     559.9999860 magnetization 
 augmentation part      241.0790900 magnetization 

 Broyden mixing:
  rms(total) = 0.24330E+01    rms(broyden)= 0.24326E+01
  rms(prec ) = 0.27747E+01
  weight for this iteration     100.00

 eigenvalues of (default mixing * dielectric matrix)
  average eigenvalue GAMMA=   0.3143
  0.7772  0.1782  0.1782  0.1238

 Free energy of the ion-electron system (eV)
  ---------------------------------------------------
  alpha Z        PSCENC =        75.25431677
  Ewald energy   TEWEN  =    139307.03660202
  -Hartree energ DENC   =   -183195.00354508
  -exchange      EXHF   =         0.00000000
  -V(xc)+E(xc)   XCENC  =     -1695.47792503
  PAW double counting   =     45956.95049266   -42450.08673791
  entropy T*S    EENTRO =        -0.05073224
  eigenvalues    EBANDS =     -3268.55832885
  atomic energy  EATOM  =     45086.50549395
  Solvation  Ediel_sol  =         0.00000000
  ---------------------------------------------------
  free energy    TOTEN  =      -183.43036370 eV

  energy without entropy =     -183.37963146  energy(sigma->0) =     -183.41768064


--------------------------------------------------------------------------------------------------------




--------------------------------------- Iteration      1(  10)  ---------------------------------------


    POTLOK:  cpu time   13.8015: real time   13.8043
    SETDIJ:  cpu time    0.1290: real time    0.1290
    EDDIAG:  cpu time   70.3697: real time   70.3699
  RMM-DIIS:  cpu time  190.5387: real time  190.5397
    ORTHCH:  cpu time   13.7058: real time   13.7057
       DOS:  cpu time    0.0016: real time    0.0016
    CHARGE:  cpu time   26.0266: real time   26.0264
    MIXING:  cpu time    0.6242: real time    0.6242
    --------------------------------------------
      LOOP:  cpu time  315.1972: real time  315.2009

 eigenvalue-minimisations  :   728
 total energy-change (2. order) : 0.2944360E+01  (-0.3968107E+00)
 number of electron     559.9999833 magnetization 
 augmentation part      241.6684895 magnetization 

 Broyden mixing:
  rms(total) = 0.22536E+01    rms(broyden)= 0.22533E+01
  rms(prec ) = 0.26228E+01
  weight for this iteration     100.00

 eigenvalues of (default mixing * dielectric matrix)
  average eigenvalue GAMMA=   0.2972
  0.8584  0.1814  0.1814  0.1719  0.0928

 Free energy of the ion-electron system (eV)
  ---------------------------------------------------
  alpha Z        PSCENC =        75.25431677
  Ewald energy   TEWEN  =    139307.03660202
  -Hartree energ DENC   =   -183225.89850857
  -exchange      EXHF   =         0.00000000
  -V(xc)+E(xc)   XCENC  =     -1695.35181260
  PAW double counting   =     46010.22740209   -42501.82117935
  entropy T*S    EENTRO =        -0.02814911
  eigenvalues    EBANDS =     -3236.41016941
  atomic energy  EATOM  =     45086.50549395
  Solvation  Ediel_sol  =         0.00000000
  ---------------------------------------------------
  free energy    TOTEN  =      -180.48600420 eV

  energy without entropy =     -180.45785508  energy(sigma->0) =     -180.47896692


--------------------------------------------------------------------------------------------------------




--------------------------------------- Iteration      1(  11)  ---------------------------------------


    POTLOK:  cpu time   13.9457: real time   13.9479
    SETDIJ:  cpu time    0.1230: real time    0.1229
    EDDIAG:  cpu time   68.4839: real time   68.4856
  RMM-DIIS:  cpu time  190.9647: real time  190.9646
    ORTHCH:  cpu time   13.7071: real time   13.7070
       DOS:  cpu time    0.0016: real time    0.0016
    CHARGE:  cpu time   25.3587: real time   25.3584
    MIXING:  cpu time    0.6105: real time    0.6105
    --------------------------------------------
      LOOP:  cpu time  313.1953: real time  313.1986

 eigenvalue-minimisations  :   726
 total energy-change (2. order) : 0.1704340E+01  (-0.2825400E+00)
 number of electron     559.9999868 magnetization 
 augmentation part      241.7183875 magnetization 

 Broyden mixing:
  rms(total) = 0.15409E+01    rms(broyden)= 0.15406E+01
  rms(prec ) = 0.17783E+01
  weight for this iteration     100.00

 eigenvalues of (default mixing * dielectric matrix)
  average eigenvalue GAMMA=   0.3036
  0.9606  0.2535  0.2535  0.1352  0.1352  0.0835

 Free energy of the ion-electron system (eV)
  ---------------------------------------------------
  alpha Z        PSCENC =        75.25431677
  Ewald energy   TEWEN  =    139307.03660202
  -Hartree energ DENC   =   -183250.12498465
  -exchange      EXHF   =         0.00000000
  -V(xc)+E(xc)   XCENC  =     -1695.14555179
  PAW double counting   =     46056.89996481   -42546.85094372
  entropy T*S    EENTRO =        -0.12963542
  eigenvalues    EBANDS =     -3212.22692639
  atomic energy  EATOM  =     45086.50549395
  Solvation  Ediel_sol  =         0.00000000
  ---------------------------------------------------
  free energy    TOTEN  =      -178.78166440 eV

  energy without entropy =     -178.65202899  energy(sigma->0) =     -178.74925555


--------------------------------------------------------------------------------------------------------




--------------------------------------- Iteration      1(  12)  ---------------------------------------


    POTLOK:  cpu time   13.1687: real time   13.1716
    SETDIJ:  cpu time    0.1274: real time    0.1274
    EDDIAG:  cpu time   68.6475: real time   68.6491
  RMM-DIIS:  cpu time  188.6674: real time  188.6696
    ORTHCH:  cpu time   13.6934: real time   13.6932
       DOS:  cpu time    0.0017: real time    0.0017
    CHARGE:  cpu time   25.6876: real time   25.6872
    MIXING:  cpu time    0.6455: real time    0.6455
    --------------------------------------------
      LOOP:  cpu time  310.6393: real time  310.6454

 eigenvalue-minimisations  :   720
 total energy-change (2. order) : 0.5372209E+00  (-0.2333744E+00)
 number of electron     559.9999836 magnetization 
 augmentation part      241.6480769 magnetization 

 Broyden mixing:
  rms(total) = 0.16445E+01    rms(broyden)= 0.16442E+01
  rms(prec ) = 0.19877E+01
  weight for this iteration     100.00

 eigenvalues of (default mixing * dielectric matrix)
  average eigenvalue GAMMA=   0.3134
  1.0945  0.3157  0.3157  0.1414  0.1414  0.0954  0.0894

 Free energy of the ion-electron system (eV)
  ---------------------------------------------------
  alpha Z        PSCENC =        75.25431677
  Ewald energy   TEWEN  =    139307.03660202
  -Hartree energ DENC   =   -183277.84844207
  -exchange      EXHF   =         0.00000000
  -V(xc)+E(xc)   XCENC  =     -1694.78510520
  PAW double counting   =     46112.68525515   -42600.54266313
  entropy T*S    EENTRO =        -0.07869750
  eigenvalues    EBANDS =     -3186.47120350
  atomic energy  EATOM  =     45086.50549395
  Solvation  Ediel_sol  =         0.00000000
  ---------------------------------------------------
  free energy    TOTEN  =      -178.24444350 eV

  energy without entropy =     -178.16574601  energy(sigma->0) =     -178.22476913


--------------------------------------------------------------------------------------------------------




--------------------------------------- Iteration      1(  13)  ---------------------------------------


    POTLOK:  cpu time   13.4064: real time   13.4070
    SETDIJ:  cpu time    0.1231: real time    0.1231
    EDDIAG:  cpu time   68.4281: real time   68.4293
  RMM-DIIS:  cpu time  190.5188: real time  190.5229
    ORTHCH:  cpu time   13.1945: real time   13.1943
       DOS:  cpu time    0.0016: real time    0.0016
    CHARGE:  cpu time   25.5258: real time   25.5255
    MIXING:  cpu time    0.6892: real time    0.6892
    --------------------------------------------
      LOOP:  cpu time  311.8875: real time  311.8929

 eigenvalue-minimisations  :   726
 total energy-change (2. order) :-0.1632286E+01  (-0.1672944E+00)
 number of electron     559.9999830 magnetization 
 augmentation part      241.2178487 magnetization 

 Broyden mixing:
  rms(total) = 0.24182E+01    rms(broyden)= 0.24180E+01
  rms(prec ) = 0.29384E+01
  weight for this iteration     100.00

 eigenvalues of (default mixing * dielectric matrix)
  average eigenvalue GAMMA=   0.3194
  1.2609  0.3639  0.3639  0.1503  0.1503  0.0994  0.0994  0.0668

 Free energy of the ion-electron system (eV)
  ---------------------------------------------------
  alpha Z        PSCENC =        75.25431677
  Ewald energy   TEWEN  =    139307.03660202
  -Hartree energ DENC   =   -183309.88666250
  -exchange      EXHF   =         0.00000000
  -V(xc)+E(xc)   XCENC  =     -1694.35712836
  PAW double counting   =     46172.22543983   -42657.77229750
  entropy T*S    EENTRO =        -0.06552325
  eigenvalues    EBANDS =     -3158.81697007
  atomic energy  EATOM  =     45086.50549395
  Solvation  Ediel_sol  =         0.00000000
  ---------------------------------------------------
  free energy    TOTEN  =      -179.87672911 eV

  energy without entropy =     -179.81120586  energy(sigma->0) =     -179.86034830


--------------------------------------------------------------------------------------------------------




--------------------------------------- Iteration      1(  14)  ---------------------------------------


    POTLOK:  cpu time   13.0583: real time   13.0591
    SETDIJ:  cpu time    0.1204: real time    0.1204
    EDDIAG:  cpu time   68.6718: real time   68.6791
  RMM-DIIS:  cpu time  186.8737: real time  186.8771
    ORTHCH:  cpu time   13.6956: real time   13.6958
       DOS:  cpu time    0.0017: real time    0.0017
    CHARGE:  cpu time   25.9498: real time   25.9498
    MIXING:  cpu time    0.7591: real time    0.7590
    --------------------------------------------
      LOOP:  cpu time  309.1304: real time  309.1420

 eigenvalue-minimisations  :   719
 total energy-change (2. order) : 0.1082991E+01  (-0.1832870E+00)
 number of electron     559.9999856 magnetization 
 augmentation part      241.1467972 magnetization 

 Broyden mixing:
  rms(total) = 0.23843E+01    rms(broyden)= 0.23840E+01
  rms(prec ) = 0.27674E+01
  weight for this iteration     100.00

 eigenvalues of (default mixing * dielectric matrix)
  average eigenvalue GAMMA=   0.3166
  1.3759  0.5122  0.2887  0.1629  0.1629  0.1017  0.1017  0.0715  0.0715

 Free energy of the ion-electron system (eV)
  ---------------------------------------------------
  alpha Z        PSCENC =        75.25431677
  Ewald energy   TEWEN  =    139307.03660202
  -Hartree energ DENC   =   -183354.12141217
  -exchange      EXHF   =         0.00000000
  -V(xc)+E(xc)   XCENC  =     -1693.81091297
  PAW double counting   =     46248.23138630   -42730.91495054
  entropy T*S    EENTRO =        -0.02881060
  eigenvalues    EBANDS =     -3116.94545073
  atomic energy  EATOM  =     45086.50549395
  Solvation  Ediel_sol  =         0.00000000
  ---------------------------------------------------
  free energy    TOTEN  =      -178.79373796 eV

  energy without entropy =     -178.76492736  energy(sigma->0) =     -178.78653531


--------------------------------------------------------------------------------------------------------




--------------------------------------- Iteration      1(  15)  ---------------------------------------


    POTLOK:  cpu time   13.5863: real time   13.5888
    SETDIJ:  cpu time    0.1245: real time    0.1245
    EDDIAG:  cpu time   70.5391: real time   70.5396
  RMM-DIIS:  cpu time  184.9846: real time  184.9912
    ORTHCH:  cpu time   13.8913: real time   13.8912
       DOS:  cpu time    0.0017: real time    0.0017
    CHARGE:  cpu time   25.7403: real time   25.7401
    MIXING:  cpu time    0.7970: real time    0.7970
    --------------------------------------------
      LOOP:  cpu time  309.6647: real time  309.6741

 eigenvalue-minimisations  :   713
 total energy-change (2. order) : 0.2041974E+01  (-0.1414473E+00)
 number of electron     559.9999828 magnetization 
 augmentation part      241.1941973 magnetization 

 Broyden mixing:
  rms(total) = 0.11236E+01    rms(broyden)= 0.11232E+01
  rms(prec ) = 0.12798E+01
  weight for this iteration     100.00

 eigenvalues of (default mixing * dielectric matrix)
  average eigenvalue GAMMA=   0.3103
  1.4728  0.5194  0.2803  0.1614  0.1614  0.1615  0.0962  0.0962  0.0876  0.0666

 Free energy of the ion-electron system (eV)
  ---------------------------------------------------
  alpha Z        PSCENC =        75.25431677
  Ewald energy   TEWEN  =    139307.03660202
  -Hartree energ DENC   =   -183382.97256372
  -exchange      EXHF   =         0.00000000
  -V(xc)+E(xc)   XCENC  =     -1693.45855926
  PAW double counting   =     46296.97161883   -42777.81575474
  entropy T*S    EENTRO =        -0.12386288
  eigenvalues    EBANDS =     -3088.14905484
  atomic energy  EATOM  =     45086.50549395
  Solvation  Ediel_sol  =         0.00000000
  ---------------------------------------------------
  free energy    TOTEN  =      -176.75176386 eV

  energy without entropy =     -176.62790099  energy(sigma->0) =     -176.72079815


--------------------------------------------------------------------------------------------------------




--------------------------------------- Iteration      1(  16)  ---------------------------------------


    POTLOK:  cpu time   13.5686: real time   13.5700
    SETDIJ:  cpu time    0.1228: real time    0.1228
    EDDIAG:  cpu time   67.2431: real time   67.2437
  RMM-DIIS:  cpu time  184.5095: real time  184.5118
    ORTHCH:  cpu time   13.2967: real time   13.2966
       DOS:  cpu time    0.0017: real time    0.0017
    CHARGE:  cpu time   25.4374: real time   25.4371
    MIXING:  cpu time    0.8197: real time    0.8197
    --------------------------------------------
      LOOP:  cpu time  304.9994: real time  305.0034

 eigenvalue-minimisations  :   705
 total energy-change (2. order) : 0.4898478E+00  (-0.7563567E-01)
 number of electron     559.9999857 magnetization 
 augmentation part      241.3595331 magnetization 

 Broyden mixing:
  rms(total) = 0.12829E+01    rms(broyden)= 0.12827E+01
  rms(prec ) = 0.15511E+01
  weight for this iteration     100.00

 eigenvalues of (default mixing * dielectric matrix)
  average eigenvalue GAMMA=   0.2948
  1.4906  0.5292  0.2495  0.2495  0.1555  0.1555  0.0972  0.0972  0.0908  0.0671
  0.0611

 Free energy of the ion-electron system (eV)
  ---------------------------------------------------
  alpha Z        PSCENC =        75.25431677
  Ewald energy   TEWEN  =    139307.03660202
  -Hartree energ DENC   =   -183393.29586159
  -exchange      EXHF   =         0.00000000
  -V(xc)+E(xc)   XCENC  =     -1693.20630773
  PAW double counting   =     46324.85947976   -42804.44628161
  entropy T*S    EENTRO =        -0.00608346
  eigenvalues    EBANDS =     -3078.96327421
  atomic energy  EATOM  =     45086.50549395
  Solvation  Ediel_sol  =         0.00000000
  ---------------------------------------------------
  free energy    TOTEN  =      -176.26191609 eV

  energy without entropy =     -176.25583263  energy(sigma->0) =     -176.26039522


--------------------------------------------------------------------------------------------------------




--------------------------------------- Iteration      1(  17)  ---------------------------------------


    POTLOK:  cpu time   13.2651: real time   13.2732
    SETDIJ:  cpu time    0.1218: real time    0.1218
    EDDIAG:  cpu time   68.3576: real time   68.3579
  RMM-DIIS:  cpu time  188.5181: real time  188.5252
    ORTHCH:  cpu time   13.4708: real time   13.4706
       DOS:  cpu time    0.0017: real time    0.0017
    CHARGE:  cpu time   25.4839: real time   25.4837
    MIXING:  cpu time    0.8755: real time    0.8755
    --------------------------------------------
      LOOP:  cpu time  310.0946: real time  310.1097

 eigenvalue-minimisations  :   727
 total energy-change (2. order) : 0.2594039E+00  (-0.2412669E-01)
 number of electron     559.9999856 magnetization 
 augmentation part      241.3345282 magnetization 

 Broyden mixing:
  rms(total) = 0.93142E+00    rms(broyden)= 0.93116E+00
  rms(prec ) = 0.11159E+01
  weight for this iteration     100.00

 eigenvalues of (default mixing * dielectric matrix)
  average eigenvalue GAMMA=   0.3005
  1.5405  0.6071  0.3214  0.3214  0.1558  0.1558  0.1041  0.1041  0.0955  0.0889
  0.0681  0.0431

 Free energy of the ion-electron system (eV)
  ---------------------------------------------------
  alpha Z        PSCENC =        75.25431677
  Ewald energy   TEWEN  =    139307.03660202
  -Hartree energ DENC   =   -183401.61463460
  -exchange      EXHF   =         0.00000000
  -V(xc)+E(xc)   XCENC  =     -1693.11279476
  PAW double counting   =     46333.20459408   -42812.31439631
  entropy T*S    EENTRO =        -0.01464331
  eigenvalues    EBANDS =     -3070.94705003
  atomic energy  EATOM  =     45086.50549395
  Solvation  Ediel_sol  =         0.00000000
  ---------------------------------------------------
  free energy    TOTEN  =      -176.00251219 eV

  energy without entropy =     -175.98786887  energy(sigma->0) =     -175.99885136


--------------------------------------------------------------------------------------------------------




--------------------------------------- Iteration      1(  18)  ---------------------------------------


    POTLOK:  cpu time   13.5353: real time   13.5380
    SETDIJ:  cpu time    0.1231: real time    0.1231
    EDDIAG:  cpu time   68.5511: real time   68.5524
  RMM-DIIS:  cpu time  180.3959: real time  180.4017
    ORTHCH:  cpu time   13.6959: real time   13.6958
       DOS:  cpu time    0.0017: real time    0.0017
    CHARGE:  cpu time   25.6943: real time   25.6965
    MIXING:  cpu time    0.9201: real time    0.9201
    --------------------------------------------
      LOOP:  cpu time  302.9174: real time  302.9293

 eigenvalue-minimisations  :   701
 total energy-change (2. order) :-0.2475391E-01  (-0.3877538E-01)
 number of electron     559.9999854 magnetization 
 augmentation part      241.1511677 magnetization 

 Broyden mixing:
  rms(total) = 0.90255E+00    rms(broyden)= 0.90233E+00
  rms(prec ) = 0.10529E+01
  weight for this iteration     100.00

 eigenvalues of (default mixing * dielectric matrix)
  average eigenvalue GAMMA=   0.3158
  1.6432  0.7104  0.4084  0.4084  0.1588  0.1588  0.1118  0.1118  0.1049  0.1049
  0.0711  0.0711  0.0413

 Free energy of the ion-electron system (eV)
  ---------------------------------------------------
  alpha Z        PSCENC =        75.25431677
  Ewald energy   TEWEN  =    139307.03660202
  -Hartree energ DENC   =   -183422.12903374
  -exchange      EXHF   =         0.00000000
  -V(xc)+E(xc)   XCENC  =     -1692.86688213
  PAW double counting   =     46353.60458382   -42831.49819951
  entropy T*S    EENTRO =        -0.02259567
  eigenvalues    EBANDS =     -3051.91155161
  atomic energy  EATOM  =     45086.50549395
  Solvation  Ediel_sol  =         0.00000000
  ---------------------------------------------------
  free energy    TOTEN  =      -176.02726610 eV

  energy without entropy =     -176.00467043  energy(sigma->0) =     -176.02161718


--------------------------------------------------------------------------------------------------------




--------------------------------------- Iteration      1(  19)  ---------------------------------------


    POTLOK:  cpu time   13.3242: real time   13.3268
    SETDIJ:  cpu time    0.1197: real time    0.1197
    EDDIAG:  cpu time   68.2795: real time   68.2819
  RMM-DIIS:  cpu time  179.6419: real time  179.6432
    ORTHCH:  cpu time   13.5606: real time   13.5604
       DOS:  cpu time    0.0017: real time    0.0017
    CHARGE:  cpu time   24.8039: real time   24.8054
    MIXING:  cpu time    0.9846: real time    0.9846
    --------------------------------------------
      LOOP:  cpu time  300.7161: real time  300.7236

 eigenvalue-minimisations  :   697
 total energy-change (2. order) : 0.6695648E-01  (-0.3459667E-01)
 number of electron     559.9999847 magnetization 
 augmentation part      241.1511357 magnetization 

 Broyden mixing:
  rms(total) = 0.83208E+00    rms(broyden)= 0.83186E+00
  rms(prec ) = 0.96626E+00
  weight for this iteration     100.00

 eigenvalues of (default mixing * dielectric matrix)
  average eigenvalue GAMMA=   0.3214
  1.7115  0.8783  0.4226  0.4226  0.1604  0.1604  0.1466  0.1115  0.1115  0.0957
  0.0957  0.0714  0.0714  0.0409

 Free energy of the ion-electron system (eV)
  ---------------------------------------------------
  alpha Z        PSCENC =        75.25431677
  Ewald energy   TEWEN  =    139307.03660202
  -Hartree energ DENC   =   -183444.50722310
  -exchange      EXHF   =         0.00000000
  -V(xc)+E(xc)   XCENC  =     -1692.53978989
  PAW double counting   =     46375.68893501   -42851.96168966
  entropy T*S    EENTRO =        -0.01097264
  eigenvalues    EBANDS =     -3031.42598209
  atomic energy  EATOM  =     45086.50549395
  Solvation  Ediel_sol  =         0.00000000
  ---------------------------------------------------
  free energy    TOTEN  =      -175.96030962 eV

  energy without entropy =     -175.94933698  energy(sigma->0) =     -175.95756646


--------------------------------------------------------------------------------------------------------




--------------------------------------- Iteration      1(  20)  ---------------------------------------


    POTLOK:  cpu time   13.3868: real time   13.3873
    SETDIJ:  cpu time    0.1262: real time    0.1262
    EDDIAG:  cpu time   67.4031: real time   67.4048
  RMM-DIIS:  cpu time  181.8546: real time  181.8542
    ORTHCH:  cpu time   13.5060: real time   13.5058
       DOS:  cpu time    0.0016: real time    0.0016
    CHARGE:  cpu time   25.3458: real time   25.3456
    MIXING:  cpu time    1.0186: real time    1.0186
    --------------------------------------------
      LOOP:  cpu time  302.6426: real time  302.6442

 eigenvalue-minimisations  :   702
 total energy-change (2. order) : 0.2214767E+00  (-0.2422368E-01)
 number of electron     559.9999844 magnetization 
 augmentation part      241.1642560 magnetization 

 Broyden mixing:
  rms(total) = 0.70974E+00    rms(broyden)= 0.70953E+00
  rms(prec ) = 0.83144E+00
  weight for this iteration     100.00

 eigenvalues of (default mixing * dielectric matrix)
  average eigenvalue GAMMA=   0.3253
  1.7695  0.9405  0.4756  0.4756  0.1963  0.1601  0.1601  0.1089  0.1089  0.1217
  0.0937  0.0804  0.0804  0.0663  0.0409

 Free energy of the ion-electron system (eV)
  ---------------------------------------------------
  alpha Z        PSCENC =        75.25431677
  Ewald energy   TEWEN  =    139307.03660202
  -Hartree energ DENC   =   -183462.96877157
  -exchange      EXHF   =         0.00000000
  -V(xc)+E(xc)   XCENC  =     -1692.28820995
  PAW double counting   =     46389.36658168   -42864.48625226
  entropy T*S    EENTRO =        -0.04988180
  eigenvalues    EBANDS =     -3014.10871171
  atomic energy  EATOM  =     45086.50549395
  Solvation  Ediel_sol  =         0.00000000
  ---------------------------------------------------
  free energy    TOTEN  =      -175.73883287 eV

  energy without entropy =     -175.68895107  energy(sigma->0) =     -175.72636242


--------------------------------------------------------------------------------------------------------




--------------------------------------- Iteration      1(  21)  ---------------------------------------


    POTLOK:  cpu time   13.2307: real time   13.2338
    SETDIJ:  cpu time    0.1222: real time    0.1222
    EDDIAG:  cpu time   68.4294: real time   68.4316
  RMM-DIIS:  cpu time  180.8435: real time  180.8467
    ORTHCH:  cpu time   13.3958: real time   13.3957
       DOS:  cpu time    0.0017: real time    0.0017
    CHARGE:  cpu time   25.8352: real time   25.8389
    MIXING:  cpu time    1.1200: real time    1.1200
    --------------------------------------------
      LOOP:  cpu time  302.9786: real time  302.9906

 eigenvalue-minimisations  :   699
 total energy-change (2. order) : 0.4451818E-01  (-0.2334512E-01)
 number of electron     559.9999850 magnetization 
 augmentation part      241.1490399 magnetization 

 Broyden mixing:
  rms(total) = 0.61644E+00    rms(broyden)= 0.61625E+00
  rms(prec ) = 0.73388E+00
  weight for this iteration     100.00

 eigenvalues of (default mixing * dielectric matrix)
  average eigenvalue GAMMA=   0.3389
  1.8120  1.0130  0.5882  0.5882  0.2859  0.1607  0.1607  0.1265  0.1265  0.1080
  0.1080  0.0914  0.0744  0.0744  0.0633  0.0409

 Free energy of the ion-electron system (eV)
  ---------------------------------------------------
  alpha Z        PSCENC =        75.25431677
  Ewald energy   TEWEN  =    139307.03660202
  -Hartree energ DENC   =   -183476.73108388
  -exchange      EXHF   =         0.00000000
  -V(xc)+E(xc)   XCENC  =     -1692.13067818
  PAW double counting   =     46396.13385360   -42870.48751149
  entropy T*S    EENTRO =        -0.07001328
  eigenvalues    EBANDS =     -3001.20529421
  atomic energy  EATOM  =     45086.50549395
  Solvation  Ediel_sol  =         0.00000000
  ---------------------------------------------------
  free energy    TOTEN  =      -175.69431469 eV

  energy without entropy =     -175.62430141  energy(sigma->0) =     -175.67681137


--------------------------------------------------------------------------------------------------------




--------------------------------------- Iteration      1(  22)  ---------------------------------------


    POTLOK:  cpu time   13.2602: real time   13.2605
    SETDIJ:  cpu time    0.1213: real time    0.1213
    EDDIAG:  cpu time   67.8218: real time   67.8234
  RMM-DIIS:  cpu time  179.0628: real time  179.0643
    ORTHCH:  cpu time   13.3719: real time   13.3718
       DOS:  cpu time    0.0017: real time    0.0017
    CHARGE:  cpu time   25.3783: real time   25.3781
    MIXING:  cpu time    1.1597: real time    1.1597
    --------------------------------------------
      LOOP:  cpu time  300.1777: real time  300.1808

 eigenvalue-minimisations  :   696
 total energy-change (2. order) :-0.1284171E+00  (-0.2357185E-01)
 number of electron     559.9999858 magnetization 
 augmentation part      241.0646781 magnetization 

 Broyden mixing:
  rms(total) = 0.84107E+00    rms(broyden)= 0.84089E+00
  rms(prec ) = 0.98342E+00
  weight for this iteration     100.00

 eigenvalues of (default mixing * dielectric matrix)
  average eigenvalue GAMMA=   0.3607
  1.9880  1.3244  0.6156  0.6156  0.3527  0.1598  0.1598  0.1486  0.1086  0.1086
  0.1087  0.1087  0.0855  0.0729  0.0729  0.0610  0.0409

 Free energy of the ion-electron system (eV)
  ---------------------------------------------------
  alpha Z        PSCENC =        75.25431677
  Ewald energy   TEWEN  =    139307.03660202
  -Hartree energ DENC   =   -183494.30349367
  -exchange      EXHF   =         0.00000000
  -V(xc)+E(xc)   XCENC  =     -1691.96095783
  PAW double counting   =     46400.81685868   -42874.43988254
  entropy T*S    EENTRO =        -0.07388874
  eigenvalues    EBANDS =     -2984.65778042
  atomic energy  EATOM  =     45086.50549395
  Solvation  Ediel_sol  =         0.00000000
  ---------------------------------------------------
  free energy    TOTEN  =      -175.82273178 eV

  energy without entropy =     -175.74884303  energy(sigma->0) =     -175.80425959


--------------------------------------------------------------------------------------------------------




--------------------------------------- Iteration      1(  23)  ---------------------------------------


    POTLOK:  cpu time   13.1544: real time   13.1551
    SETDIJ:  cpu time    0.1261: real time    0.1261
    EDDIAG:  cpu time   67.5593: real time   67.5594
  RMM-DIIS:  cpu time  178.5558: real time  178.5550
    ORTHCH:  cpu time   13.3863: real time   13.3861
       DOS:  cpu time    0.0016: real time    0.0016
    CHARGE:  cpu time   25.1288: real time   25.1286
    MIXING:  cpu time    1.2626: real time    1.2626
    --------------------------------------------
      LOOP:  cpu time  299.1749: real time  299.1747

 eigenvalue-minimisations  :   697
 total energy-change (2. order) : 0.6434752E-01  (-0.2469118E-01)
 number of electron     559.9999862 magnetization 
 augmentation part      241.0528839 magnetization 

 Broyden mixing:
  rms(total) = 0.73394E+00    rms(broyden)= 0.73373E+00
  rms(prec ) = 0.86192E+00
  weight for this iteration     100.00

 eigenvalues of (default mixing * dielectric matrix)
  average eigenvalue GAMMA=   0.3616
[...]
 -0.006  -0.011   0.004   0.004   0.005  -0.006  -0.011   0.004
 -0.011  -0.019   0.007   0.007   0.009  -0.010  -0.019   0.006
 -0.015  -0.005   0.013   0.000   0.022  -0.014  -0.005   0.012
  0.000  -0.023  -0.006  -0.015  -0.000   0.000  -0.022  -0.006
 -0.022   0.000   0.009  -0.005  -0.016  -0.021   0.000   0.009
 -0.018  -0.007   0.015   0.000   0.027  -0.017  -0.006   0.015
  0.000  -0.027  -0.008  -0.018   0.000   0.000  -0.027  -0.008
 -0.027   0.000   0.011  -0.006  -0.019  -0.026   0.000   0.010
 total augmentation occupancy for first ion, spin component:           1
  1.540  -0.027   0.005   0.019   0.023   0.075  -0.008  -0.002   0.035  -0.010   0.088  -0.030   0.012   0.002   0.002  -0.019
 -0.027   1.401   0.029   0.069   0.006  -0.007   0.070   0.011  -0.014  -0.009   0.205  -0.062   0.020   0.002   0.002  -0.007
  0.005   0.029   1.544   0.004   0.005  -0.002   0.013   0.071  -0.013   0.017  -0.056   0.019  -0.003  -0.006  -0.005   0.016
  0.019   0.069   0.004   1.345   0.038   0.033  -0.013  -0.013   0.090  -0.021  -0.083   0.022  -0.001  -0.009  -0.002   0.001
  0.023   0.006   0.005   0.038   1.444  -0.011  -0.010   0.016  -0.020   0.065  -0.095   0.031  -0.003  -0.009  -0.009   0.027
  0.075  -0.007  -0.002   0.033  -0.011   0.216   0.018  -0.002  -0.045   0.004  -0.048   0.002   0.017  -0.010   0.034  -0.004
 -0.008   0.070   0.013  -0.013  -0.010   0.018   0.261  -0.023  -0.003   0.007  -0.108   0.008  -0.001   0.051  -0.009  -0.001
 -0.002   0.011   0.071  -0.013   0.016  -0.002  -0.023   0.216   0.013  -0.020   0.030  -0.001  -0.012   0.010  -0.018   0.003
  0.035  -0.014  -0.013   0.090  -0.020  -0.045  -0.003   0.013   0.260   0.006   0.042  -0.003  -0.009   0.036   0.004   0.000
 -0.010  -0.009   0.017  -0.021   0.065   0.004   0.007  -0.020   0.006   0.258   0.047  -0.003  -0.038   0.002   0.049   0.007
  0.088   0.205  -0.056  -0.083  -0.095  -0.048  -0.108   0.030   0.042   0.047   0.951  -0.140   0.084   0.016   0.064  -0.013
 -0.030  -0.062   0.019   0.022   0.031   0.002   0.008  -0.001  -0.003  -0.003  -0.140   0.022  -0.014  -0.003  -0.010   0.003
  0.012   0.020  -0.003  -0.001  -0.003   0.017  -0.001  -0.012  -0.009  -0.038   0.084  -0.014   0.029  -0.008  -0.004  -0.003
  0.002   0.002  -0.006  -0.009  -0.009  -0.010   0.051   0.010   0.036   0.002   0.016  -0.003  -0.008   0.036   0.004   0.000
  0.002   0.002  -0.005  -0.002  -0.009   0.034  -0.009  -0.018   0.004   0.049   0.064  -0.010  -0.004   0.004   0.035  -0.000
 -0.019  -0.007   0.016   0.001   0.027  -0.004  -0.001   0.003   0.000   0.007  -0.013   0.003  -0.003   0.000  -0.000   0.001
  0.001  -0.028  -0.008  -0.018   0.001   0.001  -0.008  -0.002  -0.006  -0.000  -0.003   0.001   0.000  -0.003  -0.000   0.000
 -0.028   0.001   0.012  -0.006  -0.020  -0.006   0.001   0.003  -0.001  -0.007  -0.008   0.001  -0.000  -0.000  -0.003   0.000


------------------------ aborting loop because EDIFF is reached ----------------------------------------


    CHARGE:  cpu time   26.0086: real time   26.0104
    FORLOC:  cpu time    6.8138: real time    6.8138
    FORNL :  cpu time   67.2857: real time   67.2858
    STRESS:  cpu time  203.7951: real time  203.7964
    FORCOR:  cpu time   22.3428: real time   22.3445
    FORHAR:  cpu time   10.0415: real time   10.0415
    MIXING:  cpu time    3.7973: real time    3.7973
    OFIELD:  cpu time    0.0000: real time    0.0000

  FORCE on cell =-STRESS in cart. coord.  units (eV):
  Direction    XX          YY          ZZ          XY          YZ          ZX
  --------------------------------------------------------------------------------------
  Alpha Z    75.25432    75.25432    75.25432
  Ewald   44653.02824 47958.42583 46695.47677   307.51646 -1813.06462  -157.20491
  Hartree 59561.49707 62652.68973 61440.55848   255.18359 -1698.84241  -201.92947
  E(xc)   -2907.04781 -2905.89754 -2906.06877     0.42830    -0.31952     0.49919
  Local  ************************************  -555.08468  3501.14069   367.89691
  n-local  -880.55008  -881.16246  -879.25564     0.91014     4.14994     4.57213
  augment  4105.53818  4102.55538  4101.51291    -2.22758    -2.10885    -4.77118
  Kinetic  7820.63365  7805.18883  7806.69000    -5.96657     4.03176    -7.70969
  Fock        0.00000     0.00000     0.00000     0.00000     0.00000     0.00000
  -------------------------------------------------------------------------------------
  Total    -112.22814  -104.54430  -106.85782     0.75966    -5.01300     1.35300
  in kB      -6.65961    -6.20365    -6.34093     0.04508    -0.29747     0.08029
  external pressure =       -6.40 kB  Pullay stress =        0.00 kB


 VOLUME and BASIS-vectors are now :
 -----------------------------------------------------------------------------
  energy-cutoff  :      400.00
  volume of cell :    27000.00
      direct lattice vectors                 reciprocal lattice vectors
    30.000000000  0.000000000  0.000000000     0.033333333  0.000000000  0.000000000
     0.000000000 30.000000000  0.000000000     0.000000000  0.033333333  0.000000000
     0.000000000  0.000000000 30.000000000     0.000000000  0.000000000  0.033333333

  length of vectors
    30.000000000 30.000000000 30.000000000     0.033333333  0.033333333  0.033333333


 FORCES acting on ions
    electron-ion (+dipol)            ewald-force                    non-local-force                 convergence-correction
 -----------------------------------------------------------------------------------------------
   0.397E+03 0.968E+03 0.443E+03   -.395E+03 -.965E+03 -.442E+03   -.149E+01 -.183E+01 -.280E+00   -.342E-03 0.180E-02 -.297E-03
   -.975E+03 -.399E+03 0.421E+03   0.972E+03 0.397E+03 -.420E+03   0.182E+01 0.151E+01 -.215E+00   -.318E-02 0.467E-02 0.246E-02
   -.402E+03 0.968E+03 0.439E+03   0.399E+03 -.965E+03 -.439E+03   0.151E+01 -.183E+01 -.244E+00   0.188E-02 0.135E-02 -.981E-03
   0.974E+03 -.400E+03 0.422E+03   -.971E+03 0.398E+03 -.421E+03   -.182E+01 0.150E+01 -.206E+00   0.108E-02 0.603E-02 0.137E-02
   -.102E+01 0.582E+03 0.976E+03   0.102E+01 -.581E+03 -.973E+03   0.304E-02 -.314E+00 -.235E+01   0.886E-03 -.174E-02 -.549E-03
   -.831E+02 0.326E+03 -.103E+04   0.819E+02 -.329E+03 0.102E+04   0.152E+01 0.450E+01 0.387E+01   -.161E-02 0.817E-03 0.227E-02
   -.934E+01 0.115E+04 0.630E+02   0.933E+01 -.114E+04 -.631E+02   0.232E-01 -.319E+01 0.531E-01   0.508E-03 0.171E-02 0.816E-03
   0.114E+04 -.865E+01 0.685E+01   -.114E+04 0.866E+01 -.686E+01   -.310E+01 -.603E-02 0.189E-02   -.940E-03 0.615E-03 0.205E-02
   -.114E+04 -.645E+01 0.512E+01   0.114E+04 0.646E+01 -.513E+01   0.311E+01 -.805E-02 0.950E-02   -.465E-03 0.338E-02 0.179E-02
   -.401E+00 -.114E+04 0.263E+01   0.400E+00 0.113E+04 -.261E+01   0.928E-03 0.311E+01 -.114E-01   -.621E-03 -.512E-02 0.297E-02
   -.582E+03 0.575E+03 0.821E+03   0.580E+03 -.572E+03 -.818E+03   0.155E+01 -.157E+01 -.219E+01   -.867E-03 -.221E-02 0.391E-03
   -.633E+03 0.546E+03 -.816E+03   0.631E+03 -.543E+03 0.813E+03   0.157E+01 -.164E+01 0.224E+01   -.453E-03 -.681E-03 0.372E-02
   0.579E+03 -.581E+03 0.816E+03   -.577E+03 0.579E+03 -.812E+03   -.155E+01 0.157E+01 -.220E+01   0.118E-02 0.429E-02 0.249E-02
   0.582E+03 -.590E+03 -.812E+03   -.579E+03 0.588E+03 0.809E+03   -.155E+01 0.155E+01 0.220E+01   0.434E-02 0.133E-02 -.176E-02
   0.581E+03 0.574E+03 0.823E+03   -.579E+03 -.572E+03 -.819E+03   -.156E+01 -.157E+01 -.219E+01   -.135E-02 -.124E-02 -.233E-02
   0.660E+03 0.508E+03 -.822E+03   -.658E+03 -.506E+03 0.819E+03   -.141E+01 -.168E+01 0.218E+01   -.148E-02 0.216E-02 0.561E-03
   -.579E+03 -.581E+03 0.815E+03   0.577E+03 0.579E+03 -.812E+03   0.155E+01 0.157E+01 -.220E+01   -.248E-02 0.367E-02 0.231E-02
   -.583E+03 -.588E+03 -.812E+03   0.580E+03 0.586E+03 0.809E+03   0.156E+01 0.155E+01 0.221E+01   -.325E-02 0.274E-02 -.318E-02
   0.532E+03 0.922E+03 -.164E+03   -.528E+03 -.919E+03 0.167E+03   -.460E+01 -.116E+01 -.485E+01   -.300E-02 0.341E-02 0.270E-02
   -.979E+03 -.404E+03 -.413E+03   0.976E+03 0.402E+03 0.412E+03   0.182E+01 0.150E+01 0.222E+00   -.291E-02 0.587E-02 0.107E-02
   -.326E+03 0.311E+03 0.468E+03   0.327E+03 -.312E+03 -.469E+03   -.357E+00 0.376E+00 0.508E+00   -.126E-02 0.144E-02 0.419E-02
   0.978E+03 0.387E+03 0.427E+03   -.975E+03 -.385E+03 -.426E+03   -.179E+01 -.152E+01 -.181E+00   -.132E-02 -.295E-03 0.144E-02
   -.395E+03 -.974E+03 0.419E+03   0.393E+03 0.971E+03 -.419E+03   0.150E+01 0.182E+01 -.223E+00   -.314E-02 -.120E-02 0.418E-02
   -.510E+03 0.948E+03 -.320E+03   0.508E+03 -.946E+03 0.320E+03   0.134E+01 -.165E+01 0.211E+00   0.347E-03 0.141E-02 0.310E-02
   0.979E+03 -.407E+03 -.412E+03   -.976E+03 0.405E+03 0.411E+03   -.182E+01 0.151E+01 0.214E+00   0.379E-02 0.132E-02 0.137E-02
   -.978E+03 0.388E+03 0.424E+03   0.975E+03 -.386E+03 -.424E+03   0.180E+01 -.152E+01 -.188E+00   -.893E-03 -.242E-03 0.851E-03
   0.394E+03 -.975E+03 0.419E+03   -.392E+03 0.972E+03 -.419E+03   -.150E+01 0.182E+01 -.224E+00   0.550E-03 -.691E-03 0.388E-02
   0.323E+03 0.310E+03 0.470E+03   -.324E+03 -.311E+03 -.471E+03   0.359E+00 0.372E+00 0.498E+00   0.187E-02 0.913E-03 0.367E-02
   -.757E+01 0.613E+03 0.509E+02   0.755E+01 -.614E+03 -.510E+02   0.145E-01 0.755E+00 0.104E+00   -.572E-03 0.425E-02 0.822E-03
   -.589E+03 -.442E+01 0.970E+03   0.588E+03 0.441E+01 -.966E+03   0.301E+00 -.895E-03 -.236E+01   -.652E-03 0.264E-02 0.127E-02
   -.602E+03 -.218E+02 -.965E+03   0.601E+03 0.218E+02 0.961E+03   0.357E+00 0.337E-01 0.235E+01   -.841E-03 0.388E-02 0.137E-02
   0.588E+03 -.496E+01 0.971E+03   -.587E+03 0.496E+01 -.967E+03   -.296E+00 -.738E-02 -.235E+01   -.143E-02 0.344E-02 -.899E-03
   0.601E+03 -.299E+02 -.965E+03   -.600E+03 0.299E+02 0.962E+03   -.332E+00 -.410E-02 0.237E+01   0.721E-03 0.318E-03 0.691E-03
   0.781E+03 0.743E+03 0.333E+02   -.779E+03 -.741E+03 -.333E+02   -.126E+01 -.111E+01 -.616E-01   -.141E-02 0.165E-03 0.437E-02
   -.763E+03 -.767E+03 0.419E+01   0.761E+03 0.765E+03 -.419E+01   0.114E+01 0.114E+01 -.166E-03   -.506E-02 0.293E-02 0.318E-02
   -.781E+03 0.748E+03 0.227E+02   0.779E+03 -.746E+03 -.227E+02   0.119E+01 -.115E+01 -.288E-01   -.201E-02 -.192E-03 -.108E-02
   0.763E+03 -.768E+03 0.476E+01   -.761E+03 0.766E+03 -.477E+01   -.115E+01 0.113E+01 0.964E-02   0.502E-02 0.482E-02 0.106E-02
   -.644E+00 -.531E+01 0.108E+04   0.641E+00 0.531E+01 -.107E+04   0.126E-02 -.152E-02 -.161E+01   0.154E-03 0.355E-02 0.237E-02
   -.480E+01 -.417E+02 -.107E+04   0.484E+01 0.417E+02 0.107E+04   -.287E-01 0.106E+00 0.167E+01   -.229E-02 0.408E-02 0.989E-04
   0.994E+03 0.372E+03 -.405E+03   -.991E+03 -.370E+03 0.405E+03   -.185E+01 -.151E+01 0.240E+00   0.888E-03 -.132E-02 0.295E-02
   -.396E+03 -.978E+03 -.414E+03   0.393E+03 0.975E+03 0.413E+03   0.151E+01 0.181E+01 0.217E+00   -.335E-02 -.991E-03 -.981E-03
   -.348E+03 0.276E+03 -.430E+03   0.348E+03 -.276E+03 0.431E+03   -.446E+00 0.302E+00 -.549E+00   -.261E-02 0.260E-02 0.495E-03
   0.322E+03 -.329E+03 0.460E+03   -.322E+03 0.329E+03 -.461E+03   0.363E+00 -.377E+00 0.524E+00   0.221E-02 0.855E-02 0.469E-02
   0.338E+03 0.260E+03 -.422E+03   -.338E+03 -.260E+03 0.423E+03   0.494E+00 0.142E+00 -.450E+00   -.243E-02 0.178E-02 0.157E-02
   -.990E+03 0.380E+03 -.409E+03   0.987E+03 -.378E+03 0.408E+03   0.184E+01 -.149E+01 0.221E+00   -.760E-03 0.238E-02 0.256E-02
   0.395E+03 -.978E+03 -.414E+03   -.392E+03 0.975E+03 0.413E+03   -.151E+01 0.181E+01 0.219E+00   0.372E-02 -.159E-02 -.174E-02
   -.323E+03 -.328E+03 0.460E+03   0.324E+03 0.329E+03 -.461E+03   -.358E+00 -.378E+00 0.522E+00   -.266E-02 0.541E-02 0.589E-02
   0.646E+03 -.164E+02 0.129E+02   -.647E+03 0.164E+02 -.129E+02   0.701E+00 0.278E-01 -.331E-01   0.214E-02 0.360E-02 0.363E-02
   -.647E+03 -.131E+02 0.103E+02   0.648E+03 0.131E+02 -.103E+02   -.719E+00 0.756E-02 -.130E-01   -.480E-02 0.621E-02 0.368E-03
   -.381E+00 -.590E+03 0.968E+03   0.377E+00 0.589E+03 -.964E+03   0.293E-02 0.309E+00 -.235E+01   -.118E-02 0.420E-02 0.441E-02
   -.111E+01 -.600E+03 -.964E+03   0.111E+01 0.599E+03 0.960E+03   -.344E-02 0.257E+00 0.235E+01   -.149E-03 0.330E-02 -.469E-02
   -.240E+01 -.205E+02 0.161E+02   0.239E+01 0.204E+02 -.161E+02   0.569E-02 0.209E-01 -.181E-01   0.963E-03 0.597E-02 0.873E-03
   0.324E+03 -.341E+03 -.447E+03   -.324E+03 0.342E+03 0.447E+03   0.364E+00 -.317E+00 -.522E+00   0.244E-02 0.647E-02 0.107E-03
   -.327E+03 -.339E+03 -.447E+03   0.327E+03 0.340E+03 0.448E+03   -.358E+00 -.346E+00 -.518E+00   -.224E-02 0.812E-02 -.103E-02
   -.815E+00 -.648E+03 0.540E+01   0.815E+00 0.649E+03 -.540E+01   -.178E-03 -.733E+00 0.963E-02   -.647E-03 0.368E-02 0.281E-02
   0.666E+01 0.249E+03 -.188E+03   -.463E+01 -.234E+03 0.177E+03   -.951E+00 -.914E+01 0.714E+01   -.619E-03 0.844E-03 0.121E-02
   0.769E+02 0.731E+03 -.571E+03   -.827E+02 -.784E+03 0.612E+03   0.541E+01 0.457E+02 -.359E+02   -.691E-03 0.117E-02 0.114E-02
 -----------------------------------------------------------------------------------------------
   -.288E+01 -.419E+02 0.321E+02   0.824E-12 -.455E-12 -.159E-11   0.292E+01 0.418E+02 -.321E+02   -.313E-01 0.126E+00 0.781E-01
 
 
 POSITION                                       TOTAL-FORCE (eV/Angst)
 -----------------------------------------------------------------------------------
     13.37281      9.84801     12.50759         0.705054      1.107432      0.297012
     20.15199     16.62719     12.50759        -1.105629     -0.707560      0.290988
     16.62719      9.84801     12.50759        -0.706065      1.106522      0.296779
      9.84801     16.62719     12.50759         1.108042     -0.705638      0.284558
     15.00000     11.47521     10.20639        -0.002216      0.414849      1.282354
     15.00000     11.47521     19.79360         0.324874      1.312216     -1.089132
     15.00000      8.28283     15.00000         0.013742      1.475442     -0.067221
      8.28283     15.00000     15.00000         1.515521      0.002810     -0.000692
     21.71717     15.00000     15.00000        -1.518307      0.001629     -0.003320
     15.00000     21.71717     15.00000        -0.000737     -1.517454      0.008355
     18.35858     11.64142     10.25025        -0.755584      0.760115      1.072339
     18.35858     11.64142     19.74975        -0.684037      0.775982     -1.054737
     11.64142     18.35858     10.25025         0.750385     -0.762211      1.073348
     11.64142     18.35858     19.74975         0.754808     -0.753667     -1.073449
     11.64142     11.64142     10.25025         0.756383      0.760096      1.071064
     11.64142     11.64142     19.74975         0.645892      0.772750     -1.005463
     18.35858     18.35858     10.25025        -0.749878     -0.764385      1.073449
     18.35858     18.35858     19.74975        -0.757411     -0.753512     -1.075197
     13.37281      9.84801     17.49241        -0.100842      1.328579     -1.783879
     20.15199     16.62719     17.49241        -1.110857     -0.702791     -0.291403
     16.73751     13.26249     12.54279         0.117193     -0.108414     -0.160922
      9.84801     13.37281     12.50759         1.107603      0.730792      0.270168
     16.62719     20.15199     12.50759        -0.705483     -1.106456      0.292232
     16.62719      9.84801     17.49241        -0.795944      1.051981     -0.187944
      9.84801     16.62719     17.49241         1.109146     -0.711057     -0.287654
     20.15199     13.37281     12.50759        -1.111000      0.721360      0.281346
     13.37281     20.15199     12.50759         0.703179     -1.107494      0.291646
     13.26249     13.26249     12.54279        -0.110910     -0.117832     -0.158103
     15.00000     11.52498     15.00000        -0.003660     -0.194243     -0.050475
     18.52479     15.00000     10.20639        -0.409747     -0.002433      1.281878
     18.52479     15.00000     19.79360        -0.416309     -0.004803     -1.281534
     11.47521     15.00000     10.20640         0.408008      0.002600      1.282303
     11.47521     15.00000     19.79360         0.403447      0.015250     -1.289697
     11.49535     11.49535     15.00000         0.800247      0.871766     -0.063824
     18.50465     18.50465     15.00000        -0.829861     -0.829522      0.001954
     18.50465     11.49535     15.00000        -0.819152      0.843518     -0.016772
     11.49535     18.50465     15.00000         0.831405     -0.830881     -0.000385
     15.00000     15.00000     10.04368        -0.001534     -0.001099      1.179124
     15.00000     15.00000     19.95633         0.009687      0.079277     -1.188130
      9.84801     13.37281     17.49241         1.101493      0.722489     -0.295398
     16.62719     20.15199     17.49241        -0.708745     -1.105244     -0.289594
     16.73751     13.26249     17.45721         0.128575     -0.059138      0.135383
     13.26249     16.73751     12.54279        -0.113974      0.104170     -0.151675
     13.26249     13.26249     17.45721        -0.120335     -0.007941      0.088883
     20.15199     13.37281     17.49241        -1.111923      0.699879     -0.288585
     13.37281     20.15199     17.49241         0.709783     -1.103946     -0.290355
     16.73751     16.73751     12.54279         0.113482      0.107583     -0.155206
     11.52498     15.00000     15.00000        -0.230349      0.002657      0.002049
     18.47502     15.00000     15.00000         0.232501      0.001736     -0.006001
     15.00000     18.52480     10.20639        -0.002044     -0.412280      1.281068
     15.00000     18.52480     19.79360         0.001595     -0.385852     -1.299928
     15.00000     15.00000     15.00000         0.001241     -0.001005      0.000148
     13.26249     16.73751     17.45721        -0.114930      0.112878      0.156194
     16.73751     16.73751     17.45721         0.115860      0.109335      0.160689
     15.00000     18.47502     15.00000        -0.001024      0.222809      0.006886
     14.40287      9.81708     19.04915         1.075523      5.670381     -3.968724
     14.30088      8.93183     19.74075        -0.446181     -7.132024      5.413206
 -----------------------------------------------------------------------------------
    total drift:                                0.006464     -0.002827     -0.001279


--------------------------------------------------------------------------------------------------------



  FREE ENERGIE OF THE ION-ELECTRON SYSTEM (eV)
  ---------------------------------------------------
  free  energy   TOTEN  =      -175.40985705 eV

  energy  without entropy=     -175.32271778  energy(sigma->0) =     -175.38807223
 


--------------------------------------------------------------------------------------------------------


    POTLOK:  cpu time   14.1741: real time   14.1742


--------------------------------------------------------------------------------------------------------


     LOOP+:  cpu time18180.4117: real time18181.1472
    4ORBIT:  cpu time    0.0000: real time    0.0000

 total amount of memory used by VASP MPI-rank0  5486942. kBytes
=======================================================================

   base      :      30000. kBytes
   nonlr-proj:      17127. kBytes
   fftplans  :     924480. kBytes
   grid      :    1872000. kBytes
   one-center:        886. kBytes
   wavefun   :    2642449. kBytes
 
  
  
 General timing and accounting informations for this job:
 ========================================================
  
                  Total CPU time used (sec):    18255.389
                            User time (sec):    17248.254
                          System time (sec):     1007.134
                         Elapsed time (sec):    18256.265
  
                   Maximum memory used (kb):     7179020.
                   Average memory used (kb):           0.
  
                          Minor page faults:    811293424
                          Major page faults:            0
                 Voluntary context switches:          510
