 running on    1 total cores
 distrk:  each k-point on    1 cores,    1 groups
 distr:  one band on    1 cores,    1 groups
 using from now: INCAR     
 vasp.5.4.4.18Apr17-6-g9f103f2a35 (build Sep 03 2018 23:53:05) complex          
  
 POSCAR found type information on POSCAR  Pd C  O 
 POSCAR found :  3 types and      57 ions
 scaLAPACK will be used

 ----------------------------------------------------------------------------- 
|                                                                             |
|  ADVICE TO THIS USER RUNNING 'VASP/VAMP'   (HEAR YOUR MASTER'S VOICE ...):  |
|                                                                             |
|      You enforced a specific xc-type in the INCAR file,                     |
|      a different type was found on the POTCAR file                          |
|          I HOPE YOU KNOW, WHAT YOU ARE  DOING                               |
|                                                                             |
 ----------------------------------------------------------------------------- 

 LDA part: xc-table for Pade appr. of Perdew
 POSCAR, INCAR and KPOINTS ok, starting setup
 FFT: planning ...
 WAVECAR not read
 entering main loop
       N       E                     dE             d eps       ncg     rms          rms(c)
DAV:   1     0.437826722716E+04    0.43783E+04   -0.10051E+05   688   0.815E+02
DAV:   2     0.201125441004E+04   -0.23670E+04   -0.21307E+04  1224   0.105E+02
DAV:   3     0.233164570226E+03   -0.17781E+04   -0.16713E+04  1000   0.915E+01
DAV:   4    -0.134048733581E+03   -0.36721E+03   -0.31257E+03   832   0.433E+01
DAV:   5    -0.178627269565E+03   -0.44579E+02   -0.37145E+02  1040   0.144E+01    0.140E+01
RMM:   6    -0.177931690375E+03    0.69558E+00   -0.49682E+01   724   0.860E+00    0.201E+01
RMM:   7    -0.180925793076E+03   -0.29941E+01   -0.18182E+01   854   0.447E+00    0.217E+01
RMM:   8    -0.183296412924E+03   -0.23706E+01   -0.61553E+00   785   0.322E+00    0.286E+01
RMM:   9    -0.181358569074E+03    0.19378E+01   -0.47895E+00   729   0.300E+00    0.246E+01
RMM:  10    -0.179061294242E+03    0.22973E+01   -0.28170E+00   729   0.251E+00    0.247E+01
RMM:  11    -0.177102620599E+03    0.19587E+01   -0.12896E+00   744   0.169E+00    0.184E+01
RMM:  12    -0.176278927362E+03    0.82369E+00   -0.12143E+00   718   0.164E+00    0.145E+01
RMM:  13    -0.175303255005E+03    0.97567E+00   -0.84805E-01   724   0.137E+00    0.136E+01
RMM:  14    -0.175208728653E+03    0.94526E-01   -0.91600E-01   718   0.140E+00    0.149E+01
RMM:  15    -0.176271646194E+03   -0.10629E+01   -0.10857E+00   716   0.149E+00    0.265E+01
RMM:  16    -0.175533024323E+03    0.73862E+00   -0.68552E-01   724   0.121E+00    0.164E+01
RMM:  17    -0.175025949366E+03    0.50707E+00   -0.78783E-01   713   0.131E+00    0.159E+01
RMM:  18    -0.174757547606E+03    0.26840E+00   -0.60261E-01   711   0.115E+00    0.129E+01
RMM:  19    -0.174590979319E+03    0.16657E+00   -0.52839E-01   721   0.108E+00    0.105E+01
RMM:  20    -0.174624887181E+03   -0.33908E-01   -0.34984E-01   718   0.904E-01    0.129E+01
RMM:  21    -0.174287533332E+03    0.33735E+00   -0.30910E-01   719   0.857E-01    0.905E+00
RMM:  22    -0.174095880789E+03    0.19165E+00   -0.21268E-01   716   0.706E-01    0.718E+00
RMM:  23    -0.173988687131E+03    0.10719E+00   -0.18273E-01   715   0.653E-01    0.643E+00
RMM:  24    -0.173843475523E+03    0.14521E+00   -0.13715E-01   711   0.576E-01    0.433E+00
RMM:  25    -0.173821628919E+03    0.21847E-01   -0.86396E-02   710   0.456E-01    0.408E+00
RMM:  26    -0.173829278270E+03   -0.76494E-02   -0.77386E-02   708   0.441E-01    0.467E+00
RMM:  27    -0.173747142683E+03    0.82136E-01   -0.45407E-02   710   0.351E-01    0.283E+00
RMM:  28    -0.173744679977E+03    0.24627E-02   -0.36421E-02   706   0.309E-01    0.274E+00
RMM:  29    -0.173725360139E+03    0.19320E-01   -0.27818E-02   709   0.265E-01    0.220E+00
RMM:  30    -0.173698219933E+03    0.27140E-01   -0.19865E-02   707   0.239E-01    0.130E+00
RMM:  31    -0.173699095395E+03   -0.87546E-03   -0.10297E-02   712   0.166E-01    0.143E+00
RMM:  32    -0.173691661584E+03    0.74338E-02   -0.53534E-03   713   0.120E-01    0.105E+00
RMM:  33    -0.173687285746E+03    0.43758E-02   -0.31242E-03   702   0.967E-02    0.653E-01
RMM:  34    -0.173689037753E+03   -0.17520E-02   -0.41684E-03   701   0.102E-01    0.863E-01
RMM:  35    -0.173686682721E+03    0.23550E-02   -0.32927E-03   701   0.906E-02    0.513E-01
RMM:  36    -0.173687450813E+03   -0.76809E-03   -0.16583E-03   703   0.667E-02    0.481E-01
RMM:  37    -0.173689078615E+03   -0.16278E-02   -0.10641E-03   697   0.538E-02    0.371E-01
RMM:  38    -0.173689937785E+03   -0.85917E-03   -0.64900E-04   650   0.421E-02    0.249E-01
RMM:  39    -0.173692817042E+03   -0.28793E-02   -0.76756E-04   683   0.418E-02    0.342E-01
RMM:  40    -0.173695743538E+03   -0.29265E-02   -0.72465E-04   645   0.422E-02    0.168E-01
RMM:  41    -0.173697988636E+03   -0.22451E-02   -0.50105E-04   561   0.330E-02    0.230E-01
RMM:  42    -0.173701932607E+03   -0.39440E-02   -0.70003E-04   590   0.345E-02    0.189E-01
RMM:  43    -0.173703199138E+03   -0.12665E-02   -0.26318E-04   447   0.225E-02    0.136E-01
RMM:  44    -0.173706027979E+03   -0.28288E-02   -0.36147E-04   468   0.238E-02    0.130E-01
RMM:  45    -0.173707225036E+03   -0.11971E-02   -0.20329E-04   437   0.188E-02    0.774E-02
RMM:  46    -0.173708614376E+03   -0.13893E-02   -0.15372E-04   415   0.159E-02    0.883E-02
RMM:  47    -0.173710013382E+03   -0.13990E-02   -0.14180E-04   425   0.149E-02    0.816E-02
RMM:  48    -0.173710851648E+03   -0.83827E-03   -0.84672E-05   418   0.112E-02    0.763E-02
RMM:  49    -0.173711701273E+03   -0.84963E-03   -0.65984E-05   419   0.961E-03    0.366E-02
RMM:  50    -0.173712117142E+03   -0.41587E-03   -0.33070E-05   394   0.681E-03    0.354E-02
RMM:  51    -0.173712899409E+03   -0.78227E-03   -0.28168E-05   393   0.621E-03    0.309E-02
RMM:  52    -0.173713200259E+03   -0.30085E-03   -0.11755E-05   256   0.473E-03    0.216E-02
RMM:  53    -0.173713727537E+03   -0.52728E-03   -0.15131E-05   314   0.505E-03    0.240E-02
RMM:  54    -0.173714131642E+03   -0.40410E-03   -0.10274E-05   231   0.454E-03    0.126E-02
RMM:  55    -0.173714320112E+03   -0.18847E-03   -0.49499E-06   175   0.392E-03    0.138E-02
RMM:  56    -0.173714663942E+03   -0.34383E-03   -0.11586E-05   224   0.420E-03    0.985E-03
RMM:  57    -0.173714783075E+03   -0.11913E-03   -0.30868E-06   132   0.345E-03    0.764E-03
RMM:  58    -0.173715020473E+03   -0.23740E-03   -0.17196E-05   235   0.434E-03    0.717E-03
RMM:  59    -0.173715091937E+03   -0.71464E-04   -0.21048E-06   116   0.334E-03
   1 F= -.17371509E+03 E0= -.17368708E+03  d E =-.112048E+00
================================= SLURM INFO ===================================
Command: run-cluster -n 1 -m 10000 -j 0377_vasp --same-node /opt/VASP/vasp
Exit code: 0
Job name: 0377_vasp
Job time: 0 days 5h:4m:33s
MPI task count: 1
Working dir: /home/pashkov/pyFitIt/pyfitit/data/random_pd_co_new/sample/0377
Job was running on nodes: h6
Task per node: 1
       JobID     MaxRSS  MaxDiskRead MaxDiskWrite    Elapsed    JobName 
------------ ---------- ------------ ------------ ---------- ---------- 
106013                                              05:04:34  0377_vasp 
106013.batch                                        05:04:34      batch 
