  57  57   0   0
  0.4736842E+03  0.3000000E-08  0.3000000E-08  0.3000000E-08  0.5000000E-15
  1.000000000000000E-004
  CAR 
 6_Pd100_top_free_z(O)                   
      1.31409959    -30.35354844  301     -4.14379814      1.00000000
    -30.354  0.0000E+00  0.0000E+00
    -30.248  0.0000E+00  0.0000E+00
    -30.142  0.0000E+00  0.0000E+00
    -30.037  0.2601E-27  0.2745E-28
    -29.931  0.1162E-23  0.1226E-24
    -29.826  0.2927E-20  0.3091E-21
    -29.720  0.4150E-17  0.4384E-18
    -29.615  0.3300E-14  0.3488E-15
    -29.509  0.1468E-11  0.1553E-12
    -29.404  0.3617E-09  0.3833E-10
    -29.298  0.4899E-07  0.5210E-08
    -29.192  0.3597E-05  0.3849E-06
    -29.087  0.1398E-03  0.1514E-04
    -28.981  0.2749E-02  0.3053E-03
    -28.876  0.2456E-01  0.2898E-02
    -28.770  0.6400E-01  0.9654E-02
    -28.665 -0.2277E+00 -0.1438E-01
    -28.559 -0.8140E+00 -0.1003E+00
    -28.453  0.2114E+01  0.1228E+00
    -28.348  0.8872E+01  0.1059E+01
    -28.242  0.8301E+01  0.1936E+01
    -28.137  0.1504E+01  0.2094E+01
    -28.031 -0.8184E+00  0.2008E+01
    -27.926 -0.1619E+00  0.1991E+01
    -27.820  0.6435E-01  0.1998E+01
    -27.715  0.2033E-01  0.2000E+01
    -27.609  0.2073E-02  0.2000E+01
    -27.503  0.9770E-04  0.2000E+01
    -27.398  0.2346E-05  0.2000E+01
    -27.292  0.2990E-07  0.2000E+01
    -27.187  0.2070E-09  0.2000E+01
    -27.081  0.7867E-12  0.2000E+01
    -26.976  0.2104E-14  0.2000E+01
    -26.870  0.0000E+00  0.2000E+01
    -26.765  0.0000E+00  0.2000E+01
    -26.659  0.0000E+00  0.2000E+01
    -26.553  0.0000E+00  0.2000E+01
    -26.448  0.0000E+00  0.2000E+01
    -26.342  0.0000E+00  0.2000E+01
    -26.237  0.0000E+00  0.2000E+01
    -26.131  0.0000E+00  0.2000E+01
    -26.026  0.0000E+00  0.2000E+01
    -25.920  0.0000E+00  0.2000E+01
    -25.815  0.0000E+00  0.2000E+01
    -25.709  0.0000E+00  0.2000E+01
    -25.603  0.0000E+00  0.2000E+01
    -25.498  0.0000E+00  0.2000E+01
    -25.392  0.0000E+00  0.2000E+01
    -25.287  0.0000E+00  0.2000E+01
    -25.181  0.0000E+00  0.2000E+01
    -25.076  0.0000E+00  0.2000E+01
    -24.970  0.0000E+00  0.2000E+01
    -24.864  0.0000E+00  0.2000E+01
    -24.759  0.0000E+00  0.2000E+01
    -24.653  0.0000E+00  0.2000E+01
    -24.548  0.0000E+00  0.2000E+01
    -24.442  0.0000E+00  0.2000E+01
    -24.337  0.0000E+00  0.2000E+01
    -24.231  0.0000E+00  0.2000E+01
    -24.126  0.0000E+00  0.2000E+01
    -24.020  0.0000E+00  0.2000E+01
    -23.914  0.0000E+00  0.2000E+01
    -23.809  0.0000E+00  0.2000E+01
    -23.703  0.0000E+00  0.2000E+01
    -23.598  0.0000E+00  0.2000E+01
    -23.492  0.0000E+00  0.2000E+01
    -23.387  0.0000E+00  0.2000E+01
    -23.281  0.0000E+00  0.2000E+01
    -23.176  0.0000E+00  0.2000E+01
    -23.070  0.0000E+00  0.2000E+01
    -22.964  0.0000E+00  0.2000E+01
    -22.859  0.0000E+00  0.2000E+01
    -22.753  0.0000E+00  0.2000E+01
    -22.648  0.0000E+00  0.2000E+01
    -22.542  0.0000E+00  0.2000E+01
    -22.437  0.0000E+00  0.2000E+01
    -22.331  0.0000E+00  0.2000E+01
    -22.226  0.0000E+00  0.2000E+01
    -22.120  0.0000E+00  0.2000E+01
    -22.014  0.0000E+00  0.2000E+01
    -21.909  0.0000E+00  0.2000E+01
    -21.803  0.0000E+00  0.2000E+01
    -21.698  0.0000E+00  0.2000E+01
    -21.592  0.0000E+00  0.2000E+01
    -21.487  0.0000E+00  0.2000E+01
    -21.381  0.0000E+00  0.2000E+01
    -21.275  0.0000E+00  0.2000E+01
    -21.170  0.0000E+00  0.2000E+01
    -21.064  0.0000E+00  0.2000E+01
    -20.959  0.0000E+00  0.2000E+01
    -20.853  0.0000E+00  0.2000E+01
    -20.748  0.0000E+00  0.2000E+01
    -20.642  0.0000E+00  0.2000E+01
    -20.537  0.0000E+00  0.2000E+01
    -20.431  0.0000E+00  0.2000E+01
    -20.325  0.0000E+00  0.2000E+01
    -20.220  0.0000E+00  0.2000E+01
    -20.114  0.0000E+00  0.2000E+01
    -20.009  0.0000E+00  0.2000E+01
    -19.903  0.0000E+00  0.2000E+01
    -19.798  0.0000E+00  0.2000E+01
    -19.692  0.0000E+00  0.2000E+01
    -19.587  0.0000E+00  0.2000E+01
    -19.481  0.0000E+00  0.2000E+01
    -19.375  0.0000E+00  0.2000E+01
    -19.270  0.0000E+00  0.2000E+01
    -19.164  0.0000E+00  0.2000E+01
    -19.059  0.0000E+00  0.2000E+01
    -18.953  0.0000E+00  0.2000E+01
    -18.848  0.0000E+00  0.2000E+01
    -18.742  0.0000E+00  0.2000E+01
    -18.637  0.0000E+00  0.2000E+01
    -18.531  0.0000E+00  0.2000E+01
    -18.425  0.0000E+00  0.2000E+01
    -18.320  0.0000E+00  0.2000E+01
    -18.214  0.0000E+00  0.2000E+01
    -18.109  0.0000E+00  0.2000E+01
    -18.003  0.0000E+00  0.2000E+01
    -17.898  0.0000E+00  0.2000E+01
    -17.792  0.0000E+00  0.2000E+01
    -17.686  0.0000E+00  0.2000E+01
    -17.581  0.0000E+00  0.2000E+01
    -17.475  0.0000E+00  0.2000E+01
    -17.370  0.0000E+00  0.2000E+01
    -17.264  0.0000E+00  0.2000E+01
    -17.159  0.0000E+00  0.2000E+01
    -17.053  0.0000E+00  0.2000E+01
    -16.948  0.0000E+00  0.2000E+01
    -16.842  0.0000E+00  0.2000E+01
    -16.736  0.0000E+00  0.2000E+01
    -16.631  0.0000E+00  0.2000E+01
    -16.525  0.0000E+00  0.2000E+01
    -16.420  0.0000E+00  0.2000E+01
    -16.314  0.0000E+00  0.2000E+01
    -16.209  0.0000E+00  0.2000E+01
    -16.103  0.0000E+00  0.2000E+01
    -15.998  0.0000E+00  0.2000E+01
    -15.892  0.0000E+00  0.2000E+01
    -15.786  0.0000E+00  0.2000E+01
    -15.681  0.0000E+00  0.2000E+01
    -15.575  0.0000E+00  0.2000E+01
    -15.470  0.0000E+00  0.2000E+01
    -15.364  0.0000E+00  0.2000E+01
    -15.259  0.0000E+00  0.2000E+01
    -15.153  0.0000E+00  0.2000E+01
    -15.048  0.4048E-26  0.2000E+01
    -14.942  0.1506E-22  0.2000E+01
    -14.836  0.3160E-19  0.2000E+01
    -14.731  0.3727E-16  0.2000E+01
    -14.625  0.2462E-13  0.2000E+01
    -14.520  0.9080E-11  0.2000E+01
    -14.414  0.1851E-08  0.2000E+01
    -14.309  0.2066E-06  0.2000E+01
    -14.203  0.1242E-04  0.2000E+01
    -14.097  0.3908E-03  0.2000E+01
    -13.992  0.6078E-02  0.2001E+01
    -13.886  0.4004E-01  0.2005E+01
    -13.781  0.3936E-01  0.2009E+01
    -13.675 -0.4676E+00  0.1960E+01
    -13.570 -0.5238E+00  0.1904E+01
    -13.464  0.4274E+01  0.2356E+01
    -13.359  0.9928E+01  0.3404E+01
    -13.253  0.6162E+01  0.4054E+01
    -13.147  0.1097E+00  0.4066E+01
    -13.042 -0.6680E+00  0.3995E+01
    -12.936 -0.1955E-01  0.3993E+01
    -12.831  0.5354E-01  0.3999E+01
    -12.725  0.1078E-01  0.4000E+01
    -12.620  0.8445E-03  0.4000E+01
    -12.514  0.3189E-04  0.4000E+01
    -12.409  0.6234E-06  0.4000E+01
    -12.303  0.6530E-08  0.4000E+01
    -12.197  0.5694E-09  0.4000E+01
    -12.092  0.6891E-07  0.4000E+01
    -11.986  0.4830E-05  0.4000E+01
    -11.881  0.1788E-03  0.4000E+01
    -11.775  0.3332E-02  0.4000E+01
    -11.670  0.2784E-01  0.4003E+01
    -11.564  0.6230E-01  0.4010E+01
    -11.459 -0.2720E+00  0.3981E+01
    -11.353 -0.7447E+00  0.3903E+01
    -11.247  0.2616E+01  0.4179E+01
    -11.142  0.8749E+01  0.5102E+01
    -11.036  0.7449E+01  0.5889E+01
    -10.931  0.5286E+01  0.6447E+01
    -10.825  0.8530E+01  0.7347E+01
    -10.720  0.9416E+01  0.8341E+01
    -10.614  0.9804E+01  0.9376E+01
    -10.508  0.6147E+01  0.1002E+02
    -10.403  0.4051E+00  0.1007E+02
    -10.297 -0.6727E+00  0.9997E+01
    -10.192 -0.3919E-01  0.9992E+01
    -10.086  0.5824E-01  0.9999E+01
     -9.981  0.1289E-01  0.1000E+02
     -9.875  0.1078E-02  0.1000E+02
     -9.770  0.4311E-04  0.1000E+02
     -9.664  0.8894E-06  0.1000E+02
     -9.558  0.9806E-08  0.1000E+02
     -9.453  0.5894E-10  0.1000E+02
     -9.347  0.1956E-12  0.1000E+02
     -9.242  0.0000E+00  0.1000E+02
     -9.136  0.0000E+00  0.1000E+02
     -9.031  0.0000E+00  0.1000E+02
     -8.925  0.0000E+00  0.1000E+02
     -8.820  0.0000E+00  0.1000E+02
     -8.714  0.0000E+00  0.1000E+02
     -8.608  0.0000E+00  0.1000E+02
     -8.503  0.0000E+00  0.1000E+02
     -8.397  0.0000E+00  0.1000E+02
     -8.292  0.1372E-25  0.1000E+02
     -8.186  0.4701E-22  0.1000E+02
     -8.081  0.9079E-19  0.1000E+02
     -7.975  0.9851E-16  0.1000E+02
     -7.870  0.5983E-13  0.1000E+02
     -7.764  0.2028E-10  0.1000E+02
     -7.658  0.3791E-08  0.1000E+02
     -7.553  0.3875E-06  0.1000E+02
     -7.447  0.2127E-04  0.1000E+02
     -7.342  0.6076E-03  0.1000E+02
     -7.236  0.8469E-02  0.1000E+02
     -7.131  0.4806E-01  0.1001E+02
     -7.025  0.1684E-01  0.1001E+02
     -6.919 -0.5350E+00  0.9951E+01
     -6.814 -0.8593E-01  0.9942E+01
     -6.708  0.4924E+01  0.1046E+02
     -6.603  0.8560E+01  0.1137E+02
     -6.497  0.9211E+01  0.1234E+02
     -6.392  0.1548E+02  0.1397E+02
     -6.286  0.1665E+02  0.1573E+02
     -6.181  0.2135E+02  0.1798E+02
     -6.075  0.2645E+02  0.2078E+02
     -5.969  0.1077E+02  0.2191E+02
     -5.864  0.1293E+02  0.2328E+02
     -5.758  0.5264E+02  0.2883E+02
     -5.653  0.1104E+03  0.4049E+02
     -5.547  0.2022E+03  0.6183E+02
     -5.442  0.2898E+03  0.9242E+02
     -5.336  0.2711E+03  0.1210E+03
     -5.231  0.2071E+03  0.1429E+03
     -5.125  0.2369E+03  0.1679E+03
     -5.019  0.3357E+03  0.2033E+03
     -4.914  0.3603E+03  0.2414E+03
     -4.808  0.2984E+03  0.2729E+03
     -4.703  0.3087E+03  0.3055E+03
     -4.597  0.3944E+03  0.3471E+03
     -4.492  0.4203E+03  0.3914E+03
     -4.386  0.4447E+03  0.4384E+03
     -4.281  0.5381E+03  0.4952E+03
     -4.175  0.5076E+03  0.5488E+03
     -4.069  0.2566E+03  0.5759E+03
     -3.964  0.4853E+02  0.5810E+03
     -3.858  0.1986E+02  0.5831E+03
     -3.753  0.3291E+02  0.5866E+03
     -3.647  0.1435E+02  0.5881E+03
     -3.542  0.9131E+01  0.5890E+03
     -3.436  0.2178E+02  0.5913E+03
     -3.330  0.1768E+02  0.5932E+03
     -3.225  0.2801E+01  0.5935E+03
     -3.119  0.1614E+02  0.5952E+03
     -3.014  0.5644E+02  0.6012E+03
     -2.908  0.5716E+02  0.6072E+03
     -2.803  0.2146E+02  0.6095E+03
     -2.697  0.3826E+01  0.6099E+03
     -2.592  0.1556E+02  0.6115E+03
     -2.486  0.2865E+02  0.6145E+03
     -2.380  0.1369E+02  0.6160E+03
     -2.275  0.3679E+01  0.6164E+03
     -2.169  0.2253E+02  0.6187E+03
     -2.064  0.3718E+02  0.6227E+03
     -1.958  0.3847E+02  0.6267E+03
     -1.853  0.4217E+02  0.6312E+03
     -1.747  0.4200E+02  0.6356E+03
     -1.642  0.4087E+02  0.6399E+03
     -1.536  0.3620E+02  0.6437E+03
     -1.430  0.2717E+02  0.6466E+03
     -1.325  0.1922E+02  0.6486E+03
     -1.219  0.7390E+01  0.6494E+03
     -1.114  0.8543E+01  0.6503E+03
     -1.008  0.4690E+02  0.6553E+03
     -0.903  0.7763E+02  0.6635E+03
     -0.797  0.5493E+02  0.6693E+03
     -0.692  0.1987E+02  0.6714E+03
     -0.586  0.5763E+01  0.6720E+03
     -0.480  0.8034E+00  0.6721E+03
     -0.375 -0.5706E+00  0.6720E+03
     -0.269 -0.5913E-01  0.6720E+03
     -0.164  0.9267E-01  0.6720E+03
     -0.058  0.2679E-01  0.6720E+03
      0.047  0.2837E-02  0.6720E+03
      0.153  0.1417E-03  0.6720E+03
      0.259  0.3619E-05  0.6720E+03
      0.364  0.4913E-07  0.6720E+03
      0.470  0.3622E-09  0.6720E+03
      0.575  0.1468E-11  0.6720E+03
      0.681  0.4207E-14  0.6720E+03
      0.786  0.0000E+00  0.6720E+03
      0.892  0.0000E+00  0.6720E+03
      0.997  0.0000E+00  0.6720E+03
      1.103  0.0000E+00  0.6720E+03
      1.209  0.0000E+00  0.6720E+03
      1.314  0.0000E+00  0.6720E+03
