   57   57    1    1
  0.4736842E+03  0.3000000E-08  0.3000000E-08  0.3000000E-08  0.5000000E-15
  1.000000000000000E-004
  CAR 
 6_Pd100_top_free_z(O)                   
    560      1    336
 
  0.0000000E+00  0.0000000E+00  0.0000000E+00  0.1000000E+01
    1      -28.146179   1.000000
    2      -13.834249   1.000000
    3      -11.920912   1.000000
    4      -11.152339   1.000000
    5      -10.834237   1.000000
    6       -7.077766   1.000000
    7       -6.854849   1.000000
    8       -6.655277   1.000000
    9       -6.289828   1.000000
   10       -6.156552   1.000000
   11       -6.136033   1.000000
   12       -6.126719   1.000000
   13       -6.044204   1.000000
   14       -5.962342   1.000000
   15       -5.842996   1.000000
   16       -5.812563   1.000000
   17       -5.805049   1.000000
   18       -5.740082   1.000000
   19       -5.700953   1.000000
   20       -5.690458   1.000000
   21       -5.688768   1.000000
   22       -5.681901   1.000000
   23       -5.637145   1.000000
   24       -5.621060   1.000000
   25       -5.605619   1.000000
   26       -5.600121   1.000000
   27       -5.594075   1.000000
   28       -5.587258   1.000000
   29       -5.567985   1.000000
   30       -5.566139   1.000000
   31       -5.550531   1.000000
   32       -5.545221   1.000000
   33       -5.530797   1.000000
   34       -5.529603   1.000000
   35       -5.519601   1.000000
   36       -5.518837   1.000000
   37       -5.515590   1.000000
   38       -5.512717   1.000000
   39       -5.508662   1.000000
   40       -5.500860   1.000000
   41       -5.486101   1.000000
   42       -5.478369   1.000000
   43       -5.476444   1.000000
   44       -5.471816   1.000000
   45       -5.469230   1.000000
   46       -5.465464   1.000000
   47       -5.453461   1.000000
   48       -5.449479   1.000000
   49       -5.445150   1.000000
   50       -5.431228   1.000000
   51       -5.429959   1.000000
   52       -5.426013   1.000000
   53       -5.422608   1.000000
   54       -5.416085   1.000000
   55       -5.409123   1.000000
   56       -5.404045   1.000000
   57       -5.402732   1.000000
   58       -5.397990   1.000000
   59       -5.384076   1.000000
   60       -5.382901   1.000000
   61       -5.349180   1.000000
   62       -5.332730   1.000000
   63       -5.324181   1.000000
   64       -5.323265   1.000000
   65       -5.316639   1.000000
   66       -5.315816   1.000000
   67       -5.313477   1.000000
   68       -5.301338   1.000000
   69       -5.299159   1.000000
   70       -5.288289   1.000000
   71       -5.273040   1.000000
   72       -5.245915   1.000000
   73       -5.224732   1.000000
   74       -5.211767   1.000000
   75       -5.205443   1.000000
   76       -5.200595   1.000000
   77       -5.192766   1.000000
   78       -5.188298   1.000000
   79       -5.179866   1.000000
   80       -5.176771   1.000000
   81       -5.173426   1.000000
   82       -5.165355   1.000000
   83       -5.161904   1.000000
   84       -5.154966   1.000000
   85       -5.139768   1.000000
   86       -5.137742   1.000000
   87       -5.126530   1.000000
   88       -5.123715   1.000000
   89       -5.108517   1.000000
   90       -5.107378   1.000000
   91       -5.098544   1.000000
   92       -5.078563   1.000000
   93       -5.069629   1.000000
   94       -5.062209   1.000000
   95       -5.055723   1.000000
   96       -5.053299   1.000000
   97       -5.051981   1.000000
   98       -5.047728   1.000000
   99       -5.041716   1.000000
  100       -5.040579   1.000000
  101       -5.030390   1.000000
  102       -5.029122   1.000000
  103       -5.026820   1.000000
  104       -5.017519   1.000000
  105       -5.013386   1.000000
  106       -5.005962   1.000000
  107       -5.004372   1.000000
  108       -5.002501   1.000000
  109       -4.996466   1.000000
  110       -4.988543   1.000000
  111       -4.981026   1.000000
  112       -4.978117   1.000000
  113       -4.971995   1.000000
  114       -4.970099   1.000000
  115       -4.964516   1.000000
  116       -4.957175   0.999999
  117       -4.954190   0.999999
  118       -4.949114   0.999999
  119       -4.942800   0.999999
  120       -4.936440   0.999999
  121       -4.933333   0.999999
  122       -4.923781   0.999998
  123       -4.916572   0.999998
  124       -4.909026   0.999997
  125       -4.907758   0.999997
  126       -4.904161   0.999996
  127       -4.900488   0.999996
  128       -4.896287   0.999995
  129       -4.878452   0.999991
  130       -4.864798   0.999987
  131       -4.860417   0.999985
  132       -4.854034   0.999982
  133       -4.841167   0.999973
  134       -4.840743   0.999973
  135       -4.834834   0.999968
  136       -4.834560   0.999968
  137       -4.831000   0.999964
  138       -4.813790   0.999942
  139       -4.812511   0.999940
  140       -4.806310   0.999929
  141       -4.798009   0.999911
  142       -4.790858   0.999893
  143       -4.785167   0.999876
  144       -4.781643   0.999864
  145       -4.767151   0.999805
  146       -4.762203   0.999780
  147       -4.758354   0.999759
  148       -4.754223   0.999734
  149       -4.734107   0.999579
  150       -4.732425   0.999563
  151       -4.720732   0.999438
  152       -4.720420   0.999434
  153       -4.710020   0.999298
  154       -4.697448   0.999099
  155       -4.689311   0.998948
  156       -4.686918   0.998900
  157       -4.682224   0.998801
  158       -4.678577   0.998720
  159       -4.673553   0.998602
  160       -4.669842   0.998510
  161       -4.668052   0.998464
  162       -4.665408   0.998394
  163       -4.657697   0.998179
  164       -4.655067   0.998101
  165       -4.648302   0.997893
  166       -4.646378   0.997831
  167       -4.645797   0.997812
  168       -4.643476   0.997736
  169       -4.640131   0.997624
  170       -4.637925   0.997549
  171       -4.630674   0.997294
  172       -4.622109   0.996981
  173       -4.614283   0.996688
  174       -4.612308   0.996613
  175       -4.604885   0.996335
  176       -4.597887   0.996078
  177       -4.597578   0.996067
  178       -4.593313   0.995917
  179       -4.592487   0.995888
  180       -4.587450   0.995720
  181       -4.577847   0.995434
  182       -4.574899   0.995358
  183       -4.573529   0.995325
  184       -4.567512   0.995200
  185       -4.564971   0.995158
  186       -4.562286   0.995121
  187       -4.556470   0.995072
  188       -4.550196   0.995073
  189       -4.548364   0.995085
  190       -4.546187   0.995106
  191       -4.542269   0.995167
  192       -4.539637   0.995225
  193       -4.517581   0.996351
  194       -4.515466   0.996530
  195       -4.508945   0.997170
  196       -4.505319   0.997589
  197       -4.500197   0.998261
  198       -4.497477   0.998658
  199       -4.493981   0.999210
  200       -4.487728   1.000321
  201       -4.477843   1.002417
  202       -4.472809   1.003649
  203       -4.465960   1.005512
  204       -4.465347   1.005689
  205       -4.463427   1.006255
  206       -4.451434   1.010168
  207       -4.451088   1.010291
  208       -4.446416   1.011995
  209       -4.445231   1.012442
  210       -4.441614   1.013842
  211       -4.435842   1.016183
  212       -4.427491   1.019782
  213       -4.424611   1.021074
  214       -4.421724   1.022391
  215       -4.414481   1.025777
  216       -4.409193   1.028301
  217       -4.408315   1.028723
  218       -4.405366   1.030142
  219       -4.400457   1.032505
  220       -4.396640   1.034330
  221       -4.389618   1.037626
  222       -4.376811   1.043208
  223       -4.372579   1.044862
  224       -4.365096   1.047459
  225       -4.359922   1.048957
  226       -4.349171   1.051090
  227       -4.343358   1.051579
  228       -4.339870   1.051613
  229       -4.336419   1.051438
  230       -4.334311   1.051223
  231       -4.333280   1.051086
  232       -4.332028   1.050892
  233       -4.328442   1.050160
  234       -4.326250   1.049577
  235       -4.325334   1.049303
  236       -4.321953   1.048123
  237       -4.321088   1.047779
  238       -4.317974   1.046388
  239       -4.316383   1.045586
  240       -4.309710   1.041498
  241       -4.309593   1.041415
  242       -4.298957   1.032274
  243       -4.295292   1.028330
  244       -4.292020   1.024444
  245       -4.289306   1.020955
  246       -4.285625   1.015826
  247       -4.284362   1.013960
  248       -4.281499   1.009520
  249       -4.279442   1.006152
  250       -4.274108   0.996707
  251       -4.268337   0.985309
  252       -4.265003   0.978153
  253       -4.261581   0.970368
  254       -4.260803   0.968536
  255       -4.255415   0.955207
  256       -4.254323   0.952367
  257       -4.251490   0.944788
  258       -4.247733   0.934255
  259       -4.246397   0.930378
  260       -4.245945   0.929052
  261       -4.241937   0.916938
  262       -4.240559   0.912628
  263       -4.239076   0.907912
  264       -4.237609   0.903162
  265       -4.235459   0.896051
  266       -4.231555   0.882700
  267       -4.226141   0.863245
  268       -4.223246   0.852403
  269       -4.220249   0.840868
  270       -4.218534   0.834126
  271       -4.216963   0.827863
  272       -4.210931   0.803043
  273       -4.204993   0.777474
  274       -4.199331   0.752115
  275       -4.186115   0.689623
  276       -4.181859   0.668651
  277       -4.176785   0.643193
  278       -4.174146   0.629786
  279       -4.172786   0.622832
  280       -4.170859   0.612939
  281       -4.157873   0.545210
  282       -4.155013   0.530128
  283       -4.139149   0.446346
  284       -4.133108   0.414723
  285       -4.127873   0.387607
  286       -4.126949   0.382851
  287       -4.117173   0.333368
  288       -4.111276   0.304363
  289       -4.027784   0.009590
  290       -3.961260  -0.051508
  291       -3.896840  -0.031865
  292       -3.829091  -0.004513
  293       -3.814797  -0.001097
  294       -3.629142   0.001500
  295       -3.506853   0.000105
  296       -3.493673   0.000074
  297       -3.331874   0.000000
  298       -3.087105   0.000000
  299       -3.063399   0.000000
  300       -3.047347   0.000000
  301       -3.043637   0.000000
  302       -3.020822   0.000000
  303       -2.958266   0.000000
  304       -2.951185   0.000000
  305       -2.727933   0.000000
  306       -2.536912   0.000000
  307       -2.529670   0.000000
  308       -2.364457   0.000000
  309       -2.263482   0.000000
  310       -2.124905   0.000000
  311       -2.119247   0.000000
  312       -2.113322   0.000000
  313       -2.008937   0.000000
  314       -1.966326   0.000000
  315       -1.918574   0.000000
  316       -1.872266   0.000000
  317       -1.779221   0.000000
  318       -1.737663   0.000000
  319       -1.690621   0.000000
  320       -1.647794   0.000000
  321       -1.586943   0.000000
  322       -1.558815   0.000000
  323       -1.380626   0.000000
  324       -1.299797   0.000000
  325       -1.253105   0.000000
  326       -1.145773   0.000000
  327       -1.081956   0.000000
  328       -0.989345   0.000000
  329       -0.986542   0.000000
  330       -0.973922   0.000000
  331       -0.946130   0.000000
  332       -0.935671   0.000000
  333       -0.888538   0.000000
  334       -0.872941   0.000000
  335       -0.820103   0.000000
  336       -0.661661   0.000000
