       N       E                     dE             d eps       ncg     rms          rms(c)
DAV:   1     0.438268906692E+04    0.43827E+04   -0.10050E+05   688   0.815E+02
DAV:   2     0.201034312245E+04   -0.23723E+04   -0.21345E+04  1224   0.105E+02
DAV:   3     0.233452671012E+03   -0.17769E+04   -0.16734E+04  1000   0.916E+01
DAV:   4    -0.132759966562E+03   -0.36621E+03   -0.30919E+03   824   0.433E+01
DAV:   5    -0.179152047072E+03   -0.46392E+02   -0.38145E+02  1048   0.145E+01    0.139E+01
RMM:   6    -0.178867994166E+03    0.28405E+00   -0.50914E+01   719   0.848E+00    0.246E+01
RMM:   7    -0.180935182329E+03   -0.20672E+01   -0.18453E+01   864   0.415E+00    0.217E+01
RMM:   8    -0.183496129203E+03   -0.25609E+01   -0.62765E+00   785   0.320E+00    0.237E+01
RMM:   9    -0.181753391528E+03    0.17427E+01   -0.53308E+00   732   0.321E+00    0.225E+01
RMM:  10    -0.179355294478E+03    0.23981E+01   -0.29233E+00   732   0.256E+00    0.204E+01
RMM:  11    -0.177716346014E+03    0.16389E+01   -0.16019E+00   730   0.189E+00    0.152E+01
RMM:  12    -0.177386663245E+03    0.32968E+00   -0.13223E+00   723   0.170E+00    0.192E+01
RMM:  13    -0.176476683461E+03    0.90998E+00   -0.71606E-01   728   0.124E+00    0.132E+01
RMM:  14    -0.176387498452E+03    0.89185E-01   -0.10774E+00   716   0.153E+00    0.137E+01
RMM:  15    -0.176799198762E+03   -0.41170E+00   -0.10209E+00   721   0.149E+00    0.294E+01
RMM:  16    -0.176777681231E+03    0.21518E-01   -0.84681E-01   709   0.134E+00    0.340E+01
RMM:  17    -0.175318790189E+03    0.14589E+01   -0.45807E-01   714   0.982E-01    0.114E+01
RMM:  18    -0.175147989484E+03    0.17080E+00   -0.49457E-01   712   0.104E+00    0.939E+00
RMM:  19    -0.175453161054E+03   -0.30517E+00   -0.33961E-01   720   0.866E-01    0.137E+01
RMM:  20    -0.175141183476E+03    0.31198E+00   -0.22148E-01   716   0.742E-01    0.110E+01
RMM:  21    -0.174910853439E+03    0.23033E+00   -0.18323E-01   708   0.679E-01    0.800E+00
RMM:  22    -0.174806078725E+03    0.10477E+00   -0.15055E-01   705   0.597E-01    0.660E+00
RMM:  23    -0.174722335355E+03    0.83743E-01   -0.16329E-01   699   0.623E-01    0.557E+00
RMM:  24    -0.174742819436E+03   -0.20484E-01   -0.18407E-01   699   0.654E-01    0.750E+00
RMM:  25    -0.174713207261E+03    0.29612E-01   -0.15318E-01   703   0.622E-01    0.657E+00
RMM:  26    -0.174560159758E+03    0.15305E+00   -0.10082E-01   696   0.515E-01    0.363E+00
RMM:  27    -0.174526089262E+03    0.34070E-01   -0.53791E-02   697   0.373E-01    0.285E+00
RMM:  28    -0.174534642727E+03   -0.85535E-02   -0.37628E-02   695   0.309E-01    0.345E+00
RMM:  29    -0.174494711711E+03    0.39931E-01   -0.26081E-02   693   0.265E-01    0.254E+00
RMM:  30    -0.174464375001E+03    0.30337E-01   -0.17788E-02   694   0.224E-01    0.165E+00
RMM:  31    -0.174453942812E+03    0.10432E-01   -0.90705E-03   693   0.156E-01    0.128E+00
RMM:  32    -0.174451360748E+03    0.25821E-02   -0.84651E-03   695   0.140E-01    0.145E+00
RMM:  33    -0.174444350636E+03    0.70101E-02   -0.58262E-03   693   0.123E-01    0.117E+00
RMM:  34    -0.174442372991E+03    0.19776E-02   -0.39601E-03   696   0.101E-01    0.104E+00
RMM:  35    -0.174440343856E+03    0.20291E-02   -0.37635E-03   692   0.958E-02    0.824E-01
RMM:  36    -0.174439564234E+03    0.77962E-03   -0.31540E-03   691   0.907E-02    0.646E-01
RMM:  37    -0.174439073805E+03    0.49043E-03   -0.14963E-03   690   0.612E-02    0.447E-01
RMM:  38    -0.174440409559E+03   -0.13358E-02   -0.10506E-03   686   0.486E-02    0.401E-01
RMM:  39    -0.174443405003E+03   -0.29954E-02   -0.12030E-03   686   0.516E-02    0.338E-01
RMM:  40    -0.174446296660E+03   -0.28917E-02   -0.12078E-03   687   0.482E-02    0.393E-01
RMM:  41    -0.174449846767E+03   -0.35501E-02   -0.12782E-03   689   0.489E-02    0.326E-01
RMM:  42    -0.174451120516E+03   -0.12737E-02   -0.58975E-04   584   0.353E-02    0.204E-01
RMM:  43    -0.174452630344E+03   -0.15098E-02   -0.26592E-04   428   0.249E-02    0.197E-01
RMM:  44    -0.174455030763E+03   -0.24004E-02   -0.31064E-04   447   0.257E-02    0.120E-01
RMM:  45    -0.174455865966E+03   -0.83520E-03   -0.13012E-04   418   0.184E-02    0.120E-01
RMM:  46    -0.174456707454E+03   -0.84149E-03   -0.67047E-05   400   0.146E-02    0.919E-02
RMM:  47    -0.174457290957E+03   -0.58350E-03   -0.44895E-05   389   0.107E-02    0.849E-02
RMM:  48    -0.174459653757E+03   -0.23628E-02   -0.14607E-04   408   0.156E-02    0.111E-01
RMM:  49    -0.174460417032E+03   -0.76327E-03   -0.74205E-05   412   0.115E-02    0.733E-02
RMM:  50    -0.174460939799E+03   -0.52277E-03   -0.32185E-05   399   0.727E-03    0.558E-02
RMM:  51    -0.174461366363E+03   -0.42656E-03   -0.15450E-05   335   0.570E-03    0.436E-02
RMM:  52    -0.174462342439E+03   -0.97608E-03   -0.25574E-05   397   0.668E-03    0.492E-02
RMM:  53    -0.174463099397E+03   -0.75696E-03   -0.25247E-05   398   0.643E-03    0.313E-02
RMM:  54    -0.174463617428E+03   -0.51803E-03   -0.24734E-05   366   0.577E-03    0.327E-02
RMM:  55    -0.174463938011E+03   -0.32058E-03   -0.20772E-05   325   0.533E-03    0.200E-02
RMM:  56    -0.174464142696E+03   -0.20468E-03   -0.11044E-05   251   0.457E-03    0.230E-02
RMM:  57    -0.174464332390E+03   -0.18969E-03   -0.10951E-05   216   0.428E-03    0.170E-02
RMM:  58    -0.174464389810E+03   -0.57420E-04   -0.31549E-06   137   0.359E-03
   1 F= -.17446439E+03 E0= -.17444000E+03  d E =-.975631E-01
