   57   57    1    1
  0.4736842E+03  0.3000000E-08  0.3000000E-08  0.3000000E-08  0.5000000E-15
  1.000000000000000E-004
  CAR 
 6_Pd100_top_free_z(O)                   
    560      1    336
 
  0.0000000E+00  0.0000000E+00  0.0000000E+00  0.1000000E+01
    1      -28.540367   1.000000
    2      -13.311502   1.000000
    3      -11.200775   1.000000
    4      -10.971650   1.000000
    5       -9.914917   1.000000
    6       -6.654496   1.000000
    7       -6.149962   1.000000
    8       -6.134628   1.000000
    9       -6.132632   1.000000
   10       -5.887452   1.000000
   11       -5.846993   1.000000
   12       -5.841120   1.000000
   13       -5.810367   1.000000
   14       -5.799079   1.000000
   15       -5.749217   1.000000
   16       -5.697559   1.000000
   17       -5.693084   1.000000
   18       -5.685167   1.000000
   19       -5.677186   1.000000
   20       -5.640784   1.000000
   21       -5.625086   1.000000
   22       -5.617591   1.000000
   23       -5.610795   1.000000
   24       -5.605939   1.000000
   25       -5.598211   1.000000
   26       -5.576450   1.000000
   27       -5.556813   1.000000
   28       -5.554268   1.000000
   29       -5.550787   1.000000
   30       -5.545933   1.000000
   31       -5.529581   1.000000
   32       -5.524682   1.000000
   33       -5.521081   1.000000
   34       -5.520236   1.000000
   35       -5.518139   1.000000
   36       -5.509756   1.000000
   37       -5.501129   1.000000
   38       -5.492615   1.000000
   39       -5.481535   1.000000
   40       -5.479608   1.000000
   41       -5.477547   1.000000
   42       -5.474011   1.000000
   43       -5.473312   1.000000
   44       -5.461266   1.000000
   45       -5.454945   1.000000
   46       -5.444980   1.000000
   47       -5.434982   1.000000
   48       -5.433286   1.000000
   49       -5.429575   1.000000
   50       -5.427664   1.000000
   51       -5.426315   1.000000
   52       -5.411795   1.000000
   53       -5.411051   1.000000
   54       -5.409752   1.000000
   55       -5.402870   1.000000
   56       -5.394141   1.000000
   57       -5.380198   1.000000
   58       -5.356266   1.000000
   59       -5.333339   1.000000
   60       -5.330794   1.000000
   61       -5.327152   1.000000
   62       -5.324508   1.000000
   63       -5.314256   1.000000
   64       -5.307141   1.000000
   65       -5.305582   1.000000
   66       -5.302756   1.000000
   67       -5.291617   1.000000
   68       -5.285029   1.000000
   69       -5.268189   1.000000
   70       -5.224362   1.000000
   71       -5.212151   1.000000
   72       -5.211043   1.000000
   73       -5.206395   1.000000
   74       -5.201416   1.000000
   75       -5.190012   1.000000
   76       -5.182988   1.000000
   77       -5.181816   1.000000
   78       -5.170141   1.000000
   79       -5.167783   1.000000
   80       -5.165411   1.000000
   81       -5.159472   1.000000
   82       -5.154216   1.000000
   83       -5.143048   1.000000
   84       -5.130537   1.000000
   85       -5.128015   1.000000
   86       -5.118726   1.000000
   87       -5.112818   1.000000
   88       -5.105817   1.000000
   89       -5.086995   1.000000
   90       -5.071521   1.000000
   91       -5.060770   1.000000
   92       -5.060299   1.000000
   93       -5.057089   1.000000
   94       -5.056548   1.000000
   95       -5.051582   1.000000
   96       -5.044128   1.000000
   97       -5.036464   1.000000
   98       -5.035273   1.000000
   99       -5.033355   1.000000
  100       -5.027014   1.000000
  101       -5.021284   1.000000
  102       -5.018250   1.000000
  103       -5.014624   1.000000
  104       -5.008869   1.000000
  105       -4.999181   1.000000
  106       -4.998114   1.000000
  107       -4.993037   1.000000
  108       -4.990463   1.000000
  109       -4.986564   1.000000
  110       -4.979221   1.000000
  111       -4.976986   1.000000
  112       -4.973828   1.000000
  113       -4.968722   1.000000
  114       -4.964247   0.999999
  115       -4.960847   0.999999
  116       -4.957532   0.999999
  117       -4.951452   0.999999
  118       -4.943082   0.999999
  119       -4.941399   0.999999
  120       -4.933370   0.999998
  121       -4.924683   0.999998
  122       -4.918624   0.999997
  123       -4.913830   0.999997
  124       -4.905974   0.999996
  125       -4.904809   0.999996
  126       -4.903891   0.999996
  127       -4.899386   0.999995
  128       -4.877872   0.999990
  129       -4.862971   0.999984
  130       -4.850282   0.999977
  131       -4.846938   0.999975
  132       -4.845601   0.999974
  133       -4.845130   0.999973
  134       -4.840850   0.999970
  135       -4.838248   0.999967
  136       -4.834768   0.999964
  137       -4.833369   0.999962
  138       -4.799659   0.999905
  139       -4.797809   0.999901
  140       -4.795315   0.999894
  141       -4.792999   0.999887
  142       -4.786193   0.999866
  143       -4.778288   0.999836
  144       -4.768613   0.999792
  145       -4.766202   0.999780
  146       -4.762207   0.999758
  147       -4.745193   0.999640
  148       -4.734568   0.999545
  149       -4.727785   0.999473
  150       -4.721941   0.999403
  151       -4.720304   0.999383
  152       -4.708082   0.999208
  153       -4.691149   0.998904
  154       -4.689060   0.998861
  155       -4.688418   0.998848
  156       -4.685873   0.998793
  157       -4.677983   0.998611
  158       -4.677436   0.998598
  159       -4.672883   0.998484
  160       -4.665877   0.998297
  161       -4.658497   0.998083
  162       -4.657691   0.998059
  163       -4.654035   0.997946
  164       -4.651962   0.997881
  165       -4.651150   0.997855
  166       -4.650376   0.997830
  167       -4.650128   0.997822
  168       -4.649062   0.997787
  169       -4.645009   0.997653
  170       -4.639223   0.997454
  171       -4.627424   0.997028
  172       -4.620589   0.996773
  173       -4.611446   0.996429
  174       -4.600979   0.996045
  175       -4.600189   0.996016
  176       -4.599827   0.996004
  177       -4.599410   0.995989
  178       -4.592196   0.995743
  179       -4.581598   0.995426
  180       -4.580645   0.995401
  181       -4.579397   0.995369
  182       -4.574921   0.995266
  183       -4.572148   0.995211
  184       -4.568523   0.995151
  185       -4.558371   0.995066
  186       -4.556208   0.995066
  187       -4.555193   0.995069
  188       -4.553302   0.995078
  189       -4.552954   0.995080
  190       -4.551508   0.995093
  191       -4.522023   0.996318
  192       -4.512681   0.997203
  193       -4.511091   0.997382
  194       -4.509579   0.997561
  195       -4.508878   0.997647
  196       -4.503706   0.998335
  197       -4.496309   0.999497
  198       -4.489625   1.000738
  199       -4.481772   1.002441
  200       -4.474749   1.004196
  201       -4.472769   1.004731
  202       -4.472193   1.004890
  203       -4.467953   1.006108
  204       -4.463251   1.007554
  205       -4.457677   1.009398
  206       -4.454581   1.010483
  207       -4.451098   1.011752
  208       -4.450312   1.012046
  209       -4.444151   1.014437
  210       -4.443135   1.014845
  211       -4.437529   1.017171
  212       -4.429380   1.020741
  213       -4.419972   1.025087
  214       -4.414594   1.027645
  215       -4.413180   1.028323
  216       -4.411004   1.029369
  217       -4.410023   1.029841
  218       -4.404200   1.032644
  219       -4.395678   1.036686
  220       -4.374840   1.045518
  221       -4.373497   1.045998
  222       -4.371345   1.046739
  223       -4.364957   1.048689
  224       -4.359234   1.050071
  225       -4.349603   1.051454
  226       -4.343424   1.051602
  227       -4.341429   1.051510
  228       -4.340786   1.051465
  229       -4.337669   1.051136
  230       -4.336834   1.051016
  231       -4.335680   1.050827
  232       -4.332207   1.050094
  233       -4.331215   1.049838
  234       -4.327610   1.048723
  235       -4.327159   1.048562
  236       -4.324757   1.047628
  237       -4.323795   1.047215
  238       -4.322418   1.046585
  239       -4.320830   1.045800
  240       -4.315359   1.042597
  241       -4.305997   1.035199
  242       -4.305450   1.034687
  243       -4.290576   1.017149
  244       -4.289993   1.016311
  245       -4.288407   1.013976
  246       -4.286715   1.011388
  247       -4.286550   1.011131
  248       -4.285696   1.009782
  249       -4.279409   0.999045
  250       -4.272587   0.985759
  251       -4.268325   0.976571
  252       -4.266778   0.973066
  253       -4.258416   0.952524
  254       -4.257180   0.949258
  255       -4.254351   0.941560
  256       -4.253048   0.937910
  257       -4.251924   0.934709
  258       -4.251220   0.932680
  259       -4.250165   0.929601
  260       -4.247292   0.921002
  261       -4.245628   0.915875
  262       -4.244194   0.911370
  263       -4.242768   0.906813
  264       -4.240152   0.898254
  265       -4.236719   0.886626
  266       -4.236055   0.884326
  267       -4.227866   0.854625
  268       -4.224509   0.841754
  269       -4.222666   0.834519
  270       -4.221063   0.828130
  271       -4.217416   0.813277
  272       -4.212848   0.794055
  273       -4.207382   0.770205
  274       -4.203432   0.752423
  275       -4.186993   0.674110
  276       -4.184956   0.663990
  277       -4.183279   0.655596
  278       -4.177348   0.625540
  279       -4.175832   0.617771
  280       -4.175425   0.615680
  281       -4.172370   0.599914
  282       -4.160048   0.535415
  283       -4.134310   0.400017
  284       -4.133309   0.394840
  285       -4.130957   0.382723
  286       -4.130045   0.378046
  287       -4.118273   0.318853
  288       -4.114991   0.302816
  289       -4.094714   0.209676
  290       -3.967451  -0.051325
  291       -3.908572  -0.035540
  292       -3.817795  -0.000885
  293       -3.817237  -0.000772
  294       -3.727102   0.004626
  295       -3.500350   0.000079
  296       -3.497440   0.000073
  297       -3.446447   0.000017
  298       -3.075538   0.000000
  299       -3.063632   0.000000
  300       -3.041403   0.000000
  301       -3.036792   0.000000
  302       -3.013185   0.000000
  303       -2.979802   0.000000
  304       -2.943409   0.000000
  305       -2.832352   0.000000
  306       -2.555551   0.000000
  307       -2.526877   0.000000
  308       -2.455868   0.000000
  309       -2.362154   0.000000
  310       -2.153780   0.000000
  311       -2.118274   0.000000
  312       -2.114956   0.000000
  313       -2.023836   0.000000
  314       -1.991433   0.000000
  315       -1.924734   0.000000
  316       -1.885532   0.000000
  317       -1.860288   0.000000
  318       -1.773936   0.000000
  319       -1.729498   0.000000
  320       -1.649619   0.000000
  321       -1.619237   0.000000
  322       -1.558624   0.000000
  323       -1.472684   0.000000
  324       -1.273968   0.000000
  325       -1.262895   0.000000
  326       -1.197083   0.000000
  327       -1.186114   0.000000
  328       -1.138854   0.000000
  329       -0.986724   0.000000
  330       -0.970571   0.000000
  331       -0.946208   0.000000
  332       -0.937294   0.000000
  333       -0.900024   0.000000
  334       -0.880046   0.000000
  335       -0.827625   0.000000
  336       -0.584877   0.000000
