       N       E                     dE             d eps       ncg     rms          rms(c)
DAV:   1     0.438831273052E+04    0.43883E+04   -0.10050E+05   688   0.815E+02
DAV:   2     0.200948531094E+04   -0.23788E+04   -0.21402E+04  1224   0.105E+02
DAV:   3     0.231139614692E+03   -0.17783E+04   -0.16727E+04  1008   0.918E+01
DAV:   4    -0.136055005565E+03   -0.36719E+03   -0.31279E+03   832   0.433E+01
DAV:   5    -0.180145414238E+03   -0.44090E+02   -0.36435E+02  1048   0.144E+01    0.153E+01
RMM:   6    -0.179842343413E+03    0.30307E+00   -0.57281E+01   726   0.903E+00    0.217E+01
RMM:   7    -0.182838517815E+03   -0.29962E+01   -0.18631E+01   849   0.469E+00    0.220E+01
RMM:   8    -0.184517963272E+03   -0.16794E+01   -0.65751E+00   780   0.344E+00    0.289E+01
RMM:   9    -0.181176312766E+03    0.33417E+01   -0.49552E+00   733   0.301E+00    0.210E+01
RMM:  10    -0.178755455003E+03    0.24209E+01   -0.34423E+00   725   0.277E+00    0.197E+01
RMM:  11    -0.177960855098E+03    0.79460E+00   -0.19466E+00   731   0.204E+00    0.181E+01
RMM:  12    -0.177649646249E+03    0.31121E+00   -0.18495E+00   717   0.199E+00    0.171E+01
RMM:  13    -0.177509291218E+03    0.14036E+00   -0.15532E+00   725   0.185E+00    0.179E+01
RMM:  14    -0.177276789568E+03    0.23250E+00   -0.15601E+00   711   0.187E+00    0.200E+01
RMM:  15    -0.176132904716E+03    0.11439E+01   -0.84363E-01   703   0.138E+00    0.105E+01
RMM:  16    -0.175876868960E+03    0.25604E+00   -0.72740E-01   709   0.129E+00    0.124E+01
RMM:  17    -0.175746116711E+03    0.13075E+00   -0.44654E-01   716   0.101E+00    0.119E+01
RMM:  18    -0.175731968852E+03    0.14148E-01   -0.39464E-01   707   0.965E-01    0.108E+01
RMM:  19    -0.175473613900E+03    0.25835E+00   -0.39359E-01   703   0.981E-01    0.752E+00
RMM:  20    -0.175376186919E+03    0.97427E-01   -0.28099E-01   698   0.828E-01    0.816E+00
RMM:  21    -0.175195323336E+03    0.18086E+00   -0.16262E-01   697   0.630E-01    0.498E+00
RMM:  22    -0.175199602339E+03   -0.42790E-02   -0.15621E-01   699   0.599E-01    0.575E+00
RMM:  23    -0.175150364750E+03    0.49238E-01   -0.12698E-01   698   0.556E-01    0.625E+00
RMM:  24    -0.175050612014E+03    0.99753E-01   -0.67601E-02   694   0.438E-01    0.373E+00
RMM:  25    -0.175021043689E+03    0.29568E-01   -0.48719E-02   695   0.351E-01    0.283E+00
RMM:  26    -0.174998717939E+03    0.22326E-01   -0.34079E-02   701   0.299E-01    0.258E+00
RMM:  27    -0.174991720434E+03    0.69975E-02   -0.22839E-02   707   0.252E-01    0.248E+00
RMM:  28    -0.174971890050E+03    0.19830E-01   -0.15438E-02   693   0.207E-01    0.169E+00
RMM:  29    -0.174962381406E+03    0.95086E-02   -0.10552E-02   694   0.164E-01    0.122E+00
RMM:  30    -0.174960824411E+03    0.15570E-02   -0.73367E-03   694   0.142E-01    0.118E+00
RMM:  31    -0.174957721233E+03    0.31032E-02   -0.60661E-03   693   0.126E-01    0.115E+00
RMM:  32    -0.174953168761E+03    0.45525E-02   -0.40509E-03   691   0.110E-01    0.775E-01
RMM:  33    -0.174952324294E+03    0.84447E-03   -0.26004E-03   690   0.857E-02    0.633E-01
RMM:  34    -0.174951705873E+03    0.61842E-03   -0.24811E-03   693   0.782E-02    0.452E-01
RMM:  35    -0.174952263673E+03   -0.55780E-03   -0.12962E-03   689   0.570E-02    0.395E-01
RMM:  36    -0.174956126812E+03   -0.38631E-02   -0.19485E-03   688   0.666E-02    0.533E-01
RMM:  37    -0.174956859255E+03   -0.73244E-03   -0.89104E-04   685   0.468E-02    0.275E-01
RMM:  38    -0.174958833357E+03   -0.19741E-02   -0.63801E-04   632   0.394E-02    0.330E-01
RMM:  39    -0.174961256396E+03   -0.24230E-02   -0.53389E-04   571   0.355E-02    0.229E-01
RMM:  40    -0.174963032851E+03   -0.17765E-02   -0.35212E-04   462   0.292E-02    0.166E-01
RMM:  41    -0.174965507132E+03   -0.24743E-02   -0.45438E-04   522   0.296E-02    0.145E-01
RMM:  42    -0.174967496981E+03   -0.19898E-02   -0.27909E-04   432   0.235E-02    0.162E-01
RMM:  43    -0.174969726510E+03   -0.22295E-02   -0.30838E-04   449   0.239E-02    0.143E-01
RMM:  44    -0.174970990854E+03   -0.12643E-02   -0.20101E-04   419   0.190E-02    0.124E-01
RMM:  45    -0.174973364263E+03   -0.23734E-02   -0.32154E-04   466   0.205E-02    0.914E-02
RMM:  46    -0.174974136048E+03   -0.77179E-03   -0.12615E-04   416   0.144E-02    0.530E-02
RMM:  47    -0.174975327661E+03   -0.11916E-02   -0.10426E-04   410   0.124E-02    0.665E-02
RMM:  48    -0.174976190768E+03   -0.86311E-03   -0.77372E-05   411   0.107E-02    0.398E-02
RMM:  49    -0.174976579274E+03   -0.38851E-03   -0.35514E-05   395   0.714E-03    0.366E-02
RMM:  50    -0.174977774141E+03   -0.11949E-02   -0.42532E-05   399   0.738E-03    0.371E-02
RMM:  51    -0.174977954810E+03   -0.18067E-03   -0.14442E-05   282   0.519E-03    0.203E-02
RMM:  52    -0.174978632952E+03   -0.67814E-03   -0.20464E-05   343   0.552E-03    0.258E-02
RMM:  53    -0.174978968466E+03   -0.33551E-03   -0.84369E-06   207   0.437E-03    0.116E-02
RMM:  54    -0.174979296046E+03   -0.32758E-03   -0.10667E-05   241   0.459E-03    0.145E-02
RMM:  55    -0.174979607286E+03   -0.31124E-03   -0.14572E-05   253   0.444E-03    0.933E-03
RMM:  56    -0.174979763984E+03   -0.15670E-03   -0.39278E-06   136   0.366E-03    0.131E-02
RMM:  57    -0.174980002509E+03   -0.23853E-03   -0.17097E-05   236   0.441E-03    0.712E-03
RMM:  58    -0.174980065429E+03   -0.62920E-04   -0.16956E-06   113   0.343E-03
   1 F= -.17498007E+03 E0= -.17494845E+03  d E =-.126480E+00
