<?xml version="1.0" encoding="ISO-8859-1"?>
<modeling>
 <generator>
  <i name="program" type="string">vasp </i>
  <i name="version" type="string">5.4.4.18Apr17-6-g9f103f2a35  </i>
  <i name="subversion" type="string">(build Sep 03 2018 23:53:05) complex            parallel </i>
  <i name="platform" type="string">LinuxIFC </i>
  <i name="date" type="string">2021 12 02 </i>
  <i name="time" type="string">10:51:48 </i>
 </generator>
 <incar>
  <i type="string" name="SYSTEM"> 6_Pd100_top_free_z(O)</i>
  <i type="int" name="ISTART">     0</i>
  <i type="string" name="PREC">normal   			! encut=max(enmax), ngx,y,z</i>
  <i type="string" name="ALGO"> Fast     			! Mix RMM-DIIS and Dav</i>
  <i type="logical" name="ADDGRID"> F  </i>
  <i type="int" name="ISPIN">     1</i>
  <i type="int" name="ICHARG">     2</i>
  <i type="int" name="NELM">   100</i>
  <i type="int" name="NELMIN">     6</i>
  <i type="int" name="IBRION">     2</i>
  <i name="EDIFF">      0.00010000</i>
  <i name="EDIFFG">     -0.05000000</i>
  <i type="int" name="NSW">     0</i>
  <i type="int" name="ISIF">     2</i>
  <i type="int" name="ISYM">     2</i>
  <i name="ENCUT">    400.00000000</i>
  <i type="string" name="LREAL"> Auto     			! Auto or A projection done</i>
  <i type="int" name="ISMEAR">     2</i>
  <i name="SIGMA">      0.20000000</i>
  <i type="logical" name="LWAVE"> F  </i>
  <i type="logical" name="LCHARG"> F  </i>
  <v type="int" name="KPOINT_BSE">    -1     0     0     0</v>
  <i type="int" name="MAXMEM"> 10000</i>
  <i type="int" name="NELM">   100</i>
  <i type="string" name="GGA"> RP         			! Revised PBE</i>
 </incar>
 <structure name="primitive_cell" >
  <crystal>
   <varray name="basis" >
    <v>      30.00000000       0.00000000       0.00000000 </v>
    <v>       0.00000000      30.00000000       0.00000000 </v>
    <v>       0.00000000       0.00000000      30.00000000 </v>
   </varray>
   <i name="volume">  27000.00000000 </i>
   <varray name="rec_basis" >
    <v>       0.03333333       0.00000000       0.00000000 </v>
    <v>       0.00000000       0.03333333       0.00000000 </v>
    <v>       0.00000000       0.00000000       0.03333333 </v>
   </varray>
  </crystal>
  <varray name="positions" >
   <v>       0.44576020       0.32826710       0.41691983 </v>
   <v>      -0.44576020       0.32826710       0.41691983 </v>
   <v>      -0.50000000       0.38250690       0.34021317 </v>
   <v>      -0.50000000       0.27609440      -0.50000000 </v>
   <v>       0.38804720       0.38804720       0.34167483 </v>
   <v>      -0.50000000       0.38416601      -0.50000000 </v>
   <v>       0.44208300       0.44208300       0.41809300 </v>
   <v>       0.38317830       0.38317830      -0.50000000 </v>
   <v>      -0.44208300       0.44208300       0.41809300 </v>
   <v>       0.44576020       0.32826710      -0.41691977 </v>
   <v>       0.32826705       0.44576024       0.41691983 </v>
   <v>      -0.38804720       0.38804720       0.34167483 </v>
   <v>      -0.38317830       0.38317830      -0.50000000 </v>
   <v>      -0.50000000      -0.50000000       0.33478917 </v>
   <v>      -0.50000000      -0.50000000      -0.50000000 </v>
   <v>      -0.44576020       0.32826710      -0.41691977 </v>
   <v>       0.38250685      -0.49999995       0.34021317 </v>
   <v>       0.44208300       0.44208300      -0.41809297 </v>
   <v>       0.38416599      -0.49999998      -0.50000000 </v>
   <v>      -0.44208300       0.44208300      -0.41809297 </v>
   <v>       0.44208298      -0.44208298       0.41809300 </v>
   <v>       0.32826705       0.44576024      -0.41691977 </v>
   <v>       0.48502537      -0.47568100       0.27849300 </v>
   <v>      -0.50000000       0.38250690      -0.34021320 </v>
   <v>       0.32826712      -0.44576022       0.41691983 </v>
   <v>      -0.38250685      -0.49999995       0.34021317 </v>
   <v>      -0.32826705       0.44576024       0.41691983 </v>
   <v>       0.27609443       0.49999998      -0.50000000 </v>
   <v>       0.38804720       0.38804720      -0.34167487 </v>
   <v>      -0.38416599      -0.49999998      -0.50000000 </v>
   <v>      -0.44208298      -0.44208298       0.41809300 </v>
   <v>       0.48250437      -0.47158683       0.24120170 </v>
   <v>       0.44208298      -0.44208298      -0.41809297 </v>
   <v>      -0.38804720       0.38804720      -0.34167487 </v>
   <v>       0.38804722      -0.38804722       0.34167483 </v>
   <v>       0.38250685      -0.49999995      -0.34021320 </v>
   <v>       0.32826712      -0.44576022      -0.41691977 </v>
   <v>      -0.32826705       0.44576024      -0.41691977 </v>
   <v>       0.50000000      -0.38250681       0.34021317 </v>
   <v>      -0.50000000      -0.38416596      -0.50000000 </v>
   <v>      -0.44208298      -0.44208298      -0.41809297 </v>
   <v>      -0.50000000      -0.50000000      -0.33478913 </v>
   <v>       0.38317828      -0.38317828      -0.50000000 </v>
   <v>      -0.32826712      -0.44576022       0.41691983 </v>
   <v>      -0.27609443       0.49999998      -0.50000000 </v>
   <v>      -0.38804722      -0.38804722       0.34167483 </v>
   <v>      -0.38250685      -0.49999995      -0.34021320 </v>
   <v>       0.44576027      -0.32826707       0.41691983 </v>
   <v>      -0.38317828      -0.38317828      -0.50000000 </v>
   <v>      -0.32826712      -0.44576022      -0.41691977 </v>
   <v>      -0.44576027      -0.32826707       0.41691983 </v>
   <v>       0.38804722      -0.38804722      -0.34167487 </v>
   <v>      -0.50000000      -0.38250681      -0.34021320 </v>
   <v>       0.44576027      -0.32826707      -0.41691977 </v>
   <v>      -0.44576027      -0.32826707      -0.41691977 </v>
   <v>      -0.50000000      -0.27609445       0.50000000 </v>
   <v>      -0.38804722      -0.38804722      -0.34167487 </v>
  </varray>
 </structure>
 <varray name="primitive_index" >
  <v type="int" >        1 </v>
  <v type="int" >        3 </v>
  <v type="int" >        5 </v>
  <v type="int" >        7 </v>
  <v type="int" >       15 </v>
  <v type="int" >       29 </v>
  <v type="int" >       28 </v>
  <v type="int" >       34 </v>
  <v type="int" >       21 </v>
  <v type="int" >       19 </v>
  <v type="int" >       22 </v>
  <v type="int" >       11 </v>
  <v type="int" >       36 </v>
  <v type="int" >       38 </v>
  <v type="int" >       52 </v>
  <v type="int" >       24 </v>
  <v type="int" >       32 </v>
  <v type="int" >       44 </v>
  <v type="int" >       48 </v>
  <v type="int" >       42 </v>
  <v type="int" >       43 </v>
  <v type="int" >       40 </v>
  <v type="int" >       56 </v>
  <v type="int" >        6 </v>
  <v type="int" >        4 </v>
  <v type="int" >       30 </v>
  <v type="int" >       26 </v>
  <v type="int" >        8 </v>
  <v type="int" >       16 </v>
  <v type="int" >       49 </v>
  <v type="int" >       47 </v>
  <v type="int" >       57 </v>
  <v type="int" >       53 </v>
  <v type="int" >       12 </v>
  <v type="int" >       13 </v>
  <v type="int" >       33 </v>
  <v type="int" >       25 </v>
  <v type="int" >       45 </v>
  <v type="int" >       50 </v>
  <v type="int" >       55 </v>
  <v type="int" >       54 </v>
  <v type="int" >       39 </v>
  <v type="int" >       37 </v>
  <v type="int" >        2 </v>
  <v type="int" >        9 </v>
  <v type="int" >       17 </v>
  <v type="int" >       31 </v>
  <v type="int" >       27 </v>
  <v type="int" >       35 </v>
  <v type="int" >       20 </v>
  <v type="int" >       23 </v>
  <v type="int" >       14 </v>
  <v type="int" >       51 </v>
  <v type="int" >       46 </v>
  <v type="int" >       41 </v>
  <v type="int" >       10 </v>
  <v type="int" >       18 </v>
 </varray>
 <kpoints>
  <generation param="Monkhorst-Pack">
   <v type="int" name="divisions">       1        1        1 </v>
   <v name="usershift">      0.00000000       0.00000000       0.00000000 </v>
   <v name="genvec1">      1.00000000       0.00000000       0.00000000 </v>
   <v name="genvec2">      0.00000000       1.00000000       0.00000000 </v>
   <v name="genvec3">      0.00000000       0.00000000       1.00000000 </v>
   <v name="shift">      0.00000000       0.00000000       0.00000000 </v>
  </generation>
  <varray name="kpointlist" >
   <v>       0.00000000       0.00000000       0.00000000 </v>
  </varray>
  <varray name="weights" >
   <v>       1.00000000 </v>
  </varray>
 </kpoints>
 <parameters>
  <separator name="general" >
   <i type="string" name="SYSTEM">6_Pd100_top_free_z(O)</i>
   <i type="logical" name="LCOMPAT"> F  </i>
  </separator>
  <separator name="electronic" >
   <i type="string" name="PREC">normal</i>
   <i name="ENMAX">    400.00000000</i>
   <i name="ENAUG">    644.87300000</i>
   <i name="EDIFF">      0.00010000</i>
   <i type="int" name="IALGO">    68</i>
   <i type="int" name="IWAVPR">    10</i>
   <i type="int" name="NBANDS">   336</i>
   <i name="NELECT">    560.00000000</i>
   <i type="int" name="TURBO">     0</i>
   <i type="int" name="IRESTART">     0</i>
   <i type="int" name="NREBOOT">     0</i>
   <i type="int" name="NMIN">     0</i>
   <i name="EREF">      0.00000000</i>
   <separator name="electronic smearing" >
    <i type="int" name="ISMEAR">     2</i>
    <i name="SIGMA">      0.20000000</i>
    <i name="KSPACING">      0.50000000</i>
    <i type="logical" name="KGAMMA"> T  </i>
   </separator>
   <separator name="electronic projectors" >
    <i type="logical" name="LREAL"> T  </i>
    <v name="ROPT">     -0.00050000     -0.00050000     -0.00050000</v>
    <i type="int" name="LMAXPAW">  -100</i>
    <i type="int" name="LMAXMIX">     2</i>
    <i type="logical" name="NLSPLINE"> F  </i>
   </separator>
   <separator name="electronic startup" >
    <i type="int" name="ISTART">     0</i>
    <i type="int" name="ICHARG">     2</i>
    <i type="int" name="INIWAV">     1</i>
   </separator>
   <separator name="electronic spin" >
    <i type="int" name="ISPIN">     1</i>
    <i type="logical" name="LNONCOLLINEAR"> F  </i>
    <v name="MAGMOM">      1.00000000      1.00000000      1.00000000      1.00000000      1.00000000      1.00000000      1.00000000      1.00000000      1.00000000      1.00000000      1.00000000      1.00000000      1.00000000      1.00000000      1.00000000      1.00000000      1.00000000      1.00000000      1.00000000      1.00000000
      1.00000000      1.00000000      1.00000000      1.00000000      1.00000000      1.00000000      1.00000000      1.00000000      1.00000000      1.00000000      1.00000000      1.00000000      1.00000000      1.00000000      1.00000000      1.00000000      1.00000000      1.00000000      1.00000000      1.00000000
      1.00000000      1.00000000      1.00000000      1.00000000      1.00000000      1.00000000      1.00000000      1.00000000      1.00000000      1.00000000      1.00000000      1.00000000      1.00000000      1.00000000      1.00000000      1.00000000      1.00000000</v>
    <i name="NUPDOWN">     -1.00000000</i>
    <i type="logical" name="LSORBIT"> F  </i>
    <v name="SAXIS">      0.00000000      0.00000000      1.00000000</v>
    <i type="logical" name="LSPIRAL"> F  </i>
    <v name="QSPIRAL">      0.00000000      0.00000000      0.00000000</v>
    <i type="logical" name="LZEROZ"> F  </i>
   </separator>
   <separator name="electronic exchange-correlation" >
    <i type="logical" name="LASPH"> F  </i>
    <i type="logical" name="LMETAGGA"> F  </i>
   </separator>
   <separator name="electronic convergence" >
    <i type="int" name="NELM">   100</i>
    <i type="int" name="NELMDL">    -5</i>
    <i type="int" name="NELMIN">     6</i>
    <i name="ENINI">    400.00000000</i>
    <separator name="electronic convergence detail" >
     <i type="logical" name="LDIAG"> T  </i>
     <i type="logical" name="LSUBROT"> F  </i>
     <i name="WEIMIN">      0.00000000</i>
     <i name="EBREAK">      0.00000007</i>
     <i name="DEPER">      0.30000000</i>
     <i type="int" name="NRMM">     4</i>
     <i name="TIME">      0.40000000</i>
    </separator>
   </separator>
   <separator name="electronic mixer" >
    <i name="AMIX">      0.40000000</i>
    <i name="BMIX">      1.00000000</i>
    <i name="AMIN">      0.10000000</i>
    <i name="AMIX_MAG">      1.60000000</i>
    <i name="BMIX_MAG">      1.00000000</i>
    <separator name="electronic mixer details" >
     <i type="int" name="IMIX">     4</i>
     <i type="logical" name="MIXFIRST"> F  </i>
     <i type="int" name="MAXMIX">   -45</i>
     <i name="WC">    100.00000000</i>
     <i type="int" name="INIMIX">     1</i>
     <i type="int" name="MIXPRE">     1</i>
     <i type="int" name="MREMOVE">     5</i>
    </separator>
   </separator>
   <separator name="electronic dipolcorrection" >
    <i type="logical" name="LDIPOL"> F  </i>
    <i type="logical" name="LMONO"> F  </i>
    <i type="int" name="IDIPOL">     0</i>
    <i name="EPSILON">      1.00000000</i>
    <v name="DIPOL">   -100.00000000   -100.00000000   -100.00000000</v>
    <i name="EFIELD">      0.00000000</i>
   </separator>
  </separator>
  <separator name="grids" >
   <i type="int" name="NGX">   150</i>
   <i type="int" name="NGY">   150</i>
   <i type="int" name="NGZ">   150</i>
   <i type="int" name="NGXF">   300</i>
   <i type="int" name="NGYF">   300</i>
   <i type="int" name="NGZF">   300</i>
   <i type="logical" name="ADDGRID"> F  </i>
  </separator>
  <separator name="ionic" >
   <i type="int" name="NSW">     0</i>
   <i type="int" name="IBRION">    -1</i>
   <i type="int" name="MDALGO">     0</i>
   <i type="int" name="ISIF">     2</i>
   <i name="PSTRESS">      0.00000000</i>
   <i name="EDIFFG">     -0.05000000</i>
   <i type="int" name="NFREE">     1</i>
   <i name="POTIM">      0.50000000</i>
   <i name="SMASS">     -3.00000000</i>
   <i name="SCALEE">      1.00000000</i>
  </separator>
  <separator name="ionic md" >
   <i name="TEBEG">      0.00010000</i>
   <i name="TEEND">      0.00010000</i>
   <i type="int" name="NBLOCK">     1</i>
   <i type="int" name="KBLOCK">     1</i>
   <i type="int" name="NPACO">   256</i>
   <i name="APACO">     16.00000000</i>
  </separator>
  <separator name="symmetry" >
   <i type="int" name="ISYM">     2</i>
   <i name="SYMPREC">      0.00001000</i>
  </separator>
  <separator name="dos" >
   <i type="int" name="LORBIT">     0</i>
   <v name="RWIGS">     -1.00000000     -1.00000000     -1.00000000</v>
   <i type="int" name="NEDOS">   301</i>
   <i name="EMIN">     10.00000000</i>
   <i name="EMAX">    -10.00000000</i>
   <i name="EFERMI">      0.00000000</i>
  </separator>
  <separator name="writing" >
   <i type="int" name="NWRITE">     2</i>
   <i type="logical" name="LWAVE"> F  </i>
   <i type="logical" name="LDOWNSAMPLE"> F  </i>
   <i type="logical" name="LCHARG"> F  </i>
   <i type="logical" name="LPARD"> F  </i>
   <i type="logical" name="LVTOT"> F  </i>
   <i type="logical" name="LVHAR"> F  </i>
   <i type="logical" name="LELF"> F  </i>
   <i type="logical" name="LOPTICS"> F  </i>
   <v name="STM">      0.00000000      0.00000000      0.00000000      0.00000000      0.00000000      0.00000000      0.00000000</v>
  </separator>
  <separator name="performance" >
   <i type="int" name="NPAR">     1</i>
   <i type="int" name="NSIM">     4</i>
   <i type="int" name="NBLK">    -1</i>
   <i type="logical" name="LPLANE"> T  </i>
   <i type="logical" name="LSCALAPACK"> T  </i>
   <i type="logical" name="LSCAAWARE"> F  </i>
   <i type="logical" name="LSCALU"> F  </i>
   <i type="logical" name="LASYNC"> F  </i>
   <i type="logical" name="LORBITALREAL"> F  </i>
  </separator>
  <separator name="miscellaneous" >
   <i type="int" name="IDIOT">     3</i>
   <i type="int" name="ISPECIAL">     0</i>
   <i type="logical" name="LMUSIC"> F  </i>
   <v name="POMASS">    106.42000000     12.01100000     16.00000000</v>
   <v name="DARWINR">      0.00000000      0.00000000      0.00000000</v>
   <v name="DARWINV">      1.00000000      1.00000000      1.00000000</v>
   <i type="logical" name="LCORR"> T  </i>
  </separator>
  <i type="logical" name="GGA_COMPAT"> T  </i>
  <i type="logical" name="LBERRY"> F  </i>
  <i type="int" name="ICORELEVEL">     0</i>
  <i type="logical" name="LDAU"> F  </i>
  <i type="int" name="I_CONSTRAINED_M">     0</i>
  <separator name="electronic exchange-correlation" >
   <i type="string" name="GGA">RP</i>
   <i type="int" name="VOSKOWN">     0</i>
   <i type="logical" name="LHFCALC"> F  </i>
   <i type="string" name="PRECFOCK"></i>
   <i type="logical" name="LSYMGRAD"> F  </i>
   <i type="logical" name="LHFONE"> F  </i>
   <i type="logical" name="LRHFCALC"> F  </i>
   <i type="logical" name="LTHOMAS"> F  </i>
   <i type="logical" name="LMODELHF"> F  </i>
   <i name="ENCUT4O">     -1.00000000</i>
   <i type="int" name="EXXOEP">     0</i>
   <i type="int" name="FOURORBIT">     0</i>
   <i name="AEXX">      0.00000000</i>
   <i name="HFALPHA">      0.00000000</i>
   <i name="MCALPHA">      0.00000000</i>
   <i name="ALDAX">      1.00000000</i>
   <i name="AGGAX">      1.00000000</i>
   <i name="ALDAC">      1.00000000</i>
   <i name="AGGAC">      1.00000000</i>
   <i type="int" name="NKREDX">     1</i>
   <i type="int" name="NKREDY">     1</i>
   <i type="int" name="NKREDZ">     1</i>
   <i type="logical" name="SHIFTRED"> F  </i>
   <i type="logical" name="ODDONLY"> F  </i>
   <i type="logical" name="EVENONLY"> F  </i>
   <i type="int" name="LMAXFOCK">     0</i>
   <i type="int" name="NMAXFOCKAE">     0</i>
   <i type="logical" name="LFOCKAEDFT"> F  </i>
   <i name="HFSCREEN">      0.00000000</i>
   <i name="HFSCREENC">      0.00000000</i>
   <i type="int" name="NBANDSGWLOW">     0</i>
  </separator>
  <separator name="vdW DFT" >
   <i type="logical" name="LUSE_VDW"> F  </i>
   <i name="Zab_VDW">     -0.84910000</i>
   <i name="PARAM1">      0.12340000</i>
   <i name="PARAM2">      1.00000000</i>
   <i name="PARAM3">      0.00000000</i>
  </separator>
  <separator name="model GW" >
   <i type="int" name="MODEL_GW">     0</i>
   <i name="MODEL_EPS0">    284.21052632</i>
   <i name="MODEL_ALPHA">      1.00000000</i>
  </separator>
  <separator name="linear response parameters" >
   <i type="logical" name="LEPSILON"> F  </i>
   <i type="logical" name="LRPA"> F  </i>
   <i type="logical" name="LNABLA"> F  </i>
   <i type="logical" name="LVEL"> F  </i>
   <i type="int" name="KINTER">     0</i>
   <i name="CSHIFT">      0.10000000</i>
   <i name="OMEGAMAX">     -1.00000000</i>
   <i name="DEG_THRESHOLD">      0.00200000</i>
   <i name="RTIME">     -0.10000000</i>
   <i name="WPLASMAI">      0.00000000</i>
   <v name="DFIELD">      0.00000000      0.00000000      0.00000000</v>
   <v name="WPLASMA">      0.00000000      0.00000000      0.00000000      0.00000000      0.00000000      0.00000000      0.00000000      0.00000000      0.00000000</v>
  </separator>
  <separator name="orbital magnetization" >
   <i type="logical" name="NUCIND"> F  </i>
   <v name="MAGPOS">      0.00000000      0.00000000      0.00000000</v>
   <i type="logical" name="LNICSALL"> T  </i>
   <i type="logical" name="ORBITALMAG"> F  </i>
   <i type="logical" name="LMAGBLOCH"> F  </i>
   <i type="logical" name="LCHIMAG"> F  </i>
   <i type="logical" name="LGAUGE"> T  </i>
   <i type="int" name="MAGATOM">     0</i>
   <v name="MAGDIPOL">      0.00000000      0.00000000      0.00000000</v>
   <v name="AVECCONST">      0.00000000      0.00000000      0.00000000</v>
  </separator>
  <separator name="response functions" >
   <i type="logical" name="LADDER"> F  </i>
   <i type="logical" name="LRPAFORCE"> F  </i>
   <i type="logical" name="LFXC"> F  </i>
   <i type="logical" name="LHARTREE"> T  </i>
   <i type="int" name="IBSE">     0</i>
   <v type="int" name="KPOINT">    -1     0     0     0</v>
   <i type="logical" name="LTCTE"> F  </i>
   <i type="logical" name="LTETE"> F  </i>
   <i type="logical" name="LTRIPLET"> F  </i>
   <i type="logical" name="LFXCEPS"> F  </i>
   <i type="logical" name="LFXHEG"> F  </i>
   <i type="int" name="NATURALO">     2</i>
   <i type="logical" name="L2ORDER"> F  </i>
   <i type="logical" name="LMP2LT"> F  </i>
   <i type="logical" name="LUSEW"> F  </i>
   <i name="ENCUTGW">     -2.00000000</i>
   <i name="ENCUTGWSOFT">     -2.00000000</i>
   <i name="ENCUTLF">     -1.00000000</i>
   <i type="int" name="LMAXMP2">    -1</i>
   <i name="SCISSOR">      0.00000000</i>
   <i type="int" name="NOMEGA">     0</i>
   <i type="int" name="NOMEGAR">     0</i>
   <i type="int" name="NBANDSGW">    -1</i>
   <i type="int" name="NBANDSO">    -1</i>
   <i type="int" name="NBANDSV">    -1</i>
   <i type="int" name="NELM">   100</i>
   <i type="int" name="NELMHF">     1</i>
   <i type="int" name="DIM">     3</i>
   <i type="int" name="ANTIRES">     0</i>
   <i name="OMEGAMAX">    -30.00000000</i>
   <i name="OMEGAMIN">    -30.00000000</i>
   <i name="OMEGATL">   -200.00000000</i>
   <i type="int" name="OMEGAGRID">   140</i>
   <i name="CSHIFT">     -0.10000000</i>
   <i type="logical" name="SELFENERGY"> F  </i>
   <i type="logical" name="LSPECTRAL"> F  </i>
   <i type="logical" name="LSPECTRALGW"> F  </i>
   <i type="logical" name="LSINGLES"> F  </i>
   <i type="logical" name="LFERMIGW"> F  </i>
   <i type="logical" name="ODDONLYGW"> F  </i>
   <i type="logical" name="EVENONLYGW"> F  </i>
   <i type="int" name="NKREDLFX">     1</i>
   <i type="int" name="NKREDLFY">     1</i>
   <i type="int" name="NKREDLFZ">     1</i>
   <i type="int" name="MAXMEM"> 10000</i>
   <i type="int" name="TELESCOPE">     0</i>
   <i type="int" name="TAUPAR">     1</i>
   <i type="int" name="OMEGAPAR">    -1</i>
   <i name="LAMBDA">      1.00000000</i>
  </separator>
  <separator name="External order field" >
   <i name="OFIELD_KAPPA">      0.00000000</i>
   <v name="OFIELD_K">      0.00000000      0.00000000      0.00000000</v>
   <i name="OFIELD_Q6_NEAR">      0.00000000</i>
   <i name="OFIELD_Q6_FAR">      0.00000000</i>
   <i name="OFIELD_A">      0.00000000</i>
  </separator>
 </parameters>
 <atominfo>
  <atoms>      57 </atoms>
  <types>       3 </types>
  <array name="atoms" >
   <dimension dim="1">ion</dimension>
   <field type="string">element</field>
   <field type="int">atomtype</field>
   <set>
    <rc><c>Pd</c><c>   1</c></rc>
    <rc><c>Pd</c><c>   1</c></rc>
    <rc><c>Pd</c><c>   1</c></rc>
    <rc><c>Pd</c><c>   1</c></rc>
    <rc><c>Pd</c><c>   1</c></rc>
    <rc><c>Pd</c><c>   1</c></rc>
    <rc><c>Pd</c><c>   1</c></rc>
    <rc><c>Pd</c><c>   1</c></rc>
    <rc><c>Pd</c><c>   1</c></rc>
    <rc><c>Pd</c><c>   1</c></rc>
    <rc><c>Pd</c><c>   1</c></rc>
    <rc><c>Pd</c><c>   1</c></rc>
    <rc><c>Pd</c><c>   1</c></rc>
    <rc><c>Pd</c><c>   1</c></rc>
    <rc><c>Pd</c><c>   1</c></rc>
    <rc><c>Pd</c><c>   1</c></rc>
    <rc><c>Pd</c><c>   1</c></rc>
    <rc><c>Pd</c><c>   1</c></rc>
    <rc><c>Pd</c><c>   1</c></rc>
    <rc><c>Pd</c><c>   1</c></rc>
    <rc><c>Pd</c><c>   1</c></rc>
    <rc><c>Pd</c><c>   1</c></rc>
    <rc><c>Pd</c><c>   1</c></rc>
    <rc><c>Pd</c><c>   1</c></rc>
    <rc><c>Pd</c><c>   1</c></rc>
    <rc><c>Pd</c><c>   1</c></rc>
    <rc><c>Pd</c><c>   1</c></rc>
    <rc><c>Pd</c><c>   1</c></rc>
    <rc><c>Pd</c><c>   1</c></rc>
    <rc><c>Pd</c><c>   1</c></rc>
    <rc><c>Pd</c><c>   1</c></rc>
    <rc><c>Pd</c><c>   1</c></rc>
    <rc><c>Pd</c><c>   1</c></rc>
    <rc><c>Pd</c><c>   1</c></rc>
    <rc><c>Pd</c><c>   1</c></rc>
    <rc><c>Pd</c><c>   1</c></rc>
    <rc><c>Pd</c><c>   1</c></rc>
    <rc><c>Pd</c><c>   1</c></rc>
    <rc><c>Pd</c><c>   1</c></rc>
    <rc><c>Pd</c><c>   1</c></rc>
    <rc><c>Pd</c><c>   1</c></rc>
    <rc><c>Pd</c><c>   1</c></rc>
    <rc><c>Pd</c><c>   1</c></rc>
    <rc><c>Pd</c><c>   1</c></rc>
    <rc><c>Pd</c><c>   1</c></rc>
    <rc><c>Pd</c><c>   1</c></rc>
    <rc><c>Pd</c><c>   1</c></rc>
    <rc><c>Pd</c><c>   1</c></rc>
    <rc><c>Pd</c><c>   1</c></rc>
    <rc><c>Pd</c><c>   1</c></rc>
    <rc><c>Pd</c><c>   1</c></rc>
    <rc><c>Pd</c><c>   1</c></rc>
    <rc><c>Pd</c><c>   1</c></rc>
    <rc><c>Pd</c><c>   1</c></rc>
    <rc><c>Pd</c><c>   1</c></rc>
    <rc><c>C </c><c>   2</c></rc>
    <rc><c>O </c><c>   3</c></rc>
   </set>
  </array>
  <array name="atomtypes" >
   <dimension dim="1">type</dimension>
   <field type="int">atomspertype</field>
   <field type="string">element</field>
   <field>mass</field>
   <field>valence</field>
   <field type="string">pseudopotential</field>
   <set>
    <rc><c>  55</c><c>Pd</c><c>    106.42000000</c><c>     10.00000000</c><c>  PAW_PBE Pd 04Jan2005                  </c></rc>
    <rc><c>   1</c><c>C </c><c>     12.01100000</c><c>      4.00000000</c><c>  PAW_PBE C 08Apr2002                   </c></rc>
    <rc><c>   1</c><c>O </c><c>     16.00000000</c><c>      6.00000000</c><c>  PAW_PBE O 08Apr2002                   </c></rc>
   </set>
  </array>
 </atominfo>
 <structure name="initialpos" >
  <crystal>
   <varray name="basis" >
    <v>      30.00000000       0.00000000       0.00000000 </v>
    <v>       0.00000000      30.00000000       0.00000000 </v>
    <v>       0.00000000       0.00000000      30.00000000 </v>
   </varray>
   <i name="volume">  27000.00000000 </i>
   <varray name="rec_basis" >
    <v>       0.03333333       0.00000000       0.00000000 </v>
    <v>       0.00000000       0.03333333       0.00000000 </v>
    <v>       0.00000000       0.00000000       0.03333333 </v>
   </varray>
  </crystal>
  <varray name="positions" >
   <v>       0.44576020       0.32826710       0.41691983 </v>
   <v>       0.67173288       0.55423978       0.41691983 </v>
   <v>       0.55423980       0.32826710       0.41691983 </v>
   <v>       0.32826712       0.55423978       0.41691983 </v>
   <v>       0.50000000       0.38250690       0.34021317 </v>
   <v>       0.50000000       0.38250690       0.65978680 </v>
   <v>       0.50000000       0.27609440       0.50000000 </v>
   <v>       0.27609443       0.49999998       0.50000000 </v>
   <v>       0.72390557       0.49999998       0.50000000 </v>
   <v>       0.50000000       0.72390555       0.50000000 </v>
   <v>       0.61195280       0.38804720       0.34167483 </v>
   <v>       0.61195280       0.38804720       0.65832513 </v>
   <v>       0.38804722       0.61195278       0.34167483 </v>
   <v>       0.38804722       0.61195278       0.65832513 </v>
   <v>       0.38804720       0.38804720       0.34167483 </v>
   <v>       0.38804720       0.38804720       0.65832513 </v>
   <v>       0.61195278       0.61195278       0.34167483 </v>
   <v>       0.61195278       0.61195278       0.65832513 </v>
   <v>       0.44576020       0.32826710       0.58308023 </v>
   <v>       0.67173288       0.55423978       0.58308023 </v>
   <v>       0.55791699       0.44208301       0.41809300 </v>
   <v>       0.32826705       0.44576024       0.41691983 </v>
   <v>       0.55423973       0.67173293       0.41691983 </v>
   <v>       0.55423980       0.32826710       0.58308023 </v>
   <v>       0.32826712       0.55423978       0.58308023 </v>
   <v>       0.67173295       0.44576024       0.41691983 </v>
   <v>       0.44576027       0.67173293       0.41691983 </v>
   <v>       0.44208301       0.44208301       0.41809300 </v>
   <v>       0.50000000       0.38416601       0.50000000 </v>
   <v>       0.61749315       0.50000005       0.34021317 </v>
   <v>       0.61749315       0.50000005       0.65978680 </v>
   <v>       0.38250685       0.50000005       0.34021317 </v>
   <v>       0.38250685       0.50000005       0.65978680 </v>
   <v>       0.38317830       0.38317830       0.50000000 </v>
   <v>       0.61682172       0.61682172       0.50000000 </v>
   <v>       0.61682170       0.38317830       0.50000000 </v>
   <v>       0.38317828       0.61682172       0.50000000 </v>
   <v>       0.50000000       0.50000000       0.33478917 </v>
   <v>       0.50000000       0.50000000       0.66521087 </v>
   <v>       0.32826705       0.44576024       0.58308023 </v>
   <v>       0.55423973       0.67173293       0.58308023 </v>
   <v>       0.55791699       0.44208301       0.58190703 </v>
   <v>       0.44208298       0.55791702       0.41809300 </v>
   <v>       0.44208301       0.44208301       0.58190703 </v>
   <v>       0.67173295       0.44576024       0.58308023 </v>
   <v>       0.44576027       0.67173293       0.58308023 </v>
   <v>       0.55791702       0.55791702       0.41809300 </v>
   <v>       0.38416599       0.50000002       0.50000000 </v>
   <v>       0.61583401       0.50000002       0.50000000 </v>
   <v>       0.50000000       0.61749319       0.34021317 </v>
   <v>       0.50000000       0.61749319       0.65978680 </v>
   <v>       0.50000000       0.50000000       0.50000000 </v>
   <v>       0.44208298       0.55791702       0.58190703 </v>
   <v>       0.55791702       0.55791702       0.58190703 </v>
   <v>       0.50000000       0.61583404       0.50000000 </v>
   <v>       0.48502537       0.52431900       0.27849300 </v>
   <v>       0.48250437       0.52841317       0.24120170 </v>
  </varray>
  <varray name="selective"  type="logical" >
   <v type="logical" >  F  F  F </v>
   <v type="logical" >  F  F  F </v>
   <v type="logical" >  F  F  F </v>
   <v type="logical" >  F  F  F </v>
   <v type="logical" >  F  F  F </v>
   <v type="logical" >  F  F  F </v>
   <v type="logical" >  F  F  F </v>
   <v type="logical" >  F  F  F </v>
   <v type="logical" >  F  F  F </v>
   <v type="logical" >  F  F  F </v>
   <v type="logical" >  F  F  F </v>
   <v type="logical" >  F  F  F </v>
   <v type="logical" >  F  F  F </v>
   <v type="logical" >  F  F  F </v>
   <v type="logical" >  F  F  F </v>
   <v type="logical" >  F  F  F </v>
   <v type="logical" >  F  F  F </v>
   <v type="logical" >  F  F  F </v>
   <v type="logical" >  F  F  F </v>
   <v type="logical" >  F  F  F </v>
   <v type="logical" >  F  F  F </v>
   <v type="logical" >  F  F  F </v>
   <v type="logical" >  F  F  F </v>
   <v type="logical" >  F  F  F </v>
   <v type="logical" >  F  F  F </v>
   <v type="logical" >  F  F  F </v>
   <v type="logical" >  F  F  F </v>
   <v type="logical" >  F  F  F </v>
   <v type="logical" >  F  F  F </v>
   <v type="logical" >  F  F  F </v>
   <v type="logical" >  F  F  F </v>
   <v type="logical" >  F  F  F </v>
   <v type="logical" >  F  F  F </v>
   <v type="logical" >  F  F  F </v>
   <v type="logical" >  F  F  F </v>
   <v type="logical" >  F  F  F </v>
   <v type="logical" >  F  F  F </v>
   <v type="logical" >  F  F  F </v>
   <v type="logical" >  F  F  F </v>
   <v type="logical" >  F  F  F </v>
   <v type="logical" >  F  F  F </v>
   <v type="logical" >  F  F  F </v>
   <v type="logical" >  F  F  F </v>
   <v type="logical" >  F  F  F </v>
   <v type="logical" >  F  F  F </v>
   <v type="logical" >  F  F  F </v>
   <v type="logical" >  F  F  F </v>
   <v type="logical" >  F  F  F </v>
   <v type="logical" >  F  F  F </v>
   <v type="logical" >  F  F  F </v>
   <v type="logical" >  F  F  F </v>
   <v type="logical" >  F  F  F </v>
   <v type="logical" >  F  F  F </v>
   <v type="logical" >  F  F  F </v>
   <v type="logical" >  F  F  F </v>
   <v type="logical" >  F  F  F </v>
   <v type="logical" >  F  F  F </v>
  </varray>
  <nose>
   <v>      -3.00000000       0.00000000       0.00010000       0.00010000 </v>
  </nose>
 </structure>
 <calculation>
  <scstep>
   <time name="dav">  384.37  384.44</time>
   <time name="total">  399.55  399.62</time>
   <energy>
    <i name="alphaZ">     75.25431677 </i>
    <i name="ewald"> 138804.94215640 </i>
    <i name="hartreedc">-182164.50550345 </i>
    <i name="XCdc">  -1702.99018677 </i>
    <i name="pawpsdc">  44873.02882129 </i>
    <i name="pawaedc"> -41398.84523641 </i>
    <i name="eentropy">      0.00798510 </i>
    <i name="bandstr">    818.30047659 </i>
    <i name="atom">  45086.50549395 </i>
    <i name="e_fr_energy">   4391.69832347 </i>
    <i name="e_wo_entrp">   4391.69033837 </i>
    <i name="e_0_energy">   4391.69632720 </i>
   </energy>
  </scstep>
  <scstep>
   <time name="dav">  611.48  611.49</time>
   <time name="total">  611.48  611.49</time>
   <energy>
    <i name="e_fr_energy">   2026.39201882 </i>
    <i name="e_wo_entrp">   2026.37836270 </i>
    <i name="e_0_energy">   2026.38860479 </i>
   </energy>
  </scstep>
  <scstep>
   <time name="dav">  524.08  524.08</time>
   <time name="total">  524.08  524.08</time>
   <energy>
    <i name="e_fr_energy">    240.00399665 </i>
    <i name="e_wo_entrp">    240.03103588 </i>
    <i name="e_0_energy">    240.01075646 </i>
   </energy>
  </scstep>
  <scstep>
   <time name="dav">  444.34  444.34</time>
   <time name="total">  444.34  444.34</time>
   <energy>
    <i name="e_fr_energy">   -134.38921273 </i>
    <i name="e_wo_entrp">   -134.39011013 </i>
    <i name="e_0_energy">   -134.38943708 </i>
   </energy>
  </scstep>
  <scstep>
   <time name="dav">  538.04  538.04</time>
   <time name="total">  564.65  564.66</time>
   <energy>
    <i name="e_fr_energy">   -180.25793085 </i>
    <i name="e_wo_entrp">   -180.75959772 </i>
    <i name="e_0_energy">   -180.38334757 </i>
   </energy>
  </scstep>
  <scstep>
   <time name="diag">   69.72   69.72</time>
   <time name="diis">  197.88  197.88</time>
   <time name="orth">   13.70   13.70</time>
   <time name="total">  321.75  321.75</time>
   <energy>
    <i name="e_fr_energy">   -181.00461496 </i>
    <i name="e_wo_entrp">   -180.89092480 </i>
    <i name="e_0_energy">   -180.97619242 </i>
   </energy>
  </scstep>
  <scstep>
   <time name="diag">   70.81   70.81</time>
   <time name="diis">  234.81  234.80</time>
   <time name="orth">   14.01   14.01</time>
   <time name="total">  361.06  361.07</time>
   <energy>
    <i name="e_fr_energy">   -182.15409065 </i>
    <i name="e_wo_entrp">   -182.28428370 </i>
    <i name="e_0_energy">   -182.18663891 </i>
   </energy>
  </scstep>
  <scstep>
   <time name="diag">   71.19   71.19</time>
   <time name="diis">  215.63  215.63</time>
   <time name="orth">   13.47   13.47</time>
   <time name="total">  341.33  341.33</time>
   <energy>
    <i name="e_fr_energy">   -185.00482385 </i>
    <i name="e_wo_entrp">   -184.81385968 </i>
    <i name="e_0_energy">   -184.95708281 </i>
   </energy>
  </scstep>
  <scstep>
   <time name="diag">   69.16   69.16</time>
   <time name="diis">  201.96  201.96</time>
   <time name="orth">   13.44   13.44</time>
   <time name="total">  325.49  325.51</time>
   <energy>
    <i name="e_fr_energy">   -184.13255601 </i>
    <i name="e_wo_entrp">   -184.04555757 </i>
    <i name="e_0_energy">   -184.11080640 </i>
   </energy>
  </scstep>
  <scstep>
   <time name="diag">   71.12   71.12</time>
   <time name="diis">  202.06  202.08</time>
   <time name="orth">   14.20   14.20</time>
   <time name="total">  328.94  328.97</time>
   <energy>
    <i name="e_fr_energy">   -182.67663799 </i>
    <i name="e_wo_entrp">   -182.65422959 </i>
    <i name="e_0_energy">   -182.67103589 </i>
   </energy>
  </scstep>
  <scstep>
   <time name="diag">   70.57   70.57</time>
   <time name="diis">  197.19  197.21</time>
   <time name="orth">   14.29   14.29</time>
   <time name="total">  322.91  322.94</time>
   <energy>
    <i name="e_fr_energy">   -180.37411372 </i>
    <i name="e_wo_entrp">   -180.29994014 </i>
    <i name="e_0_energy">   -180.35557033 </i>
   </energy>
  </scstep>
  <scstep>
   <time name="diag">   68.93   68.94</time>
   <time name="diis">  194.49  194.51</time>
   <time name="orth">   13.60   13.60</time>
   <time name="total">  317.36  317.38</time>
   <energy>
    <i name="e_fr_energy">   -178.46640210 </i>
    <i name="e_wo_entrp">   -178.41353915 </i>
    <i name="e_0_energy">   -178.45318636 </i>
   </energy>
  </scstep>
  <scstep>
   <time name="diag">   70.64   70.63</time>
   <time name="diis">  191.95  192.00</time>
   <time name="orth">   13.56   13.56</time>
   <time name="total">  316.71  316.76</time>
   <energy>
    <i name="e_fr_energy">   -177.54236609 </i>
    <i name="e_wo_entrp">   -177.56350885 </i>
    <i name="e_0_energy">   -177.54765178 </i>
   </energy>
  </scstep>
  <scstep>
   <time name="diag">   69.51   69.52</time>
   <time name="diis">  191.88  191.88</time>
   <time name="orth">   13.54   13.54</time>
   <time name="total">  315.05  315.06</time>
   <energy>
    <i name="e_fr_energy">   -178.69635867 </i>
    <i name="e_wo_entrp">   -178.63239269 </i>
    <i name="e_0_energy">   -178.68036718 </i>
   </energy>
  </scstep>
  <scstep>
   <time name="diag">   66.96   66.96</time>
   <time name="diis">  189.62  189.62</time>
   <time name="orth">   13.61   13.61</time>
   <time name="total">  310.36  310.36</time>
   <energy>
    <i name="e_fr_energy">   -177.69390861 </i>
    <i name="e_wo_entrp">   -177.63506953 </i>
    <i name="e_0_energy">   -177.67919884 </i>
   </energy>
  </scstep>
  <scstep>
   <time name="diag">   70.57   70.57</time>
   <time name="diis">  186.77  186.77</time>
   <time name="orth">   14.09   14.09</time>
   <time name="total">  312.20  312.20</time>
   <energy>
    <i name="e_fr_energy">   -176.62830785 </i>
    <i name="e_wo_entrp">   -176.57889518 </i>
    <i name="e_0_energy">   -176.61595468 </i>
   </energy>
  </scstep>
  <scstep>
   <time name="diag">   68.88   68.88</time>
   <time name="diis">  188.31  188.32</time>
   <time name="orth">   13.43   13.43</time>
   <time name="total">  310.27  310.27</time>
   <energy>
    <i name="e_fr_energy">   -175.82022969 </i>
    <i name="e_wo_entrp">   -175.80988173 </i>
    <i name="e_0_energy">   -175.81764270 </i>
   </energy>
  </scstep>
  <scstep>
   <time name="diag">   68.85   68.85</time>
   <time name="diis">  184.11  184.13</time>
   <time name="orth">   13.29   13.29</time>
   <time name="total">  305.80  305.83</time>
   <energy>
    <i name="e_fr_energy">   -175.53547395 </i>
    <i name="e_wo_entrp">   -175.50325797 </i>
    <i name="e_0_energy">   -175.52741995 </i>
   </energy>
  </scstep>
  <scstep>
   <time name="diag">   68.65   68.65</time>
   <time name="diis">  184.62  184.63</time>
   <time name="orth">   13.61   13.61</time>
   <time name="total">  306.74  306.76</time>
   <energy>
    <i name="e_fr_energy">   -175.72588763 </i>
    <i name="e_wo_entrp">   -175.71443707 </i>
    <i name="e_0_energy">   -175.72302499 </i>
   </energy>
  </scstep>
  <scstep>
   <time name="diag">   67.61   67.62</time>
   <time name="diis">  181.71  181.73</time>
   <time name="orth">   13.40   13.40</time>
   <time name="total">  302.55  302.57</time>
   <energy>
    <i name="e_fr_energy">   -175.74783818 </i>
    <i name="e_wo_entrp">   -175.81329527 </i>
    <i name="e_0_energy">   -175.76420245 </i>
   </energy>
  </scstep>
  <scstep>
   <time name="diag">   66.86   66.86</time>
   <time name="diis">  182.43  182.43</time>
   <time name="orth">   13.45   13.45</time>
   <time name="total">  302.32  302.33</time>
   <energy>
    <i name="e_fr_energy">   -175.49603010 </i>
    <i name="e_wo_entrp">   -175.52294445 </i>
    <i name="e_0_energy">   -175.50275869 </i>
   </energy>
  </scstep>
  <scstep>
   <time name="diag">   68.82   68.81</time>
   <time name="diis">  184.09  184.09</time>
   <time name="orth">   13.49   13.49</time>
   <time name="total">  306.57  306.57</time>
   <energy>
    <i name="e_fr_energy">   -175.42996890 </i>
    <i name="e_wo_entrp">   -175.37831938 </i>
    <i name="e_0_energy">   -175.41705652 </i>
   </energy>
  </scstep>
  <scstep>
   <time name="diag">   69.18   69.19</time>
   <time name="diis">  186.71  186.71</time>
   <time name="orth">   13.43   13.43</time>
   <time name="total">  309.43  309.43</time>
   <energy>
    <i name="e_fr_energy">   -175.65961777 </i>
    <i name="e_wo_entrp">   -175.62321672 </i>
    <i name="e_0_energy">   -175.65051751 </i>
   </energy>
  </scstep>
  <scstep>
   <time name="diag">   69.95   69.96</time>
   <time name="diis">  191.19  191.19</time>
   <time name="orth">   13.48   13.48</time>
   <time name="total">  315.02  315.03</time>
   <energy>
    <i name="e_fr_energy">   -175.45619656 </i>
    <i name="e_wo_entrp">   -175.39135892 </i>
    <i name="e_0_energy">   -175.43998715 </i>
   </energy>
  </scstep>
  <scstep>
   <time name="diag">   69.07   69.07</time>
   <time name="diis">  190.91  190.91</time>
   <time name="orth">   13.77   13.77</time>
   <time name="total">  314.04  314.04</time>
   <energy>
    <i name="e_fr_energy">   -175.27607609 </i>
    <i name="e_wo_entrp">   -175.20953286 </i>
    <i name="e_0_energy">   -175.25944028 </i>
   </energy>
  </scstep>
  <scstep>
   <time name="diag">   68.55   68.55</time>
   <time name="diis">  190.07  190.06</time>
   <time name="orth">   13.76   13.76</time>
   <time name="total">  313.05  313.05</time>
   <energy>
    <i name="e_fr_energy">   -175.25262518 </i>
    <i name="e_wo_entrp">   -175.19032449 </i>
    <i name="e_0_energy">   -175.23705001 </i>
   </energy>
  </scstep>
  <scstep>
   <time name="diag">   68.22   68.22</time>
   <time name="diis">  190.57  190.57</time>
   <time name="orth">   14.11   14.11</time>
   <time name="total">  314.23  314.22</time>
   <energy>
    <i name="e_fr_energy">   -175.20259144 </i>
    <i name="e_wo_entrp">   -175.15581963 </i>
    <i name="e_0_energy">   -175.19089849 </i>
   </energy>
  </scstep>
  <scstep>
   <time name="diag">   68.39   68.39</time>
   <time name="diis">  190.92  190.91</time>
   <time name="orth">   14.18   14.18</time>
   <time name="total">  315.93  315.93</time>
   <energy>
    <i name="e_fr_energy">   -175.16593025 </i>
    <i name="e_wo_entrp">   -175.11434015 </i>
    <i name="e_0_energy">   -175.15303272 </i>
   </energy>
  </scstep>
  <scstep>
   <time name="diag">   70.24   70.24</time>
   <time name="diis">  191.15  191.15</time>
   <time name="orth">   14.25   14.25</time>
   <time name="total">  318.75  318.75</time>
   <energy>
    <i name="e_fr_energy">   -175.15931161 </i>
    <i name="e_wo_entrp">   -175.10727615 </i>
    <i name="e_0_energy">   -175.14630275 </i>
   </energy>
  </scstep>
  <scstep>
   <time name="diag">   71.57   71.56</time>
   <time name="diis">  193.30  193.30</time>
   <time name="orth">   14.30   14.30</time>
   <time name="total">  323.12  323.12</time>
   <energy>
    <i name="e_fr_energy">   -175.14659902 </i>
    <i name="e_wo_entrp">   -175.09343898 </i>
    <i name="e_0_energy">   -175.13330901 </i>
   </energy>
  </scstep>
  <scstep>
   <time name="diag">   71.15   71.15</time>
   <time name="diis">  194.39  194.39</time>
   <time name="orth">   14.01   14.01</time>
   <time name="total">  322.77  322.77</time>
   <energy>
    <i name="e_fr_energy">   -175.13920611 </i>
    <i name="e_wo_entrp">   -175.08906704 </i>
    <i name="e_0_energy">   -175.12667134 </i>
   </energy>
  </scstep>
  <scstep>
   <time name="diag">   70.72   70.71</time>
   <time name="diis">  193.85  193.85</time>
   <time name="orth">   13.91   13.91</time>
   <time name="total">  321.82  321.81</time>
   <energy>
    <i name="e_fr_energy">   -175.13347235 </i>
    <i name="e_wo_entrp">   -175.08684750 </i>
    <i name="e_0_energy">   -175.12181614 </i>
   </energy>
  </scstep>
  <scstep>
   <time name="diag">   70.97   70.97</time>
   <time name="diis">  194.35  194.35</time>
   <time name="orth">   13.83   13.83</time>
   <time name="total">  322.50  322.50</time>
   <energy>
    <i name="e_fr_energy">   -175.13308436 </i>
    <i name="e_wo_entrp">   -175.08761990 </i>
    <i name="e_0_energy">   -175.12171824 </i>
   </energy>
  </scstep>
  <scstep>
   <time name="diag">   70.12   70.12</time>
   <time name="diis">  193.83  193.83</time>
   <time name="orth">   14.25   14.25</time>
   <time name="total">  321.34  321.34</time>
   <energy>
    <i name="e_fr_energy">   -175.13084410 </i>
    <i name="e_wo_entrp">   -175.08516875 </i>
    <i name="e_0_energy">   -175.11942526 </i>
   </energy>
  </scstep>
  <scstep>
   <time name="diag">   70.28   70.28</time>
   <time name="diis">  194.56  194.57</time>
   <time name="orth">   14.32   14.32</time>
   <time name="total">  322.64  322.65</time>
   <energy>
    <i name="e_fr_energy">   -175.13204532 </i>
    <i name="e_wo_entrp">   -175.08704486 </i>
    <i name="e_0_energy">   -175.12079520 </i>
   </energy>
  </scstep>
  <scstep>
   <time name="diag">   70.27   70.27</time>
   <time name="diis">  193.35  193.35</time>
   <time name="orth">   14.46   14.46</time>
   <time name="total">  321.86  321.85</time>
   <energy>
    <i name="e_fr_energy">   -175.13262243 </i>
    <i name="e_wo_entrp">   -175.08994949 </i>
    <i name="e_0_energy">   -175.12195419 </i>
   </energy>
  </scstep>
  <scstep>
   <time name="diag">   70.33   70.33</time>
   <time name="diis">  191.32  191.33</time>
   <time name="orth">   14.43   14.43</time>
   <time name="total">  320.03  320.04</time>
   <energy>
    <i name="e_fr_energy">   -175.13410803 </i>
    <i name="e_wo_entrp">   -175.09421012 </i>
    <i name="e_0_energy">   -175.12413355 </i>
   </energy>
  </scstep>
  <scstep>
   <time name="diag">   70.48   70.48</time>
   <time name="diis">  192.22  192.22</time>
   <time name="orth">   14.34   14.34</time>
   <time name="total">  321.35  321.35</time>
   <energy>
    <i name="e_fr_energy">   -175.13741366 </i>
    <i name="e_wo_entrp">   -175.09515003 </i>
    <i name="e_0_energy">   -175.12684775 </i>
   </energy>
  </scstep>
  <scstep>
   <time name="diag">   70.81   70.82</time>
   <time name="diis">  180.09  180.09</time>
   <time name="orth">   14.20   14.20</time>
   <time name="total">  310.02  310.02</time>
   <energy>
    <i name="e_fr_energy">   -175.13908002 </i>
    <i name="e_wo_entrp">   -175.09633040 </i>
    <i name="e_0_energy">   -175.12839261 </i>
   </energy>
  </scstep>
  <scstep>
   <time name="diag">   70.85   70.85</time>
   <time name="diis">  154.43  154.43</time>
   <time name="orth">   14.31   14.31</time>
   <time name="total">  284.33  284.33</time>
   <energy>
    <i name="e_fr_energy">   -175.14087546 </i>
    <i name="e_wo_entrp">   -175.09830711 </i>
    <i name="e_0_energy">   -175.13023337 </i>
   </energy>
  </scstep>
  <scstep>
   <time name="diag">   72.11   72.11</time>
   <time name="diis">  140.20  140.20</time>
   <time name="orth">   14.20   14.20</time>
   <time name="total">  271.65  271.66</time>
   <energy>
    <i name="e_fr_energy">   -175.14280081 </i>
    <i name="e_wo_entrp">   -175.10009274 </i>
    <i name="e_0_energy">   -175.13212379 </i>
   </energy>
  </scstep>
  <scstep>
   <time name="diag">   72.63   72.63</time>
   <time name="diis">  124.59  124.59</time>
   <time name="orth">   13.82   13.82</time>
   <time name="total">  255.01  255.00</time>
   <energy>
    <i name="e_fr_energy">   -175.14449508 </i>
    <i name="e_wo_entrp">   -175.10242366 </i>
    <i name="e_0_energy">   -175.13397723 </i>
   </energy>
  </scstep>
  <scstep>
   <time name="diag">   72.12   72.12</time>
   <time name="diis">  136.89  136.88</time>
   <time name="orth">   13.37   13.37</time>
   <time name="total">  266.27  266.28</time>
   <energy>
    <i name="e_fr_energy">   -175.14715823 </i>
    <i name="e_wo_entrp">   -175.10503134 </i>
    <i name="e_0_energy">   -175.13662650 </i>
   </energy>
  </scstep>
  <scstep>
   <time name="diag">   70.18   70.18</time>
   <time name="diis">  128.32  128.32</time>
   <time name="orth">   13.81   13.81</time>
   <time name="total">  256.91  256.91</time>
   <energy>
    <i name="e_fr_energy">   -175.14838844 </i>
    <i name="e_wo_entrp">   -175.10663908 </i>
    <i name="e_0_energy">   -175.13795110 </i>
   </energy>
  </scstep>
  <scstep>
   <time name="diag">   70.06   70.06</time>
   <time name="diis">  126.37  126.37</time>
   <time name="orth">   14.32   14.32</time>
   <time name="total">  256.28  256.28</time>
   <energy>
    <i name="e_fr_energy">   -175.15059755 </i>
    <i name="e_wo_entrp">   -175.10847656 </i>
    <i name="e_0_energy">   -175.14006730 </i>
   </energy>
  </scstep>
  <scstep>
   <time name="diag">   71.82   71.82</time>
   <time name="diis">  120.42  120.42</time>
   <time name="orth">   14.15   14.15</time>
   <time name="total">  252.49  252.49</time>
   <energy>
    <i name="e_fr_energy">   -175.15156409 </i>
    <i name="e_wo_entrp">   -175.10956202 </i>
    <i name="e_0_energy">   -175.14106357 </i>
   </energy>
  </scstep>
  <scstep>
   <time name="diag">   72.91   72.91</time>
   <time name="diis">  122.48  122.48</time>
   <time name="orth">   13.88   13.88</time>
   <time name="total">  254.08  254.08</time>
   <energy>
    <i name="e_fr_energy">   -175.15324693 </i>
    <i name="e_wo_entrp">   -175.11070361 </i>
    <i name="e_0_energy">   -175.14261110 </i>
   </energy>
  </scstep>
  <scstep>
   <time name="diag">   72.08   72.08</time>
   <time name="diis">  125.02  125.02</time>
   <time name="orth">   13.98   13.98</time>
   <time name="total">  255.60  255.61</time>
   <energy>
    <i name="e_fr_energy">   -175.15453157 </i>
    <i name="e_wo_entrp">   -175.11265531 </i>
    <i name="e_0_energy">   -175.14406250 </i>
   </energy>
  </scstep>
  <scstep>
   <time name="diag">   69.89   69.89</time>
   <time name="diis">  125.51  125.51</time>
   <time name="orth">   14.21   14.21</time>
   <time name="total">  255.14  255.15</time>
   <energy>
    <i name="e_fr_energy">   -175.15556330 </i>
    <i name="e_wo_entrp">   -175.11373383 </i>
    <i name="e_0_energy">   -175.14510594 </i>
   </energy>
  </scstep>
  <scstep>
   <time name="diag">   70.77   70.76</time>
   <time name="diis">  119.58  119.58</time>
   <time name="orth">   14.20   14.20</time>
   <time name="total">  251.06  251.06</time>
   <energy>
    <i name="e_fr_energy">   -175.15657153 </i>
    <i name="e_wo_entrp">   -175.11432520 </i>
    <i name="e_0_energy">   -175.14600994 </i>
   </energy>
  </scstep>
  <scstep>
   <time name="diag">   72.19   72.19</time>
   <time name="diis">  117.82  117.82</time>
   <time name="orth">   13.69   13.69</time>
   <time name="total">  249.47  249.48</time>
   <energy>
    <i name="e_fr_energy">   -175.15686073 </i>
    <i name="e_wo_entrp">   -175.11459728 </i>
    <i name="e_0_energy">   -175.14629486 </i>
   </energy>
  </scstep>
  <scstep>
   <time name="diag">   73.26   73.26</time>
   <time name="diis">  118.34  118.34</time>
   <time name="orth">   13.99   13.99</time>
   <time name="total">  250.70  250.70</time>
   <energy>
    <i name="e_fr_energy">   -175.15752795 </i>
    <i name="e_wo_entrp">   -175.11523306 </i>
    <i name="e_0_energy">   -175.14695423 </i>
   </energy>
  </scstep>
  <scstep>
   <time name="diag">   70.49   70.49</time>
   <time name="diis">  100.49  100.49</time>
   <time name="orth">   14.03   14.03</time>
   <time name="total">  230.64  230.64</time>
   <energy>
    <i name="e_fr_energy">   -175.15779793 </i>
    <i name="e_wo_entrp">   -175.11555055 </i>
    <i name="e_0_energy">   -175.14723609 </i>
   </energy>
  </scstep>
  <scstep>
   <time name="diag">   70.78   70.78</time>
   <time name="diis">  104.56  104.56</time>
   <time name="orth">   14.62   14.62</time>
   <time name="total">  236.57  236.57</time>
   <energy>
    <i name="e_fr_energy">   -175.15823105 </i>
    <i name="e_wo_entrp">   -175.11595955 </i>
    <i name="e_0_energy">   -175.14766318 </i>
   </energy>
  </scstep>
  <scstep>
   <time name="diag">   71.94   71.93</time>
   <time name="diis">   91.31   91.31</time>
   <time name="orth">   14.00   14.00</time>
   <time name="total">  222.38  222.38</time>
   <energy>
    <i name="e_fr_energy">   -175.15848558 </i>
    <i name="e_wo_entrp">   -175.11614793 </i>
    <i name="e_0_energy">   -175.14790117 </i>
   </energy>
  </scstep>
  <scstep>
   <time name="diag">   73.39   73.40</time>
   <time name="diis">   88.97   88.97</time>
   <time name="orth">   13.89   13.89</time>
   <time name="total">  221.28  221.29</time>
   <energy>
    <i name="e_fr_energy">   -175.15862077 </i>
    <i name="e_wo_entrp">   -175.11628488 </i>
    <i name="e_0_energy">   -175.14803680 </i>
   </energy>
  </scstep>
  <scstep>
   <time name="diag">   70.33   70.33</time>
   <time name="diis">   88.21   88.22</time>
   <time name="orth">   14.40   14.40</time>
   <time name="total">  219.35  219.36</time>
   <energy>
    <i name="e_fr_energy">   -175.15881288 </i>
    <i name="e_wo_entrp">   -175.11646520 </i>
    <i name="e_0_energy">   -175.14822596 </i>
   </energy>
  </scstep>
  <scstep>
   <time name="diag">   72.19   72.19</time>
   <time name="diis">   84.00   84.00</time>
   <time name="orth">   13.80   13.80</time>
   <time name="total">  214.93  214.94</time>
   <energy>
    <i name="e_fr_energy">   -175.15896378 </i>
    <i name="e_wo_entrp">   -175.11660967 </i>
    <i name="e_0_energy">   -175.14837526 </i>
   </energy>
  </scstep>
  <scstep>
   <time name="diag">   72.83   72.83</time>
   <time name="diis">   93.31   93.30</time>
   <time name="orth">   14.29   14.29</time>
   <time name="total">  226.00  226.00</time>
   <energy>
    <i name="e_fr_energy">   -175.15914470 </i>
    <i name="e_wo_entrp">   -175.11676052 </i>
    <i name="e_0_energy">   -175.14854865 </i>
   </energy>
  </scstep>
  <scstep>
   <time name="diag">   70.20   70.20</time>
   <time name="diis">   79.46   79.46</time>
   <time name="orth">   14.41   14.41</time>
   <time name="total">  178.60  178.61</time>
   <energy>
    <i name="alphaZ">     75.25431677 </i>
    <i name="ewald"> 138804.94215640 </i>
    <i name="hartreedc">-183164.10888977 </i>
    <i name="XCdc">  -1692.22823241 </i>
    <i name="pawpsdc">  46207.55186673 </i>
    <i name="pawaedc"> -42678.50249047 </i>
    <i name="eentropy">     -0.04234306 </i>
    <i name="bandstr">  -2814.53109397 </i>
    <i name="atom">  45086.50549395 </i>
    <i name="e_fr_energy">   -175.15921583 </i>
    <i name="e_wo_entrp">   -175.11687276 </i>
    <i name="e_0_energy">   -175.14863006 </i>
   </energy>
  </scstep>
  <structure>
   <crystal>
    <varray name="basis" >
     <v>      30.00000000       0.00000000       0.00000000 </v>
     <v>       0.00000000      30.00000000       0.00000000 </v>
     <v>       0.00000000       0.00000000      30.00000000 </v>
    </varray>
    <i name="volume">  27000.00000000 </i>
    <varray name="rec_basis" >
     <v>       0.03333333       0.00000000       0.00000000 </v>
     <v>       0.00000000       0.03333333       0.00000000 </v>
     <v>       0.00000000       0.00000000       0.03333333 </v>
    </varray>
   </crystal>
   <varray name="positions" >
    <v>       0.44576020       0.32826710       0.41691983 </v>
    <v>       0.67173288       0.55423978       0.41691983 </v>
    <v>       0.55423980       0.32826710       0.41691983 </v>
    <v>       0.32826712       0.55423978       0.41691983 </v>
    <v>       0.50000000       0.38250690       0.34021317 </v>
    <v>       0.50000000       0.38250690       0.65978680 </v>
    <v>       0.50000000       0.27609440       0.50000000 </v>
    <v>       0.27609443       0.49999998       0.50000000 </v>
    <v>       0.72390557       0.49999998       0.50000000 </v>
    <v>       0.50000000       0.72390555       0.50000000 </v>
    <v>       0.61195280       0.38804720       0.34167483 </v>
    <v>       0.61195280       0.38804720       0.65832513 </v>
    <v>       0.38804722       0.61195278       0.34167483 </v>
    <v>       0.38804722       0.61195278       0.65832513 </v>
    <v>       0.38804720       0.38804720       0.34167483 </v>
    <v>       0.38804720       0.38804720       0.65832513 </v>
    <v>       0.61195278       0.61195278       0.34167483 </v>
    <v>       0.61195278       0.61195278       0.65832513 </v>
    <v>       0.44576020       0.32826710       0.58308023 </v>
    <v>       0.67173288       0.55423978       0.58308023 </v>
    <v>       0.55791699       0.44208301       0.41809300 </v>
    <v>       0.32826705       0.44576024       0.41691983 </v>
    <v>       0.55423973       0.67173293       0.41691983 </v>
    <v>       0.55423980       0.32826710       0.58308023 </v>
    <v>       0.32826712       0.55423978       0.58308023 </v>
    <v>       0.67173295       0.44576024       0.41691983 </v>
    <v>       0.44576027       0.67173293       0.41691983 </v>
    <v>       0.44208301       0.44208301       0.41809300 </v>
    <v>       0.50000000       0.38416601       0.50000000 </v>
    <v>       0.61749315       0.50000005       0.34021317 </v>
    <v>       0.61749315       0.50000005       0.65978680 </v>
    <v>       0.38250685       0.50000005       0.34021317 </v>
    <v>       0.38250685       0.50000005       0.65978680 </v>
    <v>       0.38317830       0.38317830       0.50000000 </v>
    <v>       0.61682172       0.61682172       0.50000000 </v>
    <v>       0.61682170       0.38317830       0.50000000 </v>
    <v>       0.38317828       0.61682172       0.50000000 </v>
    <v>       0.50000000       0.50000000       0.33478917 </v>
    <v>       0.50000000       0.50000000       0.66521087 </v>
    <v>       0.32826705       0.44576024       0.58308023 </v>
    <v>       0.55423973       0.67173293       0.58308023 </v>
    <v>       0.55791699       0.44208301       0.58190703 </v>
    <v>       0.44208298       0.55791702       0.41809300 </v>
    <v>       0.44208301       0.44208301       0.58190703 </v>
    <v>       0.67173295       0.44576024       0.58308023 </v>
    <v>       0.44576027       0.67173293       0.58308023 </v>
    <v>       0.55791702       0.55791702       0.41809300 </v>
    <v>       0.38416599       0.50000002       0.50000000 </v>
    <v>       0.61583401       0.50000002       0.50000000 </v>
    <v>       0.50000000       0.61749319       0.34021317 </v>
    <v>       0.50000000       0.61749319       0.65978680 </v>
    <v>       0.50000000       0.50000000       0.50000000 </v>
    <v>       0.44208298       0.55791702       0.58190703 </v>
    <v>       0.55791702       0.55791702       0.58190703 </v>
    <v>       0.50000000       0.61583404       0.50000000 </v>
    <v>       0.48502537       0.52431900       0.27849300 </v>
    <v>       0.48250437       0.52841317       0.24120170 </v>
   </varray>
  </structure>
  <varray name="forces" >
   <v>       0.69827521       1.10570075       0.29233587 </v>
   <v>      -1.10278516      -0.69912198       0.29648139 </v>
   <v>      -0.70046029       1.10766665       0.28707867 </v>
   <v>       1.09498736      -0.70186185       0.30412086 </v>
   <v>       0.00743233       0.38376087       1.32716761 </v>
   <v>      -0.00146789       0.40083266      -1.28137878 </v>
   <v>      -0.00238349       1.51021342      -0.00676087 </v>
   <v>       1.50579695       0.00466636      -0.01541766 </v>
   <v>      -1.50867594       0.00424897      -0.00891158 </v>
   <v>      -0.00339841      -1.50475427      -0.01841443 </v>
   <v>      -0.75008696       0.75042059       1.07049198 </v>
   <v>      -0.75077213       0.75208495      -1.07482923 </v>
   <v>       0.72400124      -0.72555026       1.07346508 </v>
   <v>       0.75402151      -0.75268745      -1.07289937 </v>
   <v>       0.74435563       0.74238728       1.07302752 </v>
   <v>       0.75011297       0.75413435      -1.07445950 </v>
   <v>      -0.73561489      -0.73855833       1.07317470 </v>
   <v>      -0.75444299      -0.75038120      -1.07406117 </v>
   <v>       0.69794109       1.10775989      -0.28803451 </v>
   <v>      -1.10810035      -0.69799506      -0.28765556 </v>
   <v>       0.06446454      -0.07623005      -0.19458490 </v>
   <v>       1.10361499       0.70596430       0.28942365 </v>
   <v>      -0.70466908      -1.09796198       0.29524264 </v>
   <v>      -0.69687460       1.10866867      -0.28929319 </v>
   <v>       1.11070881      -0.69818723      -0.28674134 </v>
   <v>      -1.10721882       0.70307813       0.28591097 </v>
   <v>       0.70271555      -1.09185152       0.30515404 </v>
   <v>      -0.11320171      -0.14924506      -0.12971010 </v>
   <v>       0.00079967      -0.21139656      -0.00034800 </v>
   <v>      -0.37772744      -0.01318405       1.32831564 </v>
   <v>      -0.40235479       0.00229003      -1.28069945 </v>
   <v>       0.39596563      -0.01313695       1.32187724 </v>
   <v>       0.40638110       0.00193766      -1.27981119 </v>
   <v>       0.82111044       0.81646131       0.01670204 </v>
   <v>      -0.82085751      -0.82547802       0.00811367 </v>
   <v>      -0.81342877       0.81225258       0.02719347 </v>
   <v>       0.82965697      -0.83051004      -0.00501906 </v>
   <v>      -0.19057502       0.29224212       0.46830091 </v>
   <v>      -0.00517849       0.00882951      -1.18580208 </v>
   <v>       1.11189693       0.69569476      -0.28509815 </v>
   <v>      -0.69625897      -1.11247044      -0.28417690 </v>
   <v>       0.11455999      -0.11419857       0.14863488 </v>
   <v>      -0.16604717       0.15885722      -0.09442849 </v>
   <v>      -0.11370288      -0.11430374       0.15082250 </v>
   <v>      -1.10945909       0.69634127      -0.28859036 </v>
   <v>       0.69835982      -1.11177321      -0.28564193 </v>
   <v>       0.16658652       0.13490603      -0.11307605 </v>
   <v>      -0.21585179       0.00089893       0.00070135 </v>
   <v>       0.21303169      -0.00083535       0.00027854 </v>
   <v>      -0.00135638      -0.44985908       1.28785021 </v>
   <v>      -0.00110876      -0.40699894      -1.27997992 </v>
   <v>       0.00026139      -0.00061062      -0.00959305 </v>
   <v>      -0.11393130       0.11333340       0.15300826 </v>
   <v>       0.11476198       0.11309239       0.15220466 </v>
   <v>      -0.00084884       0.21682447       0.00081298 </v>
   <v>       0.71711738      -1.04343316       4.89216723 </v>
   <v>      -0.48007782       0.72702547      -4.43464171 </v>
  </varray>
  <varray name="stress" >
   <v>      -6.71072582       0.00854394       0.00015654 </v>
   <v>       0.00854393      -6.72538384      -0.00860984 </v>
   <v>       0.00015656      -0.00860987      -6.49927018 </v>
  </varray>
  <energy>
   <i name="e_fr_energy">   -175.15921583 </i>
   <i name="e_wo_entrp">   -175.14863006 </i>
   <i name="e_0_energy">     -0.04234306 </i>
  </energy>
  <time name="totalsc">18835.1918835.58</time>
  <eigenvalues>
   <array>
    <dimension dim="1">band</dimension>
    <dimension dim="2">kpoint</dimension>
    <dimension dim="3">spin</dimension>
    <field>eigene</field>
    <field>occ</field>
    <set>
     <set comment="spin 1">
      <set comment="kpoint 1">
       <r>  -28.4976    1.0000 </r>
       <r>  -13.4013    1.0000 </r>
       <r>  -11.0935    1.0000 </r>
       <r>  -10.9569    1.0000 </r>
       <r>  -10.6604    1.0000 </r>
       <r>   -6.6517    1.0000 </r>
       <r>   -6.2729    1.0000 </r>
       <r>   -6.2451    1.0000 </r>
       <r>   -6.1486    1.0000 </r>
       <r>   -6.1225    1.0000 </r>
       <r>   -6.1130    1.0000 </r>
       <r>   -5.8260    1.0000 </r>
       <r>   -5.8109    1.0000 </r>
       <r>   -5.8054    1.0000 </r>
       <r>   -5.7456    1.0000 </r>
       <r>   -5.6953    1.0000 </r>
       <r>   -5.6844    1.0000 </r>
       <r>   -5.6827    1.0000 </r>
       <r>   -5.6804    1.0000 </r>
       <r>   -5.6596    1.0000 </r>
       <r>   -5.6500    1.0000 </r>
       <r>   -5.6467    1.0000 </r>
       <r>   -5.6099    1.0000 </r>
       <r>   -5.5956    1.0000 </r>
       <r>   -5.5910    1.0000 </r>
       <r>   -5.5901    1.0000 </r>
       <r>   -5.5858    1.0000 </r>
       <r>   -5.5499    1.0000 </r>
       <r>   -5.5403    1.0000 </r>
       <r>   -5.5293    1.0000 </r>
       <r>   -5.5263    1.0000 </r>
       <r>   -5.5180    1.0000 </r>
       <r>   -5.5152    1.0000 </r>
       <r>   -5.5130    1.0000 </r>
       <r>   -5.5126    1.0000 </r>
       <r>   -5.5075    1.0000 </r>
       <r>   -5.5006    1.0000 </r>
       <r>   -5.4946    1.0000 </r>
       <r>   -5.4823    1.0000 </r>
       <r>   -5.4736    1.0000 </r>
       <r>   -5.4735    1.0000 </r>
       <r>   -5.4691    1.0000 </r>
       <r>   -5.4655    1.0000 </r>
       <r>   -5.4632    1.0000 </r>
       <r>   -5.4627    1.0000 </r>
       <r>   -5.4617    1.0000 </r>
       <r>   -5.4504    1.0000 </r>
       <r>   -5.4396    1.0000 </r>
       <r>   -5.4249    1.0000 </r>
       <r>   -5.4238    1.0000 </r>
       <r>   -5.4220    1.0000 </r>
       <r>   -5.4113    1.0000 </r>
       <r>   -5.4034    1.0000 </r>
       <r>   -5.4032    1.0000 </r>
       <r>   -5.3910    1.0000 </r>
       <r>   -5.3864    1.0000 </r>
       <r>   -5.3798    1.0000 </r>
       <r>   -5.3617    1.0000 </r>
       <r>   -5.3439    1.0000 </r>
       <r>   -5.3172    1.0000 </r>
       <r>   -5.3146    1.0000 </r>
       <r>   -5.3113    1.0000 </r>
       <r>   -5.3110    1.0000 </r>
       <r>   -5.3100    1.0000 </r>
       <r>   -5.3047    1.0000 </r>
       <r>   -5.3007    1.0000 </r>
       <r>   -5.2953    1.0000 </r>
       <r>   -5.2935    1.0000 </r>
       <r>   -5.2772    1.0000 </r>
       <r>   -5.2713    1.0000 </r>
       <r>   -5.2428    1.0000 </r>
       <r>   -5.1932    1.0000 </r>
       <r>   -5.1810    1.0000 </r>
       <r>   -5.1787    1.0000 </r>
       <r>   -5.1761    1.0000 </r>
       <r>   -5.1760    1.0000 </r>
       <r>   -5.1728    1.0000 </r>
       <r>   -5.1715    1.0000 </r>
       <r>   -5.1701    1.0000 </r>
       <r>   -5.1483    1.0000 </r>
       <r>   -5.1437    1.0000 </r>
       <r>   -5.1419    1.0000 </r>
       <r>   -5.1309    1.0000 </r>
       <r>   -5.1232    1.0000 </r>
       <r>   -5.1182    1.0000 </r>
       <r>   -5.1171    1.0000 </r>
       <r>   -5.1081    1.0000 </r>
       <r>   -5.0973    1.0000 </r>
       <r>   -5.0931    1.0000 </r>
       <r>   -5.0924    1.0000 </r>
       <r>   -5.0720    1.0000 </r>
       <r>   -5.0536    1.0000 </r>
       <r>   -5.0521    1.0000 </r>
       <r>   -5.0480    1.0000 </r>
       <r>   -5.0472    1.0000 </r>
       <r>   -5.0429    1.0000 </r>
       <r>   -5.0424    1.0000 </r>
       <r>   -5.0312    1.0000 </r>
       <r>   -5.0229    1.0000 </r>
       <r>   -5.0149    1.0000 </r>
       <r>   -5.0135    1.0000 </r>
       <r>   -5.0112    1.0000 </r>
       <r>   -5.0022    1.0000 </r>
       <r>   -5.0006    1.0000 </r>
       <r>   -5.0000    1.0000 </r>
       <r>   -4.9993    1.0000 </r>
       <r>   -4.9969    1.0000 </r>
       <r>   -4.9847    1.0000 </r>
       <r>   -4.9814    1.0000 </r>
       <r>   -4.9751    1.0000 </r>
       <r>   -4.9746    1.0000 </r>
       <r>   -4.9732    1.0000 </r>
       <r>   -4.9642    1.0000 </r>
       <r>   -4.9619    1.0000 </r>
       <r>   -4.9555    1.0000 </r>
       <r>   -4.9542    1.0000 </r>
       <r>   -4.9434    1.0000 </r>
       <r>   -4.9431    1.0000 </r>
       <r>   -4.9257    1.0000 </r>
       <r>   -4.9182    1.0000 </r>
       <r>   -4.9126    1.0000 </r>
       <r>   -4.9119    1.0000 </r>
       <r>   -4.9100    1.0000 </r>
       <r>   -4.9071    1.0000 </r>
       <r>   -4.8964    1.0000 </r>
       <r>   -4.8958    1.0000 </r>
       <r>   -4.8909    1.0000 </r>
       <r>   -4.8738    1.0000 </r>
       <r>   -4.8705    1.0000 </r>
       <r>   -4.8632    1.0000 </r>
       <r>   -4.8381    1.0000 </r>
       <r>   -4.8332    1.0000 </r>
       <r>   -4.8305    1.0000 </r>
       <r>   -4.8269    1.0000 </r>
       <r>   -4.8251    1.0000 </r>
       <r>   -4.8246    1.0000 </r>
       <r>   -4.8144    1.0000 </r>
       <r>   -4.7943    0.9999 </r>
       <r>   -4.7923    0.9999 </r>
       <r>   -4.7843    0.9999 </r>
       <r>   -4.7751    0.9999 </r>
       <r>   -4.7691    0.9998 </r>
       <r>   -4.7586    0.9998 </r>
       <r>   -4.7481    0.9997 </r>
       <r>   -4.7327    0.9996 </r>
       <r>   -4.7322    0.9996 </r>
       <r>   -4.7297    0.9996 </r>
       <r>   -4.7267    0.9996 </r>
       <r>   -4.7125    0.9994 </r>
       <r>   -4.7035    0.9993 </r>
       <r>   -4.6987    0.9992 </r>
       <r>   -4.6968    0.9992 </r>
       <r>   -4.6768    0.9988 </r>
       <r>   -4.6750    0.9988 </r>
       <r>   -4.6733    0.9988 </r>
       <r>   -4.6703    0.9987 </r>
       <r>   -4.6675    0.9986 </r>
       <r>   -4.6671    0.9986 </r>
       <r>   -4.6611    0.9985 </r>
       <r>   -4.6562    0.9984 </r>
       <r>   -4.6514    0.9982 </r>
       <r>   -4.6466    0.9981 </r>
       <r>   -4.6463    0.9981 </r>
       <r>   -4.6453    0.9980 </r>
       <r>   -4.6438    0.9980 </r>
       <r>   -4.6390    0.9978 </r>
       <r>   -4.6387    0.9978 </r>
       <r>   -4.6306    0.9976 </r>
       <r>   -4.6275    0.9975 </r>
       <r>   -4.6243    0.9973 </r>
       <r>   -4.6226    0.9973 </r>
       <r>   -4.6182    0.9971 </r>
       <r>   -4.6145    0.9970 </r>
       <r>   -4.5914    0.9961 </r>
       <r>   -4.5908    0.9961 </r>
       <r>   -4.5866    0.9959 </r>
       <r>   -4.5858    0.9959 </r>
       <r>   -4.5821    0.9958 </r>
       <r>   -4.5812    0.9958 </r>
       <r>   -4.5766    0.9956 </r>
       <r>   -4.5684    0.9954 </r>
       <r>   -4.5607    0.9952 </r>
       <r>   -4.5486    0.9951 </r>
       <r>   -4.5478    0.9951 </r>
       <r>   -4.5457    0.9951 </r>
       <r>   -4.5455    0.9951 </r>
       <r>   -4.5449    0.9951 </r>
       <r>   -4.5444    0.9951 </r>
       <r>   -4.5416    0.9951 </r>
       <r>   -4.5403    0.9951 </r>
       <r>   -4.5095    0.9964 </r>
       <r>   -4.5058    0.9967 </r>
       <r>   -4.5039    0.9969 </r>
       <r>   -4.5005    0.9973 </r>
       <r>   -4.4968    0.9977 </r>
       <r>   -4.4847    0.9995 </r>
       <r>   -4.4763    1.0011 </r>
       <r>   -4.4752    1.0013 </r>
       <r>   -4.4685    1.0028 </r>
       <r>   -4.4648    1.0038 </r>
       <r>   -4.4613    1.0047 </r>
       <r>   -4.4592    1.0053 </r>
       <r>   -4.4547    1.0066 </r>
       <r>   -4.4536    1.0069 </r>
       <r>   -4.4512    1.0077 </r>
       <r>   -4.4473    1.0090 </r>
       <r>   -4.4449    1.0098 </r>
       <r>   -4.4400    1.0115 </r>
       <r>   -4.4386    1.0121 </r>
       <r>   -4.4332    1.0142 </r>
       <r>   -4.4240    1.0180 </r>
       <r>   -4.4137    1.0226 </r>
       <r>   -4.4039    1.0272 </r>
       <r>   -4.4023    1.0280 </r>
       <r>   -4.4004    1.0289 </r>
       <r>   -4.3964    1.0308 </r>
       <r>   -4.3950    1.0315 </r>
       <r>   -4.3937    1.0321 </r>
       <r>   -4.3915    1.0332 </r>
       <r>   -4.3866    1.0355 </r>
       <r>   -4.3850    1.0363 </r>
       <r>   -4.3724    1.0419 </r>
       <r>   -4.3586    1.0471 </r>
       <r>   -4.3467    1.0502 </r>
       <r>   -4.3445    1.0507 </r>
       <r>   -4.3348    1.0516 </r>
       <r>   -4.3314    1.0516 </r>
       <r>   -4.3306    1.0516 </r>
       <r>   -4.3299    1.0515 </r>
       <r>   -4.3271    1.0513 </r>
       <r>   -4.3230    1.0506 </r>
       <r>   -4.3229    1.0506 </r>
       <r>   -4.3194    1.0498 </r>
       <r>   -4.3185    1.0495 </r>
       <r>   -4.3174    1.0492 </r>
       <r>   -4.3152    1.0484 </r>
       <r>   -4.3143    1.0481 </r>
       <r>   -4.3098    1.0461 </r>
       <r>   -4.3088    1.0456 </r>
       <r>   -4.3063    1.0442 </r>
       <r>   -4.3017    1.0412 </r>
       <r>   -4.2933    1.0342 </r>
       <r>   -4.2926    1.0336 </r>
       <r>   -4.2905    1.0315 </r>
       <r>   -4.2845    1.0246 </r>
       <r>   -4.2820    1.0214 </r>
       <r>   -4.2767    1.0139 </r>
       <r>   -4.2761    1.0130 </r>
       <r>   -4.2758    1.0125 </r>
       <r>   -4.2754    1.0120 </r>
       <r>   -4.2610    0.9859 </r>
       <r>   -4.2521    0.9659 </r>
       <r>   -4.2517    0.9650 </r>
       <r>   -4.2493    0.9590 </r>
       <r>   -4.2443    0.9461 </r>
       <r>   -4.2430    0.9425 </r>
       <r>   -4.2428    0.9419 </r>
       <r>   -4.2426    0.9413 </r>
       <r>   -4.2367    0.9242 </r>
       <r>   -4.2365    0.9236 </r>
       <r>   -4.2310    0.9064 </r>
       <r>   -4.2300    0.9031 </r>
       <r>   -4.2292    0.9007 </r>
       <r>   -4.2286    0.8987 </r>
       <r>   -4.2262    0.8905 </r>
       <r>   -4.2140    0.8463 </r>
       <r>   -4.2131    0.8427 </r>
       <r>   -4.2116    0.8369 </r>
       <r>   -4.2109    0.8339 </r>
       <r>   -4.2078    0.8217 </r>
       <r>   -4.2072    0.8193 </r>
       <r>   -4.1942    0.7631 </r>
       <r>   -4.1883    0.7364 </r>
       <r>   -4.1873    0.7315 </r>
       <r>   -4.1813    0.7033 </r>
       <r>   -4.1769    0.6817 </r>
       <r>   -4.1755    0.6749 </r>
       <r>   -4.1722    0.6582 </r>
       <r>   -4.1624    0.6084 </r>
       <r>   -4.1613    0.6032 </r>
       <r>   -4.1611    0.6021 </r>
       <r>   -4.1477    0.5315 </r>
       <r>   -4.1384    0.4825 </r>
       <r>   -4.1247    0.4105 </r>
       <r>   -4.1239    0.4066 </r>
       <r>   -4.1187    0.3798 </r>
       <r>   -4.1123    0.3471 </r>
       <r>   -4.1032    0.3020 </r>
       <r>   -4.0284    0.0272 </r>
       <r>   -3.9594   -0.0508 </r>
       <r>   -3.8979   -0.0360 </r>
       <r>   -3.8190   -0.0039 </r>
       <r>   -3.8151   -0.0029 </r>
       <r>   -3.8041   -0.0005 </r>
       <r>   -3.4900    0.0001 </r>
       <r>   -3.4879    0.0001 </r>
       <r>   -3.3702    0.0000 </r>
       <r>   -3.0585    0.0000 </r>
       <r>   -3.0561    0.0000 </r>
       <r>   -3.0191    0.0000 </r>
       <r>   -3.0140    0.0000 </r>
       <r>   -3.0070    0.0000 </r>
       <r>   -3.0060    0.0000 </r>
       <r>   -2.9264    0.0000 </r>
       <r>   -2.8086    0.0000 </r>
       <r>   -2.5636    0.0000 </r>
       <r>   -2.5427    0.0000 </r>
       <r>   -2.5133    0.0000 </r>
       <r>   -2.2214    0.0000 </r>
       <r>   -2.1353    0.0000 </r>
       <r>   -2.1188    0.0000 </r>
       <r>   -2.1118    0.0000 </r>
       <r>   -1.9512    0.0000 </r>
       <r>   -1.9429    0.0000 </r>
       <r>   -1.8709    0.0000 </r>
       <r>   -1.8518    0.0000 </r>
       <r>   -1.8428    0.0000 </r>
       <r>   -1.7360    0.0000 </r>
       <r>   -1.7158    0.0000 </r>
       <r>   -1.6741    0.0000 </r>
       <r>   -1.6346    0.0000 </r>
       <r>   -1.5471    0.0000 </r>
       <r>   -1.4975    0.0000 </r>
       <r>   -1.3730    0.0000 </r>
       <r>   -1.3212    0.0000 </r>
       <r>   -1.0551    0.0000 </r>
       <r>   -1.0224    0.0000 </r>
       <r>   -1.0151    0.0000 </r>
       <r>   -0.9621    0.0000 </r>
       <r>   -0.9425    0.0000 </r>
       <r>   -0.9337    0.0000 </r>
       <r>   -0.9293    0.0000 </r>
       <r>   -0.9201    0.0000 </r>
       <r>   -0.8910    0.0000 </r>
       <r>   -0.8610    0.0000 </r>
       <r>   -0.7650    0.0000 </r>
      </set>
     </set>
    </set>
   </array>
  </eigenvalues>
  <separator name="orbital magnetization" >
   <v name="MAGDIPOLOUT">      0.00000000      0.00000000      0.00000000</v>
  </separator>
  <dos>
   <i name="efermi">     -4.14169555 </i>
   <total>
    <array>
     <dimension dim="1">gridpoints</dimension>
     <dimension dim="2">spin</dimension>
     <field>energy</field>
     <field>total</field>
     <field>integrated</field>
     <set>
      <set comment="spin 1">
       <r>   -30.4976     0.0000     0.0000 </r>
       <r>   -30.3919     0.0000     0.0000 </r>
       <r>   -30.2861     0.0000     0.0000 </r>
       <r>   -30.1803     0.0000     0.0000 </r>
       <r>   -30.0745     0.0000     0.0000 </r>
       <r>   -29.9688     0.0000     0.0000 </r>
       <r>   -29.8630     0.0000     0.0000 </r>
       <r>   -29.7572     0.0000     0.0000 </r>
       <r>   -29.6514     0.0000     0.0000 </r>
       <r>   -29.5457     0.0000     0.0000 </r>
       <r>   -29.4399     0.0000     0.0000 </r>
       <r>   -29.3341     0.0000     0.0000 </r>
       <r>   -29.2283     0.0002     0.0000 </r>
       <r>   -29.1225     0.0029     0.0003 </r>
       <r>   -29.0168     0.0258     0.0031 </r>
       <r>   -28.9110     0.0633     0.0097 </r>
       <r>   -28.8052    -0.2491    -0.0166 </r>
       <r>   -28.6994    -0.8038    -0.1016 </r>
       <r>   -28.5937     2.3351     0.1454 </r>
       <r>   -28.4879     9.0511     1.1028 </r>
       <r>   -28.3821     8.0618     1.9555 </r>
       <r>   -28.2763     1.2829     2.0912 </r>
       <r>   -28.1706    -0.8098     2.0055 </r>
       <r>   -28.0648    -0.1363     1.9911 </r>
       <r>   -27.9590     0.0636     1.9978 </r>
       <r>   -27.8532     0.0185     1.9998 </r>
       <r>   -27.7475     0.0018     2.0000 </r>
       <r>   -27.6417     0.0001     2.0000 </r>
       <r>   -27.5359     0.0000     2.0000 </r>
       <r>   -27.4301     0.0000     2.0000 </r>
       <r>   -27.3244     0.0000     2.0000 </r>
       <r>   -27.2186     0.0000     2.0000 </r>
       <r>   -27.1128     0.0000     2.0000 </r>
       <r>   -27.0070     0.0000     2.0000 </r>
       <r>   -26.9013     0.0000     2.0000 </r>
       <r>   -26.7955     0.0000     2.0000 </r>
       <r>   -26.6897     0.0000     2.0000 </r>
       <r>   -26.5839     0.0000     2.0000 </r>
       <r>   -26.4782     0.0000     2.0000 </r>
       <r>   -26.3724     0.0000     2.0000 </r>
       <r>   -26.2666     0.0000     2.0000 </r>
       <r>   -26.1608     0.0000     2.0000 </r>
       <r>   -26.0551     0.0000     2.0000 </r>
       <r>   -25.9493     0.0000     2.0000 </r>
       <r>   -25.8435     0.0000     2.0000 </r>
       <r>   -25.7377     0.0000     2.0000 </r>
       <r>   -25.6320     0.0000     2.0000 </r>
       <r>   -25.5262     0.0000     2.0000 </r>
       <r>   -25.4204     0.0000     2.0000 </r>
       <r>   -25.3146     0.0000     2.0000 </r>
       <r>   -25.2089     0.0000     2.0000 </r>
       <r>   -25.1031     0.0000     2.0000 </r>
       <r>   -24.9973     0.0000     2.0000 </r>
       <r>   -24.8915     0.0000     2.0000 </r>
       <r>   -24.7858     0.0000     2.0000 </r>
       <r>   -24.6800     0.0000     2.0000 </r>
       <r>   -24.5742     0.0000     2.0000 </r>
       <r>   -24.4684     0.0000     2.0000 </r>
       <r>   -24.3627     0.0000     2.0000 </r>
       <r>   -24.2569     0.0000     2.0000 </r>
       <r>   -24.1511     0.0000     2.0000 </r>
       <r>   -24.0453     0.0000     2.0000 </r>
       <r>   -23.9396     0.0000     2.0000 </r>
       <r>   -23.8338     0.0000     2.0000 </r>
       <r>   -23.7280     0.0000     2.0000 </r>
       <r>   -23.6222     0.0000     2.0000 </r>
       <r>   -23.5165     0.0000     2.0000 </r>
       <r>   -23.4107     0.0000     2.0000 </r>
       <r>   -23.3049     0.0000     2.0000 </r>
       <r>   -23.1991     0.0000     2.0000 </r>
       <r>   -23.0934     0.0000     2.0000 </r>
       <r>   -22.9876     0.0000     2.0000 </r>
       <r>   -22.8818     0.0000     2.0000 </r>
       <r>   -22.7760     0.0000     2.0000 </r>
       <r>   -22.6703     0.0000     2.0000 </r>
       <r>   -22.5645     0.0000     2.0000 </r>
       <r>   -22.4587     0.0000     2.0000 </r>
       <r>   -22.3529     0.0000     2.0000 </r>
       <r>   -22.2472     0.0000     2.0000 </r>
       <r>   -22.1414     0.0000     2.0000 </r>
       <r>   -22.0356     0.0000     2.0000 </r>
       <r>   -21.9298     0.0000     2.0000 </r>
       <r>   -21.8241     0.0000     2.0000 </r>
       <r>   -21.7183     0.0000     2.0000 </r>
       <r>   -21.6125     0.0000     2.0000 </r>
       <r>   -21.5067     0.0000     2.0000 </r>
       <r>   -21.4010     0.0000     2.0000 </r>
       <r>   -21.2952     0.0000     2.0000 </r>
       <r>   -21.1894     0.0000     2.0000 </r>
       <r>   -21.0836     0.0000     2.0000 </r>
       <r>   -20.9778     0.0000     2.0000 </r>
       <r>   -20.8721     0.0000     2.0000 </r>
       <r>   -20.7663     0.0000     2.0000 </r>
       <r>   -20.6605     0.0000     2.0000 </r>
       <r>   -20.5547     0.0000     2.0000 </r>
       <r>   -20.4490     0.0000     2.0000 </r>
       <r>   -20.3432     0.0000     2.0000 </r>
       <r>   -20.2374     0.0000     2.0000 </r>
       <r>   -20.1316     0.0000     2.0000 </r>
       <r>   -20.0259     0.0000     2.0000 </r>
       <r>   -19.9201     0.0000     2.0000 </r>
       <r>   -19.8143     0.0000     2.0000 </r>
       <r>   -19.7085     0.0000     2.0000 </r>
       <r>   -19.6028     0.0000     2.0000 </r>
       <r>   -19.4970     0.0000     2.0000 </r>
       <r>   -19.3912     0.0000     2.0000 </r>
       <r>   -19.2854     0.0000     2.0000 </r>
       <r>   -19.1797     0.0000     2.0000 </r>
       <r>   -19.0739     0.0000     2.0000 </r>
       <r>   -18.9681     0.0000     2.0000 </r>
       <r>   -18.8623     0.0000     2.0000 </r>
       <r>   -18.7566     0.0000     2.0000 </r>
       <r>   -18.6508     0.0000     2.0000 </r>
       <r>   -18.5450     0.0000     2.0000 </r>
       <r>   -18.4392     0.0000     2.0000 </r>
       <r>   -18.3335     0.0000     2.0000 </r>
       <r>   -18.2277     0.0000     2.0000 </r>
       <r>   -18.1219     0.0000     2.0000 </r>
       <r>   -18.0161     0.0000     2.0000 </r>
       <r>   -17.9104     0.0000     2.0000 </r>
       <r>   -17.8046     0.0000     2.0000 </r>
       <r>   -17.6988     0.0000     2.0000 </r>
       <r>   -17.5930     0.0000     2.0000 </r>
       <r>   -17.4873     0.0000     2.0000 </r>
       <r>   -17.3815     0.0000     2.0000 </r>
       <r>   -17.2757     0.0000     2.0000 </r>
       <r>   -17.1699     0.0000     2.0000 </r>
       <r>   -17.0642     0.0000     2.0000 </r>
       <r>   -16.9584     0.0000     2.0000 </r>
       <r>   -16.8526     0.0000     2.0000 </r>
       <r>   -16.7468     0.0000     2.0000 </r>
       <r>   -16.6411     0.0000     2.0000 </r>
       <r>   -16.5353     0.0000     2.0000 </r>
       <r>   -16.4295     0.0000     2.0000 </r>
       <r>   -16.3237     0.0000     2.0000 </r>
       <r>   -16.2180     0.0000     2.0000 </r>
       <r>   -16.1122     0.0000     2.0000 </r>
       <r>   -16.0064     0.0000     2.0000 </r>
       <r>   -15.9006     0.0000     2.0000 </r>
       <r>   -15.7949     0.0000     2.0000 </r>
       <r>   -15.6891     0.0000     2.0000 </r>
       <r>   -15.5833     0.0000     2.0000 </r>
       <r>   -15.4775     0.0000     2.0000 </r>
       <r>   -15.3718     0.0000     2.0000 </r>
       <r>   -15.2660     0.0000     2.0000 </r>
       <r>   -15.1602     0.0000     2.0000 </r>
       <r>   -15.0544     0.0000     2.0000 </r>
       <r>   -14.9487     0.0000     2.0000 </r>
       <r>   -14.8429     0.0000     2.0000 </r>
       <r>   -14.7371     0.0000     2.0000 </r>
       <r>   -14.6313     0.0000     2.0000 </r>
       <r>   -14.5256     0.0000     2.0000 </r>
       <r>   -14.4198     0.0000     2.0000 </r>
       <r>   -14.3140     0.0000     2.0000 </r>
       <r>   -14.2082     0.0000     2.0000 </r>
       <r>   -14.1025     0.0004     2.0000 </r>
       <r>   -13.9967     0.0059     2.0007 </r>
       <r>   -13.8909     0.0395     2.0048 </r>
       <r>   -13.7851     0.0406     2.0091 </r>
       <r>   -13.6794    -0.4618     1.9603 </r>
       <r>   -13.5736    -0.5315     1.9041 </r>
       <r>   -13.4678     4.2525     2.3539 </r>
       <r>   -13.3620     9.9247     3.4037 </r>
       <r>   -13.2563     6.1541     4.0546 </r>
       <r>   -13.1505     0.1007     4.0653 </r>
       <r>   -13.0447    -0.6641     3.9950 </r>
       <r>   -12.9389    -0.0174     3.9932 </r>
       <r>   -12.8332     0.0531     3.9988 </r>
       <r>   -12.7274     0.0105     3.9999 </r>
       <r>   -12.6216     0.0008     4.0000 </r>
       <r>   -12.5158     0.0000     4.0000 </r>
       <r>   -12.4100     0.0000     4.0000 </r>
       <r>   -12.3043     0.0000     4.0000 </r>
       <r>   -12.1985     0.0000     4.0000 </r>
       <r>   -12.0927     0.0000     4.0000 </r>
       <r>   -11.9869     0.0000     4.0000 </r>
       <r>   -11.8812     0.0000     4.0000 </r>
       <r>   -11.7754     0.0007     4.0001 </r>
       <r>   -11.6696     0.0092     4.0010 </r>
       <r>   -11.5638     0.0537     4.0067 </r>
       <r>   -11.4581     0.0379     4.0107 </r>
       <r>   -11.3523    -0.5535     3.9522 </r>
       <r>   -11.2465    -0.4947     3.8999 </r>
       <r>   -11.1407     4.9580     4.4243 </r>
       <r>   -11.0350    13.4970     5.8520 </r>
       <r>   -10.9292    13.9592     7.3285 </r>
       <r>   -10.8234     6.1925     7.9835 </r>
       <r>   -10.7176     4.8733     8.4990 </r>
       <r>   -10.6119     9.3052     9.4832 </r>
       <r>   -10.5061     5.4986    10.0649 </r>
       <r>   -10.4003    -0.0945    10.0549 </r>
       <r>   -10.2945    -0.5849     9.9930 </r>
       <r>   -10.1888     0.0083     9.9939 </r>
       <r>   -10.0830     0.0486     9.9990 </r>
       <r>    -9.9772     0.0087     9.9999 </r>
       <r>    -9.8714     0.0006    10.0000 </r>
       <r>    -9.7657     0.0000    10.0000 </r>
       <r>    -9.6599     0.0000    10.0000 </r>
       <r>    -9.5541     0.0000    10.0000 </r>
       <r>    -9.4483     0.0000    10.0000 </r>
       <r>    -9.3426     0.0000    10.0000 </r>
       <r>    -9.2368     0.0000    10.0000 </r>
       <r>    -9.1310     0.0000    10.0000 </r>
       <r>    -9.0252     0.0000    10.0000 </r>
       <r>    -8.9195     0.0000    10.0000 </r>
       <r>    -8.8137     0.0000    10.0000 </r>
       <r>    -8.7079     0.0000    10.0000 </r>
       <r>    -8.6021     0.0000    10.0000 </r>
       <r>    -8.4964     0.0000    10.0000 </r>
       <r>    -8.3906     0.0000    10.0000 </r>
       <r>    -8.2848     0.0000    10.0000 </r>
       <r>    -8.1790     0.0000    10.0000 </r>
       <r>    -8.0733     0.0000    10.0000 </r>
       <r>    -7.9675     0.0000    10.0000 </r>
       <r>    -7.8617     0.0000    10.0000 </r>
       <r>    -7.7559     0.0000    10.0000 </r>
       <r>    -7.6502     0.0000    10.0000 </r>
       <r>    -7.5444     0.0000    10.0000 </r>
       <r>    -7.4386     0.0000    10.0000 </r>
       <r>    -7.3328     0.0007    10.0001 </r>
       <r>    -7.2271     0.0091    10.0010 </r>
       <r>    -7.1213     0.0496    10.0063 </r>
       <r>    -7.0155     0.0023    10.0065 </r>
       <r>    -6.9097    -0.6104     9.9420 </r>
       <r>    -6.8040    -0.0693     9.9346 </r>
       <r>    -6.6982     5.8097    10.5491 </r>
       <r>    -6.5924     9.9317    11.5997 </r>
       <r>    -6.4866     3.1506    11.9329 </r>
       <r>    -6.3809    -0.2071    11.9110 </r>
       <r>    -6.2751    15.2994    13.5293 </r>
       <r>    -6.1693    36.7744    17.4191 </r>
       <r>    -6.0635    33.6789    20.9815 </r>
       <r>    -5.9578     9.8154    22.0198 </r>
       <r>    -5.8520    11.3742    23.2229 </r>
       <r>    -5.7462    49.9480    28.5061 </r>
       <r>    -5.6404   115.5948    40.7332 </r>
       <r>    -5.5347   218.6817    63.8643 </r>
       <r>    -5.4289   296.8214    95.2607 </r>
       <r>    -5.3231   262.7922   123.0576 </r>
       <r>    -5.2173   203.5313   144.5862 </r>
       <r>    -5.1116   246.2909   170.6377 </r>
       <r>    -5.0058   344.6177   207.0898 </r>
       <r>    -4.9000   356.2546   244.7727 </r>
       <r>    -4.7942   293.8327   275.8530 </r>
       <r>    -4.6885   318.7268   309.5664 </r>
       <r>    -4.5827   401.8000   352.0669 </r>
       <r>    -4.4769   417.2867   396.2056 </r>
       <r>    -4.3711   452.9145   444.1127 </r>
       <r>    -4.2653   549.1965   502.2042 </r>
       <r>    -4.1596   488.2543   553.8494 </r>
       <r>    -4.0538   223.0660   577.4443 </r>
       <r>    -3.9480    36.1079   581.2636 </r>
       <r>    -3.8422    22.2048   583.6123 </r>
       <r>    -3.7365    31.6476   586.9599 </r>
       <r>    -3.6307    11.1018   588.1342 </r>
       <r>    -3.5249    10.7991   589.2764 </r>
       <r>    -3.4191    24.5174   591.8698 </r>
       <r>    -3.3134    15.9593   593.5579 </r>
       <r>    -3.2076     0.3006   593.5897 </r>
       <r>    -3.1018    20.2351   595.7300 </r>
       <r>    -2.9960    60.0945   602.0866 </r>
       <r>    -2.8903    53.1329   607.7067 </r>
       <r>    -2.7845    17.1826   609.5242 </r>
       <r>    -2.6787     4.6176   610.0126 </r>
       <r>    -2.5729    19.3179   612.0560 </r>
       <r>    -2.4672    27.5218   614.9671 </r>
       <r>    -2.3614     9.9932   616.0242 </r>
       <r>    -2.2556     6.3259   616.6933 </r>
       <r>    -2.1498    26.9130   619.5400 </r>
       <r>    -2.0441    35.1614   623.2592 </r>
       <r>    -1.9383    35.1356   626.9757 </r>
       <r>    -1.8325    44.3131   631.6629 </r>
       <r>    -1.7267    46.7487   636.6078 </r>
       <r>    -1.6210    40.9278   640.9369 </r>
       <r>    -1.5152    31.2705   644.2446 </r>
       <r>    -1.4094    24.6621   646.8532 </r>
       <r>    -1.3036    19.5160   648.9175 </r>
       <r>    -1.1979     5.9340   649.5452 </r>
       <r>    -1.0921    11.7887   650.7922 </r>
       <r>    -0.9863    58.2130   656.9497 </r>
       <r>    -0.8805    84.6962   665.9084 </r>
       <r>    -0.7748    50.3301   671.2321 </r>
       <r>    -0.6690     9.8766   672.2768 </r>
       <r>    -0.5632    -1.9291   672.0728 </r>
       <r>    -0.4574    -1.0019   671.9668 </r>
       <r>    -0.3517     0.1250   671.9800 </r>
       <r>    -0.2459     0.1516   671.9960 </r>
       <r>    -0.1401     0.0340   671.9996 </r>
       <r>    -0.0343     0.0033   672.0000 </r>
       <r>     0.0714     0.0002   672.0000 </r>
       <r>     0.1772     0.0000   672.0000 </r>
       <r>     0.2830     0.0000   672.0000 </r>
       <r>     0.3888     0.0000   672.0000 </r>
       <r>     0.4945     0.0000   672.0000 </r>
       <r>     0.6003     0.0000   672.0000 </r>
       <r>     0.7061     0.0000   672.0000 </r>
       <r>     0.8119     0.0000   672.0000 </r>
       <r>     0.9176     0.0000   672.0000 </r>
       <r>     1.0234     0.0000   672.0000 </r>
       <r>     1.1292     0.0000   672.0000 </r>
       <r>     1.2350     0.0000   672.0000 </r>
      </set>
     </set>
    </array>
   </total>
  </dos>
 </calculation>
 <structure name="finalpos" >
  <crystal>
   <varray name="basis" >
    <v>      30.00000000       0.00000000       0.00000000 </v>
    <v>       0.00000000      30.00000000       0.00000000 </v>
    <v>       0.00000000       0.00000000      30.00000000 </v>
   </varray>
   <i name="volume">  27000.00000000 </i>
   <varray name="rec_basis" >
    <v>       0.03333333       0.00000000       0.00000000 </v>
    <v>       0.00000000       0.03333333       0.00000000 </v>
    <v>       0.00000000       0.00000000       0.03333333 </v>
   </varray>
  </crystal>
  <varray name="positions" >
   <v>       0.44576020       0.32826710       0.41691983 </v>
   <v>       0.67173288       0.55423978       0.41691983 </v>
   <v>       0.55423980       0.32826710       0.41691983 </v>
   <v>       0.32826712       0.55423978       0.41691983 </v>
   <v>       0.50000000       0.38250690       0.34021317 </v>
   <v>       0.50000000       0.38250690       0.65978680 </v>
   <v>       0.50000000       0.27609440       0.50000000 </v>
   <v>       0.27609443       0.49999998       0.50000000 </v>
   <v>       0.72390557       0.49999998       0.50000000 </v>
   <v>       0.50000000       0.72390555       0.50000000 </v>
   <v>       0.61195280       0.38804720       0.34167483 </v>
   <v>       0.61195280       0.38804720       0.65832513 </v>
   <v>       0.38804722       0.61195278       0.34167483 </v>
   <v>       0.38804722       0.61195278       0.65832513 </v>
   <v>       0.38804720       0.38804720       0.34167483 </v>
   <v>       0.38804720       0.38804720       0.65832513 </v>
   <v>       0.61195278       0.61195278       0.34167483 </v>
   <v>       0.61195278       0.61195278       0.65832513 </v>
   <v>       0.44576020       0.32826710       0.58308023 </v>
   <v>       0.67173288       0.55423978       0.58308023 </v>
   <v>       0.55791699       0.44208301       0.41809300 </v>
   <v>       0.32826705       0.44576024       0.41691983 </v>
   <v>       0.55423973       0.67173293       0.41691983 </v>
   <v>       0.55423980       0.32826710       0.58308023 </v>
   <v>       0.32826712       0.55423978       0.58308023 </v>
   <v>       0.67173295       0.44576024       0.41691983 </v>
   <v>       0.44576027       0.67173293       0.41691983 </v>
   <v>       0.44208301       0.44208301       0.41809300 </v>
   <v>       0.50000000       0.38416601       0.50000000 </v>
   <v>       0.61749315       0.50000005       0.34021317 </v>
   <v>       0.61749315       0.50000005       0.65978680 </v>
   <v>       0.38250685       0.50000005       0.34021317 </v>
   <v>       0.38250685       0.50000005       0.65978680 </v>
   <v>       0.38317830       0.38317830       0.50000000 </v>
   <v>       0.61682172       0.61682172       0.50000000 </v>
   <v>       0.61682170       0.38317830       0.50000000 </v>
   <v>       0.38317828       0.61682172       0.50000000 </v>
   <v>       0.50000000       0.50000000       0.33478917 </v>
   <v>       0.50000000       0.50000000       0.66521087 </v>
   <v>       0.32826705       0.44576024       0.58308023 </v>
   <v>       0.55423973       0.67173293       0.58308023 </v>
   <v>       0.55791699       0.44208301       0.58190703 </v>
   <v>       0.44208298       0.55791702       0.41809300 </v>
   <v>       0.44208301       0.44208301       0.58190703 </v>
   <v>       0.67173295       0.44576024       0.58308023 </v>
   <v>       0.44576027       0.67173293       0.58308023 </v>
   <v>       0.55791702       0.55791702       0.41809300 </v>
   <v>       0.38416599       0.50000002       0.50000000 </v>
   <v>       0.61583401       0.50000002       0.50000000 </v>
   <v>       0.50000000       0.61749319       0.34021317 </v>
   <v>       0.50000000       0.61749319       0.65978680 </v>
   <v>       0.50000000       0.50000000       0.50000000 </v>
   <v>       0.44208298       0.55791702       0.58190703 </v>
   <v>       0.55791702       0.55791702       0.58190703 </v>
   <v>       0.50000000       0.61583404       0.50000000 </v>
   <v>       0.48502537       0.52431900       0.27849300 </v>
   <v>       0.48250437       0.52841317       0.24120170 </v>
  </varray>
  <varray name="selective"  type="logical" >
   <v type="logical" >  F  F  F </v>
   <v type="logical" >  F  F  F </v>
   <v type="logical" >  F  F  F </v>
   <v type="logical" >  F  F  F </v>
   <v type="logical" >  F  F  F </v>
   <v type="logical" >  F  F  F </v>
   <v type="logical" >  F  F  F </v>
   <v type="logical" >  F  F  F </v>
   <v type="logical" >  F  F  F </v>
   <v type="logical" >  F  F  F </v>
   <v type="logical" >  F  F  F </v>
   <v type="logical" >  F  F  F </v>
   <v type="logical" >  F  F  F </v>
   <v type="logical" >  F  F  F </v>
   <v type="logical" >  F  F  F </v>
   <v type="logical" >  F  F  F </v>
   <v type="logical" >  F  F  F </v>
   <v type="logical" >  F  F  F </v>
   <v type="logical" >  F  F  F </v>
   <v type="logical" >  F  F  F </v>
   <v type="logical" >  F  F  F </v>
   <v type="logical" >  F  F  F </v>
   <v type="logical" >  F  F  F </v>
   <v type="logical" >  F  F  F </v>
   <v type="logical" >  F  F  F </v>
   <v type="logical" >  F  F  F </v>
   <v type="logical" >  F  F  F </v>
   <v type="logical" >  F  F  F </v>
   <v type="logical" >  F  F  F </v>
   <v type="logical" >  F  F  F </v>
   <v type="logical" >  F  F  F </v>
   <v type="logical" >  F  F  F </v>
   <v type="logical" >  F  F  F </v>
   <v type="logical" >  F  F  F </v>
   <v type="logical" >  F  F  F </v>
   <v type="logical" >  F  F  F </v>
   <v type="logical" >  F  F  F </v>
   <v type="logical" >  F  F  F </v>
   <v type="logical" >  F  F  F </v>
   <v type="logical" >  F  F  F </v>
   <v type="logical" >  F  F  F </v>
   <v type="logical" >  F  F  F </v>
   <v type="logical" >  F  F  F </v>
   <v type="logical" >  F  F  F </v>
   <v type="logical" >  F  F  F </v>
   <v type="logical" >  F  F  F </v>
   <v type="logical" >  F  F  F </v>
   <v type="logical" >  F  F  F </v>
   <v type="logical" >  F  F  F </v>
   <v type="logical" >  F  F  F </v>
   <v type="logical" >  F  F  F </v>
   <v type="logical" >  F  F  F </v>
   <v type="logical" >  F  F  F </v>
   <v type="logical" >  F  F  F </v>
   <v type="logical" >  F  F  F </v>
   <v type="logical" >  F  F  F </v>
   <v type="logical" >  F  F  F </v>
  </varray>
  <nose>
   <v>      -3.00000000       0.00000000       0.00010000       0.00010000 </v>
  </nose>
 </structure>
</modeling>
