  57  57   0   0
  0.4736842E+03  0.3000000E-08  0.3000000E-08  0.3000000E-08  0.5000000E-15
  1.000000000000000E-004
  CAR 
 6_Pd100_top_free_z(O)                   
      1.33013095    -30.07474482  301     -4.15097188      1.00000000
    -30.075  0.0000E+00  0.0000E+00
    -29.970  0.0000E+00  0.0000E+00
    -29.865  0.0000E+00  0.0000E+00
    -29.761  0.2112E-27  0.2211E-28
    -29.656  0.8943E-24  0.9364E-25
    -29.551  0.2157E-20  0.2259E-21
    -29.447  0.2956E-17  0.3097E-18
    -29.342  0.2294E-14  0.2404E-15
    -29.237  0.1006E-11  0.1055E-12
    -29.133  0.2467E-09  0.2593E-10
    -29.028  0.3363E-07  0.3546E-08
    -28.923  0.2514E-05  0.2667E-06
    -28.819  0.1008E-03  0.1081E-04
    -28.714  0.2079E-02  0.2284E-03
    -28.609  0.2009E-01  0.2332E-02
    -28.505  0.6433E-01  0.9066E-02
    -28.400 -0.1487E+00 -0.6502E-02
    -28.295 -0.8151E+00 -0.9183E-01
    -28.190  0.1294E+01  0.4362E-01
    -28.086  0.8025E+01  0.8837E+00
    -27.981  0.9138E+01  0.1840E+01
    -27.876  0.2506E+01  0.2103E+01
    -27.772 -0.7913E+00  0.2020E+01
    -27.667 -0.2823E+00  0.1990E+01
    -27.562  0.6148E-01  0.1997E+01
    -27.458  0.2882E-01  0.2000E+01
    -27.353  0.3589E-02  0.2000E+01
    -27.248  0.2018E-03  0.2000E+01
    -27.144  0.5766E-05  0.2000E+01
    -27.039  0.8776E-07  0.2000E+01
    -26.934  0.7297E-09  0.2000E+01
    -26.830  0.3364E-11  0.2000E+01
    -26.725  0.8484E-14  0.2000E+01
    -26.620  0.0000E+00  0.2000E+01
    -26.516  0.0000E+00  0.2000E+01
    -26.411  0.0000E+00  0.2000E+01
    -26.306  0.0000E+00  0.2000E+01
    -26.201  0.0000E+00  0.2000E+01
    -26.097  0.0000E+00  0.2000E+01
    -25.992  0.0000E+00  0.2000E+01
    -25.887  0.0000E+00  0.2000E+01
    -25.783  0.0000E+00  0.2000E+01
    -25.678  0.0000E+00  0.2000E+01
    -25.573  0.0000E+00  0.2000E+01
    -25.469  0.0000E+00  0.2000E+01
    -25.364  0.0000E+00  0.2000E+01
    -25.259  0.0000E+00  0.2000E+01
    -25.155  0.0000E+00  0.2000E+01
    -25.050  0.0000E+00  0.2000E+01
    -24.945  0.0000E+00  0.2000E+01
    -24.841  0.0000E+00  0.2000E+01
    -24.736  0.0000E+00  0.2000E+01
    -24.631  0.0000E+00  0.2000E+01
    -24.527  0.0000E+00  0.2000E+01
    -24.422  0.0000E+00  0.2000E+01
    -24.317  0.0000E+00  0.2000E+01
    -24.213  0.0000E+00  0.2000E+01
    -24.108  0.0000E+00  0.2000E+01
    -24.003  0.0000E+00  0.2000E+01
    -23.898  0.0000E+00  0.2000E+01
    -23.794  0.0000E+00  0.2000E+01
    -23.689  0.0000E+00  0.2000E+01
    -23.584  0.0000E+00  0.2000E+01
    -23.480  0.0000E+00  0.2000E+01
    -23.375  0.0000E+00  0.2000E+01
    -23.270  0.0000E+00  0.2000E+01
    -23.166  0.0000E+00  0.2000E+01
    -23.061  0.0000E+00  0.2000E+01
    -22.956  0.0000E+00  0.2000E+01
    -22.852  0.0000E+00  0.2000E+01
    -22.747  0.0000E+00  0.2000E+01
    -22.642  0.0000E+00  0.2000E+01
    -22.538  0.0000E+00  0.2000E+01
    -22.433  0.0000E+00  0.2000E+01
    -22.328  0.0000E+00  0.2000E+01
    -22.224  0.0000E+00  0.2000E+01
    -22.119  0.0000E+00  0.2000E+01
    -22.014  0.0000E+00  0.2000E+01
    -21.909  0.0000E+00  0.2000E+01
    -21.805  0.0000E+00  0.2000E+01
    -21.700  0.0000E+00  0.2000E+01
    -21.595  0.0000E+00  0.2000E+01
    -21.491  0.0000E+00  0.2000E+01
    -21.386  0.0000E+00  0.2000E+01
    -21.281  0.0000E+00  0.2000E+01
    -21.177  0.0000E+00  0.2000E+01
    -21.072  0.0000E+00  0.2000E+01
    -20.967  0.0000E+00  0.2000E+01
    -20.863  0.0000E+00  0.2000E+01
    -20.758  0.0000E+00  0.2000E+01
    -20.653  0.0000E+00  0.2000E+01
    -20.549  0.0000E+00  0.2000E+01
    -20.444  0.0000E+00  0.2000E+01
    -20.339  0.0000E+00  0.2000E+01
    -20.235  0.0000E+00  0.2000E+01
    -20.130  0.0000E+00  0.2000E+01
    -20.025  0.0000E+00  0.2000E+01
    -19.921  0.0000E+00  0.2000E+01
    -19.816  0.0000E+00  0.2000E+01
    -19.711  0.0000E+00  0.2000E+01
    -19.606  0.0000E+00  0.2000E+01
    -19.502  0.0000E+00  0.2000E+01
    -19.397  0.0000E+00  0.2000E+01
    -19.292  0.0000E+00  0.2000E+01
    -19.188  0.0000E+00  0.2000E+01
    -19.083  0.0000E+00  0.2000E+01
    -18.978  0.0000E+00  0.2000E+01
    -18.874  0.0000E+00  0.2000E+01
    -18.769  0.0000E+00  0.2000E+01
    -18.664  0.0000E+00  0.2000E+01
    -18.560  0.0000E+00  0.2000E+01
    -18.455  0.0000E+00  0.2000E+01
    -18.350  0.0000E+00  0.2000E+01
    -18.246  0.0000E+00  0.2000E+01
    -18.141  0.0000E+00  0.2000E+01
    -18.036  0.0000E+00  0.2000E+01
    -17.932  0.0000E+00  0.2000E+01
    -17.827  0.0000E+00  0.2000E+01
    -17.722  0.0000E+00  0.2000E+01
    -17.617  0.0000E+00  0.2000E+01
    -17.513  0.0000E+00  0.2000E+01
    -17.408  0.0000E+00  0.2000E+01
    -17.303  0.0000E+00  0.2000E+01
    -17.199  0.0000E+00  0.2000E+01
    -17.094  0.0000E+00  0.2000E+01
    -16.989  0.0000E+00  0.2000E+01
    -16.885  0.0000E+00  0.2000E+01
    -16.780  0.0000E+00  0.2000E+01
    -16.675  0.0000E+00  0.2000E+01
    -16.571  0.0000E+00  0.2000E+01
    -16.466  0.0000E+00  0.2000E+01
    -16.361  0.0000E+00  0.2000E+01
    -16.257  0.0000E+00  0.2000E+01
    -16.152  0.0000E+00  0.2000E+01
    -16.047  0.0000E+00  0.2000E+01
    -15.943  0.0000E+00  0.2000E+01
    -15.838  0.0000E+00  0.2000E+01
    -15.733  0.0000E+00  0.2000E+01
    -15.629  0.0000E+00  0.2000E+01
    -15.524  0.0000E+00  0.2000E+01
    -15.419  0.2070E-26  0.2000E+01
    -15.314  0.7546E-23  0.2000E+01
    -15.210  0.1566E-19  0.2000E+01
    -15.105  0.1844E-16  0.2000E+01
    -15.000  0.1229E-13  0.2000E+01
    -14.896  0.4619E-11  0.2000E+01
    -14.791  0.9699E-09  0.2000E+01
    -14.686  0.1128E-06  0.2000E+01
    -14.582  0.7160E-05  0.2000E+01
    -14.477  0.2417E-03  0.2000E+01
    -14.372  0.4127E-02  0.2000E+01
    -14.268  0.3147E-01  0.2004E+01
    -14.163  0.5837E-01  0.2010E+01
    -14.058 -0.3231E+00  0.1976E+01
    -13.954 -0.7574E+00  0.1897E+01
    -13.849  0.2868E+01  0.2197E+01
    -13.744  0.9369E+01  0.3178E+01
    -13.640  0.7673E+01  0.3981E+01
    -13.535  0.1016E+01  0.4087E+01
    -13.430 -0.7993E+00  0.4004E+01
    -13.325 -0.1189E+00  0.3991E+01
    -13.221  0.6332E-01  0.3998E+01
    -13.116  0.1811E-01  0.4000E+01
    -13.011  0.1787E-02  0.4000E+01
    -12.907  0.8332E-04  0.4000E+01
    -12.802  0.2005E-05  0.4000E+01
    -12.697  0.2593E-07  0.4000E+01
    -12.593  0.1841E-09  0.4000E+01
    -12.488  0.4321E-10  0.4000E+01
    -12.383  0.7045E-08  0.4000E+01
    -12.279  0.6438E-06  0.4000E+01
    -12.174  0.3183E-04  0.4000E+01
    -12.069  0.8239E-03  0.4000E+01
    -11.965  0.1042E-01  0.4001E+01
    -11.860  0.5238E-01  0.4007E+01
    -11.755 -0.9313E-02  0.4006E+01
    -11.651 -0.6391E+00  0.3939E+01
    -11.546 -0.4458E-01  0.3934E+01
    -11.441  0.5768E+01  0.4538E+01
    -11.337  0.1012E+02  0.5597E+01
    -11.232  0.4776E+01  0.6097E+01
    -11.127 -0.1637E+01  0.5926E+01
    -11.022 -0.4705E+00  0.5876E+01
    -10.918  0.1154E+02  0.7084E+01
    -10.813  0.1980E+02  0.9157E+01
    -10.708  0.9601E+01  0.1016E+02
    -10.604 -0.6230E+00  0.1010E+02
    -10.499 -0.1071E+01  0.9985E+01
    -10.394  0.3210E-01  0.9989E+01
    -10.290  0.9098E-01  0.9998E+01
    -10.185  0.1639E-01  0.1000E+02
    -10.080  0.1225E-02  0.1000E+02
     -9.976  0.4544E-04  0.1000E+02
     -9.871  0.8903E-06  0.1000E+02
     -9.766  0.9499E-08  0.1000E+02
     -9.662  0.5615E-10  0.1000E+02
     -9.557  0.1845E-12  0.1000E+02
     -9.452  0.0000E+00  0.1000E+02
     -9.348  0.0000E+00  0.1000E+02
     -9.243  0.0000E+00  0.1000E+02
     -9.138  0.0000E+00  0.1000E+02
     -9.033  0.0000E+00  0.1000E+02
     -8.929  0.0000E+00  0.1000E+02
     -8.824  0.8667E-27  0.1000E+02
     -8.719  0.3436E-23  0.1000E+02
     -8.615  0.7771E-20  0.1000E+02
     -8.510  0.1000E-16  0.1000E+02
     -8.405  0.7307E-14  0.1000E+02
     -8.301  0.3021E-11  0.1000E+02
     -8.196  0.7002E-09  0.1000E+02
     -8.091  0.9038E-07  0.1000E+02
     -7.987  0.6408E-05  0.1000E+02
     -7.882  0.2440E-03  0.1000E+02
     -7.777  0.4780E-02  0.1000E+02
     -7.673  0.4364E-01  0.1001E+02
     -7.568  0.1266E+00  0.1002E+02
     -7.463 -0.3509E+00  0.9982E+01
     -7.359 -0.1608E+01  0.9813E+01
     -7.254  0.3077E+01  0.1014E+02
     -7.149  0.1648E+02  0.1186E+02
     -7.045  0.1781E+02  0.1373E+02
     -6.940  0.3969E+01  0.1414E+02
     -6.835 -0.1678E+01  0.1396E+02
     -6.730  0.5105E+01  0.1450E+02
     -6.626  0.1032E+02  0.1558E+02
     -6.521  0.4852E+01  0.1609E+02
     -6.416 -0.2159E+01  0.1586E+02
     -6.312  0.5705E+00  0.1592E+02
     -6.207  0.1994E+02  0.1801E+02
     -6.102  0.3899E+02  0.2209E+02
     -5.998  0.2918E+02  0.2514E+02
     -5.893  0.1752E+02  0.2698E+02
     -5.788  0.3845E+02  0.3100E+02
     -5.684  0.8005E+02  0.3938E+02
     -5.579  0.1657E+03  0.5673E+02
     -5.474  0.2755E+03  0.8556E+02
     -5.370  0.2867E+03  0.1156E+03
     -5.265  0.2159E+03  0.1382E+03
     -5.160  0.2151E+03  0.1607E+03
     -5.056  0.3089E+03  0.1930E+03
     -4.951  0.3658E+03  0.2313E+03
     -4.846  0.3156E+03  0.2644E+03
     -4.741  0.2922E+03  0.2950E+03
     -4.637  0.3702E+03  0.3337E+03
     -4.532  0.4179E+03  0.3775E+03
     -4.427  0.4266E+03  0.4221E+03
     -4.323  0.5079E+03  0.4753E+03
     -4.218  0.5477E+03  0.5326E+03
     -4.113  0.3556E+03  0.5698E+03
     -4.009  0.9896E+02  0.5802E+03
     -3.904  0.1701E+02  0.5820E+03
     -3.799  0.3349E+02  0.5855E+03
     -3.695  0.2222E+02  0.5878E+03
     -3.590  0.6427E+01  0.5885E+03
     -3.485  0.1745E+02  0.5903E+03
     -3.381  0.2262E+02  0.5927E+03
     -3.276  0.7845E+01  0.5935E+03
     -3.171  0.5013E+01  0.5940E+03
     -3.067  0.4025E+02  0.5982E+03
     -2.962  0.6330E+02  0.6049E+03
     -2.857  0.3517E+02  0.6085E+03
     -2.753  0.7800E+01  0.6094E+03
     -2.648  0.9914E+01  0.6104E+03
     -2.543  0.2626E+02  0.6132E+03
     -2.438  0.2312E+02  0.6156E+03
     -2.334  0.4341E+01  0.6160E+03
     -2.229  0.1224E+02  0.6173E+03
     -2.124  0.3364E+02  0.6208E+03
     -2.020  0.3402E+02  0.6244E+03
     -1.915  0.3485E+02  0.6280E+03
     -1.810  0.4416E+02  0.6327E+03
     -1.706  0.4620E+02  0.6375E+03
     -1.601  0.4170E+02  0.6419E+03
     -1.496  0.2806E+02  0.6448E+03
     -1.392  0.1710E+02  0.6466E+03
     -1.287  0.1653E+02  0.6483E+03
     -1.182  0.1011E+02  0.6494E+03
     -1.078  0.1883E+02  0.6514E+03
     -0.973  0.6036E+02  0.6577E+03
     -0.868  0.7469E+02  0.6655E+03
     -0.764  0.4242E+02  0.6699E+03
     -0.659  0.1465E+02  0.6715E+03
     -0.554  0.5081E+01  0.6720E+03
     -0.449  0.5221E+00  0.6720E+03
     -0.345 -0.5485E+00  0.6720E+03
     -0.240 -0.2172E-01  0.6720E+03
     -0.135  0.8294E-01  0.6720E+03
     -0.031  0.2136E-01  0.6720E+03
      0.074  0.2123E-02  0.6720E+03
      0.179  0.1016E-03  0.6720E+03
      0.283  0.2522E-05  0.6720E+03
      0.388  0.3368E-07  0.6720E+03
      0.493  0.2468E-09  0.6720E+03
      0.597  0.1005E-11  0.6720E+03
      0.702  0.2121E-14  0.6720E+03
      0.807  0.0000E+00  0.6720E+03
      0.911  0.0000E+00  0.6720E+03
      1.016  0.0000E+00  0.6720E+03
      1.121  0.0000E+00  0.6720E+03
      1.225  0.0000E+00  0.6720E+03
      1.330  0.0000E+00  0.6720E+03
