  57  57   0   0
  0.4736842E+03  0.3000000E-08  0.3000000E-08  0.3000000E-08  0.5000000E-15
  1.000000000000000E-004
  CAR 
 6_Pd100_top_free_z(O)                   
      1.21314777    -30.38042243  301     -4.15886966      1.00000000
    -30.380  0.0000E+00  0.0000E+00
    -30.275  0.0000E+00  0.0000E+00
    -30.170  0.0000E+00  0.0000E+00
    -30.064  0.2453E-27  0.2583E-28
    -29.959  0.1079E-23  0.1137E-24
    -29.854  0.2686E-20  0.2830E-21
    -29.749  0.3772E-17  0.3975E-18
    -29.643  0.2979E-14  0.3141E-15
    -29.538  0.1319E-11  0.1392E-12
    -29.433  0.3248E-09  0.3434E-10
    -29.327  0.4408E-07  0.4677E-08
    -29.222  0.3253E-05  0.3473E-06
    -29.117  0.1276E-03  0.1378E-04
    -29.011  0.2543E-02  0.2816E-03
    -28.906  0.2324E-01  0.2729E-02
    -28.801  0.6448E-01  0.9519E-02
    -28.695 -0.2041E+00 -0.1198E-01
    -28.590 -0.8205E+00 -0.9838E-01
    -28.485  0.1870E+01  0.9855E-01
    -28.379  0.8653E+01  0.1010E+01
    -28.274  0.8559E+01  0.1911E+01
    -28.169  0.1769E+01  0.2097E+01
    -28.064 -0.8215E+00  0.2011E+01
    -27.958 -0.1932E+00  0.1991E+01
    -27.853  0.6457E-01  0.1997E+01
    -27.748  0.2253E-01  0.2000E+01
    -27.642  0.2428E-02  0.2000E+01
    -27.537  0.1203E-03  0.2000E+01
    -27.432  0.3032E-05  0.2000E+01
    -27.326  0.4064E-07  0.2000E+01
    -27.221  0.2963E-09  0.2000E+01
    -27.116  0.1191E-11  0.2000E+01
    -27.010  0.2108E-14  0.2000E+01
    -26.905  0.0000E+00  0.2000E+01
    -26.800  0.0000E+00  0.2000E+01
    -26.695  0.0000E+00  0.2000E+01
    -26.589  0.0000E+00  0.2000E+01
    -26.484  0.0000E+00  0.2000E+01
    -26.379  0.0000E+00  0.2000E+01
    -26.273  0.0000E+00  0.2000E+01
    -26.168  0.0000E+00  0.2000E+01
    -26.063  0.0000E+00  0.2000E+01
    -25.957  0.0000E+00  0.2000E+01
    -25.852  0.0000E+00  0.2000E+01
    -25.747  0.0000E+00  0.2000E+01
    -25.641  0.0000E+00  0.2000E+01
    -25.536  0.0000E+00  0.2000E+01
    -25.431  0.0000E+00  0.2000E+01
    -25.325  0.0000E+00  0.2000E+01
    -25.220  0.0000E+00  0.2000E+01
    -25.115  0.0000E+00  0.2000E+01
    -25.010  0.0000E+00  0.2000E+01
    -24.904  0.0000E+00  0.2000E+01
    -24.799  0.0000E+00  0.2000E+01
    -24.694  0.0000E+00  0.2000E+01
    -24.588  0.0000E+00  0.2000E+01
    -24.483  0.0000E+00  0.2000E+01
    -24.378  0.0000E+00  0.2000E+01
    -24.272  0.0000E+00  0.2000E+01
    -24.167  0.0000E+00  0.2000E+01
    -24.062  0.0000E+00  0.2000E+01
    -23.956  0.0000E+00  0.2000E+01
    -23.851  0.0000E+00  0.2000E+01
    -23.746  0.0000E+00  0.2000E+01
    -23.640  0.0000E+00  0.2000E+01
    -23.535  0.0000E+00  0.2000E+01
    -23.430  0.0000E+00  0.2000E+01
    -23.325  0.0000E+00  0.2000E+01
    -23.219  0.0000E+00  0.2000E+01
    -23.114  0.0000E+00  0.2000E+01
    -23.009  0.0000E+00  0.2000E+01
    -22.903  0.0000E+00  0.2000E+01
    -22.798  0.0000E+00  0.2000E+01
    -22.693  0.0000E+00  0.2000E+01
    -22.587  0.0000E+00  0.2000E+01
    -22.482  0.0000E+00  0.2000E+01
    -22.377  0.0000E+00  0.2000E+01
    -22.271  0.0000E+00  0.2000E+01
    -22.166  0.0000E+00  0.2000E+01
    -22.061  0.0000E+00  0.2000E+01
    -21.955  0.0000E+00  0.2000E+01
    -21.850  0.0000E+00  0.2000E+01
    -21.745  0.0000E+00  0.2000E+01
    -21.640  0.0000E+00  0.2000E+01
    -21.534  0.0000E+00  0.2000E+01
    -21.429  0.0000E+00  0.2000E+01
    -21.324  0.0000E+00  0.2000E+01
    -21.218  0.0000E+00  0.2000E+01
    -21.113  0.0000E+00  0.2000E+01
    -21.008  0.0000E+00  0.2000E+01
    -20.902  0.0000E+00  0.2000E+01
    -20.797  0.0000E+00  0.2000E+01
    -20.692  0.0000E+00  0.2000E+01
    -20.586  0.0000E+00  0.2000E+01
    -20.481  0.0000E+00  0.2000E+01
    -20.376  0.0000E+00  0.2000E+01
    -20.270  0.0000E+00  0.2000E+01
    -20.165  0.0000E+00  0.2000E+01
    -20.060  0.0000E+00  0.2000E+01
    -19.955  0.0000E+00  0.2000E+01
    -19.849  0.0000E+00  0.2000E+01
    -19.744  0.0000E+00  0.2000E+01
    -19.639  0.0000E+00  0.2000E+01
    -19.533  0.0000E+00  0.2000E+01
    -19.428  0.0000E+00  0.2000E+01
    -19.323  0.0000E+00  0.2000E+01
    -19.217  0.0000E+00  0.2000E+01
    -19.112  0.0000E+00  0.2000E+01
    -19.007  0.0000E+00  0.2000E+01
    -18.901  0.0000E+00  0.2000E+01
    -18.796  0.0000E+00  0.2000E+01
    -18.691  0.0000E+00  0.2000E+01
    -18.585  0.0000E+00  0.2000E+01
    -18.480  0.0000E+00  0.2000E+01
    -18.375  0.0000E+00  0.2000E+01
    -18.270  0.0000E+00  0.2000E+01
    -18.164  0.0000E+00  0.2000E+01
    -18.059  0.0000E+00  0.2000E+01
    -17.954  0.0000E+00  0.2000E+01
    -17.848  0.0000E+00  0.2000E+01
    -17.743  0.0000E+00  0.2000E+01
    -17.638  0.0000E+00  0.2000E+01
    -17.532  0.0000E+00  0.2000E+01
    -17.427  0.0000E+00  0.2000E+01
    -17.322  0.0000E+00  0.2000E+01
    -17.216  0.0000E+00  0.2000E+01
    -17.111  0.0000E+00  0.2000E+01
    -17.006  0.0000E+00  0.2000E+01
    -16.900  0.0000E+00  0.2000E+01
    -16.795  0.0000E+00  0.2000E+01
    -16.690  0.0000E+00  0.2000E+01
    -16.585  0.0000E+00  0.2000E+01
    -16.479  0.0000E+00  0.2000E+01
    -16.374  0.0000E+00  0.2000E+01
    -16.269  0.0000E+00  0.2000E+01
    -16.163  0.0000E+00  0.2000E+01
    -16.058  0.0000E+00  0.2000E+01
    -15.953  0.0000E+00  0.2000E+01
    -15.847  0.0000E+00  0.2000E+01
    -15.742  0.0000E+00  0.2000E+01
    -15.637  0.0000E+00  0.2000E+01
    -15.531  0.0000E+00  0.2000E+01
    -15.426  0.0000E+00  0.2000E+01
    -15.321  0.0000E+00  0.2000E+01
    -15.216  0.0000E+00  0.2000E+01
    -15.110  0.0000E+00  0.2000E+01
    -15.005  0.7244E-28  0.2000E+01
    -14.900  0.3451E-24  0.2000E+01
    -14.794  0.9303E-21  0.2000E+01
    -14.689  0.1416E-17  0.2000E+01
    -14.584  0.1212E-14  0.2000E+01
    -14.478  0.5826E-12  0.2000E+01
    -14.373  0.1557E-09  0.2000E+01
    -14.268  0.2299E-07  0.2000E+01
    -14.162  0.1850E-05  0.2000E+01
    -14.057  0.7939E-04  0.2000E+01
    -13.952  0.1747E-02  0.2000E+01
    -13.846  0.1801E-01  0.2002E+01
    -13.741  0.6330E-01  0.2009E+01
    -13.636 -0.1237E+00  0.1996E+01
    -13.531 -0.8030E+00  0.1911E+01
    -13.425  0.1118E+01  0.2029E+01
    -13.320  0.7838E+01  0.2854E+01
    -13.215  0.9234E+01  0.3827E+01
    -13.109  0.2621E+01  0.4103E+01
    -13.004 -0.7832E+00  0.4020E+01
    -12.899 -0.2867E+00  0.3990E+01
    -12.793  0.6132E-01  0.3997E+01
    -12.688  0.2855E-01  0.4000E+01
    -12.583  0.3488E-02  0.4000E+01
    -12.477  0.1910E-03  0.4000E+01
    -12.372  0.5276E-05  0.4000E+01
    -12.267  0.7760E-07  0.4000E+01
    -12.161  0.6108E-07  0.4000E+01
    -12.056  0.4276E-05  0.4000E+01
    -11.951  0.1603E-03  0.4000E+01
    -11.846  0.3042E-02  0.4000E+01
    -11.740  0.2615E-01  0.4003E+01
    -11.635  0.6334E-01  0.4010E+01
    -11.530 -0.2478E+00  0.3984E+01
    -11.424 -0.7900E+00  0.3900E+01
    -11.319  0.2345E+01  0.4147E+01
    -11.214  0.8898E+01  0.5084E+01
    -11.108  0.7381E+01  0.5862E+01
    -11.003  0.2274E+01  0.6101E+01
    -10.898  0.6704E+01  0.6807E+01
    -10.792  0.9277E+01  0.7784E+01
    -10.687  0.3029E+01  0.8103E+01
    -10.582 -0.6672E+00  0.8033E+01
    -10.476 -0.4753E+00  0.7983E+01
    -10.371 -0.7580E+00  0.7903E+01
    -10.266  0.1440E+01  0.8055E+01
    -10.161  0.8191E+01  0.8917E+01
    -10.055  0.8981E+01  0.9863E+01
     -9.950  0.2261E+01  0.1010E+02
     -9.845 -0.8076E+00  0.1002E+02
     -9.739 -0.2469E+00  0.9990E+01
     -9.634  0.6337E-01  0.9997E+01
     -9.529  0.2600E-01  0.1000E+02
     -9.423  0.3015E-02  0.1000E+02
     -9.318  0.1585E-03  0.1000E+02
     -9.213  0.4218E-05  0.1000E+02
     -9.107  0.5951E-07  0.1000E+02
     -9.002  0.4561E-09  0.1000E+02
     -8.897  0.1927E-11  0.1000E+02
     -8.791  0.4217E-14  0.1000E+02
     -8.686  0.0000E+00  0.1000E+02
     -8.581  0.0000E+00  0.1000E+02
     -8.476  0.0000E+00  0.1000E+02
     -8.370  0.0000E+00  0.1000E+02
     -8.265  0.1762E-24  0.1000E+02
     -8.160  0.4976E-21  0.1000E+02
     -8.054  0.7937E-18  0.1000E+02
     -7.949  0.7125E-15  0.1000E+02
     -7.844  0.3595E-12  0.1000E+02
     -7.738  0.1007E-09  0.1000E+02
     -7.633  0.1562E-07  0.1000E+02
     -7.528  0.1321E-05  0.1000E+02
     -7.422  0.5978E-04  0.1000E+02
     -7.317  0.1393E-02  0.1000E+02
     -7.212  0.1537E-01  0.1000E+02
     -7.106  0.6092E-01  0.1001E+02
     -7.001 -0.8396E-01  0.9999E+01
     -6.896 -0.7692E+00  0.9918E+01
     -6.791  0.7484E+00  0.9997E+01
     -6.685  0.7390E+01  0.1078E+02
     -6.580  0.9735E+01  0.1180E+02
     -6.475  0.2488E+01  0.1206E+02
     -6.369 -0.2982E+01  0.1175E+02
     -6.264  0.5688E+01  0.1235E+02
     -6.159  0.2932E+02  0.1544E+02
     -6.053  0.3870E+02  0.1951E+02
     -5.948  0.2366E+02  0.2200E+02
     -5.843  0.2234E+02  0.2436E+02
     -5.737  0.5395E+02  0.3004E+02
     -5.632  0.1277E+03  0.4349E+02
     -5.527  0.2404E+03  0.6880E+02
     -5.422  0.2984E+03  0.1002E+03
     -5.316  0.2513E+03  0.1267E+03
     -5.211  0.2150E+03  0.1493E+03
     -5.106  0.2697E+03  0.1777E+03
     -5.000  0.3521E+03  0.2148E+03
     -4.895  0.3515E+03  0.2518E+03
     -4.790  0.3007E+03  0.2835E+03
     -4.684  0.3332E+03  0.3186E+03
     -4.579  0.4030E+03  0.3610E+03
     -4.474  0.4133E+03  0.4046E+03
     -4.368  0.4638E+03  0.4534E+03
     -4.263  0.5587E+03  0.5122E+03
     -4.158  0.4570E+03  0.5604E+03
     -4.052  0.1800E+03  0.5793E+03
     -3.947  0.1963E+02  0.5814E+03
     -3.842  0.1613E+02  0.5831E+03
     -3.737  0.2774E+02  0.5860E+03
     -3.631  0.1695E+02  0.5878E+03
     -3.526  0.1970E+02  0.5899E+03
     -3.421  0.2716E+02  0.5927E+03
     -3.315  0.1101E+02  0.5939E+03
     -3.210 -0.1736E+01  0.5937E+03
     -3.105  0.2553E+02  0.5964E+03
     -2.999  0.6069E+02  0.6028E+03
     -2.894  0.4805E+02  0.6078E+03
     -2.789  0.1562E+02  0.6095E+03
     -2.683  0.3778E+01  0.6099E+03
     -2.578  0.1246E+02  0.6112E+03
     -2.473  0.2584E+02  0.6139E+03
     -2.367  0.2379E+02  0.6164E+03
     -2.262  0.1514E+02  0.6180E+03
     -2.157  0.2217E+02  0.6204E+03
     -2.052  0.3739E+02  0.6243E+03
     -1.946  0.4121E+02  0.6286E+03
     -1.841  0.3925E+02  0.6328E+03
     -1.736  0.3734E+02  0.6367E+03
     -1.630  0.3591E+02  0.6405E+03
     -1.525  0.2869E+02  0.6435E+03
     -1.420  0.1639E+02  0.6452E+03
     -1.314  0.1938E+02  0.6473E+03
     -1.209  0.3320E+02  0.6508E+03
     -1.104  0.3372E+02  0.6543E+03
     -0.998  0.4298E+02  0.6588E+03
     -0.893  0.6205E+02  0.6654E+03
     -0.788  0.4930E+02  0.6706E+03
     -0.682  0.1624E+02  0.6723E+03
     -0.577 -0.1188E+01  0.6722E+03
     -0.472 -0.1718E+01  0.6720E+03
     -0.367  0.6036E-01  0.6720E+03
     -0.261  0.1885E+00  0.6720E+03
     -0.156  0.4040E-01  0.6720E+03
     -0.051  0.3638E-02  0.6720E+03
      0.055  0.1633E-03  0.6720E+03
      0.160  0.3875E-05  0.6720E+03
      0.265  0.4998E-07  0.6720E+03
      0.371  0.3556E-09  0.6720E+03
      0.476  0.1411E-11  0.6720E+03
      0.581  0.2108E-14  0.6720E+03
      0.687  0.0000E+00  0.6720E+03
      0.792  0.0000E+00  0.6720E+03
      0.897  0.0000E+00  0.6720E+03
      1.003  0.0000E+00  0.6720E+03
      1.108  0.0000E+00  0.6720E+03
      1.213  0.0000E+00  0.6720E+03
