   57   57    1    1
  0.4736842E+03  0.3000000E-08  0.3000000E-08  0.3000000E-08  0.5000000E-15
  1.000000000000000E-004
  CAR 
 6_Pd100_top_free_z(O)                   
    560      1    336
 
  0.0000000E+00  0.0000000E+00  0.0000000E+00  0.1000000E+01
    1      -28.380422   1.000000
    2      -13.306079   1.000000
    3      -11.221839   1.000000
    4      -10.878707   1.000000
    5      -10.152722   1.000000
    6       -6.662802   1.000000
    7       -6.207287   1.000000
    8       -6.153468   1.000000
    9       -6.137749   1.000000
   10       -6.070716   1.000000
   11       -6.030715   1.000000
   12       -5.863552   1.000000
   13       -5.822397   1.000000
   14       -5.821239   1.000000
   15       -5.757588   1.000000
   16       -5.703598   1.000000
   17       -5.700676   1.000000
   18       -5.698121   1.000000
   19       -5.693524   1.000000
   20       -5.659887   1.000000
   21       -5.637158   1.000000
   22       -5.630485   1.000000
   23       -5.620598   1.000000
   24       -5.616544   1.000000
   25       -5.604647   1.000000
   26       -5.581972   1.000000
   27       -5.578584   1.000000
   28       -5.562548   1.000000
   29       -5.557526   1.000000
   30       -5.554066   1.000000
   31       -5.546881   1.000000
   32       -5.530471   1.000000
   33       -5.527638   1.000000
   34       -5.526930   1.000000
   35       -5.524202   1.000000
   36       -5.521595   1.000000
   37       -5.517159   1.000000
   38       -5.500944   1.000000
   39       -5.494177   1.000000
   40       -5.485756   1.000000
   41       -5.483313   1.000000
   42       -5.480724   1.000000
   43       -5.479504   1.000000
   44       -5.474962   1.000000
   45       -5.467442   1.000000
   46       -5.454203   1.000000
   47       -5.442486   1.000000
   48       -5.439219   1.000000
   49       -5.435790   1.000000
   50       -5.433782   1.000000
   51       -5.430253   1.000000
   52       -5.419969   1.000000
   53       -5.418820   1.000000
   54       -5.416324   1.000000
   55       -5.415238   1.000000
   56       -5.401244   1.000000
   57       -5.390952   1.000000
   58       -5.377226   1.000000
   59       -5.339468   1.000000
   60       -5.336524   1.000000
   61       -5.334920   1.000000
   62       -5.332735   1.000000
   63       -5.322160   1.000000
   64       -5.314677   1.000000
   65       -5.311773   1.000000
   66       -5.309115   1.000000
   67       -5.299441   1.000000
   68       -5.293364   1.000000
   69       -5.277082   1.000000
   70       -5.247110   1.000000
   71       -5.233048   1.000000
   72       -5.220443   1.000000
   73       -5.217613   1.000000
   74       -5.214641   1.000000
   75       -5.208755   1.000000
   76       -5.192008   1.000000
   77       -5.187329   1.000000
   78       -5.185751   1.000000
   79       -5.180021   1.000000
   80       -5.175228   1.000000
   81       -5.170244   1.000000
   82       -5.164658   1.000000
   83       -5.157447   1.000000
   84       -5.144761   1.000000
   85       -5.135612   1.000000
   86       -5.126247   1.000000
   87       -5.124065   1.000000
   88       -5.118924   1.000000
   89       -5.111789   1.000000
   90       -5.097349   1.000000
   91       -5.086974   1.000000
   92       -5.066402   1.000000
   93       -5.065881   1.000000
   94       -5.063391   1.000000
   95       -5.061546   1.000000
   96       -5.055473   1.000000
   97       -5.051237   1.000000
   98       -5.043382   1.000000
   99       -5.040505   1.000000
  100       -5.037565   1.000000
  101       -5.033658   1.000000
  102       -5.026142   1.000000
  103       -5.025208   1.000000
  104       -5.019023   1.000000
  105       -5.014666   1.000000
  106       -5.009363   1.000000
  107       -5.005110   1.000000
  108       -5.000629   1.000000
  109       -4.998079   1.000000
  110       -4.990863   1.000000
  111       -4.984403   1.000000
  112       -4.980496   1.000000
  113       -4.977327   1.000000
  114       -4.972949   1.000000
  115       -4.969574   0.999999
  116       -4.964070   0.999999
  117       -4.960610   0.999999
  118       -4.957758   0.999999
  119       -4.953300   0.999999
  120       -4.948883   0.999999
  121       -4.943235   0.999999
  122       -4.926217   0.999998
  123       -4.924179   0.999997
  124       -4.913011   0.999996
  125       -4.911666   0.999996
  126       -4.909696   0.999996
  127       -4.905593   0.999995
  128       -4.889728   0.999992
  129       -4.882854   0.999990
  130       -4.861336   0.999980
  131       -4.854851   0.999976
  132       -4.852603   0.999975
  133       -4.850674   0.999973
  134       -4.849113   0.999972
  135       -4.843969   0.999967
  136       -4.839953   0.999964
  137       -4.838746   0.999962
  138       -4.816327   0.999930
  139       -4.805301   0.999906
  140       -4.804076   0.999903
  141       -4.803387   0.999901
  142       -4.799472   0.999890
  143       -4.793438   0.999872
  144       -4.776400   0.999804
  145       -4.773791   0.999791
  146       -4.767933   0.999759
  147       -4.762418   0.999725
  148       -4.742387   0.999567
  149       -4.733808   0.999478
  150       -4.728070   0.999411
  151       -4.726678   0.999393
  152       -4.718480   0.999282
  153       -4.701929   0.999007
  154       -4.695585   0.998882
  155       -4.694925   0.998868
  156       -4.691568   0.998797
  157       -4.684102   0.998626
  158       -4.683138   0.998603
  159       -4.677636   0.998464
  160       -4.673482   0.998354
  161       -4.665451   0.998126
  162       -4.664764   0.998105
  163       -4.662372   0.998033
  164       -4.659804   0.997954
  165       -4.656167   0.997838
  166       -4.655196   0.997807
  167       -4.655147   0.997805
  168       -4.652840   0.997730
  169       -4.649563   0.997620
  170       -4.644317   0.997439
  171       -4.633755   0.997058
  172       -4.628116   0.996848
  173       -4.618273   0.996478
  174       -4.607488   0.996080
  175       -4.606125   0.996031
  176       -4.605301   0.996002
  177       -4.604530   0.995975
  178       -4.598824   0.995779
  179       -4.588536   0.995465
  180       -4.586084   0.995399
  181       -4.584512   0.995359
  182       -4.580642   0.995270
  183       -4.579164   0.995240
  184       -4.575461   0.995173
  185       -4.564989   0.995068
  186       -4.561468   0.995067
  187       -4.560239   0.995070
  188       -4.558655   0.995079
  189       -4.558055   0.995084
  190       -4.556578   0.995097
  191       -4.531435   0.996030
  192       -4.520296   0.996980
  193       -4.518952   0.997122
  194       -4.515284   0.997539
  195       -4.514946   0.997580
  196       -4.509248   0.998332
  197       -4.503151   0.999274
  198       -4.498059   1.000175
  199       -4.491642   1.001465
  200       -4.485158   1.002951
  201       -4.479831   1.004314
  202       -4.478455   1.004686
  203       -4.473481   1.006107
  204       -4.470875   1.006895
  205       -4.466738   1.008212
  206       -4.460796   1.010237
  207       -4.457798   1.011318
  208       -4.454991   1.012365
  209       -4.451513   1.013707
  210       -4.448349   1.014971
  211       -4.445140   1.016291
  212       -4.435052   1.020674
  213       -4.429913   1.023022
  214       -4.420095   1.027656
  215       -4.418358   1.028489
  216       -4.416463   1.029400
  217       -4.416214   1.029520
  218       -4.410401   1.032318
  219       -4.402789   1.035943
  220       -4.384200   1.044070
  221       -4.381809   1.044984
  222       -4.376398   1.046895
  223       -4.372230   1.048194
  224       -4.367596   1.049432
  225       -4.356927   1.051296
  226       -4.352841   1.051582
  227       -4.346855   1.051503
  228       -4.346632   1.051488
  229       -4.342763   1.051076
  230       -4.342307   1.051008
  231       -4.341765   1.050922
  232       -4.339233   1.050442
  233       -4.337074   1.049927
  234       -4.335712   1.049550
  235       -4.333446   1.048831
  236       -4.330543   1.047737
  237       -4.328891   1.047025
  238       -4.327798   1.046517
  239       -4.325697   1.045457
  240       -4.320313   1.042218
  241       -4.313624   1.037082
  242       -4.308828   1.032593
  243       -4.298111   1.019946
  244       -4.297043   1.018478
  245       -4.294745   1.015188
  246       -4.293045   1.012635
  247       -4.292251   1.011408
  248       -4.291186   1.009730
  249       -4.287084   1.002881
  250       -4.282251   0.994029
  251       -4.274400   0.977800
  252       -4.272899   0.974432
  253       -4.266967   0.960275
  254       -4.263546   0.951491
  255       -4.262862   0.949680
  256       -4.260196   0.942451
  257       -4.258475   0.937640
  258       -4.256812   0.932880
  259       -4.255944   0.930352
  260       -4.252580   0.920283
  261       -4.250730   0.914557
  262       -4.249648   0.911149
  263       -4.248401   0.907167
  264       -4.246590   0.901275
  265       -4.243608   0.891303
  266       -4.242551   0.887690
  267       -4.237260   0.868971
  268       -4.230300   0.842794
  269       -4.228328   0.835068
  270       -4.227101   0.830193
  271       -4.224427   0.819391
  272       -4.216929   0.787852
  273       -4.214816   0.778644
  274       -4.208832   0.751860
  275       -4.193287   0.677917
  276       -4.188986   0.656521
  277       -4.186170   0.642328
  278       -4.182150   0.621848
  279       -4.181391   0.617955
  280       -4.180967   0.615774
  281       -4.174395   0.581733
  282       -4.165738   0.536293
  283       -4.140619   0.404089
  284       -4.139150   0.396482
  285       -4.136564   0.383154
  286       -4.135497   0.377681
  287       -4.124298   0.321324
  288       -4.121070   0.305516
  289       -4.089251   0.164298
  290       -3.972618  -0.051361
  291       -3.908404  -0.032830
  292       -3.823016  -0.000823
  293       -3.822328  -0.000686
  294       -3.704751   0.003719
  295       -3.505558   0.000079
  296       -3.502838   0.000073
  297       -3.432482   0.000009
  298       -3.086159   0.000000
  299       -3.068062   0.000000
  300       -3.051760   0.000000
  301       -3.043516   0.000000
  302       -3.019376   0.000000
  303       -2.975058   0.000000
  304       -2.948877   0.000000
  305       -2.804508   0.000000
  306       -2.547595   0.000000
  307       -2.538520   0.000000
  308       -2.430322   0.000000
  309       -2.350272   0.000000
  310       -2.188396   0.000000
  311       -2.122636   0.000000
  312       -2.092285   0.000000
  313       -2.050960   0.000000
  314       -1.987370   0.000000
  315       -1.927173   0.000000
  316       -1.878479   0.000000
  317       -1.852017   0.000000
  318       -1.775592   0.000000
  319       -1.730619   0.000000
  320       -1.656342   0.000000
  321       -1.614328   0.000000
  322       -1.563926   0.000000
  323       -1.444251   0.000000
  324       -1.288327   0.000000
  325       -1.250408   0.000000
  326       -1.217401   0.000000
  327       -1.186355   0.000000
  328       -1.080370   0.000000
  329       -0.991230   0.000000
  330       -0.979733   0.000000
  331       -0.953700   0.000000
  332       -0.947885   0.000000
  333       -0.919533   0.000000
  334       -0.854195   0.000000
  335       -0.841414   0.000000
  336       -0.786852   0.000000
