 vasp.5.4.4.18Apr17-6-g9f103f2a35 (build Sep 03 2018 23:53:05) complex          
  
 executed on             LinuxIFC date 2021.11.27  09:49:00
 running on    1 total cores
 distrk:  each k-point on    1 cores,    1 groups
 distr:  one band on NCORES_PER_BAND=   1 cores,    1 groups


--------------------------------------------------------------------------------------------------------


 INCAR:
 POTCAR:    PAW_PBE Pd 04Jan2005                  
 POTCAR:    PAW_PBE C 08Apr2002                   
 POTCAR:    PAW_PBE O 08Apr2002                   
 POTCAR:    PAW_PBE Pd 04Jan2005                  
   VRHFIN =Pd : s1 d9                                                           
   LEXCH  = PE                                                                  
   EATOM  =   809.7530 eV,   59.5152 Ry                                         
                                                                                
   TITEL  = PAW_PBE Pd 04Jan2005                                                
   LULTRA =        F    use ultrasoft PP ?                                      
   IUNSCR =        1    unscreen: 0-lin 1-nonlin 2-no                           
   RPACOR =    2.000    partial core radius                                     
   POMASS =  106.420; ZVAL   =   10.000    mass and valenz                      
   RCORE  =    2.600    outmost cutoff radius                                   
   RWIGS  =    2.710; RWIGS  =    1.434    wigner-seitz radius (au A)           
   ENMAX  =  250.925; ENMIN  =  188.194 eV                                      
   ICORE  =        3    local potential                                         
   LCOR   =        T    correct aug charges                                     
   LPAW   =        T    paw PP                                                  
   EAUG   =  416.230                                                            
   DEXC   =    0.000                                                            
   RMAX   =    2.653    core radius for proj-oper                               
   RAUG   =    1.300    factor for augmentation sphere                          
   RDEP   =    2.734    radius for radial grids                                 
   RDEPT  =    2.103    core radius for aug-charge                              
                                                                                
   Atomic configuration                                                         
   12 entries                                                                   
     n  l   j            E        occ.                                          
     1  0  0.50    -24164.6631   2.0000                                         
     2  0  0.50     -3530.9218   2.0000                                         
     2  1  1.50     -3165.6822   6.0000                                         
     3  0  0.50      -639.4577   2.0000                                         
     3  1  1.50      -519.4532   6.0000                                         
     3  2  2.50      -328.9757  10.0000                                         
     4  0  0.50       -88.7014   2.0000                                         
     4  1  1.50       -54.4540   6.0000                                         
     4  2  2.50        -6.6878   9.0000                                         
     5  0  0.50        -4.3543   1.0000                                         
     5  1  0.50        -1.3606   0.0000                                         
     4  3  2.50        -1.3606   0.0000                                         
   Description                                                                  
     l       E           TYP  RCUT    TYP  RCUT                                 
     2     -6.6878251     23  2.400                                             
     2     -8.0484077     23  2.400                                             
     0     -4.3542939     23  2.400                                             
     0      4.3406793     23  2.400                                             
     1     -4.0817478     23  2.600                                             
     1     15.8380318     23  2.600                                             
     3     -4.0817478     23  2.400                                             
  local pseudopotential read in
  partial core-charges read in
  partial kinetic energy density read in
  atomic valenz-charges read in
  non local Contribution for L=           2  read in
    real space projection operators read in
  non local Contribution for L=           2  read in
    real space projection operators read in
  non local Contribution for L=           0  read in
    real space projection operators read in
  non local Contribution for L=           0  read in
    real space projection operators read in
  non local Contribution for L=           1  read in
    real space projection operators read in
  non local Contribution for L=           1  read in
    real space projection operators read in
    PAW grid and wavefunctions read in
 
   number of l-projection  operators is LMAX  =           6
   number of lm-projection operators is LMMAX =          18
 
 POTCAR:    PAW_PBE C 08Apr2002                   
   VRHFIN =C: s2p2                                                              
   LEXCH  = PE                                                                  
   EATOM  =   147.1560 eV,   10.8157 Ry                                         
                                                                                
   TITEL  = PAW_PBE C 08Apr2002                                                 
   LULTRA =        F    use ultrasoft PP ?                                      
   IUNSCR =        1    unscreen: 0-lin 1-nonlin 2-no                           
   RPACOR =    1.200    partial core radius                                     
   POMASS =   12.011; ZVAL   =    4.000    mass and valenz                      
   RCORE  =    1.500    outmost cutoff radius                                   
   RWIGS  =    1.630; RWIGS  =    0.863    wigner-seitz radius (au A)           
   ENMAX  =  400.000; ENMIN  =  300.000 eV                                      
   ICORE  =        2    local potential                                         
   LCOR   =        T    correct aug charges                                     
   LPAW   =        T    paw PP                                                  
   EAUG   =  644.873                                                            
   DEXC   =    0.000                                                            
   RMAX   =    1.529    core radius for proj-oper                               
   RAUG   =    1.300    factor for augmentation sphere                          
   RDEP   =    1.501    radius for radial grids                                 
   RDEPT  =    1.300    core radius for aug-charge                              
                                                                                
   Atomic configuration                                                         
    4 entries                                                                   
     n  l   j            E        occ.                                          
     1  0  0.50      -273.3789   2.0000                                         
     2  0  0.50       -13.7508   2.0000                                         
     2  1  0.50        -5.2854   2.0000                                         
     3  2  1.50        -5.4423   0.0000                                         
   Description                                                                  
     l       E           TYP  RCUT    TYP  RCUT                                 
     0    -13.7508458     23  1.200                                             
     0     -8.2022199     23  1.200                                             
     1     -5.2854383     23  1.500                                             
     1     34.0145650     23  1.500                                             
     2     -5.4423304      7  1.500                                             
  local pseudopotential read in
  partial core-charges read in
  partial kinetic energy density read in
  atomic valenz-charges read in
  non local Contribution for L=           0  read in
    real space projection operators read in
  non local Contribution for L=           0  read in
    real space projection operators read in
  non local Contribution for L=           1  read in
    real space projection operators read in
  non local Contribution for L=           1  read in
    real space projection operators read in
    PAW grid and wavefunctions read in
 
   number of l-projection  operators is LMAX  =           4
   number of lm-projection operators is LMMAX =           8
 
 POTCAR:    PAW_PBE O 08Apr2002                   
   VRHFIN =O: s2p4                                                              
   LEXCH  = PE                                                                  
   EATOM  =   432.3788 eV,   31.7789 Ry                                         
                                                                                
   TITEL  = PAW_PBE O 08Apr2002                                                 
   LULTRA =        F    use ultrasoft PP ?                                      
   IUNSCR =        1    unscreen: 0-lin 1-nonlin 2-no                           
   RPACOR =    1.200    partial core radius                                     
   POMASS =   16.000; ZVAL   =    6.000    mass and valenz                      
   RCORE  =    1.520    outmost cutoff radius                                   
   RWIGS  =    1.550; RWIGS  =    0.820    wigner-seitz radius (au A)           
   ENMAX  =  400.000; ENMIN  =  300.000 eV                                      
   ICORE  =        2    local potential                                         
   LCOR   =        T    correct aug charges                                     
   LPAW   =        T    paw PP                                                  
   EAUG   =  605.392                                                            
   DEXC   =    0.000                                                            
   RMAX   =    1.553    core radius for proj-oper                               
   RAUG   =    1.300    factor for augmentation sphere                          
   RDEP   =    1.550    radius for radial grids                                 
   RDEPT  =    1.329    core radius for aug-charge                              
                                                                                
   Atomic configuration                                                         
    4 entries                                                                   
     n  l   j            E        occ.                                          
     1  0  0.50      -514.6923   2.0000                                         
     2  0  0.50       -23.9615   2.0000                                         
     2  1  0.50        -9.0305   4.0000                                         
     3  2  1.50        -9.5241   0.0000                                         
   Description                                                                  
     l       E           TYP  RCUT    TYP  RCUT                                 
     0    -23.9615318     23  1.200                                             
     0     -9.5240782     23  1.200                                             
     1     -9.0304911     23  1.520                                             
     1      8.1634956     23  1.520                                             
     2     -9.5240782      7  1.500                                             
  local pseudopotential read in
  partial core-charges read in
  partial kinetic energy density read in
  kinetic energy density of atom read in
  atomic valenz-charges read in
  non local Contribution for L=           0  read in
    real space projection operators read in
  non local Contribution for L=           0  read in
    real space projection operators read in
  non local Contribution for L=           1  read in
    real space projection operators read in
  non local Contribution for L=           1  read in
    real space projection operators read in
    PAW grid and wavefunctions read in
 
   number of l-projection  operators is LMAX  =           4
   number of lm-projection operators is LMMAX =           8
 
 Optimization of the real space projectors (new method)

 maximal supplied QI-value         = 14.36
 optimisation between [QCUT,QGAM] = [ 10.20, 20.39] = [ 29.12,116.47] Ry 
 Optimized for a Real-space Cutoff    1.51 Angstroem

   l    n(q)    QCUT    max X(q) W(low)/X(q) W(high)/X(q)  e(spline) 
   2      8    10.197    59.108    0.26E-03    0.14E-03    0.96E-07
   2      8    10.197    58.101    0.27E-03    0.14E-03    0.98E-07
   0      9    10.197   102.235    0.54E-04    0.60E-05    0.72E-07
   0      9    10.197    58.388    0.52E-04    0.60E-05    0.68E-07
   1      9    10.197    22.191    0.18E-03    0.25E-03    0.79E-07
   1      9    10.197    15.590    0.15E-03    0.21E-03    0.69E-07
 Optimization of the real space projectors (new method)

 maximal supplied QI-value         = 25.13
 optimisation between [QCUT,QGAM] = [ 10.05, 20.36] = [ 28.30,116.06] Ry 
 Optimized for a Real-space Cutoff    1.30 Angstroem

   l    n(q)    QCUT    max X(q) W(low)/X(q) W(high)/X(q)  e(spline) 
   0      8    10.053   115.676    0.49E-03    0.72E-03    0.18E-06
   0      8    10.053    87.132    0.49E-03    0.71E-03    0.18E-06
   1      7    10.053     4.429    0.32E-03    0.31E-03    0.18E-06
   1      7    10.053     2.733    0.23E-03    0.19E-03    0.20E-06
 Optimization of the real space projectors (new method)

 maximal supplied QI-value         = 24.76
 optimisation between [QCUT,QGAM] = [ 10.15, 20.30] = [ 28.85,115.39] Ry 
 Optimized for a Real-space Cutoff    1.38 Angstroem

   l    n(q)    QCUT    max X(q) W(low)/X(q) W(high)/X(q)  e(spline) 
   0      8    10.150    20.381    0.22E-03    0.32E-03    0.29E-06
   0      8    10.150    15.268    0.23E-03    0.35E-03    0.30E-06
   1      8    10.150     5.964    0.46E-03    0.53E-03    0.21E-06
   1      8    10.150     5.382    0.38E-03    0.45E-03    0.19E-06

 ----------------------------------------------------------------------------- 
|                                                                             |
|  ADVICE TO THIS USER RUNNING 'VASP/VAMP'   (HEAR YOUR MASTER'S VOICE ...):  |
|                                                                             |
|      You enforced a specific xc-type in the INCAR file,                     |
|      a different type was found on the POTCAR file                          |
|          I HOPE YOU KNOW, WHAT YOU ARE  DOING                               |
|                                                                             |
 ----------------------------------------------------------------------------- 

  PAW_PBE Pd 04Jan2005                  :
 energy of atom  1       EATOM= -809.7530
 kinetic energy error for atom=    0.0091 (will be added to EATOM!!)
  PAW_PBE C 08Apr2002                   :
 energy of atom  2       EATOM= -147.1560
 kinetic energy error for atom=    0.0288 (will be added to EATOM!!)
  PAW_PBE O 08Apr2002                   :
 energy of atom  3       EATOM= -432.3788
 kinetic energy error for atom=    0.1156 (will be added to EATOM!!)
 
 
 POSCAR: Pd55PES                                 
  positions in cartesian coordinates
  No initial velocities read in
 exchange correlation table for  LEXCH =        9
   RHO(1)=    0.500       N(1)  =     2000
   RHO(2)=  100.500       N(2)  =     4000
 


--------------------------------------------------------------------------------------------------------


 ion  position               nearest neighbor table
   1  0.446  0.328  0.417-   3 3.25   5 3.25   7 3.36  15 3.36  29 3.42  28 3.42
   2  0.672  0.554  0.417-  26 3.25  30 3.25  17 3.36   9 3.36  47 3.42  49 3.42
   3  0.554  0.328  0.417-   1 3.25   5 3.25   7 3.36  11 3.36  29 3.42  21 3.42
   4  0.328  0.554  0.417-  32 3.25  22 3.25  13 3.36   8 3.36  43 3.42  48 3.42
   5  0.500  0.383  0.340-   1 3.25   3 3.25  11 3.36  15 3.36  21 3.42  28 3.42
   6  0.500  0.383  0.660-  24 3.25  19 3.25  16 3.36  12 3.36  42 3.42  44 3.42
   7  0.500  0.276  0.500-  29 3.24   3 3.36   1 3.36  19 3.36  24 3.36
   8  0.276  0.500  0.500-  48 3.24  22 3.36  40 3.36   4 3.36  25 3.36
   9  0.724  0.500  0.500-  49 3.24  26 3.36  45 3.36   2 3.36  20 3.36
  10  0.500  0.724  0.500-  55 3.24  27 3.36  23 3.36  46 3.36  41 3.36
  11  0.612  0.388  0.342-  21 3.24   5 3.36   3 3.36  30 3.36  26 3.36
  12  0.612  0.388  0.658-  42 3.24  24 3.36  45 3.36   6 3.36  31 3.36
  13  0.388  0.612  0.342-  43 3.24  32 3.36  50 3.36   4 3.36  27 3.36
  14  0.388  0.612  0.658-  53 3.24  25 3.36  33 3.36  51 3.36  46 3.36
  15  0.388  0.388  0.342-  28 3.24   5 3.36   1 3.36  32 3.36  22 3.36
  16  0.388  0.388  0.658-  56 1.92  44 3.24  19 3.36  40 3.36   6 3.36  33 3.36
  17  0.612  0.612  0.342-  47 3.24  30 3.36  50 3.36   2 3.36  23 3.36
  18  0.612  0.612  0.658-  54 3.24  31 3.36  20 3.36  51 3.36  41 3.36
  19  0.446  0.328  0.583-   6 3.25  24 3.25  16 3.36   7 3.36  44 3.42  29 3.42
  20  0.672  0.554  0.583-  31 3.25  45 3.25  18 3.36   9 3.36  54 3.42  49 3.42
  21  0.558  0.442  0.418-  11 3.24   5 3.42   3 3.42  30 3.42  26 3.42
  22  0.328  0.446  0.417-   4 3.25  32 3.25   8 3.36  15 3.36  48 3.42  28 3.42
  23  0.554  0.672  0.417-  27 3.25  50 3.25  10 3.36  17 3.36  55 3.42  47 3.42
  24  0.554  0.328  0.583-   6 3.25  19 3.25  12 3.36   7 3.36  42 3.42  29 3.42
  25  0.328  0.554  0.583-  33 3.25  40 3.25  14 3.36   8 3.36  53 3.42  48 3.42
  26  0.672  0.446  0.417-   2 3.25  30 3.25   9 3.36  11 3.36  49 3.42  21 3.42
  27  0.446  0.672  0.417-  23 3.25  50 3.25  10 3.36  13 3.36  55 3.42  43 3.42
  28  0.442  0.442  0.418-  15 3.24   5 3.42   1 3.42  32 3.42  22 3.42
  29  0.500  0.384  0.500-   7 3.24   3 3.42   1 3.42  24 3.42  19 3.42
  30  0.617  0.500  0.340-   2 3.25  26 3.25  17 3.36  11 3.36  47 3.42  21 3.42
  31  0.617  0.500  0.660-  20 3.25  45 3.25  18 3.36  12 3.36  54 3.42  42 3.42
  32  0.383  0.500  0.340-   4 3.25  22 3.25  13 3.36  15 3.36  43 3.42  28 3.42
  33  0.383  0.500  0.660-  25 3.25  40 3.25  14 3.36  16 3.36  53 3.42  44 3.42
  34  0.383  0.383  0.500-
  35  0.617  0.617  0.500-
  36  0.617  0.383  0.500-
  37  0.383  0.617  0.500-
  38  0.500  0.500  0.335-
  39  0.500  0.500  0.665-
  40  0.328  0.446  0.583-  33 3.25  25 3.25  16 3.36   8 3.36  44 3.42  48 3.42
  41  0.554  0.672  0.583-  46 3.25  51 3.25  10 3.36  18 3.36  54 3.42  55 3.42
  42  0.558  0.442  0.582-  12 3.24   6 3.42  24 3.42  31 3.42  45 3.42
  43  0.442  0.558  0.418-  13 3.24   4 3.42  32 3.42  27 3.42  50 3.42
  44  0.442  0.442  0.582-  16 3.24   6 3.42  19 3.42  33 3.42  40 3.42
  45  0.672  0.446  0.583-  20 3.25  31 3.25   9 3.36  12 3.36  49 3.42  42 3.42
  46  0.446  0.672  0.583-  41 3.25  51 3.25  10 3.36  14 3.36  53 3.42  55 3.42
  47  0.558  0.558  0.418-  17 3.24   2 3.42  30 3.42  23 3.42  50 3.42
  48  0.384  0.500  0.500-   8 3.24   4 3.42  22 3.42  25 3.42  40 3.42
  49  0.616  0.500  0.500-   9 3.24   2 3.42  26 3.42  20 3.42  45 3.42
  50  0.500  0.617  0.340-  27 3.25  23 3.25  13 3.36  17 3.36  43 3.42  47 3.42
  51  0.500  0.617  0.660-  41 3.25  46 3.25  14 3.36  18 3.36  53 3.42  54 3.42
  52  0.500  0.500  0.500-
  53  0.442  0.558  0.582-  14 3.24  25 3.42  33 3.42  51 3.42  46 3.42
  54  0.558  0.558  0.582-  18 3.24  31 3.42  20 3.42  51 3.42  41 3.42
  55  0.500  0.616  0.500-  10 3.24  23 3.42  27 3.42  41 3.42  46 3.42
  56  0.423  0.370  0.709-  57 1.13  16 1.92
  57  0.412  0.351  0.739-  56 1.13
 
  LATTYP: Found a simple cubic cell.
 ALAT       =    30.0000000000
  
  Lattice vectors:
  
 A1 = (  30.0000000000,   0.0000000000,   0.0000000000)
 A2 = (   0.0000000000,  30.0000000000,   0.0000000000)
 A3 = (   0.0000000000,   0.0000000000,  30.0000000000)


Analysis of symmetry for initial positions (statically):
=====================================================================
 Subroutine PRICEL returns:
 Original cell was already a primitive cell.
 

 Routine SETGRP: Setting up the symmetry group for a 
 simple cubic supercell.


 Subroutine GETGRP returns: Found  1 space group operations
 (whereof  1 operations were pure point group operations)
 out of a pool of 48 trial point group operations.


The static configuration has the point symmetry C_1 .


Analysis of symmetry for dynamics (positions and initial velocities):
=====================================================================
 Subroutine PRICEL returns:
 Original cell was already a primitive cell.
 

 Routine SETGRP: Setting up the symmetry group for a 
 simple cubic supercell.


 Subroutine GETGRP returns: Found  1 space group operations
 (whereof  1 operations were pure point group operations)
 out of a pool of 48 trial point group operations.


The dynamic configuration has the point symmetry C_1 .


Analysis of constrained symmetry for selective dynamics:
=====================================================================
 Subroutine PRICEL returns:
 Original cell was already a primitive cell.
 

 Routine SETGRP: Setting up the symmetry group for a 
 simple cubic supercell.


 Subroutine GETGRP returns: Found  1 space group operations
 (whereof  1 operations were pure point group operations)
 out of a pool of 48 trial point group operations.


The constrained configuration has the point symmetry C_1 .


 Subroutine INISYM returns: Found  1 space group operations
 (whereof  1 operations are pure point group operations),
 and found     1 'primitive' translations

 
 
 KPOINTS: K-points                                

Automatic generation of k-mesh.
Space group operators:
 irot       det(A)        alpha          n_x          n_y          n_z        tau_x        tau_y        tau_z
    1     1.000000     0.000000     1.000000     0.000000     0.000000     0.000000     0.000000     0.000000
 
 Subroutine IBZKPT returns following result:
 ===========================================
 
 Found      1 irreducible k-points:
 
 Following reciprocal coordinates:
            Coordinates               Weight
  0.000000  0.000000  0.000000      1.000000
 
 Following cartesian coordinates:
            Coordinates               Weight
  0.000000  0.000000  0.000000      1.000000
 


--------------------------------------------------------------------------------------------------------




 Dimension of arrays:
   k-points           NKPTS =      1   k-points in BZ     NKDIM =      1   number of bands    NBANDS=    336
   number of dos      NEDOS =    301   number of ions     NIONS =     57
   non local maximal  LDIM  =      6   non local SUM 2l+1 LMDIM =     18
   total plane-waves  NPLWV = ******
   max r-space proj   IRMAX =   1847   max aug-charges    IRDMAX=   6262
   dimension x,y,z NGX =   150 NGY =  150 NGZ =  150
   dimension x,y,z NGXF=   300 NGYF=  300 NGZF=  300
   support grid    NGXF=   300 NGYF=  300 NGZF=  300
   ions per type =              55   1   1
   NGX,Y,Z   is equivalent  to a cutoff of   8.31,  8.31,  8.31 a.u.
   NGXF,Y,Z  is equivalent  to a cutoff of  16.62, 16.62, 16.62 a.u.

 SYSTEM =  6_Pd100_top_free_z(O)                   
 POSCAR =  Pd55PES                                 

 Startparameter for this run:
   NWRITE =      2    write-flag & timer
   PREC   = normal    normal or accurate (medium, high low for compatibility)
   ISTART =      0    job   : 0-new  1-cont  2-samecut
   ICHARG =      2    charge: 1-file 2-atom 10-const
   ISPIN  =      1    spin polarized calculation?
   LNONCOLLINEAR =      F non collinear calculations
   LSORBIT =      F    spin-orbit coupling
   INIWAV =      1    electr: 0-lowe 1-rand  2-diag
   LASPH  =      F    aspherical Exc in radial PAW
   METAGGA=      F    non-selfconsistent MetaGGA calc.

 Electronic Relaxation 1
   ENCUT  =  400.0 eV  29.40 Ry    5.42 a.u.  48.92 48.92 48.92*2*pi/ulx,y,z
   ENINI  =  400.0     initial cutoff
   ENAUG  =  644.9 eV  augmentation charge cutoff
   NELM   =    100;   NELMIN=  6; NELMDL= -5     # of ELM steps 
   EDIFF  = 0.1E-03   stopping-criterion for ELM
   LREAL  =      T    real-space projection
   NLSPLINE    = F    spline interpolate recip. space projectors
   LCOMPAT=      F    compatible to vasp.4.4
   GGA_COMPAT  = T    GGA compatible to vasp.4.4-vasp.4.6
   LMAXPAW     = -100 max onsite density
   LMAXMIX     =    2 max onsite mixed and CHGCAR
   VOSKOWN=      0    Vosko Wilk Nusair interpolation
   ROPT   =   -0.00050  -0.00050  -0.00050
 Ionic relaxation
   EDIFFG = -.5E-01   stopping-criterion for IOM
   NSW    =      0    number of steps for IOM
   NBLOCK =      1;   KBLOCK =      1    inner block; outer block 
   IBRION =     -1    ionic relax: 0-MD 1-quasi-New 2-CG
   NFREE  =      1    steps in history (QN), initial steepest desc. (CG)
   ISIF   =      2    stress and relaxation
   IWAVPR =     10    prediction:  0-non 1-charg 2-wave 3-comb
   ISYM   =      2    0-nonsym 1-usesym 2-fastsym
   LCORR  =      T    Harris-Foulkes like correction to forces

   POTIM  = 0.5000    time-step for ionic-motion
   TEIN   =    0.0    initial temperature
   TEBEG  =    0.0;   TEEND  =   0.0 temperature during run
   SMASS  =  -3.00    Nose mass-parameter (am)
   estimated Nose-frequenzy (Omega)   =  0.10E-29 period in steps =****** mass=  -0.206E-25a.u.
   SCALEE = 1.0000    scale energy and forces
   NPACO  =    256;   APACO  = 16.0  distance and # of slots for P.C.
   PSTRESS=    0.0 pullay stress

  Mass of Ions in am
   POMASS = 106.42 12.01 16.00
  Ionic Valenz
   ZVAL   =  10.00  4.00  6.00
  Atomic Wigner-Seitz radii
   RWIGS  =  -1.00 -1.00 -1.00
  virtual crystal weights 
   VCA    =   1.00  1.00  1.00
   NELECT =     560.0000    total number of electrons
   NUPDOWN=      -1.0000    fix difference up-down

 DOS related values:
   EMIN   =  10.00;   EMAX   =-10.00  energy-range for DOS
   EFERMI =   0.00
   ISMEAR =     2;   SIGMA  =   0.20  broadening in eV -4-tet -1-fermi 0-gaus

 Electronic relaxation 2 (details)
   IALGO  =     68    algorithm
   LDIAG  =      T    sub-space diagonalisation (order eigenvalues)
   LSUBROT=      F    optimize rotation matrix (better conditioning)
   TURBO    =      0    0=normal 1=particle mesh
   IRESTART =      0    0=no restart 2=restart with 2 vectors
   NREBOOT  =      0    no. of reboots
   NMIN     =      0    reboot dimension
   EREF     =   0.00    reference energy to select bands
   IMIX   =      4    mixing-type and parameters
     AMIX     =   0.40;   BMIX     =  1.00
     AMIX_MAG =   1.60;   BMIX_MAG =  1.00
     AMIN     =   0.10
     WC   =   100.;   INIMIX=   1;  MIXPRE=   1;  MAXMIX= -45

 Intra band minimization:
   WEIMIN = 0.0000     energy-eigenvalue tresh-hold
   EBREAK =  0.74E-07  absolut break condition
   DEPER  =   0.30     relativ break condition  

   TIME   =   0.40     timestep for ELM

  volume/ion in A,a.u.               =     473.68      3196.58
  Fermi-wavevector in a.u.,A,eV,Ry     =   0.449797  0.849992  2.752691  0.202317
  Thomas-Fermi vector in A             =   1.430086
 
 Write flags
   LWAVE        =      F    write WAVECAR
   LDOWNSAMPLE  =      F    k-point downsampling of WAVECAR
   LCHARG       =      F    write CHGCAR
   LVTOT        =      F    write LOCPOT, total local potential
   LVHAR        =      F    write LOCPOT, Hartree potential only
   LELF         =      F    write electronic localiz. function (ELF)
   LORBIT       =      0    0 simple, 1 ext, 2 COOP (PROOUT), +10 PAW based schemes


 Dipole corrections
   LMONO  =      F    monopole corrections only (constant potential shift)
   LDIPOL =      F    correct potential (dipole corrections)
   IDIPOL =      0    1-x, 2-y, 3-z, 4-all directions 
   EPSILON=  1.0000000 bulk dielectric constant

 Exchange correlation treatment:
   GGA     =    RP    GGA type
   LEXCH   =     9    internal setting for exchange type
   VOSKOWN=      0    Vosko Wilk Nusair interpolation
   LHFCALC =     F    Hartree Fock is set to
   LHFONE  =     F    Hartree Fock one center treatment
   AEXX    =    0.0000 exact exchange contribution

 Linear response parameters
   LEPSILON=     F    determine dielectric tensor
   LRPA    =     F    only Hartree local field effects (RPA)
   LNABLA  =     F    use nabla operator in PAW spheres
   LVEL    =     F    velocity operator in full k-point grid
   LINTERFAST=   F  fast interpolation
   KINTER  =     0    interpolate to denser k-point grid
   CSHIFT  =0.1000    complex shift for real part using Kramers Kronig
   OMEGAMAX=  -1.0    maximum frequency
   DEG_THRESHOLD= 0.2000000E-02 threshold for treating states as degnerate
   RTIME   =   -0.100 relaxation time in fs
  (WPLASMAI=    0.000 imaginary part of plasma frequency in eV, 0.658/RTIME)
   DFIELD  = 0.0000000 0.0000000 0.0000000 field for delta impulse in time
 
 Orbital magnetization related:
   ORBITALMAG=     F  switch on orbital magnetization
   LCHIMAG   =     F  perturbation theory with respect to B field
   DQ        =  0.001000  dq finite difference perturbation B field
   LLRAUG    =     F  two centre corrections for induced B field



--------------------------------------------------------------------------------------------------------


 Static calculation
 charge density and potential will be updated during run
 non-spin polarized calculation
 RMM-DIIS sequential band-by-band and
  variant of blocked Davidson during initial phase
 perform sub-space diagonalisation
    before iterative eigenvector-optimisation
 modified Broyden-mixing scheme, WC =      100.0
 initial mixing is a Kerker type mixing with AMIX =  0.4000 and BMIX =      1.0000
 Hartree-type preconditioning will be used
 using additional bands           56
 real space projection scheme for non local part
 use partial core corrections
 calculate Harris-corrections to forces 
   (improved forces if not selfconsistent)
 use gradient corrections 
 use of overlap-Matrix (Vanderbilt PP)
 Methfessel and Paxton  Order N= 2 SIGMA  =   0.20


--------------------------------------------------------------------------------------------------------


  energy-cutoff  :      400.00
  volume of cell :    27000.00
      direct lattice vectors                 reciprocal lattice vectors
    30.000000000  0.000000000  0.000000000     0.033333333  0.000000000  0.000000000
     0.000000000 30.000000000  0.000000000     0.000000000  0.033333333  0.000000000
     0.000000000  0.000000000 30.000000000     0.000000000  0.000000000  0.033333333

  length of vectors
    30.000000000 30.000000000 30.000000000     0.033333333  0.033333333  0.033333333


 
 k-points in units of 2pi/SCALE and weight: K-points                                
   0.00000000  0.00000000  0.00000000       1.000
 
 k-points in reciprocal lattice and weights: K-points                                
   0.00000000  0.00000000  0.00000000       1.000
 
 position of ions in fractional coordinates (direct lattice) 
   0.44576020  0.32826710  0.41691983
   0.67173288  0.55423978  0.41691983
   0.55423980  0.32826710  0.41691983
   0.32826712  0.55423978  0.41691983
   0.50000000  0.38250690  0.34021317
   0.50000000  0.38250690  0.65978680
   0.50000000  0.27609440  0.50000000
   0.27609443  0.49999998  0.50000000
   0.72390557  0.49999998  0.50000000
   0.50000000  0.72390555  0.50000000
   0.61195280  0.38804720  0.34167483
   0.61195280  0.38804720  0.65832513
   0.38804722  0.61195278  0.34167483
   0.38804722  0.61195278  0.65832513
   0.38804720  0.38804720  0.34167483
   0.38804720  0.38804720  0.65832513
   0.61195278  0.61195278  0.34167483
   0.61195278  0.61195278  0.65832513
   0.44576020  0.32826710  0.58308023
   0.67173288  0.55423978  0.58308023
   0.55791699  0.44208301  0.41809300
   0.32826705  0.44576024  0.41691983
   0.55423973  0.67173293  0.41691983
   0.55423980  0.32826710  0.58308023
   0.32826712  0.55423978  0.58308023
   0.67173295  0.44576024  0.41691983
   0.44576027  0.67173293  0.41691983
   0.44208301  0.44208301  0.41809300
   0.50000000  0.38416601  0.50000000
   0.61749315  0.50000005  0.34021317
   0.61749315  0.50000005  0.65978680
   0.38250685  0.50000005  0.34021317
   0.38250685  0.50000005  0.65978680
   0.38317830  0.38317830  0.50000000
   0.61682172  0.61682172  0.50000000
   0.61682170  0.38317830  0.50000000
   0.38317828  0.61682172  0.50000000
   0.50000000  0.50000000  0.33478917
   0.50000000  0.50000000  0.66521087
   0.32826705  0.44576024  0.58308023
   0.55423973  0.67173293  0.58308023
   0.55791699  0.44208301  0.58190703
   0.44208298  0.55791702  0.41809300
   0.44208301  0.44208301  0.58190703
   0.67173295  0.44576024  0.58308023
   0.44576027  0.67173293  0.58308023
   0.55791702  0.55791702  0.41809300
   0.38416599  0.50000002  0.50000000
   0.61583401  0.50000002  0.50000000
   0.50000000  0.61749319  0.34021317
   0.50000000  0.61749319  0.65978680
   0.50000000  0.50000000  0.50000000
   0.44208298  0.55791702  0.58190703
   0.55791702  0.55791702  0.58190703
   0.50000000  0.61583404  0.50000000
   0.42297440  0.37037917  0.70891993
   0.41173357  0.35146283  0.73940887
 
 position of ions in cartesian coordinates  (Angst):
  13.37280588  9.84801292 12.50759500
  20.15198637 16.62719342 12.50759500
  16.62719412  9.84801292 12.50759500
   9.84801363 16.62719342 12.50759500
  15.00000000 11.47520705 10.20639500
  15.00000000 11.47520705 19.79360400
  15.00000000  8.28283206 15.00000000
   8.28283277 14.99999929 15.00000000
  21.71716723 14.99999929 15.00000000
  15.00000000 21.71716652 14.99999999
  18.35858397 11.64141603 10.25024500
  18.35858397 11.64141603 19.74975399
  11.64141674 18.35858326 10.25024500
  11.64141674 18.35858326 19.74975400
  11.64141603 11.64141603 10.25024500
  11.64141603 11.64141603 19.74975400
  18.35858326 18.35858326 10.25024500
  18.35858326 18.35858326 19.74975400
  13.37280588  9.84801291 17.49240700
  20.15198638 16.62719341 17.49240700
  16.73750985 13.26249015 12.54279000
   9.84801151 13.37280729 12.50759500
  16.62719200 20.15198779 12.50759500
  16.62719412  9.84801292 17.49240700
   9.84801363 16.62719342 17.49240700
  20.15198849 13.37280729 12.50759500
  13.37280800 20.15198779 12.50759500
  13.26249015 13.26249015 12.54279000
  15.00000000 11.52498029 15.00000000
  18.52479437 15.00000140 10.20639500
  18.52479437 15.00000141 19.79360400
  11.47520562 15.00000141 10.20639501
  11.47520563 15.00000141 19.79360400
  11.49534898 11.49534898 15.00000000
  18.50465172 18.50465172 15.00000000
  18.50465102 11.49534898 15.00000000
  11.49534828 18.50465172 15.00000000
  15.00000000 15.00000000 10.04367500
  15.00000000 15.00000000 19.95632599
   9.84801151 13.37280729 17.49240700
  16.62719200 20.15198779 17.49240700
  16.73750985 13.26249015 17.45721100
  13.26248944 16.73751056 12.54279001
  13.26249015 13.26249015 17.45721100
  20.15198849 13.37280729 17.49240699
  13.37280800 20.15198779 17.49240700
  16.73751056 16.73751056 12.54279000
  11.52497959 15.00000071 15.00000000
  18.47502041 15.00000071 15.00000000
  14.99999999 18.52479579 10.20639500
  15.00000000 18.52479578 19.79360400
  15.00000000 15.00000000 15.00000000
  13.26248944 16.73751057 17.45721101
  16.73751056 16.73751057 17.45721100
  15.00000000 18.47502112 15.00000000
  12.68923200 11.11137500 21.26759800
  12.35200700 10.54388500 22.18226600
 


--------------------------------------------------------------------------------------------------------


 k-point  1 :   0.0000 0.0000 0.0000  plane waves:  490521

 maximum and minimum number of plane-waves per node :    490521   490521

 maximum number of plane-waves:    490521
 maximum index in each direction: 
   IXMAX=   48   IYMAX=   48   IZMAX=   48
   IXMIN=  -48   IYMIN=  -48   IZMIN=  -48


 serial   3D FFT for wavefunctions
 parallel 3D FFT for charge:
    minimum data exchange during FFTs selected (reduces bandwidth)


 total amount of memory used by VASP MPI-rank0  5486940. kBytes
=======================================================================

   base      :      30000. kBytes
   nonlr-proj:      17125. kBytes
   fftplans  :     924480. kBytes
   grid      :    1872000. kBytes
   one-center:        886. kBytes
   wavefun   :    2642449. kBytes
 
     INWAV:  cpu time    0.0001: real time    0.0004
 Broyden mixing: mesh for mixing (old mesh)
   NGX = 97   NGY = 97   NGZ = 97
  (NGX  =300   NGY  =300   NGZ  =300)
  gives a total of 912673 points

 initial charge density was supplied:
 charge density of overlapping atoms calculated
 number of electron     560.0000000 magnetization 
 keeping initial charge density in first step


--------------------------------------------------------------------------------------------------------


 Maximum index for non-local projection operator         1763
 Maximum index for augmentation-charges         5898 (set IRDMAX)


--------------------------------------------------------------------------------------------------------


 First call to EWALD:  gamma=   0.059
 Maximum number of real-space cells 3x 3x 3
 Maximum number of reciprocal cells 3x 3x 3

    FEWALD:  cpu time    0.0130: real time    0.0130


--------------------------------------- Iteration      1(   1)  ---------------------------------------


    POTLOK:  cpu time   14.0901: real time   14.0955
    SETDIJ:  cpu time    0.1026: real time    0.1026
     EDDAV:  cpu time  361.0968: real time  361.1769
       DOS:  cpu time    0.0012: real time    0.0012
    --------------------------------------------
      LOOP:  cpu time  375.2908: real time  375.3762

 eigenvalue-minimisations  :   688
 total energy-change (2. order) : 0.4392518E+04  (-0.1004972E+05)
 number of electron     560.0000000 magnetization 
 augmentation part      560.0000000 magnetization 

 Free energy of the ion-electron system (eV)
  ---------------------------------------------------
  alpha Z        PSCENC =        75.25431677
  Ewald energy   TEWEN  =    138026.23110952
  -Hartree energ DENC   =   -181385.44034396
  -exchange      EXHF   =         0.00000000
  -V(xc)+E(xc)   XCENC  =     -1702.87622672
  PAW double counting   =     44873.02882129   -41398.84523641
  entropy T*S    EENTRO =         0.00483042
  eigenvalues    EBANDS =       818.65483450
  atomic energy  EATOM  =     45086.50549395
  Solvation  Ediel_sol  =         0.00000000
  ---------------------------------------------------
  free energy    TOTEN  =      4392.51759938 eV

  energy without entropy =     4392.51276896  energy(sigma->0) =     4392.51639177


--------------------------------------------------------------------------------------------------------




--------------------------------------- Iteration      1(   2)  ---------------------------------------


     EDDAV:  cpu time  577.5615: real time  577.6055
       DOS:  cpu time    0.0011: real time    0.0011
    --------------------------------------------
      LOOP:  cpu time  577.5626: real time  577.6066

 eigenvalue-minimisations  :  1224
 total energy-change (2. order) :-0.2380466E+04  (-0.2142538E+04)
 number of electron     560.0000000 magnetization 
 augmentation part      560.0000000 magnetization 

 Free energy of the ion-electron system (eV)
  ---------------------------------------------------
  alpha Z        PSCENC =        75.25431677
  Ewald energy   TEWEN  =    138026.23110952
  -Hartree energ DENC   =   -181385.44034396
  -exchange      EXHF   =         0.00000000
  -V(xc)+E(xc)   XCENC  =     -1702.87622672
  PAW double counting   =     44873.02882129   -41398.84523641
  entropy T*S    EENTRO =        -0.01835882
  eigenvalues    EBANDS =     -1561.78788837
  atomic energy  EATOM  =     45086.50549395
  Solvation  Ediel_sol  =         0.00000000
  ---------------------------------------------------
  free energy    TOTEN  =      2012.05168727 eV

  energy without entropy =     2012.07004609  energy(sigma->0) =     2012.05627697


--------------------------------------------------------------------------------------------------------




--------------------------------------- Iteration      1(   3)  ---------------------------------------


     EDDAV:  cpu time  491.6217: real time  491.6478
       DOS:  cpu time    0.0009: real time    0.0009
    --------------------------------------------
      LOOP:  cpu time  491.6227: real time  491.6488

 eigenvalue-minimisations  :  1000
 total energy-change (2. order) :-0.1779079E+04  (-0.1673126E+04)
 number of electron     560.0000000 magnetization 
 augmentation part      560.0000000 magnetization 

 Free energy of the ion-electron system (eV)
  ---------------------------------------------------
  alpha Z        PSCENC =        75.25431677
  Ewald energy   TEWEN  =    138026.23110952
  -Hartree energ DENC   =   -181385.44034396
  -exchange      EXHF   =         0.00000000
  -V(xc)+E(xc)   XCENC  =     -1702.87622672
  PAW double counting   =     44873.02882129   -41398.84523641
  entropy T*S    EENTRO =         0.06371594
  eigenvalues    EBANDS =     -3340.94859605
  atomic energy  EATOM  =     45086.50549395
  Solvation  Ediel_sol  =         0.00000000
  ---------------------------------------------------
  free energy    TOTEN  =       232.97305434 eV

  energy without entropy =      232.90933840  energy(sigma->0) =      232.95712535


--------------------------------------------------------------------------------------------------------




--------------------------------------- Iteration      1(   4)  ---------------------------------------


     EDDAV:  cpu time  423.1072: real time  423.1288
       DOS:  cpu time    0.0011: real time    0.0011
    --------------------------------------------
      LOOP:  cpu time  423.1083: real time  423.1299

 eigenvalue-minimisations  :   824
 total energy-change (2. order) :-0.3674117E+03  (-0.3093157E+03)
 number of electron     560.0000000 magnetization 
 augmentation part      560.0000000 magnetization 

 Free energy of the ion-electron system (eV)
  ---------------------------------------------------
  alpha Z        PSCENC =        75.25431677
  Ewald energy   TEWEN  =    138026.23110952
  -Hartree energ DENC   =   -181385.44034396
  -exchange      EXHF   =         0.00000000
  -V(xc)+E(xc)   XCENC  =     -1702.87622672
  PAW double counting   =     44873.02882129   -41398.84523641
  entropy T*S    EENTRO =        -0.01803838
  eigenvalues    EBANDS =     -3708.27858717
  atomic energy  EATOM  =     45086.50549395
  Solvation  Ediel_sol  =         0.00000000
  ---------------------------------------------------
  free energy    TOTEN  =      -134.43869110 eV

  energy without entropy =     -134.42065272  energy(sigma->0) =     -134.43418151


--------------------------------------------------------------------------------------------------------




--------------------------------------- Iteration      1(   5)  ---------------------------------------


     EDDAV:  cpu time  516.0676: real time  516.0875
       DOS:  cpu time    0.0012: real time    0.0012
    CHARGE:  cpu time   25.7846: real time   25.7850
    MIXING:  cpu time    0.4327: real time    0.4327
    --------------------------------------------
      LOOP:  cpu time  542.2862: real time  542.3064

 eigenvalue-minimisations  :  1072
 total energy-change (2. order) :-0.4554347E+02  (-0.3736109E+02)
 number of electron     559.9999840 magnetization 
 augmentation part      245.0743634 magnetization 

 Broyden mixing:
  rms(total) = 0.15344E+01    rms(broyden)= 0.15336E+01
  rms(prec ) = 0.16372E+01
  weight for this iteration     100.00

 Free energy of the ion-electron system (eV)
  ---------------------------------------------------
  alpha Z        PSCENC =        75.25431677
  Ewald energy   TEWEN  =    138026.23110952
  -Hartree energ DENC   =   -181385.44034396
  -exchange      EXHF   =         0.00000000
  -V(xc)+E(xc)   XCENC  =     -1702.87622672
  PAW double counting   =     44873.02882129   -41398.84523641
  entropy T*S    EENTRO =         0.53718560
  eigenvalues    EBANDS =     -3754.37727998
  atomic energy  EATOM  =     45086.50549395
  Solvation  Ediel_sol  =         0.00000000
  ---------------------------------------------------
  free energy    TOTEN  =      -179.98215992 eV

  energy without entropy =     -180.51934553  energy(sigma->0) =     -180.11645632


--------------------------------------------------------------------------------------------------------




--------------------------------------- Iteration      1(   6)  ---------------------------------------


    POTLOK:  cpu time   13.3366: real time   13.3390
    SETDIJ:  cpu time    0.1051: real time    0.1051
    EDDIAG:  cpu time   66.5306: real time   66.5324
  RMM-DIIS:  cpu time  188.9767: real time  188.9810
    ORTHCH:  cpu time   12.5508: real time   12.5506
       DOS:  cpu time    0.0013: real time    0.0013
    CHARGE:  cpu time   25.5364: real time   25.5362
    MIXING:  cpu time    0.4570: real time    0.4570
    --------------------------------------------
      LOOP:  cpu time  307.4944: real time  307.5026

 eigenvalue-minimisations  :   730
 total energy-change (2. order) :-0.3423689E+00  (-0.5946124E+01)
 number of electron     559.9999876 magnetization 
 augmentation part      240.5473505 magnetization 

 Broyden mixing:
  rms(total) = 0.27436E+01    rms(broyden)= 0.27434E+01
  rms(prec ) = 0.31755E+01
  weight for this iteration     100.00

 eigenvalues of (default mixing * dielectric matrix)
  average eigenvalue GAMMA=   0.2749
  0.2749

 Free energy of the ion-electron system (eV)
  ---------------------------------------------------
  alpha Z        PSCENC =        75.25431677
  Ewald energy   TEWEN  =    138026.23110952
  -Hartree energ DENC   =   -181788.39434998
  -exchange      EXHF   =         0.00000000
  -V(xc)+E(xc)   XCENC  =     -1696.50043408
  PAW double counting   =     45649.54823326   -42148.89484197
  entropy T*S    EENTRO =        -0.14289272
  eigenvalues    EBANDS =     -3383.93116358
  atomic energy  EATOM  =     45086.50549395
  Solvation  Ediel_sol  =         0.00000000
  ---------------------------------------------------
  free energy    TOTEN  =      -180.32452883 eV

  energy without entropy =     -180.18163611  energy(sigma->0) =     -180.28880565


--------------------------------------------------------------------------------------------------------




--------------------------------------- Iteration      1(   7)  ---------------------------------------


    POTLOK:  cpu time   13.1085: real time   13.1120
    SETDIJ:  cpu time    0.1067: real time    0.1068
    EDDIAG:  cpu time   65.3336: real time   65.3341
  RMM-DIIS:  cpu time  224.4701: real time  224.4713
    ORTHCH:  cpu time   12.8213: real time   12.8211
       DOS:  cpu time    0.0014: real time    0.0014
    CHARGE:  cpu time   25.1821: real time   25.1819
    MIXING:  cpu time    0.4508: real time    0.4508
    --------------------------------------------
      LOOP:  cpu time  341.4744: real time  341.4793

 eigenvalue-minimisations  :   868
 total energy-change (2. order) :-0.8539633E+00  (-0.2055913E+01)
 number of electron     559.9999820 magnetization 
 augmentation part      240.6246858 magnetization 

 Broyden mixing:
  rms(total) = 0.18546E+01    rms(broyden)= 0.18543E+01
  rms(prec ) = 0.22140E+01
  weight for this iteration     100.00

 eigenvalues of (default mixing * dielectric matrix)
  average eigenvalue GAMMA=   0.3338
  0.5078  0.1598

 Free energy of the ion-electron system (eV)
  ---------------------------------------------------
  alpha Z        PSCENC =        75.25431677
  Ewald energy   TEWEN  =    138026.23110952
  -Hartree energ DENC   =   -181858.14995379
  -exchange      EXHF   =         0.00000000
  -V(xc)+E(xc)   XCENC  =     -1696.66778822
  PAW double counting   =     45706.43506326   -42203.78430850
  entropy T*S    EENTRO =        -0.02065427
  eigenvalues    EBANDS =     -3316.98177081
  atomic energy  EATOM  =     45086.50549395
  Solvation  Ediel_sol  =         0.00000000
  ---------------------------------------------------
  free energy    TOTEN  =      -181.17849210 eV

  energy without entropy =     -181.15783783  energy(sigma->0) =     -181.17332853


--------------------------------------------------------------------------------------------------------




--------------------------------------- Iteration      1(   8)  ---------------------------------------


    POTLOK:  cpu time   12.9691: real time   12.9707
    SETDIJ:  cpu time    0.1096: real time    0.1096
    EDDIAG:  cpu time   66.4339: real time   66.4347
  RMM-DIIS:  cpu time  202.0010: real time  202.0006
    ORTHCH:  cpu time   13.0356: real time   13.0354
       DOS:  cpu time    0.0013: real time    0.0013
    CHARGE:  cpu time   24.6605: real time   24.6602
    MIXING:  cpu time    0.4754: real time    0.4754
    --------------------------------------------
      LOOP:  cpu time  319.6862: real time  319.6878

 eigenvalue-minimisations  :   764
 total energy-change (2. order) :-0.5220474E+01  (-0.7407377E+00)
 number of electron     559.9999806 magnetization 
 augmentation part      239.6560152 magnetization 

 Broyden mixing:
  rms(total) = 0.31352E+01    rms(broyden)= 0.31349E+01
  rms(prec ) = 0.37635E+01
  weight for this iteration     100.00

 eigenvalues of (default mixing * dielectric matrix)
  average eigenvalue GAMMA=   0.3024
  0.6433  0.1320  0.1320

 Free energy of the ion-electron system (eV)
  ---------------------------------------------------
  alpha Z        PSCENC =        75.25431677
  Ewald energy   TEWEN  =    138026.23110952
  -Hartree energ DENC   =   -181920.43750591
  -exchange      EXHF   =         0.00000000
  -V(xc)+E(xc)   XCENC  =     -1696.68872446
  PAW double counting   =     45790.61161908   -42284.65755742
  entropy T*S    EENTRO =        -0.15314468
  eigenvalues    EBANDS =     -3263.06457332
  atomic energy  EATOM  =     45086.50549395
  Solvation  Ediel_sol  =         0.00000000
  ---------------------------------------------------
  free energy    TOTEN  =      -186.39896647 eV

  energy without entropy =     -186.24582179  energy(sigma->0) =     -186.36068030


--------------------------------------------------------------------------------------------------------




--------------------------------------- Iteration      1(   9)  ---------------------------------------


    POTLOK:  cpu time   12.8156: real time   12.8164
    SETDIJ:  cpu time    0.1084: real time    0.1084
    EDDIAG:  cpu time   65.4859: real time   65.4857
  RMM-DIIS:  cpu time  200.4254: real time  200.4273
    ORTHCH:  cpu time   12.7194: real time   12.7192
       DOS:  cpu time    0.0013: real time    0.0013
    CHARGE:  cpu time   24.7034: real time   24.7050
    MIXING:  cpu time    0.5177: real time    0.5176
    --------------------------------------------
      LOOP:  cpu time  316.7770: real time  316.7809

 eigenvalue-minimisations  :   750
 total energy-change (2. order) : 0.3511922E+01  (-0.5245509E+00)
 number of electron     559.9999856 magnetization 
 augmentation part      240.7086794 magnetization 

 Broyden mixing:
  rms(total) = 0.24535E+01    rms(broyden)= 0.24532E+01
  rms(prec ) = 0.28133E+01
  weight for this iteration     100.00

 eigenvalues of (default mixing * dielectric matrix)
  average eigenvalue GAMMA=   0.2966
  0.7755  0.1550  0.1550  0.1010

 Free energy of the ion-electron system (eV)
  ---------------------------------------------------
  alpha Z        PSCENC =        75.25431677
  Ewald energy   TEWEN  =    138026.23110952
  -Hartree energ DENC   =   -181934.50370321
  -exchange      EXHF   =         0.00000000
  -V(xc)+E(xc)   XCENC  =     -1696.74434676
  PAW double counting   =     45842.78424558   -42335.00187247
  entropy T*S    EENTRO =        -0.12130644
  eigenvalues    EBANDS =     -3247.29098117
  atomic energy  EATOM  =     45086.50549395
  Solvation  Ediel_sol  =         0.00000000
  ---------------------------------------------------
  free energy    TOTEN  =      -182.88704423 eV

  energy without entropy =     -182.76573778  energy(sigma->0) =     -182.85671762


--------------------------------------------------------------------------------------------------------




--------------------------------------- Iteration      1(  10)  ---------------------------------------


    POTLOK:  cpu time   12.9521: real time   12.9528
    SETDIJ:  cpu time    0.1118: real time    0.1118
    EDDIAG:  cpu time   65.9075: real time   65.9071
  RMM-DIIS:  cpu time  194.4278: real time  194.4293
    ORTHCH:  cpu time   12.5060: real time   12.5058
       DOS:  cpu time    0.0013: real time    0.0013
    CHARGE:  cpu time   24.7226: real time   24.7222
    MIXING:  cpu time    0.5555: real time    0.5555
    --------------------------------------------
      LOOP:  cpu time  311.1845: real time  311.1858

 eigenvalue-minimisations  :   732
 total energy-change (2. order) : 0.2367970E+01  (-0.3795609E+00)
 number of electron     559.9999831 magnetization 
 augmentation part      241.4075930 magnetization 

 Broyden mixing:
  rms(total) = 0.21336E+01    rms(broyden)= 0.21332E+01
  rms(prec ) = 0.25168E+01
  weight for this iteration     100.00

 eigenvalues of (default mixing * dielectric matrix)
  average eigenvalue GAMMA=   0.2808
  0.8409  0.1817  0.1817  0.0998  0.0998

 Free energy of the ion-electron system (eV)
  ---------------------------------------------------
  alpha Z        PSCENC =        75.25431677
  Ewald energy   TEWEN  =    138026.23110952
  -Hartree energ DENC   =   -181952.34361124
  -exchange      EXHF   =         0.00000000
  -V(xc)+E(xc)   XCENC  =     -1696.61105969
  PAW double counting   =     45897.75795231   -42387.99135014
  entropy T*S    EENTRO =        -0.10880755
  eigenvalues    EBANDS =     -3229.21311830
  atomic energy  EATOM  =     45086.50549395
  Solvation  Ediel_sol  =         0.00000000
  ---------------------------------------------------
  free energy    TOTEN  =      -180.51907436 eV

  energy without entropy =     -180.41026681  energy(sigma->0) =     -180.49187247


--------------------------------------------------------------------------------------------------------




--------------------------------------- Iteration      1(  11)  ---------------------------------------


    POTLOK:  cpu time   12.8473: real time   12.8508
    SETDIJ:  cpu time    0.1120: real time    0.1120
    EDDIAG:  cpu time   65.2070: real time   65.2072
  RMM-DIIS:  cpu time  193.8343: real time  193.8350
    ORTHCH:  cpu time   12.2423: real time   12.2422
       DOS:  cpu time    0.0013: real time    0.0013
    CHARGE:  cpu time   24.4333: real time   24.4331
    MIXING:  cpu time    0.5628: real time    0.5628
    --------------------------------------------
      LOOP:  cpu time  309.2402: real time  309.2445

 eigenvalue-minimisations  :   731
 total energy-change (2. order) : 0.1818189E+01  (-0.2103709E+00)
 number of electron     559.9999841 magnetization 
 augmentation part      241.4892307 magnetization 

 Broyden mixing:
  rms(total) = 0.16584E+01    rms(broyden)= 0.16580E+01
  rms(prec ) = 0.19475E+01
  weight for this iteration     100.00

 eigenvalues of (default mixing * dielectric matrix)
  average eigenvalue GAMMA=   0.2785
  0.9252  0.2195  0.2195  0.1148  0.1148  0.0769

 Free energy of the ion-electron system (eV)
  ---------------------------------------------------
  alpha Z        PSCENC =        75.25431677
  Ewald energy   TEWEN  =    138026.23110952
  -Hartree energ DENC   =   -181977.33311197
  -exchange      EXHF   =         0.00000000
  -V(xc)+E(xc)   XCENC  =     -1696.44531034
  PAW double counting   =     45935.44635194   -42424.20432410
  entropy T*S    EENTRO =        -0.17171183
  eigenvalues    EBANDS =     -3203.98369925
  atomic energy  EATOM  =     45086.50549395
  Solvation  Ediel_sol  =         0.00000000
  ---------------------------------------------------
  free energy    TOTEN  =      -178.70088531 eV

  energy without entropy =     -178.52917348  energy(sigma->0) =     -178.65795735


--------------------------------------------------------------------------------------------------------




--------------------------------------- Iteration      1(  12)  ---------------------------------------


    POTLOK:  cpu time   12.7776: real time   12.7782
    SETDIJ:  cpu time    0.1088: real time    0.1088
    EDDIAG:  cpu time   64.8964: real time   64.8968
  RMM-DIIS:  cpu time  192.8724: real time  192.8725
    ORTHCH:  cpu time   12.4447: real time   12.4447
       DOS:  cpu time    0.0013: real time    0.0013
    CHARGE:  cpu time   24.8116: real time   24.8116
    MIXING:  cpu time    0.5966: real time    0.5966
    --------------------------------------------
      LOOP:  cpu time  308.5093: real time  308.5104

 eigenvalue-minimisations  :   724
 total energy-change (2. order) : 0.2248147E+00  (-0.1658314E+00)
 number of electron     559.9999840 magnetization 
 augmentation part      241.5079475 magnetization 

 Broyden mixing:
  rms(total) = 0.20649E+01    rms(broyden)= 0.20646E+01
  rms(prec ) = 0.25089E+01
  weight for this iteration     100.00

 eigenvalues of (default mixing * dielectric matrix)
  average eigenvalue GAMMA=   0.2830
  1.0398  0.2696  0.2696  0.1262  0.1262  0.0747  0.0747

 Free energy of the ion-electron system (eV)
  ---------------------------------------------------
  alpha Z        PSCENC =        75.25431677
  Ewald energy   TEWEN  =    138026.23110952
  -Hartree energ DENC   =   -181999.72408520
  -exchange      EXHF   =         0.00000000
  -V(xc)+E(xc)   XCENC  =     -1696.20533553
  PAW double counting   =     45976.86932567   -42463.92714634
  entropy T*S    EENTRO =        -0.01087294
  eigenvalues    EBANDS =     -3183.46887648
  atomic energy  EATOM  =     45086.50549395
  Solvation  Ediel_sol  =         0.00000000
  ---------------------------------------------------
  free energy    TOTEN  =      -178.47607058 eV

  energy without entropy =     -178.46519764  energy(sigma->0) =     -178.47335235


--------------------------------------------------------------------------------------------------------




--------------------------------------- Iteration      1(  13)  ---------------------------------------


    POTLOK:  cpu time   12.8097: real time   12.8113
    SETDIJ:  cpu time    0.1063: real time    0.1063
    EDDIAG:  cpu time   65.0488: real time   65.0489
  RMM-DIIS:  cpu time  193.7376: real time  193.7410
    ORTHCH:  cpu time   12.6039: real time   12.6037
       DOS:  cpu time    0.0013: real time    0.0013
    CHARGE:  cpu time   25.5216: real time   25.5215
    MIXING:  cpu time    0.6481: real time    0.6481
    --------------------------------------------
      LOOP:  cpu time  310.4774: real time  310.4822

 eigenvalue-minimisations  :   718
 total energy-change (2. order) : 0.4126505E+00  (-0.1688248E+00)
 number of electron     559.9999821 magnetization 
 augmentation part      241.6032644 magnetization 

 Broyden mixing:
  rms(total) = 0.18751E+01    rms(broyden)= 0.18748E+01
  rms(prec ) = 0.22045E+01
  weight for this iteration     100.00

 eigenvalues of (default mixing * dielectric matrix)
  average eigenvalue GAMMA=   0.2925
  1.1339  0.4656  0.2232  0.1402  0.1402  0.0873  0.0873  0.0620

 Free energy of the ion-electron system (eV)
  ---------------------------------------------------
  alpha Z        PSCENC =        75.25431677
  Ewald energy   TEWEN  =    138026.23110952
  -Hartree energ DENC   =   -182023.74177906
  -exchange      EXHF   =         0.00000000
  -V(xc)+E(xc)   XCENC  =     -1695.87885781
  PAW double counting   =     46026.77116839   -42511.81342741
  entropy T*S    EENTRO =        -0.02205441
  eigenvalues    EBANDS =     -3161.36939002
  atomic energy  EATOM  =     45086.50549395
  Solvation  Ediel_sol  =         0.00000000
  ---------------------------------------------------
  free energy    TOTEN  =      -178.06342007 eV

  energy without entropy =     -178.04136567  energy(sigma->0) =     -178.05790647


--------------------------------------------------------------------------------------------------------




--------------------------------------- Iteration      1(  14)  ---------------------------------------


    POTLOK:  cpu time   12.7764: real time   12.7779
    SETDIJ:  cpu time    0.1071: real time    0.1071
    EDDIAG:  cpu time   65.0802: real time   65.0801
  RMM-DIIS:  cpu time  193.6049: real time  193.6059
    ORTHCH:  cpu time   12.7398: real time   12.7396
       DOS:  cpu time    0.0013: real time    0.0013
    CHARGE:  cpu time   25.3353: real time   25.3348
    MIXING:  cpu time    0.6965: real time    0.6965
    --------------------------------------------
      LOOP:  cpu time  310.3414: real time  310.3432

 eigenvalue-minimisations  :   714
 total energy-change (2. order) : 0.4761069E+00  (-0.1473704E+00)
 number of electron     559.9999849 magnetization 
 augmentation part      241.4508891 magnetization 

 Broyden mixing:
  rms(total) = 0.18337E+01    rms(broyden)= 0.18334E+01
  rms(prec ) = 0.20964E+01
  weight for this iteration     100.00

 eigenvalues of (default mixing * dielectric matrix)
  average eigenvalue GAMMA=   0.3097
  1.3014  0.6485  0.1995  0.1512  0.1512  0.0988  0.0988  0.0688  0.0688

 Free energy of the ion-electron system (eV)
  ---------------------------------------------------
  alpha Z        PSCENC =        75.25431677
  Ewald energy   TEWEN  =    138026.23110952
  -Hartree energ DENC   =   -182056.88303274
  -exchange      EXHF   =         0.00000000
  -V(xc)+E(xc)   XCENC  =     -1695.50217813
  PAW double counting   =     46078.01751629   -42560.94584122
  entropy T*S    EENTRO =        -0.06430240
  eigenvalues    EBANDS =     -3130.20039521
  atomic energy  EATOM  =     45086.50549395
  Solvation  Ediel_sol  =         0.00000000
  ---------------------------------------------------
  free energy    TOTEN  =      -177.58731318 eV

  energy without entropy =     -177.52301078  energy(sigma->0) =     -177.57123758


--------------------------------------------------------------------------------------------------------




--------------------------------------- Iteration      1(  15)  ---------------------------------------


    POTLOK:  cpu time   13.1287: real time   13.1300
    SETDIJ:  cpu time    0.1090: real time    0.1090
    EDDIAG:  cpu time   65.3983: real time   65.3984
  RMM-DIIS:  cpu time  189.3626: real time  189.3668
    ORTHCH:  cpu time   12.9448: real time   12.9447
       DOS:  cpu time    0.0013: real time    0.0013
    CHARGE:  cpu time   25.2440: real time   25.2436
    MIXING:  cpu time    0.7973: real time    0.7973
    --------------------------------------------
      LOOP:  cpu time  306.9860: real time  306.9911

 eigenvalue-minimisations  :   706
 total energy-change (2. order) : 0.1229149E+01  (-0.1351342E+00)
 number of electron     559.9999847 magnetization 
 augmentation part      241.4453380 magnetization 

 Broyden mixing:
  rms(total) = 0.12389E+01    rms(broyden)= 0.12386E+01
  rms(prec ) = 0.14179E+01
  weight for this iteration     100.00

 eigenvalues of (default mixing * dielectric matrix)
  average eigenvalue GAMMA=   0.3070
  1.3917  0.7132  0.2020  0.1421  0.1421  0.1119  0.1119  0.1115  0.0821  0.0619

 Free energy of the ion-electron system (eV)
  ---------------------------------------------------
  alpha Z        PSCENC =        75.25431677
  Ewald energy   TEWEN  =    138026.23110952
  -Hartree energ DENC   =   -182097.25977848
  -exchange      EXHF   =         0.00000000
  -V(xc)+E(xc)   XCENC  =     -1695.02510397
  PAW double counting   =     46138.92347535   -42619.27323788
  entropy T*S    EENTRO =        -0.01544642
  eigenvalues    EBANDS =     -3091.69899310
  atomic energy  EATOM  =     45086.50549395
  Solvation  Ediel_sol  =         0.00000000
  ---------------------------------------------------
  free energy    TOTEN  =      -176.35816425 eV

  energy without entropy =     -176.34271783  energy(sigma->0) =     -176.35430265


--------------------------------------------------------------------------------------------------------




--------------------------------------- Iteration      1(  16)  ---------------------------------------


    POTLOK:  cpu time   12.9972: real time   12.9984
    SETDIJ:  cpu time    0.1072: real time    0.1072
    EDDIAG:  cpu time   65.8557: real time   65.8580
  RMM-DIIS:  cpu time  190.9755: real time  190.9772
    ORTHCH:  cpu time   12.8632: real time   12.8629
       DOS:  cpu time    0.0013: real time    0.0013
    CHARGE:  cpu time   25.1445: real time   25.1440
    MIXING:  cpu time    0.8512: real time    0.8512
    --------------------------------------------
      LOOP:  cpu time  308.7959: real time  308.8003

 eigenvalue-minimisations  :   714
 total energy-change (2. order) : 0.3716121E+00  (-0.6432444E-01)
 number of electron     559.9999843 magnetization 
 augmentation part      241.3602841 magnetization 

 Broyden mixing:
  rms(total) = 0.10858E+01    rms(broyden)= 0.10856E+01
  rms(prec ) = 0.12885E+01
  weight for this iteration     100.00

 eigenvalues of (default mixing * dielectric matrix)
  average eigenvalue GAMMA=   0.3026
  1.4144  0.7388  0.2798  0.2041  0.1399  0.1399  0.1023  0.1023  0.0757  0.0658
  0.0658

 Free energy of the ion-electron system (eV)
  ---------------------------------------------------
  alpha Z        PSCENC =        75.25431677
  Ewald energy   TEWEN  =    138026.23110952
  -Hartree energ DENC   =   -182121.26250894
  -exchange      EXHF   =         0.00000000
  -V(xc)+E(xc)   XCENC  =     -1694.71630698
  PAW double counting   =     46169.26830892   -42648.11914883
  entropy T*S    EENTRO =        -0.05672862
  eigenvalues    EBANDS =     -3069.09108795
  atomic energy  EATOM  =     45086.50549395
  Solvation  Ediel_sol  =         0.00000000
  ---------------------------------------------------
  free energy    TOTEN  =      -175.98655215 eV

  energy without entropy =     -175.92982353  energy(sigma->0) =     -175.97237000


--------------------------------------------------------------------------------------------------------




--------------------------------------- Iteration      1(  17)  ---------------------------------------


    POTLOK:  cpu time   12.9983: real time   12.9993
    SETDIJ:  cpu time    0.1117: real time    0.1117
    EDDIAG:  cpu time   65.8142: real time   65.8144
  RMM-DIIS:  cpu time  188.0107: real time  188.0111
    ORTHCH:  cpu time   12.9932: real time   12.9930
       DOS:  cpu time    0.0013: real time    0.0013
    CHARGE:  cpu time   25.2242: real time   25.2239
    MIXING:  cpu time    0.8902: real time    0.8902
    --------------------------------------------
      LOOP:  cpu time  306.0440: real time  306.0449

 eigenvalue-minimisations  :   706
 total energy-change (2. order) : 0.3154141E+00  (-0.3472068E-01)
 number of electron     559.9999840 magnetization 
 augmentation part      241.2523654 magnetization 

 Broyden mixing:
  rms(total) = 0.79044E+00    rms(broyden)= 0.79025E+00
  rms(prec ) = 0.90136E+00
  weight for this iteration     100.00

 eigenvalues of (default mixing * dielectric matrix)
  average eigenvalue GAMMA=   0.3089
  1.5414  0.6614  0.4966  0.1474  0.1474  0.1697  0.1407  0.0996  0.0996  0.0727
  0.0655  0.0655

 Free energy of the ion-electron system (eV)
  ---------------------------------------------------
  alpha Z        PSCENC =        75.25431677
  Ewald energy   TEWEN  =    138026.23110952
  -Hartree energ DENC   =   -182137.49858205
  -exchange      EXHF   =         0.00000000
  -V(xc)+E(xc)   XCENC  =     -1694.50974997
  PAW double counting   =     46183.80759601   -42661.68628042
  entropy T*S    EENTRO =        -0.09733924
  eigenvalues    EBANDS =     -3053.67770267
  atomic energy  EATOM  =     45086.50549395
  Solvation  Ediel_sol  =         0.00000000
  ---------------------------------------------------
  free energy    TOTEN  =      -175.67113809 eV

  energy without entropy =     -175.57379885  energy(sigma->0) =     -175.64680328


--------------------------------------------------------------------------------------------------------




--------------------------------------- Iteration      1(  18)  ---------------------------------------


    POTLOK:  cpu time   13.1074: real time   13.1084
    SETDIJ:  cpu time    0.1068: real time    0.1068
    EDDIAG:  cpu time   65.9447: real time   65.9456
  RMM-DIIS:  cpu time  186.5318: real time  186.5388
    ORTHCH:  cpu time   13.0489: real time   13.0488
       DOS:  cpu time    0.0013: real time    0.0013
    CHARGE:  cpu time   25.3819: real time   25.3822
    MIXING:  cpu time    0.9599: real time    0.9599
    --------------------------------------------
      LOOP:  cpu time  305.0826: real time  305.0918

 eigenvalue-minimisations  :   699
 total energy-change (2. order) : 0.1831452E+00  (-0.3967962E-01)
 number of electron     559.9999842 magnetization 
 augmentation part      241.2484011 magnetization 

 Broyden mixing:
  rms(total) = 0.83891E+00    rms(broyden)= 0.83875E+00
  rms(prec ) = 0.10041E+01
  weight for this iteration     100.00

 eigenvalues of (default mixing * dielectric matrix)
  average eigenvalue GAMMA=   0.3079
  1.6068  0.6860  0.4863  0.2676  0.1484  0.1484  0.1251  0.1251  0.1056  0.1056
  0.0718  0.0630  0.0630

 Free energy of the ion-electron system (eV)
  ---------------------------------------------------
  alpha Z        PSCENC =        75.25431677
  Ewald energy   TEWEN  =    138026.23110952
  -Hartree energ DENC   =   -182156.17211501
  -exchange      EXHF   =         0.00000000
  -V(xc)+E(xc)   XCENC  =     -1694.17467518
  PAW double counting   =     46206.44701183   -42682.75950097
  entropy T*S    EENTRO =        -0.04971337
  eigenvalues    EBANDS =     -3036.76992042
  atomic energy  EATOM  =     45086.50549395
  Solvation  Ediel_sol  =         0.00000000
  ---------------------------------------------------
  free energy    TOTEN  =      -175.48799289 eV

  energy without entropy =     -175.43827951  energy(sigma->0) =     -175.47556455


--------------------------------------------------------------------------------------------------------




--------------------------------------- Iteration      1(  19)  ---------------------------------------


    POTLOK:  cpu time   13.0651: real time   13.0660
    SETDIJ:  cpu time    0.1150: real time    0.1150
    EDDIAG:  cpu time   66.2764: real time   66.2804
  RMM-DIIS:  cpu time  186.0067: real time  186.0119
    ORTHCH:  cpu time   13.0056: real time   13.0053
       DOS:  cpu time    0.0014: real time    0.0014
    CHARGE:  cpu time   25.2456: real time   25.2453
    MIXING:  cpu time    1.0009: real time    1.0009
    --------------------------------------------
      LOOP:  cpu time  304.7166: real time  304.7262

 eigenvalue-minimisations  :   700
 total energy-change (2. order) : 0.6280440E-01  (-0.2529150E-01)
 number of electron     559.9999842 magnetization 
 augmentation part      241.1532359 magnetization 

 Broyden mixing:
  rms(total) = 0.73429E+00    rms(broyden)= 0.73409E+00
  rms(prec ) = 0.83488E+00
  weight for this iteration     100.00

 eigenvalues of (default mixing * dielectric matrix)
  average eigenvalue GAMMA=   0.3177
  1.6658  0.7391  0.4925  0.4925  0.1467  0.1467  0.1424  0.1424  0.1032  0.1032
  0.0751  0.0751  0.0619  0.0619

 Free energy of the ion-electron system (eV)
  ---------------------------------------------------
  alpha Z        PSCENC =        75.25431677
  Ewald energy   TEWEN  =    138026.23110952
  -Hartree energ DENC   =   -182172.44916399
  -exchange      EXHF   =         0.00000000
  -V(xc)+E(xc)   XCENC  =     -1693.92361072
  PAW double counting   =     46219.50656176   -42694.73376719
  entropy T*S    EENTRO =        -0.04304868
  eigenvalues    EBANDS =     -3021.77307991
  atomic energy  EATOM  =     45086.50549395
  Solvation  Ediel_sol  =         0.00000000
  ---------------------------------------------------
  free energy    TOTEN  =      -175.42518849 eV

  energy without entropy =     -175.38213980  energy(sigma->0) =     -175.41442632


--------------------------------------------------------------------------------------------------------




--------------------------------------- Iteration      1(  20)  ---------------------------------------


    POTLOK:  cpu time   13.1344: real time   13.1359
    SETDIJ:  cpu time    0.1101: real time    0.1101
    EDDIAG:  cpu time   66.5519: real time   66.5513
  RMM-DIIS:  cpu time  187.7519: real time  187.7583
    ORTHCH:  cpu time   13.3734: real time   13.3745
       DOS:  cpu time    0.0014: real time    0.0014
    CHARGE:  cpu time   25.9790: real time   25.9812
    MIXING:  cpu time    1.0933: real time    1.0934
    --------------------------------------------
      LOOP:  cpu time  307.9955: real time  308.0060

 eigenvalue-minimisations  :   697
 total energy-change (2. order) : 0.1097971E+00  (-0.1968590E-01)
 number of electron     559.9999843 magnetization 
 augmentation part      241.0726710 magnetization 

 Broyden mixing:
  rms(total) = 0.68101E+00    rms(broyden)= 0.68083E+00
  rms(prec ) = 0.78580E+00
  weight for this iteration     100.00

 eigenvalues of (default mixing * dielectric matrix)
  average eigenvalue GAMMA=   0.3232
  1.7130  0.7597  0.5952  0.5952  0.1497  0.1497  0.1608  0.1279  0.1279  0.1017
  0.1017  0.0724  0.0724  0.0607  0.0607

 Free energy of the ion-electron system (eV)
  ---------------------------------------------------
  alpha Z        PSCENC =        75.25431677
  Ewald energy   TEWEN  =    138026.23110952
  -Hartree energ DENC   =   -182191.26194902
  -exchange      EXHF   =         0.00000000
  -V(xc)+E(xc)   XCENC  =     -1693.66131763
  PAW double counting   =     46229.94051218   -42704.00926832
  entropy T*S    EENTRO =        -0.01327660
  eigenvalues    EBANDS =     -3004.30101220
  atomic energy  EATOM  =     45086.50549395
  Solvation  Ediel_sol  =         0.00000000
  ---------------------------------------------------
  free energy    TOTEN  =      -175.31539134 eV

  energy without entropy =     -175.30211475  energy(sigma->0) =     -175.31207219


--------------------------------------------------------------------------------------------------------




--------------------------------------- Iteration      1(  21)  ---------------------------------------


    POTLOK:  cpu time   13.2895: real time   13.2913
    SETDIJ:  cpu time    0.1085: real time    0.1085
    EDDIAG:  cpu time   66.5086: real time   66.5137
  RMM-DIIS:  cpu time  188.9975: real time  189.0095
    ORTHCH:  cpu time   13.3758: real time   13.3779
       DOS:  cpu time    0.0014: real time    0.0014
    CHARGE:  cpu time   26.0355: real time   26.0378
    MIXING:  cpu time    1.1975: real time    1.1975
    --------------------------------------------
      LOOP:  cpu time  309.5143: real time  309.5377

 eigenvalue-minimisations  :   702
 total energy-change (2. order) : 0.1055681E-01  (-0.1636581E-01)
 number of electron     559.9999842 magnetization 
 augmentation part      241.0961789 magnetization 

 Broyden mixing:
  rms(total) = 0.67103E+00    rms(broyden)= 0.67088E+00
  rms(prec ) = 0.80832E+00
  weight for this iteration     100.00

 eigenvalues of (default mixing * dielectric matrix)
  average eigenvalue GAMMA=   0.3318
  1.7393  0.8130  0.7107  0.7107  0.1474  0.1474  0.1740  0.1597  0.1597  0.1014
  0.1014  0.0883  0.0683  0.0683  0.0598  0.0598

 Free energy of the ion-electron system (eV)
  ---------------------------------------------------
  alpha Z        PSCENC =        75.25431677
  Ewald energy   TEWEN  =    138026.23110952
  -Hartree energ DENC   =   -182199.94836686
  -exchange      EXHF   =         0.00000000
  -V(xc)+E(xc)   XCENC  =     -1693.55624201
  PAW double counting   =     46232.43414216   -42705.99895943
  entropy T*S    EENTRO =        -0.04144969
  eigenvalues    EBANDS =     -2996.18487894
  atomic energy  EATOM  =     45086.50549395
  Solvation  Ediel_sol  =         0.00000000
  ---------------------------------------------------
  free energy    TOTEN  =      -175.30483453 eV

  energy without entropy =     -175.26338484  energy(sigma->0) =     -175.29447211


--------------------------------------------------------------------------------------------------------




--------------------------------------- Iteration      1(  22)  ---------------------------------------


    POTLOK:  cpu time   13.2633: real time   13.2660
    SETDIJ:  cpu time    0.1120: real time    0.1120
    EDDIAG:  cpu time   67.4097: real time   67.4177
  RMM-DIIS:  cpu time  191.3042: real time  191.3273
    ORTHCH:  cpu time   13.3284: real time   13.3295
       DOS:  cpu time    0.0013: real time    0.0013
    CHARGE:  cpu time   26.0281: real time   26.0332
    MIXING:  cpu time    1.2195: real time    1.2196
    --------------------------------------------
      LOOP:  cpu time  312.6666: real time  312.7066

 eigenvalue-minimisations  :   710
 total energy-change (2. order) :-0.1074407E+00  (-0.1678386E-01)
 number of electron     559.9999837 magnetization 
 augmentation part      241.1316302 magnetization 

 Broyden mixing:
  rms(total) = 0.90271E+00    rms(broyden)= 0.90254E+00
  rms(prec ) = 0.10976E+01
  weight for this iteration     100.00

 eigenvalues of (default mixing * dielectric matrix)
  average eigenvalue GAMMA=   0.3374
  1.6852  1.0507  0.7607  0.7607  0.2150  0.2150  0.1465  0.1465  0.1165  0.1165
  0.1033  0.1033  0.0709  0.0709  0.0608  0.0608  0.0524

 Free energy of the ion-electron system (eV)
  ---------------------------------------------------
  alpha Z        PSCENC =        75.25431677
  Ewald energy   TEWEN  =    138026.23110952
  -Hartree energ DENC   =   -182209.82113158
  -exchange      EXHF   =         0.00000000
  -V(xc)+E(xc)   XCENC  =     -1693.44735478
  PAW double counting   =     46231.93779420   -42704.98979103
  entropy T*S    EENTRO =        -0.01063159
  eigenvalues    EBANDS =     -2987.07208068
  atomic energy  EATOM  =     45086.50549395
  Solvation  Ediel_sol  =         0.00000000
  ---------------------------------------------------
  free energy    TOTEN  =      -175.41227522 eV

  energy without entropy =     -175.40164363  energy(sigma->0) =     -175.40961732


--------------------------------------------------------------------------------------------------------




--------------------------------------- Iteration      1(  23)  ---------------------------------------


    POTLOK:  cpu time   13.3710: real time   13.3728
    SETDIJ:  cpu time    0.1095: real time    0.1095
    EDDIAG:  cpu time   67.7598: real time   67.7622
  RMM-DIIS:  cpu time  187.1738: real time  187.1913
    ORTHCH:  cpu time   13.3245: real time   13.3257
       DOS:  cpu time    0.0014: real time    0.0014
    CHARGE:  cpu time   26.0050: real time   26.0046
    MIXING:  cpu time    1.3118: real time    1.3118
    --------------------------------------------
      LOOP:  cpu time  309.0567: real time  309.0792

 eigenvalue-minimisations  :   697
 total energy-change (2. order) : 0.4594489E-01  (-0.1916811E-01)
 number of electron     559.9999848 magnetization 
 augmentation part      241.1575501 magnetization 

 Broyden mixing:
  rms(total) = 0.82720E+00    rms(broyden)= 0.82701E+00
  rms(prec ) = 0.96248E+00
  weight for this iteration     100.00

 eigenvalues of (default mixing * dielectric matrix)
  average eigenvalue GAMMA=   0.3507
  1.5531  1.5531  0.7564  0.7564  0.3612  0.1870  0.1471  0.1471  0.1198  0.1198
[...]
 -0.006  -0.012   0.004   0.004   0.006  -0.006  -0.011   0.003
 -0.010  -0.020   0.006   0.007   0.010  -0.010  -0.019   0.006
 -0.015  -0.005   0.013   0.000   0.022  -0.014  -0.005   0.012
  0.000  -0.023  -0.006  -0.015  -0.000   0.000  -0.022  -0.006
 -0.022   0.000   0.009  -0.005  -0.016  -0.022   0.000   0.008
 -0.017  -0.006   0.015   0.000   0.027  -0.017  -0.006   0.015
  0.000  -0.027  -0.007  -0.018   0.000   0.000  -0.027  -0.007
 -0.027   0.000   0.010  -0.006  -0.019  -0.026   0.000   0.010
 total augmentation occupancy for first ion, spin component:           1
  1.536  -0.031   0.004   0.018   0.023   0.076  -0.008  -0.001   0.035  -0.010   0.090  -0.030   0.012   0.002   0.003  -0.019
 -0.031   1.403   0.028   0.069   0.001  -0.007   0.071   0.011  -0.014  -0.007   0.213  -0.063   0.020   0.001   0.002  -0.006
  0.004   0.028   1.541   0.003   0.004  -0.001   0.012   0.074  -0.013   0.017  -0.053   0.017  -0.003  -0.007  -0.006   0.016
  0.018   0.069   0.003   1.341   0.045   0.033  -0.014  -0.013   0.090  -0.023  -0.080   0.021  -0.001  -0.009  -0.004   0.001
  0.023   0.001   0.004   0.045   1.439  -0.010  -0.008   0.016  -0.022   0.068  -0.096   0.033  -0.002  -0.010  -0.009   0.026
  0.076  -0.007  -0.001   0.033  -0.010   0.217   0.018  -0.002  -0.045   0.004  -0.048   0.002   0.017  -0.010   0.034  -0.004
 -0.008   0.071   0.012  -0.014  -0.008   0.018   0.262  -0.023  -0.003   0.006  -0.109   0.008  -0.001   0.051  -0.010  -0.000
 -0.001   0.011   0.074  -0.013   0.016  -0.002  -0.023   0.215   0.014  -0.019   0.028  -0.001  -0.012   0.009  -0.018   0.003
  0.035  -0.014  -0.013   0.090  -0.022  -0.045  -0.003   0.014   0.261   0.007   0.043  -0.004  -0.009   0.036   0.004   0.000
 -0.010  -0.007   0.017  -0.023   0.068   0.004   0.006  -0.019   0.007   0.258   0.046  -0.002  -0.038   0.002   0.049   0.007
  0.090   0.213  -0.053  -0.080  -0.096  -0.048  -0.109   0.028   0.043   0.046   0.948  -0.140   0.084   0.014   0.063  -0.013
 -0.030  -0.063   0.017   0.021   0.033   0.002   0.008  -0.001  -0.004  -0.002  -0.140   0.023  -0.014  -0.003  -0.010   0.003
  0.012   0.020  -0.003  -0.001  -0.002   0.017  -0.001  -0.012  -0.009  -0.038   0.084  -0.014   0.029  -0.009  -0.004  -0.003
  0.002   0.001  -0.007  -0.009  -0.010  -0.010   0.051   0.009   0.036   0.002   0.014  -0.003  -0.009   0.036   0.004   0.000
  0.003   0.002  -0.006  -0.004  -0.009   0.034  -0.010  -0.018   0.004   0.049   0.063  -0.010  -0.004   0.004   0.034  -0.000
 -0.019  -0.006   0.016   0.001   0.026  -0.004  -0.000   0.003   0.000   0.007  -0.013   0.003  -0.003   0.000  -0.000   0.001
  0.001  -0.028  -0.007  -0.018   0.001   0.001  -0.008  -0.001  -0.006  -0.000  -0.003   0.001   0.000  -0.003  -0.000   0.000
 -0.028   0.001   0.012  -0.005  -0.019  -0.006   0.001   0.003  -0.001  -0.007  -0.008   0.001  -0.000  -0.000  -0.003   0.000


------------------------ aborting loop because EDIFF is reached ----------------------------------------


    CHARGE:  cpu time   25.2120: real time   25.2126
    FORLOC:  cpu time    6.2496: real time    6.2497
    FORNL :  cpu time   64.8902: real time   64.8917
    STRESS:  cpu time  194.9693: real time  194.9801
    FORCOR:  cpu time   20.7677: real time   20.7697
    FORHAR:  cpu time    9.1698: real time    9.1699
    MIXING:  cpu time    3.7692: real time    3.7692
    OFIELD:  cpu time    0.0000: real time    0.0000

  FORCE on cell =-STRESS in cart. coord.  units (eV):
  Direction    XX          YY          ZZ          XY          YZ          ZX
  --------------------------------------------------------------------------------------
  Alpha Z    75.25432    75.25432    75.25432
  Ewald   44516.25996 45317.13048 48192.73508   526.99176 -1880.31370  -996.68318
  Hartree 59372.68615 60187.44197 62819.70405   505.18028 -1705.29227  -961.46171
  E(xc)   -2905.30791 -2905.82185 -2904.03300     0.09956    -0.84344     0.09297
  Local  ************************************ -1028.54308  3570.35418  1957.31170
  n-local  -884.03778  -882.45252  -883.18132    -2.08555     1.85550     4.12285
  augment  4104.37297  4105.83259  4100.48200     0.51381     1.03913    -2.81230
  Kinetic  7810.79145  7813.31958  7794.35032    -1.78267    10.23364    -1.21251
  Fock        0.00000     0.00000     0.00000     0.00000     0.00000     0.00000
  -------------------------------------------------------------------------------------
  Total    -114.53116  -111.34023  -109.16050     0.37411    -2.96697    -0.64219
  in kB      -6.79627    -6.60692    -6.47757     0.02220    -0.17606    -0.03811
  external pressure =       -6.63 kB  Pullay stress =        0.00 kB


 VOLUME and BASIS-vectors are now :
 -----------------------------------------------------------------------------
  energy-cutoff  :      400.00
  volume of cell :    27000.00
      direct lattice vectors                 reciprocal lattice vectors
    30.000000000  0.000000000  0.000000000     0.033333333  0.000000000  0.000000000
     0.000000000 30.000000000  0.000000000     0.000000000  0.033333333  0.000000000
     0.000000000  0.000000000 30.000000000     0.000000000  0.000000000  0.033333333

  length of vectors
    30.000000000 30.000000000 30.000000000     0.033333333  0.033333333  0.033333333


 FORCES acting on ions
    electron-ion (+dipol)            ewald-force                    non-local-force                 convergence-correction
 -----------------------------------------------------------------------------------------------
   0.392E+03 0.972E+03 0.429E+03   -.390E+03 -.969E+03 -.429E+03   -.149E+01 -.182E+01 -.226E+00   -.391E-02 -.114E-01 0.659E-02
   -.974E+03 -.396E+03 0.419E+03   0.971E+03 0.394E+03 -.419E+03   0.183E+01 0.151E+01 -.242E+00   0.128E-01 0.290E-03 0.103E-01
   -.399E+03 0.971E+03 0.426E+03   0.396E+03 -.968E+03 -.425E+03   0.150E+01 -.182E+01 -.202E+00   0.716E-02 -.114E-01 0.108E-01
   0.972E+03 -.399E+03 0.423E+03   -.970E+03 0.396E+03 -.422E+03   -.182E+01 0.151E+01 -.204E+00   -.117E-01 0.491E-02 0.747E-02
   -.202E+01 0.585E+03 0.970E+03   0.202E+01 -.584E+03 -.966E+03   0.877E-03 -.321E+00 -.234E+01   -.102E-02 -.113E-01 -.668E-02
   -.109E+03 0.559E+03 -.881E+03   0.108E+03 -.559E+03 0.879E+03   -.751E-01 -.195E+00 0.174E+01   0.114E-01 0.116E-01 -.179E-02
   -.764E+01 0.114E+04 0.200E+02   0.756E+01 -.113E+04 -.200E+02   0.461E-01 -.312E+01 -.408E-01   0.410E-02 -.251E-02 0.148E-01
   0.114E+04 -.746E+01 0.116E+02   -.113E+04 0.748E+01 -.117E+02   -.307E+01 -.200E-01 0.349E-01   -.370E-02 0.147E-02 0.110E-01
   -.114E+04 -.286E+01 0.433E+01   0.113E+04 0.287E+01 -.436E+01   0.311E+01 -.291E-02 0.726E-02   0.197E-02 -.535E-02 0.223E-01
   -.143E+01 -.114E+04 0.354E+01   0.143E+01 0.113E+04 -.355E+01   -.786E-03 0.311E+01 -.226E-02   -.401E-03 0.596E-02 0.113E-01
   -.581E+03 0.577E+03 0.816E+03   0.578E+03 -.575E+03 -.813E+03   0.156E+01 -.156E+01 -.221E+01   0.111E-01 -.105E-01 -.354E-02
   -.610E+03 0.573E+03 -.800E+03   0.608E+03 -.570E+03 0.797E+03   0.163E+01 -.156E+01 0.225E+01   -.531E-02 0.137E-01 -.475E-02
   0.578E+03 -.581E+03 0.815E+03   -.576E+03 0.578E+03 -.812E+03   -.156E+01 0.156E+01 -.220E+01   -.894E-02 0.905E-02 -.350E-02
   0.580E+03 -.598E+03 -.806E+03   -.578E+03 0.595E+03 0.803E+03   -.153E+01 0.157E+01 0.220E+01   0.690E-02 -.603E-02 0.452E-02
   0.578E+03 0.577E+03 0.818E+03   -.576E+03 -.574E+03 -.815E+03   -.156E+01 -.156E+01 -.220E+01   -.102E-01 -.110E-01 -.669E-02
   0.695E+03 0.487E+03 -.582E+03   -.689E+03 -.487E+03 0.585E+03   -.470E+01 0.717E+00 -.381E+01   0.983E-02 0.793E-02 0.317E-02
   -.579E+03 -.580E+03 0.814E+03   0.577E+03 0.578E+03 -.811E+03   0.156E+01 0.155E+01 -.221E+01   0.634E-02 0.111E-01 -.626E-02
   -.585E+03 -.587E+03 -.809E+03   0.583E+03 0.585E+03 0.805E+03   0.156E+01 0.155E+01 0.220E+01   -.346E-02 -.152E-01 0.306E-02
   0.380E+03 0.986E+03 -.349E+03   -.378E+03 -.983E+03 0.348E+03   -.148E+01 -.172E+01 0.544E+00   0.920E-02 0.604E-02 0.139E-01
   -.978E+03 -.400E+03 -.411E+03   0.975E+03 0.398E+03 0.410E+03   0.182E+01 0.149E+01 0.223E+00   -.528E-02 -.128E-01 0.201E-01
   -.325E+03 0.318E+03 0.462E+03   0.326E+03 -.318E+03 -.462E+03   -.375E+00 0.355E+00 0.544E+00   0.836E-02 -.811E-02 0.157E-01
   0.974E+03 0.390E+03 0.426E+03   -.971E+03 -.388E+03 -.426E+03   -.182E+01 -.150E+01 -.217E+00   -.107E-01 -.407E-02 0.554E-02
   -.395E+03 -.974E+03 0.419E+03   0.393E+03 0.971E+03 -.419E+03   0.150E+01 0.183E+01 -.230E+00   0.308E-02 0.136E-01 0.553E-02
   -.420E+03 0.976E+03 -.389E+03   0.418E+03 -.973E+03 0.388E+03   0.147E+01 -.189E+01 0.250E+00   0.452E-02 0.124E-01 0.158E-01
   0.978E+03 -.411E+03 -.403E+03   -.975E+03 0.408E+03 0.403E+03   -.186E+01 0.153E+01 0.163E+00   0.615E-02 -.217E-03 0.163E-01
   -.975E+03 0.392E+03 0.421E+03   0.972E+03 -.390E+03 -.420E+03   0.183E+01 -.152E+01 -.211E+00   0.125E-01 -.922E-02 0.128E-01
   0.393E+03 -.974E+03 0.420E+03   -.391E+03 0.971E+03 -.419E+03   -.150E+01 0.183E+01 -.223E+00   -.305E-02 0.117E-01 0.626E-02
   0.319E+03 0.317E+03 0.465E+03   -.320E+03 -.317E+03 -.466E+03   0.364E+00 0.370E+00 0.532E+00   -.605E-02 -.623E-02 0.115E-01
   -.900E+01 0.635E+03 0.239E+02   0.898E+01 -.636E+03 -.238E+02   0.163E-01 0.733E+00 -.484E-01   0.747E-02 -.373E-02 0.310E-01
   -.588E+03 -.211E+01 0.967E+03   0.588E+03 0.208E+01 -.963E+03   0.314E+00 0.181E-01 -.237E+01   0.992E-02 -.312E-02 -.763E-02
   -.604E+03 -.129E+02 -.957E+03   0.603E+03 0.129E+02 0.954E+03   0.326E+00 0.187E-02 0.235E+01   -.562E-02 -.701E-02 -.396E-02
   0.586E+03 -.292E+01 0.969E+03   -.586E+03 0.292E+01 -.965E+03   -.299E+00 -.454E-03 -.236E+01   -.108E-01 -.123E-02 -.537E-02
   0.599E+03 -.548E+02 -.938E+03   -.599E+03 0.551E+02 0.934E+03   -.254E+00 -.163E+00 0.246E+01   0.110E-01 0.304E-02 0.374E-02
   0.764E+03 0.757E+03 0.281E+02   -.762E+03 -.755E+03 -.281E+02   -.115E+01 -.117E+01 -.517E-01   -.139E-02 -.318E-02 0.178E-01
   -.764E+03 -.765E+03 0.467E+01   0.762E+03 0.763E+03 -.469E+01   0.114E+01 0.115E+01 0.150E-02   0.510E-02 0.110E-02 0.225E-01
   -.770E+03 0.758E+03 0.115E+02   0.768E+03 -.756E+03 -.115E+02   0.116E+01 -.113E+01 -.406E-01   0.479E-02 -.923E-03 0.283E-01
   0.761E+03 -.768E+03 0.755E+01   -.759E+03 0.766E+03 -.758E+01   -.115E+01 0.114E+01 0.103E-01   -.460E-02 0.292E-02 0.177E-01
   -.163E+01 -.270E+01 0.107E+04   0.163E+01 0.268E+01 -.107E+04   -.509E-02 0.126E-01 -.162E+01   -.160E-03 0.595E-03 -.940E-02
   -.249E+02 -.418E+02 -.105E+04   0.250E+02 0.419E+02 0.105E+04   -.471E-01 -.101E+00 0.165E+01   0.848E-02 -.330E-02 0.131E-04
   0.991E+03 0.374E+03 -.383E+03   -.988E+03 -.372E+03 0.382E+03   -.206E+01 -.132E+01 0.886E-01   0.615E-02 0.334E-02 0.143E-01
   -.397E+03 -.978E+03 -.412E+03   0.395E+03 0.975E+03 0.411E+03   0.150E+01 0.182E+01 0.218E+00   -.159E-02 -.585E-02 0.172E-01
   -.342E+03 0.308E+03 -.431E+03   0.342E+03 -.309E+03 0.432E+03   -.360E+00 0.457E+00 -.572E+00   0.809E-02 -.726E-03 0.295E-01
   0.320E+03 -.326E+03 0.460E+03   -.320E+03 0.326E+03 -.461E+03   0.375E+00 -.380E+00 0.526E+00   -.635E-02 0.554E-02 0.111E-01
   0.312E+03 0.293E+03 -.404E+03   -.312E+03 -.293E+03 0.404E+03   0.396E+00 0.204E+00 -.235E+00   0.109E-01 0.259E-02 0.247E-01
   -.983E+03 0.389E+03 -.408E+03   0.980E+03 -.387E+03 0.408E+03   0.182E+01 -.150E+01 0.219E+00   -.110E-01 0.258E-02 0.187E-01
   0.393E+03 -.980E+03 -.411E+03   -.390E+03 0.977E+03 0.410E+03   -.151E+01 0.180E+01 0.214E+00   -.104E-03 -.454E-02 0.173E-01
   -.324E+03 -.325E+03 0.458E+03   0.324E+03 0.325E+03 -.459E+03   -.361E+00 -.362E+00 0.496E+00   0.257E-02 0.497E-02 0.113E-01
   0.640E+03 -.109E+02 0.172E+02   -.641E+03 0.109E+02 -.172E+02   0.706E+00 0.354E-01 -.664E-01   -.342E-02 0.642E-03 0.235E-01
   -.645E+03 -.541E+01 0.840E+01   0.646E+03 0.546E+01 -.848E+01   -.747E+00 -.262E-01 0.230E-01   0.788E-02 -.900E-02 0.372E-01
   -.118E+01 -.589E+03 0.967E+03   0.116E+01 0.588E+03 -.963E+03   0.879E-02 0.308E+00 -.236E+01   -.409E-04 0.110E-01 -.569E-02
   -.573E+01 -.603E+03 -.959E+03   0.573E+01 0.602E+03 0.955E+03   -.105E-02 0.330E+00 0.235E+01   0.991E-04 -.111E-01 0.465E-02
   -.578E+01 -.964E+01 0.151E+02   0.577E+01 0.964E+01 -.152E+02   0.735E-02 -.712E-03 0.713E-02   0.343E-02 -.478E-02 0.349E-01
   0.318E+03 -.340E+03 -.438E+03   -.318E+03 0.341E+03 0.439E+03   0.377E+00 -.323E+00 -.533E+00   0.285E-02 -.370E-02 0.281E-01
   -.330E+03 -.333E+03 -.443E+03   0.330E+03 0.334E+03 0.444E+03   -.363E+00 -.364E+00 -.529E+00   0.495E-02 -.127E-01 0.310E-01
   -.274E+01 -.645E+03 0.702E+01   0.275E+01 0.646E+03 -.705E+01   -.226E-02 -.739E+00 0.852E-02   -.606E-03 0.439E-02 0.234E-01
   0.140E+01 0.104E+03 -.248E+03   0.585E+01 -.926E+02 0.230E+03   -.603E+01 -.875E+01 0.133E+02   0.336E-02 0.349E-02 -.279E-02
   0.202E+03 0.379E+03 -.646E+03   -.221E+03 -.412E+03 0.699E+03   0.186E+02 0.303E+02 -.480E+02   0.357E-02 0.412E-02 -.390E-02
 -----------------------------------------------------------------------------------------------
   -.941E+01 -.238E+02 0.403E+02   0.568E-12 0.796E-12 -.296E-11   0.931E+01 0.239E+02 -.409E+02   0.965E-01 -.401E-01 0.605E+00
 
 
 POSITION                                       TOTAL-FORCE (eV/Angst)
 -----------------------------------------------------------------------------------
     13.37281      9.84801     12.50759         0.704556      1.108700      0.288217
     20.15199     16.62719     12.50759        -1.103523     -0.708417      0.305884
     16.62719      9.84801     12.50759        -0.699858      1.109962      0.285303
      9.84801     16.62719     12.50759         1.108234     -0.707469      0.281782
     15.00000     11.47521     10.20639        -0.000833      0.415113      1.279218
     15.00000     11.47521     19.79360        -0.519163      0.257539     -0.782979
     15.00000      8.28283     15.00000        -0.029743      1.519473      0.019693
      8.28283     15.00000     15.00000         1.497379      0.008051     -0.038211
     21.71717     15.00000     15.00000        -1.517433      0.002498     -0.004174
     15.00000     21.71717     15.00000        -0.000017     -1.514833      0.001839
     18.35858     11.64142     10.25025        -0.755318      0.756050      1.071621
     18.35858     11.64142     19.74975        -0.766823      0.756865     -1.079648
     11.64142     18.35858     10.25025         0.753434     -0.757792      1.073177
     11.64142     18.35858     19.74975         0.752965     -0.753260     -1.073519
     11.64142     11.64142     10.25025         0.756348      0.759117      1.072793
     11.64142     11.64142     19.74975         0.968741      0.887404     -1.001902
     18.35858     18.35858     10.25025        -0.751354     -0.753094      1.072510
     18.35858     18.35858     19.74975        -0.756784     -0.755726     -1.072197
     13.37281      9.84801     17.49241         0.806062      1.002389     -0.396435
     20.15199     16.62719     17.49241        -1.109617     -0.699530     -0.292435
     16.73751     13.26249     12.54279         0.113522     -0.104111     -0.163167
      9.84801     13.37281     12.50759         1.109824      0.707697      0.288266
     16.62719     20.15199     12.50759        -0.705577     -1.105948      0.298288
     16.62719      9.84801     17.49241        -0.679715      1.125343     -0.309251
      9.84801     16.62719     17.49241         1.118249     -0.722189     -0.257127
     20.15199     13.37281     12.50759        -1.100531      0.707021      0.284868
     13.37281     20.15199     12.50759         0.702456     -1.103077      0.288573
     13.26249     13.26249     12.54279        -0.115354     -0.112657     -0.153079
     15.00000     11.52498     15.00000         0.002996     -0.222142      0.002135
     18.52479     15.00000     10.20639        -0.415638     -0.014515      1.281253
     18.52479     15.00000     19.79360        -0.412931      0.000017     -1.284450
     11.47521     15.00000     10.20640         0.408895     -0.002482      1.281322
     11.47521     15.00000     19.79360         0.358915      0.109318     -1.326407
     11.49535     11.49535     15.00000         0.823593      0.834546      0.000427
     18.50465     18.50465     15.00000        -0.827992     -0.826241      0.001260
     18.50465     11.49535     15.00000        -0.839861      0.823319      0.018227
     11.49535     18.50465     15.00000         0.836384     -0.826431     -0.001471
     15.00000     15.00000     10.04368        -0.001053     -0.003338      1.177273
     15.00000     15.00000     19.95633         0.022558      0.038759     -1.181115
      9.84801     13.37281     17.49241         1.053327      0.753836     -0.305413
     16.62719     20.15199     17.49241        -0.702326     -1.109434     -0.291320
     16.73751     13.26249     17.45721         0.118865     -0.103409      0.142874
     13.26249     16.73751     12.54279        -0.110319      0.108418     -0.155558
     13.26249     13.26249     17.45721        -0.081303     -0.016540      0.034313
     20.15199     13.37281     17.49241        -1.110806      0.698390     -0.290930
     13.37281     20.15199     17.49241         0.711645     -1.105139     -0.292117
     16.73751     16.73751     12.54279         0.105140      0.112593     -0.156634
     11.52498     15.00000     15.00000        -0.218941     -0.008365      0.005323
     18.47502     15.00000     15.00000         0.243492      0.011307     -0.016873
     15.00000     18.52480     10.20639        -0.008631     -0.411236      1.281513
     15.00000     18.52480     19.79360         0.002497     -0.410992     -1.282251
     15.00000     15.00000     15.00000         0.002939     -0.003391      0.001484
     13.26249     16.73751     17.45721        -0.115442      0.113503      0.149170
     16.73751     16.73751     17.45721         0.108588      0.108013      0.159357
     15.00000     18.47502     15.00000         0.009915      0.228315     -0.001876
     12.68923     11.11137     21.26760         1.214280      2.470979     -5.088937
     12.35201     10.54389     22.18227        -0.958911     -2.672776      4.851512
 -----------------------------------------------------------------------------------
    total drift:                                0.000975     -0.001014      0.002935


--------------------------------------------------------------------------------------------------------



  FREE ENERGIE OF THE ION-ELECTRON SYSTEM (eV)
  ---------------------------------------------------
  free  energy   TOTEN  =      -174.99528007 eV

  energy  without entropy=     -174.92129371  energy(sigma->0) =     -174.97678348
 


--------------------------------------------------------------------------------------------------------


    POTLOK:  cpu time   13.3775: real time   13.3776


--------------------------------------------------------------------------------------------------------


     LOOP+:  cpu time18300.9837: real time18301.6054
    4ORBIT:  cpu time    0.0000: real time    0.0000

 total amount of memory used by VASP MPI-rank0  5486940. kBytes
=======================================================================

   base      :      30000. kBytes
   nonlr-proj:      17125. kBytes
   fftplans  :     924480. kBytes
   grid      :    1872000. kBytes
   one-center:        886. kBytes
   wavefun   :    2642449. kBytes
 
  
  
 General timing and accounting informations for this job:
 ========================================================
  
                  Total CPU time used (sec):    18370.938
                            User time (sec):    17388.352
                          System time (sec):      982.587
                         Elapsed time (sec):    18371.667
  
                   Maximum memory used (kb):     7179048.
                   Average memory used (kb):           0.
  
                          Minor page faults:    825339263
                          Major page faults:            0
                 Voluntary context switches:          484
