 vasp.5.4.4.18Apr17-6-g9f103f2a35 (build Sep 03 2018 23:53:05) complex          
  
 executed on             LinuxIFC date 2021.12.01  17:14:22
 running on    1 total cores
 distrk:  each k-point on    1 cores,    1 groups
 distr:  one band on NCORES_PER_BAND=   1 cores,    1 groups


--------------------------------------------------------------------------------------------------------


 INCAR:
 POTCAR:    PAW_PBE Pd 04Jan2005                  
 POTCAR:    PAW_PBE C 08Apr2002                   
 POTCAR:    PAW_PBE O 08Apr2002                   
 POTCAR:    PAW_PBE Pd 04Jan2005                  
   VRHFIN =Pd : s1 d9                                                           
   LEXCH  = PE                                                                  
   EATOM  =   809.7530 eV,   59.5152 Ry                                         
                                                                                
   TITEL  = PAW_PBE Pd 04Jan2005                                                
   LULTRA =        F    use ultrasoft PP ?                                      
   IUNSCR =        1    unscreen: 0-lin 1-nonlin 2-no                           
   RPACOR =    2.000    partial core radius                                     
   POMASS =  106.420; ZVAL   =   10.000    mass and valenz                      
   RCORE  =    2.600    outmost cutoff radius                                   
   RWIGS  =    2.710; RWIGS  =    1.434    wigner-seitz radius (au A)           
   ENMAX  =  250.925; ENMIN  =  188.194 eV                                      
   ICORE  =        3    local potential                                         
   LCOR   =        T    correct aug charges                                     
   LPAW   =        T    paw PP                                                  
   EAUG   =  416.230                                                            
   DEXC   =    0.000                                                            
   RMAX   =    2.653    core radius for proj-oper                               
   RAUG   =    1.300    factor for augmentation sphere                          
   RDEP   =    2.734    radius for radial grids                                 
   RDEPT  =    2.103    core radius for aug-charge                              
                                                                                
   Atomic configuration                                                         
   12 entries                                                                   
     n  l   j            E        occ.                                          
     1  0  0.50    -24164.6631   2.0000                                         
     2  0  0.50     -3530.9218   2.0000                                         
     2  1  1.50     -3165.6822   6.0000                                         
     3  0  0.50      -639.4577   2.0000                                         
     3  1  1.50      -519.4532   6.0000                                         
     3  2  2.50      -328.9757  10.0000                                         
     4  0  0.50       -88.7014   2.0000                                         
     4  1  1.50       -54.4540   6.0000                                         
     4  2  2.50        -6.6878   9.0000                                         
     5  0  0.50        -4.3543   1.0000                                         
     5  1  0.50        -1.3606   0.0000                                         
     4  3  2.50        -1.3606   0.0000                                         
   Description                                                                  
     l       E           TYP  RCUT    TYP  RCUT                                 
     2     -6.6878251     23  2.400                                             
     2     -8.0484077     23  2.400                                             
     0     -4.3542939     23  2.400                                             
     0      4.3406793     23  2.400                                             
     1     -4.0817478     23  2.600                                             
     1     15.8380318     23  2.600                                             
     3     -4.0817478     23  2.400                                             
  local pseudopotential read in
  partial core-charges read in
  partial kinetic energy density read in
  atomic valenz-charges read in
  non local Contribution for L=           2  read in
    real space projection operators read in
  non local Contribution for L=           2  read in
    real space projection operators read in
  non local Contribution for L=           0  read in
    real space projection operators read in
  non local Contribution for L=           0  read in
    real space projection operators read in
  non local Contribution for L=           1  read in
    real space projection operators read in
  non local Contribution for L=           1  read in
    real space projection operators read in
    PAW grid and wavefunctions read in
 
   number of l-projection  operators is LMAX  =           6
   number of lm-projection operators is LMMAX =          18
 
 POTCAR:    PAW_PBE C 08Apr2002                   
   VRHFIN =C: s2p2                                                              
   LEXCH  = PE                                                                  
   EATOM  =   147.1560 eV,   10.8157 Ry                                         
                                                                                
   TITEL  = PAW_PBE C 08Apr2002                                                 
   LULTRA =        F    use ultrasoft PP ?                                      
   IUNSCR =        1    unscreen: 0-lin 1-nonlin 2-no                           
   RPACOR =    1.200    partial core radius                                     
   POMASS =   12.011; ZVAL   =    4.000    mass and valenz                      
   RCORE  =    1.500    outmost cutoff radius                                   
   RWIGS  =    1.630; RWIGS  =    0.863    wigner-seitz radius (au A)           
   ENMAX  =  400.000; ENMIN  =  300.000 eV                                      
   ICORE  =        2    local potential                                         
   LCOR   =        T    correct aug charges                                     
   LPAW   =        T    paw PP                                                  
   EAUG   =  644.873                                                            
   DEXC   =    0.000                                                            
   RMAX   =    1.529    core radius for proj-oper                               
   RAUG   =    1.300    factor for augmentation sphere                          
   RDEP   =    1.501    radius for radial grids                                 
   RDEPT  =    1.300    core radius for aug-charge                              
                                                                                
   Atomic configuration                                                         
    4 entries                                                                   
     n  l   j            E        occ.                                          
     1  0  0.50      -273.3789   2.0000                                         
     2  0  0.50       -13.7508   2.0000                                         
     2  1  0.50        -5.2854   2.0000                                         
     3  2  1.50        -5.4423   0.0000                                         
   Description                                                                  
     l       E           TYP  RCUT    TYP  RCUT                                 
     0    -13.7508458     23  1.200                                             
     0     -8.2022199     23  1.200                                             
     1     -5.2854383     23  1.500                                             
     1     34.0145650     23  1.500                                             
     2     -5.4423304      7  1.500                                             
  local pseudopotential read in
  partial core-charges read in
  partial kinetic energy density read in
  atomic valenz-charges read in
  non local Contribution for L=           0  read in
    real space projection operators read in
  non local Contribution for L=           0  read in
    real space projection operators read in
  non local Contribution for L=           1  read in
    real space projection operators read in
  non local Contribution for L=           1  read in
    real space projection operators read in
    PAW grid and wavefunctions read in
 
   number of l-projection  operators is LMAX  =           4
   number of lm-projection operators is LMMAX =           8
 
 POTCAR:    PAW_PBE O 08Apr2002                   
   VRHFIN =O: s2p4                                                              
   LEXCH  = PE                                                                  
   EATOM  =   432.3788 eV,   31.7789 Ry                                         
                                                                                
   TITEL  = PAW_PBE O 08Apr2002                                                 
   LULTRA =        F    use ultrasoft PP ?                                      
   IUNSCR =        1    unscreen: 0-lin 1-nonlin 2-no                           
   RPACOR =    1.200    partial core radius                                     
   POMASS =   16.000; ZVAL   =    6.000    mass and valenz                      
   RCORE  =    1.520    outmost cutoff radius                                   
   RWIGS  =    1.550; RWIGS  =    0.820    wigner-seitz radius (au A)           
   ENMAX  =  400.000; ENMIN  =  300.000 eV                                      
   ICORE  =        2    local potential                                         
   LCOR   =        T    correct aug charges                                     
   LPAW   =        T    paw PP                                                  
   EAUG   =  605.392                                                            
   DEXC   =    0.000                                                            
   RMAX   =    1.553    core radius for proj-oper                               
   RAUG   =    1.300    factor for augmentation sphere                          
   RDEP   =    1.550    radius for radial grids                                 
   RDEPT  =    1.329    core radius for aug-charge                              
                                                                                
   Atomic configuration                                                         
    4 entries                                                                   
     n  l   j            E        occ.                                          
     1  0  0.50      -514.6923   2.0000                                         
     2  0  0.50       -23.9615   2.0000                                         
     2  1  0.50        -9.0305   4.0000                                         
     3  2  1.50        -9.5241   0.0000                                         
   Description                                                                  
     l       E           TYP  RCUT    TYP  RCUT                                 
     0    -23.9615318     23  1.200                                             
     0     -9.5240782     23  1.200                                             
     1     -9.0304911     23  1.520                                             
     1      8.1634956     23  1.520                                             
     2     -9.5240782      7  1.500                                             
  local pseudopotential read in
  partial core-charges read in
  partial kinetic energy density read in
  kinetic energy density of atom read in
  atomic valenz-charges read in
  non local Contribution for L=           0  read in
    real space projection operators read in
  non local Contribution for L=           0  read in
    real space projection operators read in
  non local Contribution for L=           1  read in
    real space projection operators read in
  non local Contribution for L=           1  read in
    real space projection operators read in
    PAW grid and wavefunctions read in
 
   number of l-projection  operators is LMAX  =           4
   number of lm-projection operators is LMMAX =           8
 
 Optimization of the real space projectors (new method)

 maximal supplied QI-value         = 14.36
 optimisation between [QCUT,QGAM] = [ 10.20, 20.39] = [ 29.12,116.47] Ry 
 Optimized for a Real-space Cutoff    1.51 Angstroem

   l    n(q)    QCUT    max X(q) W(low)/X(q) W(high)/X(q)  e(spline) 
   2      8    10.197    59.108    0.26E-03    0.14E-03    0.96E-07
   2      8    10.197    58.101    0.27E-03    0.14E-03    0.98E-07
   0      9    10.197   102.235    0.54E-04    0.60E-05    0.72E-07
   0      9    10.197    58.388    0.52E-04    0.60E-05    0.68E-07
   1      9    10.197    22.191    0.18E-03    0.25E-03    0.79E-07
   1      9    10.197    15.590    0.15E-03    0.21E-03    0.69E-07
 Optimization of the real space projectors (new method)

 maximal supplied QI-value         = 25.13
 optimisation between [QCUT,QGAM] = [ 10.05, 20.36] = [ 28.30,116.06] Ry 
 Optimized for a Real-space Cutoff    1.30 Angstroem

   l    n(q)    QCUT    max X(q) W(low)/X(q) W(high)/X(q)  e(spline) 
   0      8    10.053   115.676    0.49E-03    0.72E-03    0.18E-06
   0      8    10.053    87.132    0.49E-03    0.71E-03    0.18E-06
   1      7    10.053     4.429    0.32E-03    0.31E-03    0.18E-06
   1      7    10.053     2.733    0.23E-03    0.19E-03    0.20E-06
 Optimization of the real space projectors (new method)

 maximal supplied QI-value         = 24.76
 optimisation between [QCUT,QGAM] = [ 10.15, 20.30] = [ 28.85,115.39] Ry 
 Optimized for a Real-space Cutoff    1.38 Angstroem

   l    n(q)    QCUT    max X(q) W(low)/X(q) W(high)/X(q)  e(spline) 
   0      8    10.150    20.381    0.22E-03    0.32E-03    0.29E-06
   0      8    10.150    15.268    0.23E-03    0.35E-03    0.30E-06
   1      8    10.150     5.964    0.46E-03    0.53E-03    0.21E-06
   1      8    10.150     5.382    0.38E-03    0.45E-03    0.19E-06

 ----------------------------------------------------------------------------- 
|                                                                             |
|  ADVICE TO THIS USER RUNNING 'VASP/VAMP'   (HEAR YOUR MASTER'S VOICE ...):  |
|                                                                             |
|      You enforced a specific xc-type in the INCAR file,                     |
|      a different type was found on the POTCAR file                          |
|          I HOPE YOU KNOW, WHAT YOU ARE  DOING                               |
|                                                                             |
 ----------------------------------------------------------------------------- 

  PAW_PBE Pd 04Jan2005                  :
 energy of atom  1       EATOM= -809.7530
 kinetic energy error for atom=    0.0091 (will be added to EATOM!!)
  PAW_PBE C 08Apr2002                   :
 energy of atom  2       EATOM= -147.1560
 kinetic energy error for atom=    0.0288 (will be added to EATOM!!)
  PAW_PBE O 08Apr2002                   :
 energy of atom  3       EATOM= -432.3788
 kinetic energy error for atom=    0.1156 (will be added to EATOM!!)
 
 
 POSCAR: Pd55PES                                 
  positions in cartesian coordinates
  No initial velocities read in
 exchange correlation table for  LEXCH =        9
   RHO(1)=    0.500       N(1)  =     2000
   RHO(2)=  100.500       N(2)  =     4000
 


--------------------------------------------------------------------------------------------------------


 ion  position               nearest neighbor table
   1  0.446  0.328  0.417-   3 3.25   5 3.25   7 3.36  15 3.36  29 3.42  28 3.42
   2  0.672  0.554  0.417-  26 3.25  30 3.25  17 3.36   9 3.36  47 3.42  49 3.42
   3  0.554  0.328  0.417-   1 3.25   5 3.25   7 3.36  11 3.36  29 3.42  21 3.42
   4  0.328  0.554  0.417-  32 3.25  22 3.25  13 3.36   8 3.36  43 3.42  48 3.42
   5  0.500  0.383  0.340-   1 3.25   3 3.25  11 3.36  15 3.36  21 3.42  28 3.42
   6  0.500  0.383  0.660-  24 3.25  19 3.25  16 3.36  12 3.36  42 3.42  44 3.42
   7  0.500  0.276  0.500-  56 2.28  29 3.24   1 3.36   3 3.36  19 3.36  24 3.36
   8  0.276  0.500  0.500-  48 3.24  22 3.36  40 3.36   4 3.36  25 3.36
   9  0.724  0.500  0.500-  49 3.24  26 3.36  45 3.36   2 3.36  20 3.36
  10  0.500  0.724  0.500-  55 3.24  27 3.36  23 3.36  46 3.36  41 3.36
  11  0.612  0.388  0.342-  21 3.24   5 3.36   3 3.36  30 3.36  26 3.36
  12  0.612  0.388  0.658-  42 3.24  24 3.36  45 3.36   6 3.36  31 3.36
  13  0.388  0.612  0.342-  43 3.24  32 3.36  50 3.36   4 3.36  27 3.36
  14  0.388  0.612  0.658-  53 3.24  25 3.36  33 3.36  51 3.36  46 3.36
  15  0.388  0.388  0.342-  28 3.24   5 3.36   1 3.36  32 3.36  22 3.36
  16  0.388  0.388  0.658-  44 3.24  19 3.36  40 3.36   6 3.36  33 3.36
  17  0.612  0.612  0.342-  47 3.24  30 3.36  50 3.36   2 3.36  23 3.36
  18  0.612  0.612  0.658-  54 3.24  31 3.36  20 3.36  51 3.36  41 3.36
  19  0.446  0.328  0.583-  56 2.48   6 3.25  24 3.25  16 3.36   7 3.36  44 3.42  29 3.42
  20  0.672  0.554  0.583-  31 3.25  45 3.25  18 3.36   9 3.36  54 3.42  49 3.42
  21  0.558  0.442  0.418-  11 3.24   5 3.42   3 3.42  30 3.42  26 3.42
  22  0.328  0.446  0.417-   4 3.25  32 3.25   8 3.36  15 3.36  48 3.42  28 3.42
  23  0.554  0.672  0.417-  27 3.25  50 3.25  10 3.36  17 3.36  55 3.42  47 3.42
  24  0.554  0.328  0.583-   6 3.25  19 3.25  12 3.36   7 3.36  42 3.42  29 3.42
  25  0.328  0.554  0.583-  33 3.25  40 3.25  14 3.36   8 3.36  53 3.42  48 3.42
  26  0.672  0.446  0.417-   2 3.25  30 3.25   9 3.36  11 3.36  49 3.42  21 3.42
  27  0.446  0.672  0.417-  23 3.25  50 3.25  10 3.36  13 3.36  55 3.42  43 3.42
  28  0.442  0.442  0.418-  15 3.24   5 3.42   1 3.42  32 3.42  22 3.42
  29  0.500  0.384  0.500-   7 3.24   3 3.42   1 3.42  24 3.42  19 3.42
  30  0.617  0.500  0.340-   2 3.25  26 3.25  17 3.36  11 3.36  47 3.42  21 3.42
  31  0.617  0.500  0.660-  20 3.25  45 3.25  18 3.36  12 3.36  54 3.42  42 3.42
  32  0.383  0.500  0.340-   4 3.25  22 3.25  13 3.36  15 3.36  43 3.42  28 3.42
  33  0.383  0.500  0.660-  25 3.25  40 3.25  14 3.36  16 3.36  53 3.42  44 3.42
  34  0.383  0.383  0.500-
  35  0.617  0.617  0.500-
  36  0.617  0.383  0.500-
  37  0.383  0.617  0.500-
  38  0.500  0.500  0.335-
  39  0.500  0.500  0.665-
  40  0.328  0.446  0.583-  33 3.25  25 3.25  16 3.36   8 3.36  44 3.42  48 3.42
  41  0.554  0.672  0.583-  46 3.25  51 3.25  10 3.36  18 3.36  54 3.42  55 3.42
  42  0.558  0.442  0.582-  12 3.24   6 3.42  24 3.42  31 3.42  45 3.42
  43  0.442  0.558  0.418-  13 3.24   4 3.42  32 3.42  27 3.42  50 3.42
  44  0.442  0.442  0.582-  16 3.24   6 3.42  19 3.42  33 3.42  40 3.42
  45  0.672  0.446  0.583-  20 3.25  31 3.25   9 3.36  12 3.36  49 3.42  42 3.42
  46  0.446  0.672  0.583-  41 3.25  51 3.25  10 3.36  14 3.36  53 3.42  55 3.42
  47  0.558  0.558  0.418-  17 3.24   2 3.42  30 3.42  23 3.42  50 3.42
  48  0.384  0.500  0.500-   8 3.24   4 3.42  22 3.42  25 3.42  40 3.42
  49  0.616  0.500  0.500-   9 3.24   2 3.42  26 3.42  20 3.42  45 3.42
  50  0.500  0.617  0.340-  27 3.25  23 3.25  13 3.36  17 3.36  43 3.42  47 3.42
  51  0.500  0.617  0.660-  41 3.25  46 3.25  14 3.36  18 3.36  53 3.42  54 3.42
  52  0.500  0.500  0.500-
  53  0.442  0.558  0.582-  14 3.24  25 3.42  33 3.42  51 3.42  46 3.42
  54  0.558  0.558  0.582-  18 3.24  31 3.42  20 3.42  51 3.42  41 3.42
  55  0.500  0.616  0.500-  10 3.24  23 3.42  27 3.42  41 3.42  46 3.42
  56  0.450  0.252  0.552-  57 1.13   7 2.28  19 2.48
  57  0.442  0.216  0.559-  56 1.13
 
  LATTYP: Found a simple cubic cell.
 ALAT       =    30.0000000000
  
  Lattice vectors:
  
 A1 = (  30.0000000000,   0.0000000000,   0.0000000000)
 A2 = (   0.0000000000,  30.0000000000,   0.0000000000)
 A3 = (   0.0000000000,   0.0000000000,  30.0000000000)


Analysis of symmetry for initial positions (statically):
=====================================================================
 Subroutine PRICEL returns:
 Original cell was already a primitive cell.
 

 Routine SETGRP: Setting up the symmetry group for a 
 simple cubic supercell.


 Subroutine GETGRP returns: Found  1 space group operations
 (whereof  1 operations were pure point group operations)
 out of a pool of 48 trial point group operations.


The static configuration has the point symmetry C_1 .


Analysis of symmetry for dynamics (positions and initial velocities):
=====================================================================
 Subroutine PRICEL returns:
 Original cell was already a primitive cell.
 

 Routine SETGRP: Setting up the symmetry group for a 
 simple cubic supercell.


 Subroutine GETGRP returns: Found  1 space group operations
 (whereof  1 operations were pure point group operations)
 out of a pool of 48 trial point group operations.


The dynamic configuration has the point symmetry C_1 .


Analysis of constrained symmetry for selective dynamics:
=====================================================================
 Subroutine PRICEL returns:
 Original cell was already a primitive cell.
 

 Routine SETGRP: Setting up the symmetry group for a 
 simple cubic supercell.


 Subroutine GETGRP returns: Found  1 space group operations
 (whereof  1 operations were pure point group operations)
 out of a pool of 48 trial point group operations.


The constrained configuration has the point symmetry C_1 .


 Subroutine INISYM returns: Found  1 space group operations
 (whereof  1 operations are pure point group operations),
 and found     1 'primitive' translations

 
 
 KPOINTS: K-points                                

Automatic generation of k-mesh.
Space group operators:
 irot       det(A)        alpha          n_x          n_y          n_z        tau_x        tau_y        tau_z
    1     1.000000     0.000000     1.000000     0.000000     0.000000     0.000000     0.000000     0.000000
 
 Subroutine IBZKPT returns following result:
 ===========================================
 
 Found      1 irreducible k-points:
 
 Following reciprocal coordinates:
            Coordinates               Weight
  0.000000  0.000000  0.000000      1.000000
 
 Following cartesian coordinates:
            Coordinates               Weight
  0.000000  0.000000  0.000000      1.000000
 


--------------------------------------------------------------------------------------------------------




 Dimension of arrays:
   k-points           NKPTS =      1   k-points in BZ     NKDIM =      1   number of bands    NBANDS=    336
   number of dos      NEDOS =    301   number of ions     NIONS =     57
   non local maximal  LDIM  =      6   non local SUM 2l+1 LMDIM =     18
   total plane-waves  NPLWV = ******
   max r-space proj   IRMAX =   1847   max aug-charges    IRDMAX=   6262
   dimension x,y,z NGX =   150 NGY =  150 NGZ =  150
   dimension x,y,z NGXF=   300 NGYF=  300 NGZF=  300
   support grid    NGXF=   300 NGYF=  300 NGZF=  300
   ions per type =              55   1   1
   NGX,Y,Z   is equivalent  to a cutoff of   8.31,  8.31,  8.31 a.u.
   NGXF,Y,Z  is equivalent  to a cutoff of  16.62, 16.62, 16.62 a.u.

 SYSTEM =  6_Pd100_top_free_z(O)                   
 POSCAR =  Pd55PES                                 

 Startparameter for this run:
   NWRITE =      2    write-flag & timer
   PREC   = normal    normal or accurate (medium, high low for compatibility)
   ISTART =      0    job   : 0-new  1-cont  2-samecut
   ICHARG =      2    charge: 1-file 2-atom 10-const
   ISPIN  =      1    spin polarized calculation?
   LNONCOLLINEAR =      F non collinear calculations
   LSORBIT =      F    spin-orbit coupling
   INIWAV =      1    electr: 0-lowe 1-rand  2-diag
   LASPH  =      F    aspherical Exc in radial PAW
   METAGGA=      F    non-selfconsistent MetaGGA calc.

 Electronic Relaxation 1
   ENCUT  =  400.0 eV  29.40 Ry    5.42 a.u.  48.92 48.92 48.92*2*pi/ulx,y,z
   ENINI  =  400.0     initial cutoff
   ENAUG  =  644.9 eV  augmentation charge cutoff
   NELM   =    100;   NELMIN=  6; NELMDL= -5     # of ELM steps 
   EDIFF  = 0.1E-03   stopping-criterion for ELM
   LREAL  =      T    real-space projection
   NLSPLINE    = F    spline interpolate recip. space projectors
   LCOMPAT=      F    compatible to vasp.4.4
   GGA_COMPAT  = T    GGA compatible to vasp.4.4-vasp.4.6
   LMAXPAW     = -100 max onsite density
   LMAXMIX     =    2 max onsite mixed and CHGCAR
   VOSKOWN=      0    Vosko Wilk Nusair interpolation
   ROPT   =   -0.00050  -0.00050  -0.00050
 Ionic relaxation
   EDIFFG = -.5E-01   stopping-criterion for IOM
   NSW    =      0    number of steps for IOM
   NBLOCK =      1;   KBLOCK =      1    inner block; outer block 
   IBRION =     -1    ionic relax: 0-MD 1-quasi-New 2-CG
   NFREE  =      1    steps in history (QN), initial steepest desc. (CG)
   ISIF   =      2    stress and relaxation
   IWAVPR =     10    prediction:  0-non 1-charg 2-wave 3-comb
   ISYM   =      2    0-nonsym 1-usesym 2-fastsym
   LCORR  =      T    Harris-Foulkes like correction to forces

   POTIM  = 0.5000    time-step for ionic-motion
   TEIN   =    0.0    initial temperature
   TEBEG  =    0.0;   TEEND  =   0.0 temperature during run
   SMASS  =  -3.00    Nose mass-parameter (am)
   estimated Nose-frequenzy (Omega)   =  0.10E-29 period in steps =****** mass=  -0.206E-25a.u.
   SCALEE = 1.0000    scale energy and forces
   NPACO  =    256;   APACO  = 16.0  distance and # of slots for P.C.
   PSTRESS=    0.0 pullay stress

  Mass of Ions in am
   POMASS = 106.42 12.01 16.00
  Ionic Valenz
   ZVAL   =  10.00  4.00  6.00
  Atomic Wigner-Seitz radii
   RWIGS  =  -1.00 -1.00 -1.00
  virtual crystal weights 
   VCA    =   1.00  1.00  1.00
   NELECT =     560.0000    total number of electrons
   NUPDOWN=      -1.0000    fix difference up-down

 DOS related values:
   EMIN   =  10.00;   EMAX   =-10.00  energy-range for DOS
   EFERMI =   0.00
   ISMEAR =     2;   SIGMA  =   0.20  broadening in eV -4-tet -1-fermi 0-gaus

 Electronic relaxation 2 (details)
   IALGO  =     68    algorithm
   LDIAG  =      T    sub-space diagonalisation (order eigenvalues)
   LSUBROT=      F    optimize rotation matrix (better conditioning)
   TURBO    =      0    0=normal 1=particle mesh
   IRESTART =      0    0=no restart 2=restart with 2 vectors
   NREBOOT  =      0    no. of reboots
   NMIN     =      0    reboot dimension
   EREF     =   0.00    reference energy to select bands
   IMIX   =      4    mixing-type and parameters
     AMIX     =   0.40;   BMIX     =  1.00
     AMIX_MAG =   1.60;   BMIX_MAG =  1.00
     AMIN     =   0.10
     WC   =   100.;   INIMIX=   1;  MIXPRE=   1;  MAXMIX= -45

 Intra band minimization:
   WEIMIN = 0.0000     energy-eigenvalue tresh-hold
   EBREAK =  0.74E-07  absolut break condition
   DEPER  =   0.30     relativ break condition  

   TIME   =   0.40     timestep for ELM

  volume/ion in A,a.u.               =     473.68      3196.58
  Fermi-wavevector in a.u.,A,eV,Ry     =   0.449797  0.849992  2.752691  0.202317
  Thomas-Fermi vector in A             =   1.430086
 
 Write flags
   LWAVE        =      F    write WAVECAR
   LDOWNSAMPLE  =      F    k-point downsampling of WAVECAR
   LCHARG       =      F    write CHGCAR
   LVTOT        =      F    write LOCPOT, total local potential
   LVHAR        =      F    write LOCPOT, Hartree potential only
   LELF         =      F    write electronic localiz. function (ELF)
   LORBIT       =      0    0 simple, 1 ext, 2 COOP (PROOUT), +10 PAW based schemes


 Dipole corrections
   LMONO  =      F    monopole corrections only (constant potential shift)
   LDIPOL =      F    correct potential (dipole corrections)
   IDIPOL =      0    1-x, 2-y, 3-z, 4-all directions 
   EPSILON=  1.0000000 bulk dielectric constant

 Exchange correlation treatment:
   GGA     =    RP    GGA type
   LEXCH   =     9    internal setting for exchange type
   VOSKOWN=      0    Vosko Wilk Nusair interpolation
   LHFCALC =     F    Hartree Fock is set to
   LHFONE  =     F    Hartree Fock one center treatment
   AEXX    =    0.0000 exact exchange contribution

 Linear response parameters
   LEPSILON=     F    determine dielectric tensor
   LRPA    =     F    only Hartree local field effects (RPA)
   LNABLA  =     F    use nabla operator in PAW spheres
   LVEL    =     F    velocity operator in full k-point grid
   LINTERFAST=   F  fast interpolation
   KINTER  =     0    interpolate to denser k-point grid
   CSHIFT  =0.1000    complex shift for real part using Kramers Kronig
   OMEGAMAX=  -1.0    maximum frequency
   DEG_THRESHOLD= 0.2000000E-02 threshold for treating states as degnerate
   RTIME   =   -0.100 relaxation time in fs
  (WPLASMAI=    0.000 imaginary part of plasma frequency in eV, 0.658/RTIME)
   DFIELD  = 0.0000000 0.0000000 0.0000000 field for delta impulse in time
 
 Orbital magnetization related:
   ORBITALMAG=     F  switch on orbital magnetization
   LCHIMAG   =     F  perturbation theory with respect to B field
   DQ        =  0.001000  dq finite difference perturbation B field
   LLRAUG    =     F  two centre corrections for induced B field



--------------------------------------------------------------------------------------------------------


 Static calculation
 charge density and potential will be updated during run
 non-spin polarized calculation
 RMM-DIIS sequential band-by-band and
  variant of blocked Davidson during initial phase
 perform sub-space diagonalisation
    before iterative eigenvector-optimisation
 modified Broyden-mixing scheme, WC =      100.0
 initial mixing is a Kerker type mixing with AMIX =  0.4000 and BMIX =      1.0000
 Hartree-type preconditioning will be used
 using additional bands           56
 real space projection scheme for non local part
 use partial core corrections
 calculate Harris-corrections to forces 
   (improved forces if not selfconsistent)
 use gradient corrections 
 use of overlap-Matrix (Vanderbilt PP)
 Methfessel and Paxton  Order N= 2 SIGMA  =   0.20


--------------------------------------------------------------------------------------------------------


  energy-cutoff  :      400.00
  volume of cell :    27000.00
      direct lattice vectors                 reciprocal lattice vectors
    30.000000000  0.000000000  0.000000000     0.033333333  0.000000000  0.000000000
     0.000000000 30.000000000  0.000000000     0.000000000  0.033333333  0.000000000
     0.000000000  0.000000000 30.000000000     0.000000000  0.000000000  0.033333333

  length of vectors
    30.000000000 30.000000000 30.000000000     0.033333333  0.033333333  0.033333333


 
 k-points in units of 2pi/SCALE and weight: K-points                                
   0.00000000  0.00000000  0.00000000       1.000
 
 k-points in reciprocal lattice and weights: K-points                                
   0.00000000  0.00000000  0.00000000       1.000
 
 position of ions in fractional coordinates (direct lattice) 
   0.44576020  0.32826710  0.41691983
   0.67173288  0.55423978  0.41691983
   0.55423980  0.32826710  0.41691983
   0.32826712  0.55423978  0.41691983
   0.50000000  0.38250690  0.34021317
   0.50000000  0.38250690  0.65978680
   0.50000000  0.27609440  0.50000000
   0.27609443  0.49999998  0.50000000
   0.72390557  0.49999998  0.50000000
   0.50000000  0.72390555  0.50000000
   0.61195280  0.38804720  0.34167483
   0.61195280  0.38804720  0.65832513
   0.38804722  0.61195278  0.34167483
   0.38804722  0.61195278  0.65832513
   0.38804720  0.38804720  0.34167483
   0.38804720  0.38804720  0.65832513
   0.61195278  0.61195278  0.34167483
   0.61195278  0.61195278  0.65832513
   0.44576020  0.32826710  0.58308023
   0.67173288  0.55423978  0.58308023
   0.55791699  0.44208301  0.41809300
   0.32826705  0.44576024  0.41691983
   0.55423973  0.67173293  0.41691983
   0.55423980  0.32826710  0.58308023
   0.32826712  0.55423978  0.58308023
   0.67173295  0.44576024  0.41691983
   0.44576027  0.67173293  0.41691983
   0.44208301  0.44208301  0.41809300
   0.50000000  0.38416601  0.50000000
   0.61749315  0.50000005  0.34021317
   0.61749315  0.50000005  0.65978680
   0.38250685  0.50000005  0.34021317
   0.38250685  0.50000005  0.65978680
   0.38317830  0.38317830  0.50000000
   0.61682172  0.61682172  0.50000000
   0.61682170  0.38317830  0.50000000
   0.38317828  0.61682172  0.50000000
   0.50000000  0.50000000  0.33478917
   0.50000000  0.50000000  0.66521087
   0.32826705  0.44576024  0.58308023
   0.55423973  0.67173293  0.58308023
   0.55791699  0.44208301  0.58190703
   0.44208298  0.55791702  0.41809300
   0.44208301  0.44208301  0.58190703
   0.67173295  0.44576024  0.58308023
   0.44576027  0.67173293  0.58308023
   0.55791702  0.55791702  0.41809300
   0.38416599  0.50000002  0.50000000
   0.61583401  0.50000002  0.50000000
   0.50000000  0.61749319  0.34021317
   0.50000000  0.61749319  0.65978680
   0.50000000  0.50000000  0.50000000
   0.44208298  0.55791702  0.58190703
   0.55791702  0.55791702  0.58190703
   0.50000000  0.61583404  0.50000000
   0.44978647  0.25188180  0.55184290
   0.44247990  0.21577820  0.55938653
 
 position of ions in cartesian coordinates  (Angst):
  13.37280588  9.84801292 12.50759500
  20.15198637 16.62719342 12.50759500
  16.62719412  9.84801292 12.50759500
   9.84801363 16.62719342 12.50759500
  15.00000000 11.47520705 10.20639500
  15.00000000 11.47520705 19.79360400
  15.00000000  8.28283206 15.00000000
   8.28283277 14.99999929 15.00000000
  21.71716723 14.99999929 15.00000000
  15.00000000 21.71716652 14.99999999
  18.35858397 11.64141603 10.25024500
  18.35858397 11.64141603 19.74975399
  11.64141674 18.35858326 10.25024500
  11.64141674 18.35858326 19.74975400
  11.64141603 11.64141603 10.25024500
  11.64141603 11.64141603 19.74975400
  18.35858326 18.35858326 10.25024500
  18.35858326 18.35858326 19.74975400
  13.37280588  9.84801291 17.49240700
  20.15198638 16.62719341 17.49240700
  16.73750985 13.26249015 12.54279000
   9.84801151 13.37280729 12.50759500
  16.62719200 20.15198779 12.50759500
  16.62719412  9.84801292 17.49240700
   9.84801363 16.62719342 17.49240700
  20.15198849 13.37280729 12.50759500
  13.37280800 20.15198779 12.50759500
  13.26249015 13.26249015 12.54279000
  15.00000000 11.52498029 15.00000000
  18.52479437 15.00000140 10.20639500
  18.52479437 15.00000141 19.79360400
  11.47520562 15.00000141 10.20639501
  11.47520563 15.00000141 19.79360400
  11.49534898 11.49534898 15.00000000
  18.50465172 18.50465172 15.00000000
  18.50465102 11.49534898 15.00000000
  11.49534828 18.50465172 15.00000000
  15.00000000 15.00000000 10.04367500
  15.00000000 15.00000000 19.95632599
   9.84801151 13.37280729 17.49240700
  16.62719200 20.15198779 17.49240700
  16.73750985 13.26249015 17.45721100
  13.26248944 16.73751056 12.54279001
  13.26249015 13.26249015 17.45721100
  20.15198849 13.37280729 17.49240699
  13.37280800 20.15198779 17.49240700
  16.73751056 16.73751056 12.54279000
  11.52497959 15.00000071 15.00000000
  18.47502041 15.00000071 15.00000000
  14.99999999 18.52479579 10.20639500
  15.00000000 18.52479578 19.79360400
  15.00000000 15.00000000 15.00000000
  13.26248944 16.73751057 17.45721101
  16.73751056 16.73751057 17.45721100
  15.00000000 18.47502112 15.00000000
  13.49359400  7.55645400 16.55528700
  13.27439700  6.47334600 16.78159600
 


--------------------------------------------------------------------------------------------------------


 k-point  1 :   0.0000 0.0000 0.0000  plane waves:  490521

 maximum and minimum number of plane-waves per node :    490521   490521

 maximum number of plane-waves:    490521
 maximum index in each direction: 
   IXMAX=   48   IYMAX=   48   IZMAX=   48
   IXMIN=  -48   IYMIN=  -48   IZMIN=  -48


 serial   3D FFT for wavefunctions
 parallel 3D FFT for charge:
    minimum data exchange during FFTs selected (reduces bandwidth)


 total amount of memory used by VASP MPI-rank0  5486941. kBytes
=======================================================================

   base      :      30000. kBytes
   nonlr-proj:      17126. kBytes
   fftplans  :     924480. kBytes
   grid      :    1872000. kBytes
   one-center:        886. kBytes
   wavefun   :    2642449. kBytes
 
     INWAV:  cpu time    0.0001: real time    0.0004
 Broyden mixing: mesh for mixing (old mesh)
   NGX = 97   NGY = 97   NGZ = 97
  (NGX  =300   NGY  =300   NGZ  =300)
  gives a total of 912673 points

 initial charge density was supplied:
 charge density of overlapping atoms calculated
 number of electron     560.0000000 magnetization 
 keeping initial charge density in first step


--------------------------------------------------------------------------------------------------------


 Maximum index for non-local projection operator         1763
 Maximum index for augmentation-charges         5898 (set IRDMAX)


--------------------------------------------------------------------------------------------------------


 First call to EWALD:  gamma=   0.059
 Maximum number of real-space cells 3x 3x 3
 Maximum number of reciprocal cells 3x 3x 3

    FEWALD:  cpu time    0.0191: real time    0.0191


--------------------------------------- Iteration      1(   1)  ---------------------------------------


    POTLOK:  cpu time   16.1023: real time   16.1049
    SETDIJ:  cpu time    0.1654: real time    0.1655
     EDDAV:  cpu time  472.1757: real time  472.2844
       DOS:  cpu time    0.0018: real time    0.0018
    --------------------------------------------
      LOOP:  cpu time  488.4452: real time  488.5566

 eigenvalue-minimisations  :   688
 total energy-change (2. order) : 0.4385584E+04  (-0.1005092E+05)
 number of electron     560.0000000 magnetization 
 augmentation part      560.0000000 magnetization 

 Free energy of the ion-electron system (eV)
  ---------------------------------------------------
  alpha Z        PSCENC =        75.25431677
  Ewald energy   TEWEN  =    138013.29857906
  -Hartree energ DENC   =   -181377.10888924
  -exchange      EXHF   =         0.00000000
  -V(xc)+E(xc)   XCENC  =     -1703.26033805
  PAW double counting   =     44873.02882129   -41398.84523641
  entropy T*S    EENTRO =         0.01882161
  eigenvalues    EBANDS =       816.69252473
  atomic energy  EATOM  =     45086.50549395
  Solvation  Ediel_sol  =         0.00000000
  ---------------------------------------------------
  free energy    TOTEN  =      4385.58409372 eV

  energy without entropy =     4385.56527211  energy(sigma->0) =     4385.57938832


--------------------------------------------------------------------------------------------------------




--------------------------------------- Iteration      1(   2)  ---------------------------------------


     EDDAV:  cpu time  756.8829: real time  756.9210
       DOS:  cpu time    0.0017: real time    0.0017
    --------------------------------------------
      LOOP:  cpu time  756.8847: real time  756.9227

 eigenvalue-minimisations  :  1224
 total energy-change (2. order) :-0.2375885E+04  (-0.2137526E+04)
 number of electron     560.0000000 magnetization 
 augmentation part      560.0000000 magnetization 

 Free energy of the ion-electron system (eV)
  ---------------------------------------------------
  alpha Z        PSCENC =        75.25431677
  Ewald energy   TEWEN  =    138013.29857906
  -Hartree energ DENC   =   -181377.10888924
  -exchange      EXHF   =         0.00000000
  -V(xc)+E(xc)   XCENC  =     -1703.26033805
  PAW double counting   =     44873.02882129   -41398.84523641
  entropy T*S    EENTRO =        -0.01186677
  eigenvalues    EBANDS =     -1559.16198602
  atomic energy  EATOM  =     45086.50549395
  Solvation  Ediel_sol  =         0.00000000
  ---------------------------------------------------
  free energy    TOTEN  =      2009.69889459 eV

  energy without entropy =     2009.71076135  energy(sigma->0) =     2009.70186128


--------------------------------------------------------------------------------------------------------




--------------------------------------- Iteration      1(   3)  ---------------------------------------


     EDDAV:  cpu time  635.6687: real time  635.6998
       DOS:  cpu time    0.0015: real time    0.0015
    --------------------------------------------
      LOOP:  cpu time  635.6702: real time  635.7013

 eigenvalue-minimisations  :   992
 total energy-change (2. order) :-0.1772537E+04  (-0.1666879E+04)
 number of electron     560.0000000 magnetization 
 augmentation part      560.0000000 magnetization 

 Free energy of the ion-electron system (eV)
  ---------------------------------------------------
  alpha Z        PSCENC =        75.25431677
  Ewald energy   TEWEN  =    138013.29857906
  -Hartree energ DENC   =   -181377.10888924
  -exchange      EXHF   =         0.00000000
  -V(xc)+E(xc)   XCENC  =     -1703.26033805
  PAW double counting   =     44873.02882129   -41398.84523641
  entropy T*S    EENTRO =        -0.03268418
  eigenvalues    EBANDS =     -3331.67846357
  atomic energy  EATOM  =     45086.50549395
  Solvation  Ediel_sol  =         0.00000000
  ---------------------------------------------------
  free energy    TOTEN  =       237.16159963 eV

  energy without entropy =      237.19428381  energy(sigma->0) =      237.16977067


--------------------------------------------------------------------------------------------------------




--------------------------------------- Iteration      1(   4)  ---------------------------------------


     EDDAV:  cpu time  559.0574: real time  559.0743
       DOS:  cpu time    0.0017: real time    0.0017
    --------------------------------------------
      LOOP:  cpu time  559.0590: real time  559.0760

 eigenvalue-minimisations  :   832
 total energy-change (2. order) :-0.3717257E+03  (-0.3153142E+03)
 number of electron     560.0000000 magnetization 
 augmentation part      560.0000000 magnetization 

 Free energy of the ion-electron system (eV)
  ---------------------------------------------------
  alpha Z        PSCENC =        75.25431677
  Ewald energy   TEWEN  =    138013.29857906
  -Hartree energ DENC   =   -181377.10888924
  -exchange      EXHF   =         0.00000000
  -V(xc)+E(xc)   XCENC  =     -1703.26033805
  PAW double counting   =     44873.02882129   -41398.84523641
  entropy T*S    EENTRO =         0.03996347
  eigenvalues    EBANDS =     -3703.47679851
  atomic energy  EATOM  =     45086.50549395
  Solvation  Ediel_sol  =         0.00000000
  ---------------------------------------------------
  free energy    TOTEN  =      -134.56408767 eV

  energy without entropy =     -134.60405113  energy(sigma->0) =     -134.57407853


--------------------------------------------------------------------------------------------------------




--------------------------------------- Iteration      1(   5)  ---------------------------------------


     EDDAV:  cpu time  687.5446: real time  687.5691
       DOS:  cpu time    0.0018: real time    0.0018
    CHARGE:  cpu time   32.6884: real time   32.6890
    MIXING:  cpu time    0.6083: real time    0.6084
    --------------------------------------------
      LOOP:  cpu time  720.8432: real time  720.8683

 eigenvalue-minimisations  :  1056
 total energy-change (2. order) :-0.4480768E+02  (-0.3692448E+02)
 number of electron     559.9999868 magnetization 
 augmentation part      245.1324823 magnetization 

 Broyden mixing:
  rms(total) = 0.14064E+01    rms(broyden)= 0.14055E+01
  rms(prec ) = 0.15128E+01
  weight for this iteration     100.00

 Free energy of the ion-electron system (eV)
  ---------------------------------------------------
  alpha Z        PSCENC =        75.25431677
  Ewald energy   TEWEN  =    138013.29857906
  -Hartree energ DENC   =   -181377.10888924
  -exchange      EXHF   =         0.00000000
  -V(xc)+E(xc)   XCENC  =     -1703.26033805
  PAW double counting   =     44873.02882129   -41398.84523641
  entropy T*S    EENTRO =         0.48523988
  eigenvalues    EBANDS =     -3748.72975900
  atomic energy  EATOM  =     45086.50549395
  Solvation  Ediel_sol  =         0.00000000
  ---------------------------------------------------
  free energy    TOTEN  =      -179.37177174 eV

  energy without entropy =     -179.85701162  energy(sigma->0) =     -179.49308171


--------------------------------------------------------------------------------------------------------




--------------------------------------- Iteration      1(   6)  ---------------------------------------


    POTLOK:  cpu time   14.8088: real time   14.8099
    SETDIJ:  cpu time    0.1673: real time    0.1673
    EDDIAG:  cpu time   92.8207: real time   92.8232
  RMM-DIIS:  cpu time  229.2941: real time  229.3075
    ORTHCH:  cpu time   20.3639: real time   20.3642
       DOS:  cpu time    0.0019: real time    0.0019
    CHARGE:  cpu time   33.2366: real time   33.2371
    MIXING:  cpu time    0.6104: real time    0.6105
    --------------------------------------------
      LOOP:  cpu time  391.3037: real time  391.3215

 eigenvalue-minimisations  :   734
 total energy-change (2. order) :-0.4103543E+00  (-0.5471406E+01)
 number of electron     559.9999884 magnetization 
 augmentation part      240.6176329 magnetization 

 Broyden mixing:
  rms(total) = 0.23797E+01    rms(broyden)= 0.23795E+01
  rms(prec ) = 0.27723E+01
  weight for this iteration     100.00

 eigenvalues of (default mixing * dielectric matrix)
  average eigenvalue GAMMA=   0.3018
  0.3018

 Free energy of the ion-electron system (eV)
  ---------------------------------------------------
  alpha Z        PSCENC =        75.25431677
  Ewald energy   TEWEN  =    138013.29857906
  -Hartree energ DENC   =   -181781.92432971
  -exchange      EXHF   =         0.00000000
  -V(xc)+E(xc)   XCENC  =     -1696.99400159
  PAW double counting   =     45620.99125303   -42119.96347964
  entropy T*S    EENTRO =        -0.07084665
  eigenvalues    EBANDS =     -3376.87911120
  atomic energy  EATOM  =     45086.50549395
  Solvation  Ediel_sol  =         0.00000000
  ---------------------------------------------------
  free energy    TOTEN  =      -179.78212599 eV

  energy without entropy =     -179.71127934  energy(sigma->0) =     -179.76441433


--------------------------------------------------------------------------------------------------------




--------------------------------------- Iteration      1(   7)  ---------------------------------------


    POTLOK:  cpu time   14.8300: real time   14.8309
    SETDIJ:  cpu time    0.1672: real time    0.1672
    EDDIAG:  cpu time   92.4896: real time   92.4921
  RMM-DIIS:  cpu time  268.2740: real time  268.2849
    ORTHCH:  cpu time   20.5059: real time   20.5063
       DOS:  cpu time    0.0019: real time    0.0019
    CHARGE:  cpu time   33.3056: real time   33.3061
    MIXING:  cpu time    0.6342: real time    0.6342
    --------------------------------------------
      LOOP:  cpu time  430.2084: real time  430.2236

 eigenvalue-minimisations  :   866
 total energy-change (2. order) :-0.1873456E+01  (-0.1989091E+01)
 number of electron     559.9999879 magnetization 
 augmentation part      240.5342178 magnetization 

 Broyden mixing:
  rms(total) = 0.23242E+01    rms(broyden)= 0.23239E+01
  rms(prec ) = 0.27860E+01
  weight for this iteration     100.00

 eigenvalues of (default mixing * dielectric matrix)
  average eigenvalue GAMMA=   0.2891
  0.4405  0.1376

 Free energy of the ion-electron system (eV)
  ---------------------------------------------------
  alpha Z        PSCENC =        75.25431677
  Ewald energy   TEWEN  =    138013.29857906
  -Hartree energ DENC   =   -181857.51615418
  -exchange      EXHF   =         0.00000000
  -V(xc)+E(xc)   XCENC  =     -1697.14555978
  PAW double counting   =     45677.53882504   -42174.17729549
  entropy T*S    EENTRO =        -0.05963987
  eigenvalues    EBANDS =     -3305.35414698
  atomic energy  EATOM  =     45086.50549395
  Solvation  Ediel_sol  =         0.00000000
  ---------------------------------------------------
  free energy    TOTEN  =      -181.65558149 eV

  energy without entropy =     -181.59594162  energy(sigma->0) =     -181.64067152


--------------------------------------------------------------------------------------------------------




--------------------------------------- Iteration      1(   8)  ---------------------------------------


    POTLOK:  cpu time   15.1086: real time   15.1120
    SETDIJ:  cpu time    0.1670: real time    0.1670
    EDDIAG:  cpu time   91.9424: real time   91.9496
  RMM-DIIS:  cpu time  245.5707: real time  245.5786
    ORTHCH:  cpu time   20.3651: real time   20.3656
       DOS:  cpu time    0.0019: real time    0.0019
    CHARGE:  cpu time   33.2573: real time   33.2580
    MIXING:  cpu time    0.6542: real time    0.6542
    --------------------------------------------
      LOOP:  cpu time  407.0672: real time  407.0869

 eigenvalue-minimisations  :   788
 total energy-change (2. order) :-0.1641065E+01  (-0.7124453E+00)
 number of electron     559.9999857 magnetization 
 augmentation part      240.1952084 magnetization 

 Broyden mixing:
  rms(total) = 0.24882E+01    rms(broyden)= 0.24879E+01
  rms(prec ) = 0.29607E+01
  weight for this iteration     100.00

 eigenvalues of (default mixing * dielectric matrix)
  average eigenvalue GAMMA=   0.2881
  0.6013  0.1315  0.1315

 Free energy of the ion-electron system (eV)
  ---------------------------------------------------
  alpha Z        PSCENC =        75.25431677
  Ewald energy   TEWEN  =    138013.29857906
  -Hartree energ DENC   =   -181901.91332012
  -exchange      EXHF   =         0.00000000
  -V(xc)+E(xc)   XCENC  =     -1697.16988703
  PAW double counting   =     45731.87984031   -42226.19752258
  entropy T*S    EENTRO =        -0.15237524
  eigenvalues    EBANDS =     -3264.80177130
  atomic energy  EATOM  =     45086.50549395
  Solvation  Ediel_sol  =         0.00000000
  ---------------------------------------------------
  free energy    TOTEN  =      -183.29664618 eV

  energy without entropy =     -183.14427095  energy(sigma->0) =     -183.25855237


--------------------------------------------------------------------------------------------------------




--------------------------------------- Iteration      1(   9)  ---------------------------------------


    POTLOK:  cpu time   14.7499: real time   14.7525
    SETDIJ:  cpu time    0.1678: real time    0.1678
    EDDIAG:  cpu time   92.5196: real time   92.5223
  RMM-DIIS:  cpu time  229.9133: real time  229.9211
    ORTHCH:  cpu time   20.4201: real time   20.4204
       DOS:  cpu time    0.0019: real time    0.0019
    CHARGE:  cpu time   32.5741: real time   32.5746
    MIXING:  cpu time    0.6825: real time    0.6825
    --------------------------------------------
      LOOP:  cpu time  391.0291: real time  391.0432

 eigenvalue-minimisations  :   733
 total energy-change (2. order) : 0.1309601E+01  (-0.4969439E+00)
 number of electron     559.9999858 magnetization 
 augmentation part      240.8648682 magnetization 

 Broyden mixing:
  rms(total) = 0.22647E+01    rms(broyden)= 0.22644E+01
  rms(prec ) = 0.25858E+01
  weight for this iteration     100.00

 eigenvalues of (default mixing * dielectric matrix)
  average eigenvalue GAMMA=   0.2937
  0.7561  0.1621  0.1621  0.0944

 Free energy of the ion-electron system (eV)
  ---------------------------------------------------
  alpha Z        PSCENC =        75.25431677
  Ewald energy   TEWEN  =    138013.29857906
  -Hartree energ DENC   =   -181919.43576235
  -exchange      EXHF   =         0.00000000
  -V(xc)+E(xc)   XCENC  =     -1697.13871774
  PAW double counting   =     45788.14852372   -42279.99595728
  entropy T*S    EENTRO =        -0.13807689
  eigenvalues    EBANDS =     -3248.48544481
  atomic energy  EATOM  =     45086.50549395
  Solvation  Ediel_sol  =         0.00000000
  ---------------------------------------------------
  free energy    TOTEN  =      -181.98704556 eV

  energy without entropy =     -181.84896867  energy(sigma->0) =     -181.95252634


--------------------------------------------------------------------------------------------------------




--------------------------------------- Iteration      1(  10)  ---------------------------------------


    POTLOK:  cpu time   14.7454: real time   14.7473
    SETDIJ:  cpu time    0.1665: real time    0.1665
    EDDIAG:  cpu time   92.5252: real time   92.5285
  RMM-DIIS:  cpu time  229.4172: real time  229.4241
    ORTHCH:  cpu time   20.3709: real time   20.3711
       DOS:  cpu time    0.0019: real time    0.0019
    CHARGE:  cpu time   33.2118: real time   33.2123
    MIXING:  cpu time    0.7238: real time    0.7238
    --------------------------------------------
      LOOP:  cpu time  391.1627: real time  391.1756

 eigenvalue-minimisations  :   733
 total energy-change (2. order) : 0.1813877E+01  (-0.3306032E+00)
 number of electron     559.9999864 magnetization 
 augmentation part      241.3454896 magnetization 

 Broyden mixing:
  rms(total) = 0.22342E+01    rms(broyden)= 0.22339E+01
  rms(prec ) = 0.26521E+01
  weight for this iteration     100.00

 eigenvalues of (default mixing * dielectric matrix)
  average eigenvalue GAMMA=   0.2703
  0.8139  0.1741  0.1741  0.0948  0.0948

 Free energy of the ion-electron system (eV)
  ---------------------------------------------------
  alpha Z        PSCENC =        75.25431677
  Ewald energy   TEWEN  =    138013.29857906
  -Hartree energ DENC   =   -181949.59653669
  -exchange      EXHF   =         0.00000000
  -V(xc)+E(xc)   XCENC  =     -1696.96903405
  PAW double counting   =     45845.24113764   -42334.70467811
  entropy T*S    EENTRO =        -0.00532097
  eigenvalues    EBANDS =     -3219.19712604
  atomic energy  EATOM  =     45086.50549395
  Solvation  Ediel_sol  =         0.00000000
  ---------------------------------------------------
  free energy    TOTEN  =      -180.17316844 eV

  energy without entropy =     -180.16784747  energy(sigma->0) =     -180.17183820


--------------------------------------------------------------------------------------------------------




--------------------------------------- Iteration      1(  11)  ---------------------------------------


    POTLOK:  cpu time   14.7549: real time   14.7577
    SETDIJ:  cpu time    0.1672: real time    0.1672
    EDDIAG:  cpu time   92.4819: real time   92.4843
  RMM-DIIS:  cpu time  229.2661: real time  229.2742
    ORTHCH:  cpu time   20.3682: real time   20.3685
       DOS:  cpu time    0.0020: real time    0.0020
    CHARGE:  cpu time   33.2267: real time   33.2273
    MIXING:  cpu time    0.7439: real time    0.7439
    --------------------------------------------
      LOOP:  cpu time  391.0108: real time  391.0250

 eigenvalue-minimisations  :   732
 total energy-change (2. order) : 0.1545644E+01  (-0.1557801E+00)
 number of electron     559.9999862 magnetization 
 augmentation part      241.5168286 magnetization 

 Broyden mixing:
  rms(total) = 0.18026E+01    rms(broyden)= 0.18022E+01
  rms(prec ) = 0.21259E+01
  weight for this iteration     100.00

 eigenvalues of (default mixing * dielectric matrix)
  average eigenvalue GAMMA=   0.2574
  0.8685  0.1946  0.1946  0.1089  0.1089  0.0691

 Free energy of the ion-electron system (eV)
  ---------------------------------------------------
  alpha Z        PSCENC =        75.25431677
  Ewald energy   TEWEN  =    138013.29857906
  -Hartree energ DENC   =   -181969.47552897
  -exchange      EXHF   =         0.00000000
  -V(xc)+E(xc)   XCENC  =     -1696.84842917
  PAW double counting   =     45874.46320286   -42362.61633495
  entropy T*S    EENTRO =        -0.05014762
  eigenvalues    EBANDS =     -3199.15867667
  atomic energy  EATOM  =     45086.50549395
  Solvation  Ediel_sol  =         0.00000000
  ---------------------------------------------------
  free energy    TOTEN  =      -178.62752474 eV

  energy without entropy =     -178.57737711  energy(sigma->0) =     -178.61498783


--------------------------------------------------------------------------------------------------------




--------------------------------------- Iteration      1(  12)  ---------------------------------------


    POTLOK:  cpu time   14.7953: real time   14.7988
    SETDIJ:  cpu time    0.1667: real time    0.1667
    EDDIAG:  cpu time   92.5061: real time   92.5089
  RMM-DIIS:  cpu time  226.1583: real time  226.1659
    ORTHCH:  cpu time   20.3682: real time   20.3685
       DOS:  cpu time    0.0021: real time    0.0021
    CHARGE:  cpu time   33.2226: real time   33.2232
    MIXING:  cpu time    0.7773: real time    0.7773
    --------------------------------------------
      LOOP:  cpu time  387.9964: real time  388.0113

 eigenvalue-minimisations  :   722
 total energy-change (2. order) : 0.9879167E+00  (-0.1277686E+00)
 number of electron     559.9999866 magnetization 
 augmentation part      241.5398909 magnetization 

 Broyden mixing:
  rms(total) = 0.14692E+01    rms(broyden)= 0.14689E+01
  rms(prec ) = 0.17139E+01
  weight for this iteration     100.00

 eigenvalues of (default mixing * dielectric matrix)
  average eigenvalue GAMMA=   0.2516
  0.9174  0.2296  0.2296  0.1129  0.1129  0.0961  0.0627

 Free energy of the ion-electron system (eV)
  ---------------------------------------------------
  alpha Z        PSCENC =        75.25431677
  Ewald energy   TEWEN  =    138013.29857906
  -Hartree energ DENC   =   -181989.19127079
  -exchange      EXHF   =         0.00000000
  -V(xc)+E(xc)   XCENC  =     -1696.67301106
  PAW double counting   =     45903.49104178   -42390.29061176
  entropy T*S    EENTRO =        -0.11911278
  eigenvalues    EBANDS =     -3179.91503316
  atomic energy  EATOM  =     45086.50549395
  Solvation  Ediel_sol  =         0.00000000
  ---------------------------------------------------
  free energy    TOTEN  =      -177.63960799 eV

  energy without entropy =     -177.52049521  energy(sigma->0) =     -177.60982979


--------------------------------------------------------------------------------------------------------




--------------------------------------- Iteration      1(  13)  ---------------------------------------


    POTLOK:  cpu time   14.7476: real time   14.7501
    SETDIJ:  cpu time    0.1673: real time    0.1673
    EDDIAG:  cpu time   91.8969: real time   91.9004
  RMM-DIIS:  cpu time  225.2364: real time  225.2464
    ORTHCH:  cpu time   20.1318: real time   20.1321
       DOS:  cpu time    0.0019: real time    0.0019
    CHARGE:  cpu time   33.2257: real time   33.2263
    MIXING:  cpu time    0.8172: real time    0.8172
    --------------------------------------------
      LOOP:  cpu time  386.2248: real time  386.2417

 eigenvalue-minimisations  :   714
 total energy-change (2. order) : 0.1121861E+01  (-0.1020219E+00)
 number of electron     559.9999882 magnetization 
 augmentation part      241.6603315 magnetization 

 Broyden mixing:
  rms(total) = 0.11893E+01    rms(broyden)= 0.11889E+01
  rms(prec ) = 0.13802E+01
  weight for this iteration     100.00

 eigenvalues of (default mixing * dielectric matrix)
  average eigenvalue GAMMA=   0.2607
  0.9909  0.2948  0.2948  0.1220  0.1220  0.1026  0.1026  0.0559

 Free energy of the ion-electron system (eV)
  ---------------------------------------------------
  alpha Z        PSCENC =        75.25431677
  Ewald energy   TEWEN  =    138013.29857906
  -Hartree energ DENC   =   -182008.40391693
  -exchange      EXHF   =         0.00000000
  -V(xc)+E(xc)   XCENC  =     -1696.44626920
  PAW double counting   =     45932.64720808   -42418.02347158
  entropy T*S    EENTRO =        -0.09217474
  eigenvalues    EBANDS =     -3161.25751203
  atomic energy  EATOM  =     45086.50549395
  Solvation  Ediel_sol  =         0.00000000
  ---------------------------------------------------
  free energy    TOTEN  =      -176.51774663 eV

  energy without entropy =     -176.42557188  energy(sigma->0) =     -176.49470294


--------------------------------------------------------------------------------------------------------




--------------------------------------- Iteration      1(  14)  ---------------------------------------


    POTLOK:  cpu time   14.7087: real time   14.7121
    SETDIJ:  cpu time    0.1665: real time    0.1665
    EDDIAG:  cpu time   92.6266: real time   92.6317
  RMM-DIIS:  cpu time  225.5443: real time  225.5514
    ORTHCH:  cpu time   20.3337: real time   20.3340
       DOS:  cpu time    0.0020: real time    0.0020
    CHARGE:  cpu time   33.2059: real time   33.2064
    MIXING:  cpu time    0.8539: real time    0.8539
    --------------------------------------------
      LOOP:  cpu time  387.4416: real time  387.4579

 eigenvalue-minimisations  :   720
 total energy-change (2. order) :-0.1449035E+00  (-0.9338368E-01)
 number of electron     559.9999861 magnetization 
 augmentation part      241.6318117 magnetization 

 Broyden mixing:
  rms(total) = 0.18286E+01    rms(broyden)= 0.18284E+01
  rms(prec ) = 0.21333E+01
  weight for this iteration     100.00

 eigenvalues of (default mixing * dielectric matrix)
  average eigenvalue GAMMA=   0.2755
  1.1149  0.4237  0.3199  0.1584  0.1147  0.1147  0.1081  0.0703  0.0544

 Free energy of the ion-electron system (eV)
  ---------------------------------------------------
  alpha Z        PSCENC =        75.25431677
  Ewald energy   TEWEN  =    138013.29857906
  -Hartree energ DENC   =   -182030.19145630
  -exchange      EXHF   =         0.00000000
  -V(xc)+E(xc)   XCENC  =     -1696.08857431
  PAW double counting   =     45969.96603640   -42453.37027684
  entropy T*S    EENTRO =         0.00559734
  eigenvalues    EBANDS =     -3142.04236616
  atomic energy  EATOM  =     45086.50549395
  Solvation  Ediel_sol  =         0.00000000
  ---------------------------------------------------
  free energy    TOTEN  =      -176.66265009 eV

  energy without entropy =     -176.66824743  energy(sigma->0) =     -176.66404943


--------------------------------------------------------------------------------------------------------




--------------------------------------- Iteration      1(  15)  ---------------------------------------


    POTLOK:  cpu time   14.6778: real time   14.6810
    SETDIJ:  cpu time    0.1671: real time    0.1671
    EDDIAG:  cpu time   91.8465: real time   91.8495
  RMM-DIIS:  cpu time  225.2142: real time  225.2273
    ORTHCH:  cpu time   20.3179: real time   20.3183
       DOS:  cpu time    0.0020: real time    0.0020
    CHARGE:  cpu time   32.8021: real time   32.8027
    MIXING:  cpu time    0.9060: real time    0.9060
    --------------------------------------------
      LOOP:  cpu time  385.9337: real time  385.9539

 eigenvalue-minimisations  :   714
 total energy-change (2. order) :-0.2263266E+00  (-0.1133032E+00)
 number of electron     559.9999874 magnetization 
 augmentation part      241.1781966 magnetization 

 Broyden mixing:
  rms(total) = 0.16759E+01    rms(broyden)= 0.16757E+01
  rms(prec ) = 0.20138E+01
  weight for this iteration     100.00

 eigenvalues of (default mixing * dielectric matrix)
  average eigenvalue GAMMA=   0.2773
  1.2062  0.5911  0.2555  0.1221  0.1221  0.1533  0.1189  0.0891  0.0617  0.0529

 Free energy of the ion-electron system (eV)
  ---------------------------------------------------
  alpha Z        PSCENC =        75.25431677
  Ewald energy   TEWEN  =    138013.29857906
  -Hartree energ DENC   =   -182078.48965991
  -exchange      EXHF   =         0.00000000
  -V(xc)+E(xc)   XCENC  =     -1695.43894931
  PAW double counting   =     46032.29520763   -42512.40282478
  entropy T*S    EENTRO =        -0.05869077
  eigenvalues    EBANDS =     -3097.85244931
  atomic energy  EATOM  =     45086.50549395
  Solvation  Ediel_sol  =         0.00000000
  ---------------------------------------------------
  free energy    TOTEN  =      -176.88897667 eV

  energy without entropy =     -176.83028590  energy(sigma->0) =     -176.87430398


--------------------------------------------------------------------------------------------------------




--------------------------------------- Iteration      1(  16)  ---------------------------------------


    POTLOK:  cpu time   14.7106: real time   14.7128
    SETDIJ:  cpu time    0.1672: real time    0.1672
    EDDIAG:  cpu time   92.5399: real time   92.5428
  RMM-DIIS:  cpu time  225.6451: real time  225.6532
    ORTHCH:  cpu time   20.3625: real time   20.3628
       DOS:  cpu time    0.0019: real time    0.0019
    CHARGE:  cpu time   33.2370: real time   33.2376
    MIXING:  cpu time    0.9420: real time    0.9420
    --------------------------------------------
      LOOP:  cpu time  387.6062: real time  387.6203

 eigenvalue-minimisations  :   720
 total energy-change (2. order) : 0.5617728E+00  (-0.6840928E-01)
 number of electron     559.9999864 magnetization 
 augmentation part      241.0671534 magnetization 

 Broyden mixing:
  rms(total) = 0.14199E+01    rms(broyden)= 0.14197E+01
  rms(prec ) = 0.16523E+01
  weight for this iteration     100.00

 eigenvalues of (default mixing * dielectric matrix)
  average eigenvalue GAMMA=   0.2884
  1.3710  0.6927  0.2257  0.1929  0.1929  0.1090  0.1090  0.0856  0.0856  0.0577
  0.0498

 Free energy of the ion-electron system (eV)
  ---------------------------------------------------
  alpha Z        PSCENC =        75.25431677
  Ewald energy   TEWEN  =    138013.29857906
  -Hartree energ DENC   =   -182105.35684237
  -exchange      EXHF   =         0.00000000
  -V(xc)+E(xc)   XCENC  =     -1695.07452684
  PAW double counting   =     46065.65527085   -42543.95304930
  entropy T*S    EENTRO =        -0.09070859
  eigenvalues    EBANDS =     -3072.56573737
  atomic energy  EATOM  =     45086.50549395
  Solvation  Ediel_sol  =         0.00000000
  ---------------------------------------------------
  free energy    TOTEN  =      -176.32720384 eV

  energy without entropy =     -176.23649525  energy(sigma->0) =     -176.30452670


--------------------------------------------------------------------------------------------------------




--------------------------------------- Iteration      1(  17)  ---------------------------------------


    POTLOK:  cpu time   14.7243: real time   14.7267
    SETDIJ:  cpu time    0.1665: real time    0.1666
    EDDIAG:  cpu time   91.7495: real time   91.7531
  RMM-DIIS:  cpu time  222.1249: real time  222.1331
    ORTHCH:  cpu time   20.4135: real time   20.4160
       DOS:  cpu time    0.0020: real time    0.0020
    CHARGE:  cpu time   32.5654: real time   32.5659
    MIXING:  cpu time    1.0005: real time    1.0005
    --------------------------------------------
      LOOP:  cpu time  382.7466: real time  382.7639

 eigenvalue-minimisations  :   703
 total energy-change (2. order) : 0.9161472E-01  (-0.6969361E-01)
 number of electron     559.9999879 magnetization 
 augmentation part      241.1180528 magnetization 

 Broyden mixing:
  rms(total) = 0.19712E+01    rms(broyden)= 0.19710E+01
  rms(prec ) = 0.23180E+01
  weight for this iteration     100.00

 eigenvalues of (default mixing * dielectric matrix)
  average eigenvalue GAMMA=   0.2844
  1.4248  0.7428  0.2377  0.2377  0.2120  0.1106  0.1106  0.0850  0.0850  0.0684
  0.0536  0.0451

 Free energy of the ion-electron system (eV)
  ---------------------------------------------------
  alpha Z        PSCENC =        75.25431677
  Ewald energy   TEWEN  =    138013.29857906
  -Hartree energ DENC   =   -182130.47957266
  -exchange      EXHF   =         0.00000000
  -V(xc)+E(xc)   XCENC  =     -1694.69676876
  PAW double counting   =     46100.39013660   -42576.72795009
  entropy T*S    EENTRO =         0.10119175
  eigenvalues    EBANDS =     -3049.88101574
  atomic energy  EATOM  =     45086.50549395
  Solvation  Ediel_sol  =         0.00000000
  ---------------------------------------------------
  free energy    TOTEN  =      -176.23558912 eV

  energy without entropy =     -176.33678087  energy(sigma->0) =     -176.26088706


--------------------------------------------------------------------------------------------------------




--------------------------------------- Iteration      1(  18)  ---------------------------------------


    POTLOK:  cpu time   14.6775: real time   14.6806
    SETDIJ:  cpu time    0.1665: real time    0.1665
    EDDIAG:  cpu time   92.5765: real time   92.5795
  RMM-DIIS:  cpu time  222.3041: real time  222.3112
    ORTHCH:  cpu time   20.3660: real time   20.3664
       DOS:  cpu time    0.0020: real time    0.0020
    CHARGE:  cpu time   33.2268: real time   33.2274
    MIXING:  cpu time    1.0412: real time    1.0412
    --------------------------------------------
      LOOP:  cpu time  384.3607: real time  384.3747

 eigenvalue-minimisations  :   709
 total energy-change (2. order) : 0.5125890E+00  (-0.4005059E-01)
 number of electron     559.9999879 magnetization 
 augmentation part      241.0858599 magnetization 

 Broyden mixing:
  rms(total) = 0.12973E+01    rms(broyden)= 0.12971E+01
  rms(prec ) = 0.14911E+01
  weight for this iteration     100.00

 eigenvalues of (default mixing * dielectric matrix)
  average eigenvalue GAMMA=   0.2872
  1.4592  0.8311  0.3026  0.3026  0.1914  0.1140  0.1140  0.0875  0.0875  0.0852
  0.0655  0.0526  0.0406

 Free energy of the ion-electron system (eV)
  ---------------------------------------------------
  alpha Z        PSCENC =        75.25431677
  Ewald energy   TEWEN  =    138013.29857906
  -Hartree energ DENC   =   -182140.25880109
  -exchange      EXHF   =         0.00000000
  -V(xc)+E(xc)   XCENC  =     -1694.57275738
  PAW double counting   =     46111.15107196   -42586.82915190
  entropy T*S    EENTRO =        -0.06300160
  eigenvalues    EBANDS =     -3040.20874988
  atomic energy  EATOM  =     45086.50549395
  Solvation  Ediel_sol  =         0.00000000
  ---------------------------------------------------
  free energy    TOTEN  =      -175.72300011 eV

  energy without entropy =     -175.65999852  energy(sigma->0) =     -175.70724971


--------------------------------------------------------------------------------------------------------




--------------------------------------- Iteration      1(  19)  ---------------------------------------


    POTLOK:  cpu time   14.6702: real time   14.6732
    SETDIJ:  cpu time    0.1670: real time    0.1670
    EDDIAG:  cpu time   92.6695: real time   92.6735
  RMM-DIIS:  cpu time  224.0632: real time  224.0747
    ORTHCH:  cpu time   20.5272: real time   20.5276
       DOS:  cpu time    0.0019: real time    0.0019
    CHARGE:  cpu time   33.2905: real time   33.2911
    MIXING:  cpu time    1.0880: real time    1.0880
    --------------------------------------------
      LOOP:  cpu time  386.4776: real time  386.4971

 eigenvalue-minimisations  :   712
 total energy-change (2. order) : 0.1257468E+00  (-0.4343207E-01)
 number of electron     559.9999881 magnetization 
 augmentation part      241.0724018 magnetization 

 Broyden mixing:
  rms(total) = 0.94635E+00    rms(broyden)= 0.94614E+00
  rms(prec ) = 0.10962E+01
  weight for this iteration     100.00

 eigenvalues of (default mixing * dielectric matrix)
  average eigenvalue GAMMA=   0.3074
  1.4137  1.2097  0.3620  0.3620  0.1632  0.1632  0.1131  0.1131  0.0889  0.0889
  0.0662  0.0662  0.0530  0.0405

 Free energy of the ion-electron system (eV)
  ---------------------------------------------------
  alpha Z        PSCENC =        75.25431677
  Ewald energy   TEWEN  =    138013.29857906
  -Hartree energ DENC   =   -182150.99578506
  -exchange      EXHF   =         0.00000000
  -V(xc)+E(xc)   XCENC  =     -1694.45042808
  PAW double counting   =     46119.89626987   -42594.84394800
  entropy T*S    EENTRO =        -0.02226656
  eigenvalues    EBANDS =     -3030.23948524
  atomic energy  EATOM  =     45086.50549395
  Solvation  Ediel_sol  =         0.00000000
  ---------------------------------------------------
  free energy    TOTEN  =      -175.59725329 eV

  energy without entropy =     -175.57498674  energy(sigma->0) =     -175.59168665


--------------------------------------------------------------------------------------------------------




--------------------------------------- Iteration      1(  20)  ---------------------------------------


    POTLOK:  cpu time   14.8985: real time   14.9017
    SETDIJ:  cpu time    0.1671: real time    0.1671
    EDDIAG:  cpu time   92.1525: real time   92.1564
  RMM-DIIS:  cpu time  221.4925: real time  221.5068
    ORTHCH:  cpu time   20.3740: real time   20.3743
       DOS:  cpu time    0.0020: real time    0.0020
    CHARGE:  cpu time   33.2250: real time   33.2256
    MIXING:  cpu time    1.1515: real time    1.1515
    --------------------------------------------
      LOOP:  cpu time  383.4631: real time  383.4854

 eigenvalue-minimisations  :   706
 total energy-change (2. order) :-0.1980632E+00  (-0.4058131E-01)
 number of electron     559.9999874 magnetization 
 augmentation part      241.0795095 magnetization 

 Broyden mixing:
  rms(total) = 0.13738E+01    rms(broyden)= 0.13737E+01
  rms(prec ) = 0.15926E+01
  weight for this iteration     100.00

 eigenvalues of (default mixing * dielectric matrix)
  average eigenvalue GAMMA=   0.3061
  1.5984  1.1706  0.3844  0.3844  0.1774  0.1774  0.1112  0.1112  0.0887  0.0887
  0.0714  0.0668  0.0668  0.0532  0.0405

 Free energy of the ion-electron system (eV)
  ---------------------------------------------------
  alpha Z        PSCENC =        75.25431677
  Ewald energy   TEWEN  =    138013.29857906
  -Hartree energ DENC   =   -182174.31458239
  -exchange      EXHF   =         0.00000000
  -V(xc)+E(xc)   XCENC  =     -1694.19853559
  PAW double counting   =     46131.26823534   -42604.93296159
  entropy T*S    EENTRO =         0.02868214
  eigenvalues    EBANDS =     -3008.70454421
  atomic energy  EATOM  =     45086.50549395
  Solvation  Ediel_sol  =         0.00000000
  ---------------------------------------------------
  free energy    TOTEN  =      -175.79531652 eV

  energy without entropy =     -175.82399866  energy(sigma->0) =     -175.80248706


--------------------------------------------------------------------------------------------------------




--------------------------------------- Iteration      1(  21)  ---------------------------------------


    POTLOK:  cpu time   14.6108: real time   14.6138
    SETDIJ:  cpu time    0.1669: real time    0.1669
    EDDIAG:  cpu time   92.6560: real time   92.6586
  RMM-DIIS:  cpu time  221.2713: real time  221.2781
    ORTHCH:  cpu time   20.2833: real time   20.2837
       DOS:  cpu time    0.0020: real time    0.0020
    CHARGE:  cpu time   33.4563: real time   33.4569
    MIXING:  cpu time    1.2026: real time    1.2026
    --------------------------------------------
      LOOP:  cpu time  383.6492: real time  383.6626

 eigenvalue-minimisations  :   704
 total energy-change (2. order) :-0.3603395E-01  (-0.2252700E-01)
 number of electron     559.9999897 magnetization 
 augmentation part      241.2056895 magnetization 

 Broyden mixing:
  rms(total) = 0.22046E+01    rms(broyden)= 0.22045E+01
  rms(prec ) = 0.25450E+01
  weight for this iteration     100.00

 eigenvalues of (default mixing * dielectric matrix)
  average eigenvalue GAMMA=   0.3020
  1.7639  1.1023  0.4156  0.4156  0.1915  0.1915  0.1115  0.1115  0.0902  0.0902
  0.0870  0.0681  0.0681  0.0530  0.0400  0.0323

 Free energy of the ion-electron system (eV)
  ---------------------------------------------------
  alpha Z        PSCENC =        75.25431677
  Ewald energy   TEWEN  =    138013.29857906
  -Hartree energ DENC   =   -182184.99998612
  -exchange      EXHF   =         0.00000000
  -V(xc)+E(xc)   XCENC  =     -1694.07532525
  PAW double counting   =     46138.49587384   -42611.49412642
  entropy T*S    EENTRO =         0.16312812
  eigenvalues    EBANDS =     -2998.97930442
  atomic energy  EATOM  =     45086.50549395
  Solvation  Ediel_sol  =         0.00000000
  ---------------------------------------------------
  free energy    TOTEN  =      -175.83135047 eV

  energy without entropy =     -175.99447859  energy(sigma->0) =     -175.87213250


--------------------------------------------------------------------------------------------------------




--------------------------------------- Iteration      1(  22)  ---------------------------------------


    POTLOK:  cpu time   14.6888: real time   14.6922
    SETDIJ:  cpu time    0.1671: real time    0.1671
    EDDIAG:  cpu time   93.0760: real time   93.0895
  RMM-DIIS:  cpu time  218.4268: real time  218.4331
    ORTHCH:  cpu time   20.3599: real time   20.3602
       DOS:  cpu time    0.0020: real time    0.0020
    CHARGE:  cpu time   33.2352: real time   33.2358
    MIXING:  cpu time    1.2671: real time    1.2671
    --------------------------------------------
      LOOP:  cpu time  381.2228: real time  381.2470

 eigenvalue-minimisations  :   698
 total energy-change (2. order) : 0.4458983E+00  (-0.2360073E-01)
 number of electron     559.9999871 magnetization 
 augmentation part      241.1791944 magnetization 

 Broyden mixing:
  rms(total) = 0.10057E+01    rms(broyden)= 0.10056E+01
  rms(prec ) = 0.11875E+01
  weight for this iteration     100.00

 eigenvalues of (default mixing * dielectric matrix)
  average eigenvalue GAMMA=   0.3049
  1.7908  1.2296  0.4424  0.4424  0.2138  0.2138  0.1118  0.1118  0.1118  0.0882
  0.0882  0.0891  0.0618  0.0618  0.0535  0.0402  0.0322

 Free energy of the ion-electron system (eV)
  ---------------------------------------------------
  alpha Z        PSCENC =        75.25431677
  Ewald energy   TEWEN  =    138013.29857906
  -Hartree energ DENC   =   -182192.26750958
  -exchange      EXHF   =         0.00000000
  -V(xc)+E(xc)   XCENC  =     -1694.00740061
  PAW double counting   =     46143.68180688   -42616.23440711
  entropy T*S    EENTRO =         0.01451076
  eigenvalues    EBANDS =     -2991.63084227
  atomic energy  EATOM  =     45086.50549395
  Solvation  Ediel_sol  =         0.00000000
  ---------------------------------------------------
  free energy    TOTEN  =      -175.38545215 eV

  energy without entropy =     -175.39996291  energy(sigma->0) =     -175.38907984


--------------------------------------------------------------------------------------------------------




--------------------------------------- Iteration      1(  23)  ---------------------------------------


    POTLOK:  cpu time   14.5973: real time   14.5999
    SETDIJ:  cpu time    0.1669: real time    0.1669
    EDDIAG:  cpu time   92.6569: real time   92.6598
  RMM-DIIS:  cpu time  220.4396: real time  220.4570
    ORTHCH:  cpu time   20.4213: real time   20.4240
       DOS:  cpu time    0.0020: real time    0.0020
    CHARGE:  cpu time   33.3924: real time   33.3920
    MIXING:  cpu time    1.3689: real time    1.3689
    --------------------------------------------
      LOOP:  cpu time  383.0453: real time  383.0706

 eigenvalue-minimisations  :   704
 total energy-change (2. order) : 0.1761785E+00  (-0.2259959E-01)
 number of electron     559.9999860 magnetization 
 augmentation part      241.1295176 magnetization 

 Broyden mixing:
  rms(total) = 0.63300E+00    rms(broyden)= 0.63284E+00
  rms(prec ) = 0.70910E+00
  weight for this iteration     100.00

 eigenvalues of (default mixing * dielectric matrix)
  average eigenvalue GAMMA=   0.3106
[...]
 -0.006  -0.009   0.002   0.003   0.007  -0.006  -0.009   0.002
 -0.010  -0.016   0.003   0.006   0.012  -0.010  -0.015   0.003
 -0.014  -0.003   0.013   0.000   0.023  -0.014  -0.003   0.013
  0.000  -0.024  -0.004  -0.015  -0.000   0.000  -0.023  -0.004
 -0.023   0.000   0.009  -0.003  -0.015  -0.022   0.000   0.008
 -0.017  -0.004   0.016   0.000   0.028  -0.017  -0.004   0.015
  0.000  -0.029  -0.005  -0.018  -0.000   0.000  -0.028  -0.005
 -0.028   0.000   0.010  -0.004  -0.018  -0.027   0.000   0.010
 total augmentation occupancy for first ion, spin component:           1
  1.513  -0.020  -0.012   0.022   0.039   0.085  -0.009   0.001   0.033  -0.014   0.076  -0.028   0.013   0.002  -0.000  -0.019
 -0.020   1.403   0.011   0.047   0.009  -0.009   0.073   0.016  -0.008  -0.009   0.197  -0.054   0.015   0.007   0.002  -0.005
 -0.012   0.011   1.527   0.024   0.000   0.001   0.017   0.081  -0.018   0.020  -0.035   0.010   0.000  -0.012  -0.005   0.016
  0.022   0.047   0.024   1.319   0.019   0.031  -0.007  -0.018   0.096  -0.015  -0.063   0.016  -0.000  -0.009  -0.001   0.001
  0.039   0.009   0.000   0.019   1.414  -0.014  -0.009   0.018  -0.015   0.076  -0.092   0.036  -0.007  -0.006  -0.007   0.027
  0.085  -0.009   0.001   0.031  -0.014   0.219   0.020  -0.003  -0.046   0.005  -0.047   0.002   0.016  -0.010   0.035  -0.004
 -0.009   0.073   0.017  -0.007  -0.009   0.020   0.271  -0.026  -0.007   0.008  -0.109   0.010  -0.000   0.052  -0.009  -0.000
  0.001   0.016   0.081  -0.018   0.018  -0.003  -0.026   0.219   0.017  -0.019   0.025  -0.002  -0.013   0.008  -0.018   0.003
  0.033  -0.008  -0.018   0.096  -0.015  -0.046  -0.007   0.017   0.266   0.005   0.043  -0.005  -0.009   0.036   0.004   0.000
 -0.014  -0.009   0.020  -0.015   0.076   0.005   0.008  -0.019   0.005   0.260   0.045  -0.001  -0.038   0.002   0.049   0.008
  0.076   0.197  -0.035  -0.063  -0.092  -0.047  -0.109   0.025   0.043   0.045   0.940  -0.139   0.086   0.010   0.063  -0.012
 -0.028  -0.054   0.010   0.016   0.036   0.002   0.010  -0.002  -0.005  -0.001  -0.139   0.022  -0.014  -0.003  -0.009   0.003
  0.013   0.015   0.000  -0.000  -0.007   0.016  -0.000  -0.013  -0.009  -0.038   0.086  -0.014   0.029  -0.008  -0.004  -0.003
  0.002   0.007  -0.012  -0.009  -0.006  -0.010   0.052   0.008   0.036   0.002   0.010  -0.003  -0.008   0.035   0.004   0.000
 -0.000   0.002  -0.005  -0.001  -0.007   0.035  -0.009  -0.018   0.004   0.049   0.063  -0.009  -0.004   0.004   0.035  -0.000
 -0.019  -0.005   0.016   0.001   0.027  -0.004  -0.000   0.003   0.000   0.008  -0.012   0.003  -0.003   0.000  -0.000   0.001
  0.001  -0.029  -0.004  -0.018   0.000   0.001  -0.009  -0.001  -0.006  -0.000  -0.003   0.001   0.000  -0.003  -0.000   0.000
 -0.029   0.001   0.012  -0.004  -0.020  -0.007   0.001   0.003  -0.001  -0.007  -0.008   0.001  -0.000  -0.000  -0.003   0.000


------------------------ aborting loop because EDIFF is reached ----------------------------------------


    CHARGE:  cpu time   22.8744: real time   22.8744
    FORLOC:  cpu time    6.3662: real time    6.3662
    FORNL :  cpu time   66.3923: real time   66.3923
    STRESS:  cpu time  193.5995: real time  193.6011
    FORCOR:  cpu time   21.0932: real time   21.0934
    FORHAR:  cpu time    8.9224: real time    8.9224
    MIXING:  cpu time    3.6178: real time    3.6178
    OFIELD:  cpu time    0.0000: real time    0.0000

  FORCE on cell =-STRESS in cart. coord.  units (eV):
  Direction    XX          YY          ZZ          XY          YZ          ZX
  --------------------------------------------------------------------------------------
  Alpha Z    75.25432    75.25432    75.25432
  Ewald   44037.81754 49759.93011 44215.44527   924.56680  -771.25612  -342.46383
  Hartree 58938.70073 64336.45719 59098.55720   835.19545  -712.88391  -282.11241
  E(xc)   -2905.04924 -2903.39045 -2905.12144     0.61045    -0.21897    -0.61376
  Local  ************************************ -1751.63496  1478.51782   619.98595
  n-local  -882.67829  -890.49600  -883.60732    -0.44837    -0.02652     0.98017
  augment  4103.58797  4102.83014  4104.89305    -1.51001     0.45699     1.33730
  Kinetic  7810.09010  7791.30895  7811.99615    -6.15956     3.64086     4.11720
  Fock        0.00000     0.00000     0.00000     0.00000     0.00000     0.00000
  -------------------------------------------------------------------------------------
  Total    -114.71080  -111.53402  -114.89886     0.61979    -1.76985     1.23063
  in kB      -6.80693    -6.61842    -6.81809     0.03678    -0.10502     0.07303
  external pressure =       -6.75 kB  Pullay stress =        0.00 kB


 VOLUME and BASIS-vectors are now :
 -----------------------------------------------------------------------------
  energy-cutoff  :      400.00
  volume of cell :    27000.00
      direct lattice vectors                 reciprocal lattice vectors
    30.000000000  0.000000000  0.000000000     0.033333333  0.000000000  0.000000000
     0.000000000 30.000000000  0.000000000     0.000000000  0.033333333  0.000000000
     0.000000000  0.000000000 30.000000000     0.000000000  0.000000000  0.033333333

  length of vectors
    30.000000000 30.000000000 30.000000000     0.033333333  0.033333333  0.033333333


 FORCES acting on ions
    electron-ion (+dipol)            ewald-force                    non-local-force                 convergence-correction
 -----------------------------------------------------------------------------------------------
   0.394E+03 0.940E+03 0.460E+03   -.392E+03 -.937E+03 -.460E+03   -.153E+01 -.191E+01 -.123E+00   -.769E-03 0.328E-02 0.194E-02
   -.974E+03 -.398E+03 0.418E+03   0.971E+03 0.396E+03 -.418E+03   0.182E+01 0.151E+01 -.212E+00   0.933E-04 0.489E-03 0.275E-02
   -.414E+03 0.952E+03 0.442E+03   0.412E+03 -.949E+03 -.442E+03   0.158E+01 -.182E+01 -.386E+00   -.167E-02 0.196E-03 0.895E-03
   0.973E+03 -.401E+03 0.419E+03   -.970E+03 0.399E+03 -.419E+03   -.182E+01 0.150E+01 -.215E+00   0.356E-02 0.184E-04 -.191E-02
   -.424E+01 0.574E+03 0.980E+03   0.419E+01 -.573E+03 -.976E+03   0.389E-01 -.279E+00 -.239E+01   -.216E-02 -.134E-02 0.255E-02
   -.121E+02 0.552E+03 -.987E+03   0.121E+02 -.552E+03 0.983E+03   0.224E-01 -.396E+00 0.239E+01   -.743E-03 0.181E-02 -.247E-02
   -.127E+03 0.104E+04 0.130E+03   0.124E+03 -.104E+04 -.128E+03   0.149E+01 -.147E+01 -.147E+01   -.773E-03 0.353E-02 -.621E-03
   0.114E+04 -.108E+02 0.244E+01   -.113E+04 0.108E+02 -.244E+01   -.311E+01 -.448E-02 0.370E-02   0.408E-02 -.210E-02 0.690E-03
   -.114E+04 -.565E+01 0.133E+01   0.113E+04 0.565E+01 -.133E+01   0.311E+01 -.178E-02 0.112E-02   0.168E-02 0.349E-03 -.213E-02
   -.922E+00 -.113E+04 0.943E+00   0.911E+00 0.113E+04 -.940E+00   0.525E-02 0.311E+01 0.162E-02   0.230E-02 -.406E-03 -.373E-02
   -.585E+03 0.570E+03 0.821E+03   0.583E+03 -.568E+03 -.818E+03   0.153E+01 -.157E+01 -.216E+01   -.160E-02 -.391E-02 0.917E-03
   -.593E+03 0.562E+03 -.821E+03   0.591E+03 -.560E+03 0.818E+03   0.157E+01 -.152E+01 0.224E+01   -.318E-02 -.310E-02 0.773E-03
   0.578E+03 -.581E+03 0.815E+03   -.576E+03 0.579E+03 -.812E+03   -.156E+01 0.156E+01 -.220E+01   -.339E-03 -.557E-03 0.835E-03
   0.579E+03 -.583E+03 -.814E+03   -.576E+03 0.581E+03 0.811E+03   -.156E+01 0.155E+01 0.220E+01   -.155E-02 -.320E-02 0.198E-02
   0.582E+03 0.566E+03 0.827E+03   -.579E+03 -.564E+03 -.824E+03   -.157E+01 -.155E+01 -.219E+01   -.108E-02 -.314E-03 0.183E-02
   0.590E+03 0.545E+03 -.833E+03   -.587E+03 -.543E+03 0.829E+03   -.163E+01 -.158E+01 0.227E+01   -.383E-03 0.160E-02 -.425E-02
   -.580E+03 -.581E+03 0.814E+03   0.577E+03 0.578E+03 -.811E+03   0.156E+01 0.156E+01 -.220E+01   -.302E-02 0.228E-02 0.185E-02
   -.580E+03 -.582E+03 -.813E+03   0.578E+03 0.580E+03 0.810E+03   0.156E+01 0.156E+01 0.220E+01   -.298E-02 0.164E-02 -.193E-03
   0.395E+03 0.810E+03 -.466E+03   -.394E+03 -.810E+03 0.465E+03   -.964E+00 -.424E+00 0.232E+00   -.695E-03 0.263E-02 -.405E-02
   -.975E+03 -.400E+03 -.416E+03   0.972E+03 0.397E+03 0.416E+03   0.182E+01 0.149E+01 0.230E+00   -.184E-02 0.337E-02 -.128E-02
   -.328E+03 0.306E+03 0.462E+03   0.329E+03 -.306E+03 -.463E+03   -.333E+00 0.415E+00 0.488E+00   -.445E-02 -.307E-02 0.215E-02
   0.978E+03 0.380E+03 0.425E+03   -.975E+03 -.377E+03 -.424E+03   -.183E+01 -.149E+01 -.234E+00   0.251E-02 -.263E-03 0.326E-02
   -.395E+03 -.972E+03 0.418E+03   0.393E+03 0.969E+03 -.417E+03   0.151E+01 0.183E+01 -.215E+00   -.144E-02 -.964E-03 -.804E-03
   -.447E+03 0.924E+03 -.429E+03   0.445E+03 -.921E+03 0.429E+03   0.123E+01 -.195E+01 0.163E+00   -.261E-02 0.552E-03 -.177E-02
   0.974E+03 -.403E+03 -.417E+03   -.971E+03 0.401E+03 0.416E+03   -.182E+01 0.150E+01 0.227E+00   -.212E-02 -.611E-02 -.302E-02
   -.978E+03 0.386E+03 0.421E+03   0.975E+03 -.384E+03 -.420E+03   0.181E+01 -.151E+01 -.213E+00   -.478E-03 -.261E-02 0.343E-03
   0.394E+03 -.973E+03 0.418E+03   -.391E+03 0.970E+03 -.417E+03   -.150E+01 0.183E+01 -.225E+00   -.313E-02 -.533E-02 -.752E-02
   0.321E+03 0.301E+03 0.466E+03   -.321E+03 -.301E+03 -.466E+03   0.354E+00 0.401E+00 0.494E+00   -.349E-02 -.496E-03 0.367E-02
   -.173E+02 0.590E+03 0.178E+02   0.174E+02 -.590E+03 -.180E+02   -.112E+00 0.486E+00 0.125E+00   -.399E-02 0.109E-03 -.212E-03
   -.590E+03 -.590E+01 0.968E+03   0.589E+03 0.591E+01 -.965E+03   0.292E+00 -.158E-02 -.235E+01   -.185E-02 -.276E-02 0.884E-03
   -.592E+03 -.948E+01 -.967E+03   0.591E+03 0.950E+01 0.964E+03   0.301E+00 -.112E-01 0.234E+01   -.587E-02 0.779E-03 0.111E-02
   0.588E+03 -.818E+01 0.970E+03   -.587E+03 0.819E+01 -.967E+03   -.289E+00 -.926E-02 -.234E+01   -.193E-03 0.392E-02 0.292E-02
   0.589E+03 -.146E+02 -.969E+03   -.588E+03 0.146E+02 0.966E+03   -.314E+00 0.854E-02 0.235E+01   0.936E-04 -.274E-02 -.337E-02
   0.779E+03 0.714E+03 0.170E+02   -.777E+03 -.712E+03 -.171E+02   -.110E+01 -.125E+01 0.496E-01   0.726E-04 0.310E-02 0.451E-03
   -.763E+03 -.764E+03 0.110E+01   0.761E+03 0.762E+03 -.108E+01   0.114E+01 0.115E+01 -.133E-01   -.226E-02 0.671E-03 -.302E-03
   -.779E+03 0.742E+03 0.656E+01   0.777E+03 -.740E+03 -.657E+01   0.118E+01 -.114E+01 0.810E-02   -.478E-02 -.290E-02 -.182E-02
   0.761E+03 -.766E+03 0.139E+01   -.759E+03 0.764E+03 -.138E+01   -.115E+01 0.114E+01 -.638E-02   -.292E-02 -.579E-02 -.619E-02
   -.179E+01 -.803E+01 0.107E+04   0.179E+01 0.805E+01 -.107E+04   -.110E-02 -.173E-01 -.161E+01   -.524E-02 0.115E-02 0.239E-02
   -.317E+01 -.147E+02 -.107E+04   0.315E+01 0.146E+02 0.107E+04   0.145E-01 0.454E-01 0.161E+01   -.149E-02 -.785E-03 -.895E-03
   0.982E+03 0.372E+03 -.418E+03   -.979E+03 -.370E+03 0.418E+03   -.183E+01 -.149E+01 0.228E+00   0.122E-02 0.677E-04 -.502E-02
   -.395E+03 -.973E+03 -.416E+03   0.393E+03 0.970E+03 0.416E+03   0.150E+01 0.184E+01 0.211E+00   0.414E-02 -.260E-02 0.166E-02
   -.333E+03 0.297E+03 -.455E+03   0.333E+03 -.298E+03 0.456E+03   -.347E+00 0.406E+00 -.520E+00   -.732E-02 -.849E-03 -.947E-03
   0.320E+03 -.329E+03 0.457E+03   -.321E+03 0.330E+03 -.458E+03   0.369E+00 -.378E+00 0.526E+00   -.416E-02 0.106E-03 -.338E-02
   0.321E+03 0.286E+03 -.457E+03   -.322E+03 -.287E+03 0.457E+03   0.356E+00 0.501E+00 -.593E+00   -.205E-02 -.931E-03 -.412E-02
   -.980E+03 0.384E+03 -.417E+03   0.978E+03 -.381E+03 0.416E+03   0.182E+01 -.149E+01 0.226E+00   -.143E-02 -.221E-02 -.117E-02
   0.394E+03 -.973E+03 -.416E+03   -.391E+03 0.970E+03 0.416E+03   -.149E+01 0.184E+01 0.217E+00   0.120E-02 -.154E-02 0.161E-02
   -.323E+03 -.328E+03 0.456E+03   0.324E+03 0.328E+03 -.457E+03   -.366E+00 -.376E+00 0.534E+00   -.569E-02 0.604E-03 0.265E-02
   0.642E+03 -.172E+02 0.380E+01   -.643E+03 0.172E+02 -.380E+01   0.726E+00 0.141E-01 0.893E-04   -.174E-02 -.503E-02 -.116E-02
   -.645E+03 -.108E+02 0.245E+01   0.646E+03 0.108E+02 -.245E+01   -.734E+00 -.886E-02 -.345E-02   -.443E-02 0.791E-03 -.120E-02
   -.896E+00 -.589E+03 0.967E+03   0.909E+00 0.589E+03 -.963E+03   -.334E-02 0.316E+00 -.235E+01   -.884E-02 -.203E-03 0.218E-02
   -.124E+01 -.591E+03 -.966E+03   0.124E+01 0.591E+03 0.962E+03   -.483E-02 0.299E+00 0.237E+01   0.332E-02 -.387E-02 0.202E-02
   -.374E+01 -.176E+02 0.388E+01   0.375E+01 0.176E+02 -.387E+01   -.619E-02 0.464E-02 0.476E-02   -.415E-02 -.300E-02 -.882E-03
   0.321E+03 -.332E+03 -.454E+03   -.321E+03 0.333E+03 0.454E+03   0.373E+00 -.411E+00 -.512E+00   0.445E-03 -.807E-02 -.516E-03
   -.324E+03 -.330E+03 -.453E+03   0.325E+03 0.331E+03 0.454E+03   -.372E+00 -.395E+00 -.516E+00   -.296E-02 -.543E-03 0.558E-03
   -.137E+01 -.644E+03 0.140E+01   0.136E+01 0.645E+03 -.140E+01   0.105E-01 -.708E+00 0.232E-02   0.228E-02 -.503E-02 -.467E-02
   0.983E+02 0.209E+03 -.576E+02   -.934E+02 -.185E+03 0.527E+02   -.280E+01 -.177E+02 0.331E+01   -.725E-04 0.110E-02 -.628E-03
   0.185E+03 0.704E+03 -.163E+03   -.197E+03 -.767E+03 0.176E+03   0.113E+02 0.580E+02 -.119E+02   -.931E-04 0.154E-02 -.699E-03
 -----------------------------------------------------------------------------------------------
   -.102E+02 -.430E+02 0.996E+01   -.853E-13 0.455E-12 -.105E-11   0.103E+02 0.430E+02 -.992E+01   -.850E-01 -.469E-01 -.261E-01
 
 
 POSITION                                       TOTAL-FORCE (eV/Angst)
 -----------------------------------------------------------------------------------
     13.37281      9.84801     12.50759         0.706663      1.152284      0.204951
     20.15199     16.62719     12.50759        -1.105000     -0.708554      0.290198
     16.62719      9.84801     12.50759        -0.695943      1.117762      0.220095
      9.84801     16.62719     12.50759         1.108585     -0.704695      0.292135
     15.00000     11.47521     10.20639        -0.012565      0.386060      1.299834
     15.00000     11.47521     19.79360        -0.004908      0.460252     -1.270011
     15.00000      8.28283     15.00000        -1.009087      0.987575      0.985200
      8.28283     15.00000     15.00000         1.517033     -0.000660     -0.001178
     21.71717     15.00000     15.00000        -1.518717      0.000244     -0.002906
     15.00000     21.71717     15.00000        -0.003651     -1.512842      0.001151
     18.35858     11.64142     10.25025        -0.729277      0.775022      1.057705
     18.35858     11.64142     19.74975        -0.759513      0.730853     -1.097889
     11.64142     18.35858     10.25025         0.753742     -0.758238      1.071185
     11.64142     18.35858     19.74975         0.760108     -0.751579     -1.076142
     11.64142     11.64142     10.25025         0.758036      0.757506      1.070212
     11.64142     11.64142     19.74975         0.766556      0.761913     -1.078106
     18.35858     18.35858     10.25025        -0.755025     -0.760083      1.071632
     18.35858     18.35858     19.74975        -0.756831     -0.755626     -1.072156
     13.37281      9.84801     17.49241         0.650367     -0.241421     -0.680314
     20.15199     16.62719     17.49241        -1.107964     -0.702008     -0.293353
     16.73751     13.26249     12.54279         0.110744     -0.111421     -0.148261
      9.84801     13.37281     12.50759         1.107360      0.707923      0.291189
     16.62719     20.15199     12.50759        -0.702909     -1.111023      0.285092
     16.62719      9.84801     17.49241        -0.619926      1.162827     -0.184222
      9.84801     16.62719     17.49241         1.107400     -0.702886     -0.294763
     20.15199     13.37281     12.50759        -1.109642      0.708801      0.289620
     13.37281     20.15199     12.50759         0.701056     -1.112154      0.289729
     13.26249     13.26249     12.54279        -0.106490     -0.109042     -0.160650
     15.00000     11.52498     15.00000         0.020880     -0.112654     -0.051083
     18.52479     15.00000     10.20639        -0.406742      0.001463      1.284907
     18.52479     15.00000     19.79360        -0.413369      0.004818     -1.280243
     11.47521     15.00000     10.20640         0.408321      0.005225      1.284690
     11.47521     15.00000     19.79360         0.416436     -0.004318     -1.279376
     11.49535     11.49535     15.00000         0.799507      0.860932     -0.019205
     18.50465     18.50465     15.00000        -0.826537     -0.830715      0.001754
     18.50465     11.49535     15.00000        -0.824728      0.832922     -0.003442
     11.49535     18.50465     15.00000         0.826597     -0.828278     -0.001512
     15.00000     15.00000     10.04368        -0.002513      0.006425      1.179848
     15.00000     15.00000     19.95633        -0.004312     -0.022549     -1.182246
      9.84801     13.37281     17.49241         1.111193      0.707583     -0.291341
     16.62719     20.15199     17.49241        -0.697379     -1.117254     -0.283861
     16.73751     13.26249     17.45721         0.106382     -0.108698      0.155237
     13.26249     16.73751     12.54279        -0.115141      0.115185     -0.149771
     13.26249     13.26249     17.45721        -0.108503     -0.114219      0.155331
     20.15199     13.37281     17.49241        -1.106798      0.705072     -0.291844
     13.37281     20.15199     17.49241         0.694934     -1.117893     -0.284951
     16.73751     16.73751     12.54279         0.112257      0.109436     -0.155111
     11.52498     15.00000     15.00000        -0.227871     -0.003308      0.001513
     18.47502     15.00000     15.00000         0.228815     -0.004439     -0.001968
     15.00000     18.52480     10.20639         0.000587     -0.410092      1.277493
     15.00000     18.52480     19.79360        -0.001154     -0.403151     -1.279449
     15.00000     15.00000     15.00000         0.000458     -0.006320      0.005713
     13.26249     16.73751     17.45721        -0.112608      0.142692      0.163336
     16.73751     16.73751     17.45721         0.111383      0.120605      0.153110
     15.00000     18.47502     15.00000         0.002626      0.225132     -0.005410
     13.49359      7.55645     16.55529         2.152244      5.963564     -1.583781
     13.27440      6.47335     16.78160        -1.195169     -4.383956      1.121685
 -----------------------------------------------------------------------------------
    total drift:                               -0.004229      0.009896      0.005816


--------------------------------------------------------------------------------------------------------



  FREE ENERGIE OF THE ION-ELECTRON SYSTEM (eV)
  ---------------------------------------------------
  free  energy   TOTEN  =      -174.86370529 eV

  energy  without entropy=     -174.77891827  energy(sigma->0) =     -174.84250854
 


--------------------------------------------------------------------------------------------------------


    POTLOK:  cpu time   13.7635: real time   13.7635


--------------------------------------------------------------------------------------------------------


     LOOP+:  cpu time24339.1501: real time24340.2718
    4ORBIT:  cpu time    0.0000: real time    0.0000

 total amount of memory used by VASP MPI-rank0  5486941. kBytes
=======================================================================

   base      :      30000. kBytes
   nonlr-proj:      17126. kBytes
   fftplans  :     924480. kBytes
   grid      :    1872000. kBytes
   one-center:        886. kBytes
   wavefun   :    2642449. kBytes
 
  
  
 General timing and accounting informations for this job:
 ========================================================
  
                  Total CPU time used (sec):    24438.520
                            User time (sec):    23207.372
                          System time (sec):     1231.146
                         Elapsed time (sec):    24439.681
  
                   Maximum memory used (kb):     7178976.
                   Average memory used (kb):           0.
  
                          Minor page faults:    877646776
                          Major page faults:            0
                 Voluntary context switches:          715
