 vasp.5.4.4.18Apr17-6-g9f103f2a35 (build Sep 03 2018 23:53:05) complex          
  
 executed on             LinuxIFC date 2021.11.25  21:43:57
 running on    1 total cores
 distrk:  each k-point on    1 cores,    1 groups
 distr:  one band on NCORES_PER_BAND=   1 cores,    1 groups


--------------------------------------------------------------------------------------------------------


 INCAR:
 POTCAR:    PAW_PBE Pd 04Jan2005                  
 POTCAR:    PAW_PBE C 08Apr2002                   
 POTCAR:    PAW_PBE O 08Apr2002                   
 POTCAR:    PAW_PBE Pd 04Jan2005                  
   VRHFIN =Pd : s1 d9                                                           
   LEXCH  = PE                                                                  
   EATOM  =   809.7530 eV,   59.5152 Ry                                         
                                                                                
   TITEL  = PAW_PBE Pd 04Jan2005                                                
   LULTRA =        F    use ultrasoft PP ?                                      
   IUNSCR =        1    unscreen: 0-lin 1-nonlin 2-no                           
   RPACOR =    2.000    partial core radius                                     
   POMASS =  106.420; ZVAL   =   10.000    mass and valenz                      
   RCORE  =    2.600    outmost cutoff radius                                   
   RWIGS  =    2.710; RWIGS  =    1.434    wigner-seitz radius (au A)           
   ENMAX  =  250.925; ENMIN  =  188.194 eV                                      
   ICORE  =        3    local potential                                         
   LCOR   =        T    correct aug charges                                     
   LPAW   =        T    paw PP                                                  
   EAUG   =  416.230                                                            
   DEXC   =    0.000                                                            
   RMAX   =    2.653    core radius for proj-oper                               
   RAUG   =    1.300    factor for augmentation sphere                          
   RDEP   =    2.734    radius for radial grids                                 
   RDEPT  =    2.103    core radius for aug-charge                              
                                                                                
   Atomic configuration                                                         
   12 entries                                                                   
     n  l   j            E        occ.                                          
     1  0  0.50    -24164.6631   2.0000                                         
     2  0  0.50     -3530.9218   2.0000                                         
     2  1  1.50     -3165.6822   6.0000                                         
     3  0  0.50      -639.4577   2.0000                                         
     3  1  1.50      -519.4532   6.0000                                         
     3  2  2.50      -328.9757  10.0000                                         
     4  0  0.50       -88.7014   2.0000                                         
     4  1  1.50       -54.4540   6.0000                                         
     4  2  2.50        -6.6878   9.0000                                         
     5  0  0.50        -4.3543   1.0000                                         
     5  1  0.50        -1.3606   0.0000                                         
     4  3  2.50        -1.3606   0.0000                                         
   Description                                                                  
     l       E           TYP  RCUT    TYP  RCUT                                 
     2     -6.6878251     23  2.400                                             
     2     -8.0484077     23  2.400                                             
     0     -4.3542939     23  2.400                                             
     0      4.3406793     23  2.400                                             
     1     -4.0817478     23  2.600                                             
     1     15.8380318     23  2.600                                             
     3     -4.0817478     23  2.400                                             
  local pseudopotential read in
  partial core-charges read in
  partial kinetic energy density read in
  atomic valenz-charges read in
  non local Contribution for L=           2  read in
    real space projection operators read in
  non local Contribution for L=           2  read in
    real space projection operators read in
  non local Contribution for L=           0  read in
    real space projection operators read in
  non local Contribution for L=           0  read in
    real space projection operators read in
  non local Contribution for L=           1  read in
    real space projection operators read in
  non local Contribution for L=           1  read in
    real space projection operators read in
    PAW grid and wavefunctions read in
 
   number of l-projection  operators is LMAX  =           6
   number of lm-projection operators is LMMAX =          18
 
 POTCAR:    PAW_PBE C 08Apr2002                   
   VRHFIN =C: s2p2                                                              
   LEXCH  = PE                                                                  
   EATOM  =   147.1560 eV,   10.8157 Ry                                         
                                                                                
   TITEL  = PAW_PBE C 08Apr2002                                                 
   LULTRA =        F    use ultrasoft PP ?                                      
   IUNSCR =        1    unscreen: 0-lin 1-nonlin 2-no                           
   RPACOR =    1.200    partial core radius                                     
   POMASS =   12.011; ZVAL   =    4.000    mass and valenz                      
   RCORE  =    1.500    outmost cutoff radius                                   
   RWIGS  =    1.630; RWIGS  =    0.863    wigner-seitz radius (au A)           
   ENMAX  =  400.000; ENMIN  =  300.000 eV                                      
   ICORE  =        2    local potential                                         
   LCOR   =        T    correct aug charges                                     
   LPAW   =        T    paw PP                                                  
   EAUG   =  644.873                                                            
   DEXC   =    0.000                                                            
   RMAX   =    1.529    core radius for proj-oper                               
   RAUG   =    1.300    factor for augmentation sphere                          
   RDEP   =    1.501    radius for radial grids                                 
   RDEPT  =    1.300    core radius for aug-charge                              
                                                                                
   Atomic configuration                                                         
    4 entries                                                                   
     n  l   j            E        occ.                                          
     1  0  0.50      -273.3789   2.0000                                         
     2  0  0.50       -13.7508   2.0000                                         
     2  1  0.50        -5.2854   2.0000                                         
     3  2  1.50        -5.4423   0.0000                                         
   Description                                                                  
     l       E           TYP  RCUT    TYP  RCUT                                 
     0    -13.7508458     23  1.200                                             
     0     -8.2022199     23  1.200                                             
     1     -5.2854383     23  1.500                                             
     1     34.0145650     23  1.500                                             
     2     -5.4423304      7  1.500                                             
  local pseudopotential read in
  partial core-charges read in
  partial kinetic energy density read in
  atomic valenz-charges read in
  non local Contribution for L=           0  read in
    real space projection operators read in
  non local Contribution for L=           0  read in
    real space projection operators read in
  non local Contribution for L=           1  read in
    real space projection operators read in
  non local Contribution for L=           1  read in
    real space projection operators read in
    PAW grid and wavefunctions read in
 
   number of l-projection  operators is LMAX  =           4
   number of lm-projection operators is LMMAX =           8
 
 POTCAR:    PAW_PBE O 08Apr2002                   
   VRHFIN =O: s2p4                                                              
   LEXCH  = PE                                                                  
   EATOM  =   432.3788 eV,   31.7789 Ry                                         
                                                                                
   TITEL  = PAW_PBE O 08Apr2002                                                 
   LULTRA =        F    use ultrasoft PP ?                                      
   IUNSCR =        1    unscreen: 0-lin 1-nonlin 2-no                           
   RPACOR =    1.200    partial core radius                                     
   POMASS =   16.000; ZVAL   =    6.000    mass and valenz                      
   RCORE  =    1.520    outmost cutoff radius                                   
   RWIGS  =    1.550; RWIGS  =    0.820    wigner-seitz radius (au A)           
   ENMAX  =  400.000; ENMIN  =  300.000 eV                                      
   ICORE  =        2    local potential                                         
   LCOR   =        T    correct aug charges                                     
   LPAW   =        T    paw PP                                                  
   EAUG   =  605.392                                                            
   DEXC   =    0.000                                                            
   RMAX   =    1.553    core radius for proj-oper                               
   RAUG   =    1.300    factor for augmentation sphere                          
   RDEP   =    1.550    radius for radial grids                                 
   RDEPT  =    1.329    core radius for aug-charge                              
                                                                                
   Atomic configuration                                                         
    4 entries                                                                   
     n  l   j            E        occ.                                          
     1  0  0.50      -514.6923   2.0000                                         
     2  0  0.50       -23.9615   2.0000                                         
     2  1  0.50        -9.0305   4.0000                                         
     3  2  1.50        -9.5241   0.0000                                         
   Description                                                                  
     l       E           TYP  RCUT    TYP  RCUT                                 
     0    -23.9615318     23  1.200                                             
     0     -9.5240782     23  1.200                                             
     1     -9.0304911     23  1.520                                             
     1      8.1634956     23  1.520                                             
     2     -9.5240782      7  1.500                                             
  local pseudopotential read in
  partial core-charges read in
  partial kinetic energy density read in
  kinetic energy density of atom read in
  atomic valenz-charges read in
  non local Contribution for L=           0  read in
    real space projection operators read in
  non local Contribution for L=           0  read in
    real space projection operators read in
  non local Contribution for L=           1  read in
    real space projection operators read in
  non local Contribution for L=           1  read in
    real space projection operators read in
    PAW grid and wavefunctions read in
 
   number of l-projection  operators is LMAX  =           4
   number of lm-projection operators is LMMAX =           8
 
 Optimization of the real space projectors (new method)

 maximal supplied QI-value         = 14.36
 optimisation between [QCUT,QGAM] = [ 10.20, 20.39] = [ 29.12,116.47] Ry 
 Optimized for a Real-space Cutoff    1.51 Angstroem

   l    n(q)    QCUT    max X(q) W(low)/X(q) W(high)/X(q)  e(spline) 
   2      8    10.197    59.108    0.26E-03    0.14E-03    0.96E-07
   2      8    10.197    58.101    0.27E-03    0.14E-03    0.98E-07
   0      9    10.197   102.235    0.54E-04    0.60E-05    0.72E-07
   0      9    10.197    58.388    0.52E-04    0.60E-05    0.68E-07
   1      9    10.197    22.191    0.18E-03    0.25E-03    0.79E-07
   1      9    10.197    15.590    0.15E-03    0.21E-03    0.69E-07
 Optimization of the real space projectors (new method)

 maximal supplied QI-value         = 25.13
 optimisation between [QCUT,QGAM] = [ 10.05, 20.36] = [ 28.30,116.06] Ry 
 Optimized for a Real-space Cutoff    1.30 Angstroem

   l    n(q)    QCUT    max X(q) W(low)/X(q) W(high)/X(q)  e(spline) 
   0      8    10.053   115.676    0.49E-03    0.72E-03    0.18E-06
   0      8    10.053    87.132    0.49E-03    0.71E-03    0.18E-06
   1      7    10.053     4.429    0.32E-03    0.31E-03    0.18E-06
   1      7    10.053     2.733    0.23E-03    0.19E-03    0.20E-06
 Optimization of the real space projectors (new method)

 maximal supplied QI-value         = 24.76
 optimisation between [QCUT,QGAM] = [ 10.15, 20.30] = [ 28.85,115.39] Ry 
 Optimized for a Real-space Cutoff    1.38 Angstroem

   l    n(q)    QCUT    max X(q) W(low)/X(q) W(high)/X(q)  e(spline) 
   0      8    10.150    20.381    0.22E-03    0.32E-03    0.29E-06
   0      8    10.150    15.268    0.23E-03    0.35E-03    0.30E-06
   1      8    10.150     5.964    0.46E-03    0.53E-03    0.21E-06
   1      8    10.150     5.382    0.38E-03    0.45E-03    0.19E-06

 ----------------------------------------------------------------------------- 
|                                                                             |
|  ADVICE TO THIS USER RUNNING 'VASP/VAMP'   (HEAR YOUR MASTER'S VOICE ...):  |
|                                                                             |
|      You enforced a specific xc-type in the INCAR file,                     |
|      a different type was found on the POTCAR file                          |
|          I HOPE YOU KNOW, WHAT YOU ARE  DOING                               |
|                                                                             |
 ----------------------------------------------------------------------------- 

  PAW_PBE Pd 04Jan2005                  :
 energy of atom  1       EATOM= -809.7530
 kinetic energy error for atom=    0.0091 (will be added to EATOM!!)
  PAW_PBE C 08Apr2002                   :
 energy of atom  2       EATOM= -147.1560
 kinetic energy error for atom=    0.0288 (will be added to EATOM!!)
  PAW_PBE O 08Apr2002                   :
 energy of atom  3       EATOM= -432.3788
 kinetic energy error for atom=    0.1156 (will be added to EATOM!!)
 
 
 POSCAR: Pd55PES                                 
  positions in cartesian coordinates
  No initial velocities read in
 exchange correlation table for  LEXCH =        9
   RHO(1)=    0.500       N(1)  =     2000
   RHO(2)=  100.500       N(2)  =     4000
 


--------------------------------------------------------------------------------------------------------


 ion  position               nearest neighbor table
   1  0.446  0.328  0.417-   3 3.25   5 3.25   7 3.36  15 3.36  29 3.42  28 3.42
   2  0.672  0.554  0.417-  26 3.25  30 3.25  17 3.36   9 3.36  47 3.42  49 3.42
   3  0.554  0.328  0.417-   1 3.25   5 3.25   7 3.36  11 3.36  29 3.42  21 3.42
   4  0.328  0.554  0.417-  32 3.25  22 3.25  13 3.36   8 3.36  43 3.42  48 3.42
   5  0.500  0.383  0.340-   1 3.25   3 3.25  11 3.36  15 3.36  21 3.42  28 3.42
   6  0.500  0.383  0.660-  24 3.25  19 3.25  16 3.36  12 3.36  42 3.42  44 3.42
   7  0.500  0.276  0.500-  29 3.24   3 3.36   1 3.36  19 3.36  24 3.36
   8  0.276  0.500  0.500-  48 3.24  22 3.36  40 3.36   4 3.36  25 3.36
   9  0.724  0.500  0.500-  49 3.24  26 3.36  45 3.36   2 3.36  20 3.36
  10  0.500  0.724  0.500-  55 3.24  27 3.36  23 3.36  46 3.36  41 3.36
  11  0.612  0.388  0.342-  21 3.24   5 3.36   3 3.36  30 3.36  26 3.36
  12  0.612  0.388  0.658-  42 3.24  24 3.36  45 3.36   6 3.36  31 3.36
  13  0.388  0.612  0.342-  43 3.24  32 3.36  50 3.36   4 3.36  27 3.36
  14  0.388  0.612  0.658-  53 3.24  25 3.36  33 3.36  51 3.36  46 3.36
  15  0.388  0.388  0.342-  28 3.24   5 3.36   1 3.36  32 3.36  22 3.36
  16  0.388  0.388  0.658-  44 3.24  19 3.36  40 3.36   6 3.36  33 3.36
  17  0.612  0.612  0.342-  47 3.24  30 3.36  50 3.36   2 3.36  23 3.36
  18  0.612  0.612  0.658-  54 3.24  31 3.36  20 3.36  51 3.36  41 3.36
  19  0.446  0.328  0.583-   6 3.25  24 3.25  16 3.36   7 3.36  44 3.42  29 3.42
  20  0.672  0.554  0.583-  31 3.25  45 3.25  18 3.36   9 3.36  54 3.42  49 3.42
  21  0.558  0.442  0.418-  11 3.24   5 3.42   3 3.42  30 3.42  26 3.42
  22  0.328  0.446  0.417-  56 2.21   4 3.25  32 3.25   8 3.36  15 3.36  48 3.42  28 3.42
  23  0.554  0.672  0.417-  27 3.25  50 3.25  10 3.36  17 3.36  55 3.42  47 3.42
  24  0.554  0.328  0.583-   6 3.25  19 3.25  12 3.36   7 3.36  42 3.42  29 3.42
  25  0.328  0.554  0.583-  33 3.25  40 3.25  14 3.36   8 3.36  53 3.42  48 3.42
  26  0.672  0.446  0.417-   2 3.25  30 3.25   9 3.36  11 3.36  49 3.42  21 3.42
  27  0.446  0.672  0.417-  23 3.25  50 3.25  10 3.36  13 3.36  55 3.42  43 3.42
  28  0.442  0.442  0.418-  15 3.24   5 3.42   1 3.42  32 3.42  22 3.42
  29  0.500  0.384  0.500-   7 3.24   3 3.42   1 3.42  24 3.42  19 3.42
  30  0.617  0.500  0.340-   2 3.25  26 3.25  17 3.36  11 3.36  47 3.42  21 3.42
  31  0.617  0.500  0.660-  20 3.25  45 3.25  18 3.36  12 3.36  54 3.42  42 3.42
  32  0.383  0.500  0.340-   4 3.25  22 3.25  13 3.36  15 3.36  43 3.42  28 3.42
  33  0.383  0.500  0.660-  25 3.25  40 3.25  14 3.36  16 3.36  53 3.42  44 3.42
  34  0.383  0.383  0.500-
  35  0.617  0.617  0.500-
  36  0.617  0.383  0.500-
  37  0.383  0.617  0.500-
  38  0.500  0.500  0.335-
  39  0.500  0.500  0.665-
  40  0.328  0.446  0.583-  33 3.25  25 3.25  16 3.36   8 3.36  44 3.42  48 3.42
  41  0.554  0.672  0.583-  46 3.25  51 3.25  10 3.36  18 3.36  54 3.42  55 3.42
  42  0.558  0.442  0.582-  12 3.24   6 3.42  24 3.42  31 3.42  45 3.42
  43  0.442  0.558  0.418-  13 3.24   4 3.42  32 3.42  27 3.42  50 3.42
  44  0.442  0.442  0.582-  16 3.24   6 3.42  19 3.42  33 3.42  40 3.42
  45  0.672  0.446  0.583-  20 3.25  31 3.25   9 3.36  12 3.36  49 3.42  42 3.42
  46  0.446  0.672  0.583-  41 3.25  51 3.25  10 3.36  14 3.36  53 3.42  55 3.42
  47  0.558  0.558  0.418-  17 3.24   2 3.42  30 3.42  23 3.42  50 3.42
  48  0.384  0.500  0.500-   8 3.24   4 3.42  22 3.42  25 3.42  40 3.42
  49  0.616  0.500  0.500-   9 3.24   2 3.42  26 3.42  20 3.42  45 3.42
  50  0.500  0.617  0.340-  27 3.25  23 3.25  13 3.36  17 3.36  43 3.42  47 3.42
  51  0.500  0.617  0.660-  41 3.25  46 3.25  14 3.36  18 3.36  53 3.42  54 3.42
  52  0.500  0.500  0.500-
  53  0.442  0.558  0.582-  14 3.24  25 3.42  33 3.42  51 3.42  46 3.42
  54  0.558  0.558  0.582-  18 3.24  31 3.42  20 3.42  51 3.42  41 3.42
  55  0.500  0.616  0.500-  10 3.24  23 3.42  27 3.42  41 3.42  46 3.42
  56  0.266  0.432  0.380-  57 1.13  22 2.21
  57  0.234  0.423  0.363-  56 1.13
 
  LATTYP: Found a simple cubic cell.
 ALAT       =    30.0000000000
  
  Lattice vectors:
  
 A1 = (  30.0000000000,   0.0000000000,   0.0000000000)
 A2 = (   0.0000000000,  30.0000000000,   0.0000000000)
 A3 = (   0.0000000000,   0.0000000000,  30.0000000000)


Analysis of symmetry for initial positions (statically):
=====================================================================
 Subroutine PRICEL returns:
 Original cell was already a primitive cell.
 

 Routine SETGRP: Setting up the symmetry group for a 
 simple cubic supercell.


 Subroutine GETGRP returns: Found  1 space group operations
 (whereof  1 operations were pure point group operations)
 out of a pool of 48 trial point group operations.


The static configuration has the point symmetry C_1 .


Analysis of symmetry for dynamics (positions and initial velocities):
=====================================================================
 Subroutine PRICEL returns:
 Original cell was already a primitive cell.
 

 Routine SETGRP: Setting up the symmetry group for a 
 simple cubic supercell.


 Subroutine GETGRP returns: Found  1 space group operations
 (whereof  1 operations were pure point group operations)
 out of a pool of 48 trial point group operations.


The dynamic configuration has the point symmetry C_1 .


Analysis of constrained symmetry for selective dynamics:
=====================================================================
 Subroutine PRICEL returns:
 Original cell was already a primitive cell.
 

 Routine SETGRP: Setting up the symmetry group for a 
 simple cubic supercell.


 Subroutine GETGRP returns: Found  1 space group operations
 (whereof  1 operations were pure point group operations)
 out of a pool of 48 trial point group operations.


The constrained configuration has the point symmetry C_1 .


 Subroutine INISYM returns: Found  1 space group operations
 (whereof  1 operations are pure point group operations),
 and found     1 'primitive' translations

 
 
 KPOINTS: K-points                                

Automatic generation of k-mesh.
Space group operators:
 irot       det(A)        alpha          n_x          n_y          n_z        tau_x        tau_y        tau_z
    1     1.000000     0.000000     1.000000     0.000000     0.000000     0.000000     0.000000     0.000000
 
 Subroutine IBZKPT returns following result:
 ===========================================
 
 Found      1 irreducible k-points:
 
 Following reciprocal coordinates:
            Coordinates               Weight
  0.000000  0.000000  0.000000      1.000000
 
 Following cartesian coordinates:
            Coordinates               Weight
  0.000000  0.000000  0.000000      1.000000
 


--------------------------------------------------------------------------------------------------------




 Dimension of arrays:
   k-points           NKPTS =      1   k-points in BZ     NKDIM =      1   number of bands    NBANDS=    336
   number of dos      NEDOS =    301   number of ions     NIONS =     57
   non local maximal  LDIM  =      6   non local SUM 2l+1 LMDIM =     18
   total plane-waves  NPLWV = ******
   max r-space proj   IRMAX =   1847   max aug-charges    IRDMAX=   6262
   dimension x,y,z NGX =   150 NGY =  150 NGZ =  150
   dimension x,y,z NGXF=   300 NGYF=  300 NGZF=  300
   support grid    NGXF=   300 NGYF=  300 NGZF=  300
   ions per type =              55   1   1
   NGX,Y,Z   is equivalent  to a cutoff of   8.31,  8.31,  8.31 a.u.
   NGXF,Y,Z  is equivalent  to a cutoff of  16.62, 16.62, 16.62 a.u.

 SYSTEM =  6_Pd100_top_free_z(O)                   
 POSCAR =  Pd55PES                                 

 Startparameter for this run:
   NWRITE =      2    write-flag & timer
   PREC   = normal    normal or accurate (medium, high low for compatibility)
   ISTART =      0    job   : 0-new  1-cont  2-samecut
   ICHARG =      2    charge: 1-file 2-atom 10-const
   ISPIN  =      1    spin polarized calculation?
   LNONCOLLINEAR =      F non collinear calculations
   LSORBIT =      F    spin-orbit coupling
   INIWAV =      1    electr: 0-lowe 1-rand  2-diag
   LASPH  =      F    aspherical Exc in radial PAW
   METAGGA=      F    non-selfconsistent MetaGGA calc.

 Electronic Relaxation 1
   ENCUT  =  400.0 eV  29.40 Ry    5.42 a.u.  48.92 48.92 48.92*2*pi/ulx,y,z
   ENINI  =  400.0     initial cutoff
   ENAUG  =  644.9 eV  augmentation charge cutoff
   NELM   =    100;   NELMIN=  6; NELMDL= -5     # of ELM steps 
   EDIFF  = 0.1E-03   stopping-criterion for ELM
   LREAL  =      T    real-space projection
   NLSPLINE    = F    spline interpolate recip. space projectors
   LCOMPAT=      F    compatible to vasp.4.4
   GGA_COMPAT  = T    GGA compatible to vasp.4.4-vasp.4.6
   LMAXPAW     = -100 max onsite density
   LMAXMIX     =    2 max onsite mixed and CHGCAR
   VOSKOWN=      0    Vosko Wilk Nusair interpolation
   ROPT   =   -0.00050  -0.00050  -0.00050
 Ionic relaxation
   EDIFFG = -.5E-01   stopping-criterion for IOM
   NSW    =      0    number of steps for IOM
   NBLOCK =      1;   KBLOCK =      1    inner block; outer block 
   IBRION =     -1    ionic relax: 0-MD 1-quasi-New 2-CG
   NFREE  =      1    steps in history (QN), initial steepest desc. (CG)
   ISIF   =      2    stress and relaxation
   IWAVPR =     10    prediction:  0-non 1-charg 2-wave 3-comb
   ISYM   =      2    0-nonsym 1-usesym 2-fastsym
   LCORR  =      T    Harris-Foulkes like correction to forces

   POTIM  = 0.5000    time-step for ionic-motion
   TEIN   =    0.0    initial temperature
   TEBEG  =    0.0;   TEEND  =   0.0 temperature during run
   SMASS  =  -3.00    Nose mass-parameter (am)
   estimated Nose-frequenzy (Omega)   =  0.10E-29 period in steps =****** mass=  -0.206E-25a.u.
   SCALEE = 1.0000    scale energy and forces
   NPACO  =    256;   APACO  = 16.0  distance and # of slots for P.C.
   PSTRESS=    0.0 pullay stress

  Mass of Ions in am
   POMASS = 106.42 12.01 16.00
  Ionic Valenz
   ZVAL   =  10.00  4.00  6.00
  Atomic Wigner-Seitz radii
   RWIGS  =  -1.00 -1.00 -1.00
  virtual crystal weights 
   VCA    =   1.00  1.00  1.00
   NELECT =     560.0000    total number of electrons
   NUPDOWN=      -1.0000    fix difference up-down

 DOS related values:
   EMIN   =  10.00;   EMAX   =-10.00  energy-range for DOS
   EFERMI =   0.00
   ISMEAR =     2;   SIGMA  =   0.20  broadening in eV -4-tet -1-fermi 0-gaus

 Electronic relaxation 2 (details)
   IALGO  =     68    algorithm
   LDIAG  =      T    sub-space diagonalisation (order eigenvalues)
   LSUBROT=      F    optimize rotation matrix (better conditioning)
   TURBO    =      0    0=normal 1=particle mesh
   IRESTART =      0    0=no restart 2=restart with 2 vectors
   NREBOOT  =      0    no. of reboots
   NMIN     =      0    reboot dimension
   EREF     =   0.00    reference energy to select bands
   IMIX   =      4    mixing-type and parameters
     AMIX     =   0.40;   BMIX     =  1.00
     AMIX_MAG =   1.60;   BMIX_MAG =  1.00
     AMIN     =   0.10
     WC   =   100.;   INIMIX=   1;  MIXPRE=   1;  MAXMIX= -45

 Intra band minimization:
   WEIMIN = 0.0000     energy-eigenvalue tresh-hold
   EBREAK =  0.74E-07  absolut break condition
   DEPER  =   0.30     relativ break condition  

   TIME   =   0.40     timestep for ELM

  volume/ion in A,a.u.               =     473.68      3196.58
  Fermi-wavevector in a.u.,A,eV,Ry     =   0.449797  0.849992  2.752691  0.202317
  Thomas-Fermi vector in A             =   1.430086
 
 Write flags
   LWAVE        =      F    write WAVECAR
   LDOWNSAMPLE  =      F    k-point downsampling of WAVECAR
   LCHARG       =      F    write CHGCAR
   LVTOT        =      F    write LOCPOT, total local potential
   LVHAR        =      F    write LOCPOT, Hartree potential only
   LELF         =      F    write electronic localiz. function (ELF)
   LORBIT       =      0    0 simple, 1 ext, 2 COOP (PROOUT), +10 PAW based schemes


 Dipole corrections
   LMONO  =      F    monopole corrections only (constant potential shift)
   LDIPOL =      F    correct potential (dipole corrections)
   IDIPOL =      0    1-x, 2-y, 3-z, 4-all directions 
   EPSILON=  1.0000000 bulk dielectric constant

 Exchange correlation treatment:
   GGA     =    RP    GGA type
   LEXCH   =     9    internal setting for exchange type
   VOSKOWN=      0    Vosko Wilk Nusair interpolation
   LHFCALC =     F    Hartree Fock is set to
   LHFONE  =     F    Hartree Fock one center treatment
   AEXX    =    0.0000 exact exchange contribution

 Linear response parameters
   LEPSILON=     F    determine dielectric tensor
   LRPA    =     F    only Hartree local field effects (RPA)
   LNABLA  =     F    use nabla operator in PAW spheres
   LVEL    =     F    velocity operator in full k-point grid
   LINTERFAST=   F  fast interpolation
   KINTER  =     0    interpolate to denser k-point grid
   CSHIFT  =0.1000    complex shift for real part using Kramers Kronig
   OMEGAMAX=  -1.0    maximum frequency
   DEG_THRESHOLD= 0.2000000E-02 threshold for treating states as degnerate
   RTIME   =   -0.100 relaxation time in fs
  (WPLASMAI=    0.000 imaginary part of plasma frequency in eV, 0.658/RTIME)
   DFIELD  = 0.0000000 0.0000000 0.0000000 field for delta impulse in time
 
 Orbital magnetization related:
   ORBITALMAG=     F  switch on orbital magnetization
   LCHIMAG   =     F  perturbation theory with respect to B field
   DQ        =  0.001000  dq finite difference perturbation B field
   LLRAUG    =     F  two centre corrections for induced B field



--------------------------------------------------------------------------------------------------------


 Static calculation
 charge density and potential will be updated during run
 non-spin polarized calculation
 RMM-DIIS sequential band-by-band and
  variant of blocked Davidson during initial phase
 perform sub-space diagonalisation
    before iterative eigenvector-optimisation
 modified Broyden-mixing scheme, WC =      100.0
 initial mixing is a Kerker type mixing with AMIX =  0.4000 and BMIX =      1.0000
 Hartree-type preconditioning will be used
 using additional bands           56
 real space projection scheme for non local part
 use partial core corrections
 calculate Harris-corrections to forces 
   (improved forces if not selfconsistent)
 use gradient corrections 
 use of overlap-Matrix (Vanderbilt PP)
 Methfessel and Paxton  Order N= 2 SIGMA  =   0.20


--------------------------------------------------------------------------------------------------------


  energy-cutoff  :      400.00
  volume of cell :    27000.00
      direct lattice vectors                 reciprocal lattice vectors
    30.000000000  0.000000000  0.000000000     0.033333333  0.000000000  0.000000000
     0.000000000 30.000000000  0.000000000     0.000000000  0.033333333  0.000000000
     0.000000000  0.000000000 30.000000000     0.000000000  0.000000000  0.033333333

  length of vectors
    30.000000000 30.000000000 30.000000000     0.033333333  0.033333333  0.033333333


 
 k-points in units of 2pi/SCALE and weight: K-points                                
   0.00000000  0.00000000  0.00000000       1.000
 
 k-points in reciprocal lattice and weights: K-points                                
   0.00000000  0.00000000  0.00000000       1.000
 
 position of ions in fractional coordinates (direct lattice) 
   0.44576020  0.32826710  0.41691983
   0.67173288  0.55423978  0.41691983
   0.55423980  0.32826710  0.41691983
   0.32826712  0.55423978  0.41691983
   0.50000000  0.38250690  0.34021317
   0.50000000  0.38250690  0.65978680
   0.50000000  0.27609440  0.50000000
   0.27609443  0.49999998  0.50000000
   0.72390557  0.49999998  0.50000000
   0.50000000  0.72390555  0.50000000
   0.61195280  0.38804720  0.34167483
   0.61195280  0.38804720  0.65832513
   0.38804722  0.61195278  0.34167483
   0.38804722  0.61195278  0.65832513
   0.38804720  0.38804720  0.34167483
   0.38804720  0.38804720  0.65832513
   0.61195278  0.61195278  0.34167483
   0.61195278  0.61195278  0.65832513
   0.44576020  0.32826710  0.58308023
   0.67173288  0.55423978  0.58308023
   0.55791699  0.44208301  0.41809300
   0.32826705  0.44576024  0.41691983
   0.55423973  0.67173293  0.41691983
   0.55423980  0.32826710  0.58308023
   0.32826712  0.55423978  0.58308023
   0.67173295  0.44576024  0.41691983
   0.44576027  0.67173293  0.41691983
   0.44208301  0.44208301  0.41809300
   0.50000000  0.38416601  0.50000000
   0.61749315  0.50000005  0.34021317
   0.61749315  0.50000005  0.65978680
   0.38250685  0.50000005  0.34021317
   0.38250685  0.50000005  0.65978680
   0.38317830  0.38317830  0.50000000
   0.61682172  0.61682172  0.50000000
   0.61682170  0.38317830  0.50000000
   0.38317828  0.61682172  0.50000000
   0.50000000  0.50000000  0.33478917
   0.50000000  0.50000000  0.66521087
   0.32826705  0.44576024  0.58308023
   0.55423973  0.67173293  0.58308023
   0.55791699  0.44208301  0.58190703
   0.44208298  0.55791702  0.41809300
   0.44208301  0.44208301  0.58190703
   0.67173295  0.44576024  0.58308023
   0.44576027  0.67173293  0.58308023
   0.55791702  0.55791702  0.41809300
   0.38416599  0.50000002  0.50000000
   0.61583401  0.50000002  0.50000000
   0.50000000  0.61749319  0.34021317
   0.50000000  0.61749319  0.65978680
   0.50000000  0.50000000  0.50000000
   0.44208298  0.55791702  0.58190703
   0.55791702  0.55791702  0.58190703
   0.50000000  0.61583404  0.50000000
   0.26597687  0.43219623  0.37978843
   0.23358960  0.42281263  0.36315193
 
 position of ions in cartesian coordinates  (Angst):
  13.37280588  9.84801292 12.50759500
  20.15198637 16.62719342 12.50759500
  16.62719412  9.84801292 12.50759500
   9.84801363 16.62719342 12.50759500
  15.00000000 11.47520705 10.20639500
  15.00000000 11.47520705 19.79360400
  15.00000000  8.28283206 15.00000000
   8.28283277 14.99999929 15.00000000
  21.71716723 14.99999929 15.00000000
  15.00000000 21.71716652 14.99999999
  18.35858397 11.64141603 10.25024500
  18.35858397 11.64141603 19.74975399
  11.64141674 18.35858326 10.25024500
  11.64141674 18.35858326 19.74975400
  11.64141603 11.64141603 10.25024500
  11.64141603 11.64141603 19.74975400
  18.35858326 18.35858326 10.25024500
  18.35858326 18.35858326 19.74975400
  13.37280588  9.84801291 17.49240700
  20.15198638 16.62719341 17.49240700
  16.73750985 13.26249015 12.54279000
   9.84801151 13.37280729 12.50759500
  16.62719200 20.15198779 12.50759500
  16.62719412  9.84801292 17.49240700
   9.84801363 16.62719342 17.49240700
  20.15198849 13.37280729 12.50759500
  13.37280800 20.15198779 12.50759500
  13.26249015 13.26249015 12.54279000
  15.00000000 11.52498029 15.00000000
  18.52479437 15.00000140 10.20639500
  18.52479437 15.00000141 19.79360400
  11.47520562 15.00000141 10.20639501
  11.47520563 15.00000141 19.79360400
  11.49534898 11.49534898 15.00000000
  18.50465172 18.50465172 15.00000000
  18.50465102 11.49534898 15.00000000
  11.49534828 18.50465172 15.00000000
  15.00000000 15.00000000 10.04367500
  15.00000000 15.00000000 19.95632599
   9.84801151 13.37280729 17.49240700
  16.62719200 20.15198779 17.49240700
  16.73750985 13.26249015 17.45721100
  13.26248944 16.73751056 12.54279001
  13.26249015 13.26249015 17.45721100
  20.15198849 13.37280729 17.49240699
  13.37280800 20.15198779 17.49240700
  16.73751056 16.73751056 12.54279000
  11.52497959 15.00000071 15.00000000
  18.47502041 15.00000071 15.00000000
  14.99999999 18.52479579 10.20639500
  15.00000000 18.52479578 19.79360400
  15.00000000 15.00000000 15.00000000
  13.26248944 16.73751057 17.45721101
  16.73751056 16.73751057 17.45721100
  15.00000000 18.47502112 15.00000000
   7.97930600 12.96588700 11.39365300
   7.00768800 12.68437900 10.89455800
 


--------------------------------------------------------------------------------------------------------


 k-point  1 :   0.0000 0.0000 0.0000  plane waves:  490521

 maximum and minimum number of plane-waves per node :    490521   490521

 maximum number of plane-waves:    490521
 maximum index in each direction: 
   IXMAX=   48   IYMAX=   48   IZMAX=   48
   IXMIN=  -48   IYMIN=  -48   IZMIN=  -48


 serial   3D FFT for wavefunctions
 parallel 3D FFT for charge:
    minimum data exchange during FFTs selected (reduces bandwidth)


 total amount of memory used by VASP MPI-rank0  5486941. kBytes
=======================================================================

   base      :      30000. kBytes
   nonlr-proj:      17126. kBytes
   fftplans  :     924480. kBytes
   grid      :    1872000. kBytes
   one-center:        886. kBytes
   wavefun   :    2642449. kBytes
 
     INWAV:  cpu time    0.0001: real time    0.0005
 Broyden mixing: mesh for mixing (old mesh)
   NGX = 97   NGY = 97   NGZ = 97
  (NGX  =300   NGY  =300   NGZ  =300)
  gives a total of 912673 points

 initial charge density was supplied:
 charge density of overlapping atoms calculated
 number of electron     560.0000000 magnetization 
 keeping initial charge density in first step


--------------------------------------------------------------------------------------------------------


 Maximum index for non-local projection operator         1763
 Maximum index for augmentation-charges         5898 (set IRDMAX)


--------------------------------------------------------------------------------------------------------


 First call to EWALD:  gamma=   0.059
 Maximum number of real-space cells 3x 3x 3
 Maximum number of reciprocal cells 3x 3x 3

    FEWALD:  cpu time    0.0145: real time    0.0145


--------------------------------------- Iteration      1(   1)  ---------------------------------------


    POTLOK:  cpu time   13.9937: real time   13.9964
    SETDIJ:  cpu time    0.1189: real time    0.1189
     EDDAV:  cpu time  354.5107: real time  354.5882
       DOS:  cpu time    0.0013: real time    0.0013
    --------------------------------------------
      LOOP:  cpu time  368.6247: real time  368.7048

 eigenvalue-minimisations  :   688
 total energy-change (2. order) : 0.4384762E+04  (-0.1004920E+05)
 number of electron     560.0000000 magnetization 
 augmentation part      560.0000000 magnetization 

 Free energy of the ion-electron system (eV)
  ---------------------------------------------------
  alpha Z        PSCENC =        75.25431677
  Ewald energy   TEWEN  =    137587.76429750
  -Hartree energ DENC   =   -180953.00656403
  -exchange      EXHF   =         0.00000000
  -V(xc)+E(xc)   XCENC  =     -1703.59325872
  PAW double counting   =     44873.02882129   -41398.84523641
  entropy T*S    EENTRO =         0.01641908
  eigenvalues    EBANDS =       817.63769437
  atomic energy  EATOM  =     45086.50549395
  Solvation  Ediel_sol  =         0.00000000
  ---------------------------------------------------
  free energy    TOTEN  =      4384.76198381 eV

  energy without entropy =     4384.74556473  energy(sigma->0) =     4384.75787904


--------------------------------------------------------------------------------------------------------




--------------------------------------- Iteration      1(   2)  ---------------------------------------


     EDDAV:  cpu time  572.8986: real time  572.9239
       DOS:  cpu time    0.0013: real time    0.0013
    --------------------------------------------
      LOOP:  cpu time  572.8999: real time  572.9251

 eigenvalue-minimisations  :  1224
 total energy-change (2. order) :-0.2373774E+04  (-0.2134402E+04)
 number of electron     560.0000000 magnetization 
 augmentation part      560.0000000 magnetization 

 Free energy of the ion-electron system (eV)
  ---------------------------------------------------
  alpha Z        PSCENC =        75.25431677
  Ewald energy   TEWEN  =    137587.76429750
  -Hartree energ DENC   =   -180953.00656403
  -exchange      EXHF   =         0.00000000
  -V(xc)+E(xc)   XCENC  =     -1703.59325872
  PAW double counting   =     44873.02882129   -41398.84523641
  entropy T*S    EENTRO =         0.02504498
  eigenvalues    EBANDS =     -1556.14520909
  atomic energy  EATOM  =     45086.50549395
  Solvation  Ediel_sol  =         0.00000000
  ---------------------------------------------------
  free energy    TOTEN  =      2010.98770625 eV

  energy without entropy =     2010.96266127  energy(sigma->0) =     2010.98144500


--------------------------------------------------------------------------------------------------------




--------------------------------------- Iteration      1(   3)  ---------------------------------------


     EDDAV:  cpu time  481.2046: real time  481.2105
       DOS:  cpu time    0.0011: real time    0.0011
    --------------------------------------------
      LOOP:  cpu time  481.2057: real time  481.2116

 eigenvalue-minimisations  :   992
 total energy-change (2. order) :-0.1774664E+04  (-0.1668243E+04)
 number of electron     560.0000000 magnetization 
 augmentation part      560.0000000 magnetization 

 Free energy of the ion-electron system (eV)
  ---------------------------------------------------
  alpha Z        PSCENC =        75.25431677
  Ewald energy   TEWEN  =    137587.76429750
  -Hartree energ DENC   =   -180953.00656403
  -exchange      EXHF   =         0.00000000
  -V(xc)+E(xc)   XCENC  =     -1703.59325872
  PAW double counting   =     44873.02882129   -41398.84523641
  entropy T*S    EENTRO =        -0.00348271
  eigenvalues    EBANDS =     -3330.78100177
  atomic energy  EATOM  =     45086.50549395
  Solvation  Ediel_sol  =         0.00000000
  ---------------------------------------------------
  free energy    TOTEN  =       236.32338588 eV

  energy without entropy =      236.32686859  energy(sigma->0) =      236.32425656


--------------------------------------------------------------------------------------------------------




--------------------------------------- Iteration      1(   4)  ---------------------------------------


     EDDAV:  cpu time  419.5995: real time  419.6051
       DOS:  cpu time    0.0012: real time    0.0012
    --------------------------------------------
      LOOP:  cpu time  419.6007: real time  419.6063

 eigenvalue-minimisations  :   832
 total energy-change (2. order) :-0.3709107E+03  (-0.3155760E+03)
 number of electron     560.0000000 magnetization 
 augmentation part      560.0000000 magnetization 

 Free energy of the ion-electron system (eV)
  ---------------------------------------------------
  alpha Z        PSCENC =        75.25431677
  Ewald energy   TEWEN  =    137587.76429750
  -Hartree energ DENC   =   -180953.00656403
  -exchange      EXHF   =         0.00000000
  -V(xc)+E(xc)   XCENC  =     -1703.59325872
  PAW double counting   =     44873.02882129   -41398.84523641
  entropy T*S    EENTRO =         0.02913376
  eigenvalues    EBANDS =     -3701.72431263
  atomic energy  EATOM  =     45086.50549395
  Solvation  Ediel_sol  =         0.00000000
  ---------------------------------------------------
  free energy    TOTEN  =      -134.58730852 eV

  energy without entropy =     -134.61644228  energy(sigma->0) =     -134.59459196


--------------------------------------------------------------------------------------------------------




--------------------------------------- Iteration      1(   5)  ---------------------------------------


     EDDAV:  cpu time  504.3878: real time  504.3891
       DOS:  cpu time    0.0014: real time    0.0014
    CHARGE:  cpu time   25.3494: real time   25.3492
    MIXING:  cpu time    0.4415: real time    0.4415
    --------------------------------------------
      LOOP:  cpu time  530.1801: real time  530.1812

 eigenvalue-minimisations  :  1040
 total energy-change (2. order) :-0.4487006E+02  (-0.3687774E+02)
 number of electron     559.9999957 magnetization 
 augmentation part      245.1415562 magnetization 

 Broyden mixing:
  rms(total) = 0.14307E+01    rms(broyden)= 0.14297E+01
  rms(prec ) = 0.15403E+01
  weight for this iteration     100.00

 Free energy of the ion-electron system (eV)
  ---------------------------------------------------
  alpha Z        PSCENC =        75.25431677
  Ewald energy   TEWEN  =    137587.76429750
  -Hartree energ DENC   =   -180953.00656403
  -exchange      EXHF   =         0.00000000
  -V(xc)+E(xc)   XCENC  =     -1703.59325872
  PAW double counting   =     44873.02882129   -41398.84523641
  entropy T*S    EENTRO =         0.45590400
  eigenvalues    EBANDS =     -3747.02113888
  atomic energy  EATOM  =     45086.50549395
  Solvation  Ediel_sol  =         0.00000000
  ---------------------------------------------------
  free energy    TOTEN  =      -179.45736452 eV

  energy without entropy =     -179.91326852  energy(sigma->0) =     -179.57134052


--------------------------------------------------------------------------------------------------------




--------------------------------------- Iteration      1(   6)  ---------------------------------------


    POTLOK:  cpu time   13.2117: real time   13.2139
    SETDIJ:  cpu time    0.1258: real time    0.1258
    EDDIAG:  cpu time   68.6257: real time   68.6255
  RMM-DIIS:  cpu time  188.6891: real time  188.6917
    ORTHCH:  cpu time   13.4852: real time   13.4851
       DOS:  cpu time    0.0014: real time    0.0014
    CHARGE:  cpu time   25.2214: real time   25.2213
    MIXING:  cpu time    0.4516: real time    0.4516
    --------------------------------------------
      LOOP:  cpu time  309.8119: real time  309.8162

 eigenvalue-minimisations  :   727
 total energy-change (2. order) :-0.2127891E+00  (-0.5332529E+01)
 number of electron     559.9999960 magnetization 
 augmentation part      240.5519519 magnetization 

 Broyden mixing:
  rms(total) = 0.21880E+01    rms(broyden)= 0.21878E+01
  rms(prec ) = 0.25769E+01
  weight for this iteration     100.00

 eigenvalues of (default mixing * dielectric matrix)
  average eigenvalue GAMMA=   0.3344
  0.3344

 Free energy of the ion-electron system (eV)
  ---------------------------------------------------
  alpha Z        PSCENC =        75.25431677
  Ewald energy   TEWEN  =    137587.76429750
  -Hartree energ DENC   =   -181363.89486104
  -exchange      EXHF   =         0.00000000
  -V(xc)+E(xc)   XCENC  =     -1697.37879852
  PAW double counting   =     45624.33485206   -42123.30172334
  entropy T*S    EENTRO =        -0.12180030
  eigenvalues    EBANDS =     -3368.83193071
  atomic energy  EATOM  =     45086.50549395
  Solvation  Ediel_sol  =         0.00000000
  ---------------------------------------------------
  free energy    TOTEN  =      -179.67015362 eV

  energy without entropy =     -179.54835332  energy(sigma->0) =     -179.63970354


--------------------------------------------------------------------------------------------------------




--------------------------------------- Iteration      1(   7)  ---------------------------------------


    POTLOK:  cpu time   13.3060: real time   13.3068
    SETDIJ:  cpu time    0.1273: real time    0.1273
    EDDIAG:  cpu time   68.0460: real time   68.0467
  RMM-DIIS:  cpu time  225.8742: real time  225.8786
    ORTHCH:  cpu time   13.9545: real time   13.9548
       DOS:  cpu time    0.0015: real time    0.0015
    CHARGE:  cpu time   26.6235: real time   26.6239
    MIXING:  cpu time    0.4947: real time    0.4947
    --------------------------------------------
      LOOP:  cpu time  348.4277: real time  348.4343

 eigenvalue-minimisations  :   859
 total energy-change (2. order) :-0.3222282E+01  (-0.1812521E+01)
 number of electron     559.9999939 magnetization 
 augmentation part      240.2344640 magnetization 

 Broyden mixing:
  rms(total) = 0.24493E+01    rms(broyden)= 0.24490E+01
  rms(prec ) = 0.29839E+01
  weight for this iteration     100.00

 eigenvalues of (default mixing * dielectric matrix)
  average eigenvalue GAMMA=   0.3013
  0.4656  0.1371

 Free energy of the ion-electron system (eV)
  ---------------------------------------------------
  alpha Z        PSCENC =        75.25431677
  Ewald energy   TEWEN  =    137587.76429750
  -Hartree energ DENC   =   -181442.54853475
  -exchange      EXHF   =         0.00000000
  -V(xc)+E(xc)   XCENC  =     -1697.54066593
  PAW double counting   =     45685.70292126   -42182.11096345
  entropy T*S    EENTRO =        -0.13260033
  eigenvalues    EBANDS =     -3295.78670093
  atomic energy  EATOM  =     45086.50549395
  Solvation  Ediel_sol  =         0.00000000
  ---------------------------------------------------
  free energy    TOTEN  =      -182.89243590 eV

  energy without entropy =     -182.75983557  energy(sigma->0) =     -182.85928582


--------------------------------------------------------------------------------------------------------




--------------------------------------- Iteration      1(   8)  ---------------------------------------


    POTLOK:  cpu time   14.0458: real time   14.0499
    SETDIJ:  cpu time    0.1305: real time    0.1305
    EDDIAG:  cpu time   69.8509: real time   69.8519
  RMM-DIIS:  cpu time  208.8781: real time  208.8812
    ORTHCH:  cpu time   13.9556: real time   13.9555
       DOS:  cpu time    0.0014: real time    0.0014
    CHARGE:  cpu time   27.0425: real time   27.0424
    MIXING:  cpu time    0.5234: real time    0.5234
    --------------------------------------------
      LOOP:  cpu time  334.4281: real time  334.4362

 eigenvalue-minimisations  :   790
 total energy-change (2. order) : 0.1805841E+00  (-0.6877500E+00)
 number of electron     559.9999944 magnetization 
 augmentation part      240.2761142 magnetization 

 Broyden mixing:
  rms(total) = 0.23876E+01    rms(broyden)= 0.23872E+01
  rms(prec ) = 0.27684E+01
  weight for this iteration     100.00

 eigenvalues of (default mixing * dielectric matrix)
  average eigenvalue GAMMA=   0.2990
  0.6245  0.1362  0.1362

 Free energy of the ion-electron system (eV)
  ---------------------------------------------------
  alpha Z        PSCENC =        75.25431677
  Ewald energy   TEWEN  =    137587.76429750
  -Hartree energ DENC   =   -181482.30605298
  -exchange      EXHF   =         0.00000000
  -V(xc)+E(xc)   XCENC  =     -1697.60835559
  PAW double counting   =     45737.31543965   -42231.57122173
  entropy T*S    EENTRO =        -0.12649920
  eigenvalues    EBANDS =     -3257.93927017
  atomic energy  EATOM  =     45086.50549395
  Solvation  Ediel_sol  =         0.00000000
  ---------------------------------------------------
  free energy    TOTEN  =      -182.71185179 eV

  energy without entropy =     -182.58535259  energy(sigma->0) =     -182.68022699


--------------------------------------------------------------------------------------------------------




--------------------------------------- Iteration      1(   9)  ---------------------------------------


    POTLOK:  cpu time   14.0274: real time   14.0309
    SETDIJ:  cpu time    0.1266: real time    0.1266
    EDDIAG:  cpu time   70.3601: real time   70.3627
  RMM-DIIS:  cpu time  192.7620: real time  192.7685
    ORTHCH:  cpu time   13.8447: real time   13.8448
       DOS:  cpu time    0.0014: real time    0.0014
    CHARGE:  cpu time   26.7890: real time   26.7894
    MIXING:  cpu time    0.5730: real time    0.5730
    --------------------------------------------
      LOOP:  cpu time  318.4839: real time  318.4972

 eigenvalue-minimisations  :   732
 total energy-change (2. order) : 0.1648385E+01  (-0.5125293E+00)
 number of electron     559.9999946 magnetization 
 augmentation part      241.0913413 magnetization 

 Broyden mixing:
  rms(total) = 0.24130E+01    rms(broyden)= 0.24127E+01
  rms(prec ) = 0.28886E+01
  weight for this iteration     100.00

 eigenvalues of (default mixing * dielectric matrix)
  average eigenvalue GAMMA=   0.2733
  0.6898  0.1496  0.1496  0.1044

 Free energy of the ion-electron system (eV)
  ---------------------------------------------------
  alpha Z        PSCENC =        75.25431677
  Ewald energy   TEWEN  =    137587.76429750
  -Hartree energ DENC   =   -181495.31988661
  -exchange      EXHF   =         0.00000000
  -V(xc)+E(xc)   XCENC  =     -1697.55504363
  PAW double counting   =     45794.16617475   -42285.94417388
  entropy T*S    EENTRO =         0.02684218
  eigenvalues    EBANDS =     -3245.96148744
  atomic energy  EATOM  =     45086.50549395
  Solvation  Ediel_sol  =         0.00000000
  ---------------------------------------------------
  free energy    TOTEN  =      -181.06346640 eV

  energy without entropy =     -181.09030858  energy(sigma->0) =     -181.07017695


--------------------------------------------------------------------------------------------------------




--------------------------------------- Iteration      1(  10)  ---------------------------------------


    POTLOK:  cpu time   13.8970: real time   13.9003
    SETDIJ:  cpu time    0.1293: real time    0.1293
    EDDIAG:  cpu time   70.5433: real time   70.5435
  RMM-DIIS:  cpu time  198.6957: real time  198.7009
    ORTHCH:  cpu time   14.1032: real time   14.1034
       DOS:  cpu time    0.0014: real time    0.0014
    CHARGE:  cpu time   26.7113: real time   26.7117
    MIXING:  cpu time    0.6051: real time    0.6051
    --------------------------------------------
      LOOP:  cpu time  324.6864: real time  324.6956

 eigenvalue-minimisations  :   755
 total energy-change (2. order) : 0.1233036E+01  (-0.2319699E+00)
 number of electron     559.9999921 magnetization 
 augmentation part      241.2581307 magnetization 

 Broyden mixing:
  rms(total) = 0.21031E+01    rms(broyden)= 0.21028E+01
  rms(prec ) = 0.24700E+01
  weight for this iteration     100.00

 eigenvalues of (default mixing * dielectric matrix)
  average eigenvalue GAMMA=   0.2627
  0.7731  0.1720  0.1720  0.1198  0.0766

 Free energy of the ion-electron system (eV)
  ---------------------------------------------------
  alpha Z        PSCENC =        75.25431677
  Ewald energy   TEWEN  =    137587.76429750
  -Hartree energ DENC   =   -181519.56656290
  -exchange      EXHF   =         0.00000000
  -V(xc)+E(xc)   XCENC  =     -1697.43984705
  PAW double counting   =     45826.07502096   -42316.49916248
  entropy T*S    EENTRO =        -0.13590039
  eigenvalues    EBANDS =     -3221.78808647
  atomic energy  EATOM  =     45086.50549395
  Solvation  Ediel_sol  =         0.00000000
  ---------------------------------------------------
  free energy    TOTEN  =      -179.83043012 eV

  energy without entropy =     -179.69452972  energy(sigma->0) =     -179.79645502


--------------------------------------------------------------------------------------------------------




--------------------------------------- Iteration      1(  11)  ---------------------------------------


    POTLOK:  cpu time   13.8236: real time   13.8270
    SETDIJ:  cpu time    0.1327: real time    0.1327
    EDDIAG:  cpu time   70.2667: real time   70.2710
  RMM-DIIS:  cpu time  193.7126: real time  193.7166
    ORTHCH:  cpu time   14.1960: real time   14.1962
       DOS:  cpu time    0.0015: real time    0.0015
    CHARGE:  cpu time   26.9067: real time   26.9071
    MIXING:  cpu time    0.6290: real time    0.6290
    --------------------------------------------
      LOOP:  cpu time  319.6688: real time  319.6810

 eigenvalue-minimisations  :   732
 total energy-change (2. order) : 0.1908963E+01  (-0.2177286E+00)
 number of electron     559.9999930 magnetization 
 augmentation part      241.3664811 magnetization 

 Broyden mixing:
  rms(total) = 0.16640E+01    rms(broyden)= 0.16636E+01
  rms(prec ) = 0.19153E+01
  weight for this iteration     100.00

 eigenvalues of (default mixing * dielectric matrix)
  average eigenvalue GAMMA=   0.2662
  0.8831  0.2133  0.2133  0.1077  0.1077  0.0724

 Free energy of the ion-electron system (eV)
  ---------------------------------------------------
  alpha Z        PSCENC =        75.25431677
  Ewald energy   TEWEN  =    137587.76429750
  -Hartree energ DENC   =   -181548.43452470
  -exchange      EXHF   =         0.00000000
  -V(xc)+E(xc)   XCENC  =     -1697.27247942
  PAW double counting   =     45865.11176918   -42353.81186375
  entropy T*S    EENTRO =        -0.15856569
  eigenvalues    EBANDS =     -3192.87991117
  atomic energy  EATOM  =     45086.50549395
  Solvation  Ediel_sol  =         0.00000000
  ---------------------------------------------------
  free energy    TOTEN  =      -177.92146733 eV

  energy without entropy =     -177.76290164  energy(sigma->0) =     -177.88182590


--------------------------------------------------------------------------------------------------------




--------------------------------------- Iteration      1(  12)  ---------------------------------------


    POTLOK:  cpu time   13.8967: real time   13.9004
    SETDIJ:  cpu time    0.1237: real time    0.1237
    EDDIAG:  cpu time   70.7008: real time   70.7034
  RMM-DIIS:  cpu time  188.1503: real time  188.1526
    ORTHCH:  cpu time   14.1454: real time   14.1455
       DOS:  cpu time    0.0015: real time    0.0015
    CHARGE:  cpu time   26.7366: real time   26.7368
    MIXING:  cpu time    0.6821: real time    0.6821
    --------------------------------------------
      LOOP:  cpu time  314.4371: real time  314.4460

 eigenvalue-minimisations  :   715
 total energy-change (2. order) : 0.1282994E+01  (-0.1776653E+00)
 number of electron     559.9999951 magnetization 
 augmentation part      241.7189124 magnetization 

 Broyden mixing:
  rms(total) = 0.15332E+01    rms(broyden)= 0.15329E+01
  rms(prec ) = 0.17805E+01
  weight for this iteration     100.00

 eigenvalues of (default mixing * dielectric matrix)
  average eigenvalue GAMMA=   0.2715
  0.9860  0.2563  0.2563  0.1189  0.1189  0.0988  0.0654

 Free energy of the ion-electron system (eV)
  ---------------------------------------------------
  alpha Z        PSCENC =        75.25431677
  Ewald energy   TEWEN  =    137587.76429750
  -Hartree energ DENC   =   -181562.55108794
  -exchange      EXHF   =         0.00000000
  -V(xc)+E(xc)   XCENC  =     -1697.02015084
  PAW double counting   =     45906.10285396   -42392.82467778
  entropy T*S    EENTRO =        -0.08671102
  eigenvalues    EBANDS =     -3179.78280796
  atomic energy  EATOM  =     45086.50549395
  Solvation  Ediel_sol  =         0.00000000
  ---------------------------------------------------
  free energy    TOTEN  =      -176.63847336 eV

  energy without entropy =     -176.55176234  energy(sigma->0) =     -176.61679560


--------------------------------------------------------------------------------------------------------




--------------------------------------- Iteration      1(  13)  ---------------------------------------


    POTLOK:  cpu time   13.7968: real time   13.8002
    SETDIJ:  cpu time    0.1291: real time    0.1291
    EDDIAG:  cpu time   70.5834: real time   70.5843
  RMM-DIIS:  cpu time  189.1704: real time  189.1780
    ORTHCH:  cpu time   14.2352: real time   14.2355
       DOS:  cpu time    0.0015: real time    0.0015
    CHARGE:  cpu time   26.9117: real time   26.9122
    MIXING:  cpu time    0.7899: real time    0.7899
    --------------------------------------------
      LOOP:  cpu time  315.6180: real time  315.6306

 eigenvalue-minimisations  :   719
 total energy-change (2. order) : 0.6493048E+00  (-0.1432876E+00)
 number of electron     559.9999958 magnetization 
 augmentation part      241.6167872 magnetization 

 Broyden mixing:
  rms(total) = 0.10942E+01    rms(broyden)= 0.10939E+01
  rms(prec ) = 0.12756E+01
  weight for this iteration     100.00

 eigenvalues of (default mixing * dielectric matrix)
  average eigenvalue GAMMA=   0.2791
  1.0697  0.3012  0.3012  0.1624  0.1171  0.1171  0.1016  0.0623

 Free energy of the ion-electron system (eV)
  ---------------------------------------------------
  alpha Z        PSCENC =        75.25431677
  Ewald energy   TEWEN  =    137587.76429750
  -Hartree energ DENC   =   -181593.78300565
  -exchange      EXHF   =         0.00000000
  -V(xc)+E(xc)   XCENC  =     -1696.65619522
  PAW double counting   =     45950.49196498   -42435.06979913
  entropy T*S    EENTRO =        -0.13592914
  eigenvalues    EBANDS =     -3150.36031266
  atomic energy  EATOM  =     45086.50549395
  Solvation  Ediel_sol  =         0.00000000
  ---------------------------------------------------
  free energy    TOTEN  =      -175.98916859 eV

  energy without entropy =     -175.85323945  energy(sigma->0) =     -175.95518631


--------------------------------------------------------------------------------------------------------




--------------------------------------- Iteration      1(  14)  ---------------------------------------


    POTLOK:  cpu time   14.0309: real time   14.0342
    SETDIJ:  cpu time    0.1413: real time    0.1413
    EDDIAG:  cpu time   70.9468: real time   70.9495
  RMM-DIIS:  cpu time  191.1753: real time  191.1864
    ORTHCH:  cpu time   14.2577: real time   14.2579
       DOS:  cpu time    0.0015: real time    0.0015
    CHARGE:  cpu time   26.9472: real time   26.9476
    MIXING:  cpu time    0.7573: real time    0.7573
    --------------------------------------------
      LOOP:  cpu time  318.2580: real time  318.2756

 eigenvalue-minimisations  :   725
 total energy-change (2. order) :-0.7472618E+00  (-0.9786502E-01)
 number of electron     559.9999957 magnetization 
 augmentation part      241.3167683 magnetization 

 Broyden mixing:
  rms(total) = 0.17348E+01    rms(broyden)= 0.17346E+01
  rms(prec ) = 0.21416E+01
  weight for this iteration     100.00

 eigenvalues of (default mixing * dielectric matrix)
  average eigenvalue GAMMA=   0.2840
  1.1661  0.5074  0.1820  0.1734  0.1734  0.1115  0.1115  0.0655  0.0655

 Free energy of the ion-electron system (eV)
  ---------------------------------------------------
  alpha Z        PSCENC =        75.25431677
  Ewald energy   TEWEN  =    137587.76429750
  -Hartree energ DENC   =   -181628.03743982
  -exchange      EXHF   =         0.00000000
  -V(xc)+E(xc)   XCENC  =     -1696.22234480
  PAW double counting   =     45994.93834691   -42477.16218593
  entropy T*S    EENTRO =        -0.06025063
  eigenvalues    EBANDS =     -3119.71666434
  atomic energy  EATOM  =     45086.50549395
  Solvation  Ediel_sol  =         0.00000000
  ---------------------------------------------------
  free energy    TOTEN  =      -176.73643038 eV

  energy without entropy =     -176.67617975  energy(sigma->0) =     -176.72136773


--------------------------------------------------------------------------------------------------------




--------------------------------------- Iteration      1(  15)  ---------------------------------------


    POTLOK:  cpu time   14.0665: real time   14.0707
    SETDIJ:  cpu time    0.1359: real time    0.1359
    EDDIAG:  cpu time   70.5170: real time   70.5189
  RMM-DIIS:  cpu time  192.3615: real time  192.3665
    ORTHCH:  cpu time   14.1643: real time   14.1643
       DOS:  cpu time    0.0015: real time    0.0015
    CHARGE:  cpu time   26.9739: real time   26.9740
    MIXING:  cpu time    0.7971: real time    0.7971
    --------------------------------------------
      LOOP:  cpu time  319.0178: real time  319.0289

 eigenvalue-minimisations  :   731
 total energy-change (2. order) : 0.3962473E+00  (-0.7930551E-01)
 number of electron     559.9999932 magnetization 
 augmentation part      241.1399526 magnetization 

 Broyden mixing:
  rms(total) = 0.13803E+01    rms(broyden)= 0.13799E+01
  rms(prec ) = 0.16282E+01
  weight for this iteration     100.00

 eigenvalues of (default mixing * dielectric matrix)
  average eigenvalue GAMMA=   0.3087
  1.3892  0.6846  0.2000  0.2000  0.1697  0.1145  0.1145  0.0956  0.0623  0.0570

 Free energy of the ion-electron system (eV)
  ---------------------------------------------------
  alpha Z        PSCENC =        75.25431677
  Ewald energy   TEWEN  =    137587.76429750
  -Hartree energ DENC   =   -181660.07523387
  -exchange      EXHF   =         0.00000000
  -V(xc)+E(xc)   XCENC  =     -1695.78663547
  PAW double counting   =     46035.29188354   -42515.34793524
  entropy T*S    EENTRO =        -0.09087929
  eigenvalues    EBANDS =     -3089.85549103
  atomic energy  EATOM  =     45086.50549395
  Solvation  Ediel_sol  =         0.00000000
  ---------------------------------------------------
  free energy    TOTEN  =      -176.34018313 eV

  energy without entropy =     -176.24930384  energy(sigma->0) =     -176.31746330


--------------------------------------------------------------------------------------------------------




--------------------------------------- Iteration      1(  16)  ---------------------------------------


    POTLOK:  cpu time   14.0491: real time   14.0528
    SETDIJ:  cpu time    0.1239: real time    0.1239
    EDDIAG:  cpu time   70.3334: real time   70.3389
  RMM-DIIS:  cpu time  188.0795: real time  188.0810
    ORTHCH:  cpu time   14.1967: real time   14.1967
       DOS:  cpu time    0.0015: real time    0.0015
    CHARGE:  cpu time   26.9155: real time   26.9155
    MIXING:  cpu time    0.9051: real time    0.9051
    --------------------------------------------
      LOOP:  cpu time  314.6047: real time  314.6154

 eigenvalue-minimisations  :   715
 total energy-change (2. order) : 0.5575679E+00  (-0.8482804E-01)
 number of electron     559.9999957 magnetization 
 augmentation part      241.1093369 magnetization 

 Broyden mixing:
  rms(total) = 0.13536E+01    rms(broyden)= 0.13533E+01
  rms(prec ) = 0.16031E+01
  weight for this iteration     100.00

 eigenvalues of (default mixing * dielectric matrix)
  average eigenvalue GAMMA=   0.3129
  1.5053  0.7510  0.2553  0.2553  0.1298  0.1298  0.1076  0.1076  0.0790  0.0648
  0.0563

 Free energy of the ion-electron system (eV)
  ---------------------------------------------------
  alpha Z        PSCENC =        75.25431677
  Ewald energy   TEWEN  =    137587.76429750
  -Hartree energ DENC   =   -181699.42238251
  -exchange      EXHF   =         0.00000000
  -V(xc)+E(xc)   XCENC  =     -1695.18240222
  PAW double counting   =     46090.27755396   -42567.31691840
  entropy T*S    EENTRO =         0.01856736
  eigenvalues    EBANDS =     -3053.68114160
  atomic energy  EATOM  =     45086.50549395
  Solvation  Ediel_sol  =         0.00000000
  ---------------------------------------------------
  free energy    TOTEN  =      -175.78261519 eV

  energy without entropy =     -175.80118255  energy(sigma->0) =     -175.78725703


--------------------------------------------------------------------------------------------------------




--------------------------------------- Iteration      1(  17)  ---------------------------------------


    POTLOK:  cpu time   13.8538: real time   13.8576
    SETDIJ:  cpu time    0.1261: real time    0.1261
    EDDIAG:  cpu time   70.0952: real time   70.0969
  RMM-DIIS:  cpu time  188.8449: real time  188.8468
    ORTHCH:  cpu time   14.1600: real time   14.1599
       DOS:  cpu time    0.0015: real time    0.0015
    CHARGE:  cpu time   26.7812: real time   26.7810
    MIXING:  cpu time    0.9337: real time    0.9337
    --------------------------------------------
      LOOP:  cpu time  314.7963: real time  314.8033

 eigenvalue-minimisations  :   718
 total energy-change (2. order) : 0.3052800E+00  (-0.4845833E-01)
 number of electron     559.9999955 magnetization 
 augmentation part      241.1055401 magnetization 

 Broyden mixing:
  rms(total) = 0.13247E+01    rms(broyden)= 0.13245E+01
  rms(prec ) = 0.15942E+01
  weight for this iteration     100.00

 eigenvalues of (default mixing * dielectric matrix)
  average eigenvalue GAMMA=   0.3124
  1.5504  0.8382  0.2978  0.2978  0.1402  0.1402  0.1077  0.1077  0.0841  0.0725
  0.0611  0.0508

 Free energy of the ion-electron system (eV)
  ---------------------------------------------------
  alpha Z        PSCENC =        75.25431677
  Ewald energy   TEWEN  =    137587.76429750
  -Hartree energ DENC   =   -181715.51570438
  -exchange      EXHF   =         0.00000000
  -V(xc)+E(xc)   XCENC  =     -1694.97138052
  PAW double counting   =     46108.81881198   -42584.70016489
  entropy T*S    EENTRO =         0.04989545
  eigenvalues    EBANDS =     -3038.68290103
  atomic energy  EATOM  =     45086.50549395
  Solvation  Ediel_sol  =         0.00000000
  ---------------------------------------------------
  free energy    TOTEN  =      -175.47733517 eV

  energy without entropy =     -175.52723062  energy(sigma->0) =     -175.48980903


--------------------------------------------------------------------------------------------------------




--------------------------------------- Iteration      1(  18)  ---------------------------------------


    POTLOK:  cpu time   13.9566: real time   13.9604
    SETDIJ:  cpu time    0.1284: real time    0.1284
    EDDIAG:  cpu time   70.2181: real time   70.2204
  RMM-DIIS:  cpu time  189.1067: real time  189.1087
    ORTHCH:  cpu time   14.1567: real time   14.1567
       DOS:  cpu time    0.0015: real time    0.0015
    CHARGE:  cpu time   26.8655: real time   26.8654
    MIXING:  cpu time    1.0007: real time    1.0007
    --------------------------------------------
      LOOP:  cpu time  315.4341: real time  315.4421

 eigenvalue-minimisations  :   717
 total energy-change (2. order) : 0.2225832E+00  (-0.3379730E-01)
 number of electron     559.9999939 magnetization 
 augmentation part      241.0562647 magnetization 

 Broyden mixing:
  rms(total) = 0.10565E+01    rms(broyden)= 0.10563E+01
  rms(prec ) = 0.12209E+01
  weight for this iteration     100.00

 eigenvalues of (default mixing * dielectric matrix)
  average eigenvalue GAMMA=   0.3241
  1.7016  0.9235  0.3552  0.3552  0.1487  0.1487  0.1092  0.1092  0.1084  0.0792
  0.0679  0.0603  0.0466

 Free energy of the ion-electron system (eV)
  ---------------------------------------------------
  alpha Z        PSCENC =        75.25431677
  Ewald energy   TEWEN  =    137587.76429750
  -Hartree energ DENC   =   -181729.67686630
  -exchange      EXHF   =         0.00000000
  -V(xc)+E(xc)   XCENC  =     -1694.84473575
  PAW double counting   =     46118.46119073   -42593.57957018
  entropy T*S    EENTRO =        -0.06095186
  eigenvalues    EBANDS =     -3025.07792679
  atomic energy  EATOM  =     45086.50549395
  Solvation  Ediel_sol  =         0.00000000
  ---------------------------------------------------
  free energy    TOTEN  =      -175.25475192 eV

  energy without entropy =     -175.19380006  energy(sigma->0) =     -175.23951396


--------------------------------------------------------------------------------------------------------




--------------------------------------- Iteration      1(  19)  ---------------------------------------


    POTLOK:  cpu time   13.8972: real time   13.9011
    SETDIJ:  cpu time    0.1337: real time    0.1337
    EDDIAG:  cpu time   70.0161: real time   70.0175
  RMM-DIIS:  cpu time  185.7284: real time  185.7341
    ORTHCH:  cpu time   14.1876: real time   14.1876
       DOS:  cpu time    0.0015: real time    0.0015
    CHARGE:  cpu time   26.8165: real time   26.8165
    MIXING:  cpu time    1.0218: real time    1.0218
    --------------------------------------------
      LOOP:  cpu time  311.8028: real time  311.8138

 eigenvalue-minimisations  :   707
 total energy-change (2. order) : 0.8888100E-01  (-0.4311498E-01)
 number of electron     559.9999958 magnetization 
 augmentation part      241.0803609 magnetization 

 Broyden mixing:
  rms(total) = 0.97833E+00    rms(broyden)= 0.97817E+00
  rms(prec ) = 0.11246E+01
  weight for this iteration     100.00

 eigenvalues of (default mixing * dielectric matrix)
  average eigenvalue GAMMA=   0.3342
  1.7576  1.1294  0.3945  0.3945  0.1518  0.1518  0.1382  0.1092  0.1092  0.0934
  0.0706  0.0706  0.0603  0.0477

 Free energy of the ion-electron system (eV)
  ---------------------------------------------------
  alpha Z        PSCENC =        75.25431677
  Ewald energy   TEWEN  =    137587.76429750
  -Hartree energ DENC   =   -181749.66613040
  -exchange      EXHF   =         0.00000000
  -V(xc)+E(xc)   XCENC  =     -1694.63209439
  PAW double counting   =     46133.25192707   -42607.13900368
  entropy T*S    EENTRO =        -0.06226640
  eigenvalues    EBANDS =     -3006.44241134
  atomic energy  EATOM  =     45086.50549395
  Solvation  Ediel_sol  =         0.00000000
  ---------------------------------------------------
  free energy    TOTEN  =      -175.16587092 eV

  energy without entropy =     -175.10360451  energy(sigma->0) =     -175.15030432


--------------------------------------------------------------------------------------------------------




--------------------------------------- Iteration      1(  20)  ---------------------------------------


    POTLOK:  cpu time   13.9410: real time   13.9447
    SETDIJ:  cpu time    0.1321: real time    0.1321
    EDDIAG:  cpu time   70.2632: real time   70.2635
  RMM-DIIS:  cpu time  187.0921: real time  187.0939
    ORTHCH:  cpu time   14.2238: real time   14.2238
       DOS:  cpu time    0.0015: real time    0.0015
    CHARGE:  cpu time   27.1493: real time   27.1492
    MIXING:  cpu time    1.1059: real time    1.1059
    --------------------------------------------
      LOOP:  cpu time  313.9089: real time  313.9144

 eigenvalue-minimisations  :   712
 total energy-change (2. order) : 0.1640726E+00  (-0.3690407E-01)
 number of electron     559.9999954 magnetization 
 augmentation part      241.0541302 magnetization 

 Broyden mixing:
  rms(total) = 0.68364E+00    rms(broyden)= 0.68336E+00
  rms(prec ) = 0.79067E+00
  weight for this iteration     100.00

 eigenvalues of (default mixing * dielectric matrix)
  average eigenvalue GAMMA=   0.3430
  1.8111  1.2963  0.4451  0.3136  0.3136  0.1517  0.1517  0.1086  0.1086  0.1020
  0.1020  0.0668  0.0668  0.0602  0.0475

 Free energy of the ion-electron system (eV)
  ---------------------------------------------------
  alpha Z        PSCENC =        75.25431677
  Ewald energy   TEWEN  =    137587.76429750
  -Hartree energ DENC   =   -181773.41537064
  -exchange      EXHF   =         0.00000000
  -V(xc)+E(xc)   XCENC  =     -1694.44028127
  PAW double counting   =     46139.64672393   -42612.47732423
  entropy T*S    EENTRO =        -0.12684410
  eigenvalues    EBANDS =     -2983.71281021
  atomic energy  EATOM  =     45086.50549395
  Solvation  Ediel_sol  =         0.00000000
  ---------------------------------------------------
  free energy    TOTEN  =      -175.00179829 eV

  energy without entropy =     -174.87495419  energy(sigma->0) =     -174.97008727


--------------------------------------------------------------------------------------------------------




--------------------------------------- Iteration      1(  21)  ---------------------------------------


    POTLOK:  cpu time   13.9862: real time   13.9900
    SETDIJ:  cpu time    0.1259: real time    0.1259
    EDDIAG:  cpu time   70.2683: real time   70.2687
  RMM-DIIS:  cpu time  184.7086: real time  184.7125
    ORTHCH:  cpu time   14.2000: real time   14.2000
       DOS:  cpu time    0.0015: real time    0.0015
    CHARGE:  cpu time   26.7740: real time   26.7739
    MIXING:  cpu time    1.1830: real time    1.1830
    --------------------------------------------
      LOOP:  cpu time  311.2474: real time  311.2555

 eigenvalue-minimisations  :   703
 total energy-change (2. order) :-0.1940092E-01  (-0.2741787E-01)
 number of electron     559.9999942 magnetization 
 augmentation part      241.1126111 magnetization 

 Broyden mixing:
  rms(total) = 0.67694E+00    rms(broyden)= 0.67679E+00
  rms(prec ) = 0.79643E+00
  weight for this iteration     100.00

 eigenvalues of (default mixing * dielectric matrix)
  average eigenvalue GAMMA=   0.3539
  1.9395  1.3785  0.6075  0.3316  0.3316  0.1530  0.1530  0.1088  0.1088  0.1108
  0.1108  0.0884  0.0662  0.0662  0.0601  0.0475

 Free energy of the ion-electron system (eV)
  ---------------------------------------------------
  alpha Z        PSCENC =        75.25431677
  Ewald energy   TEWEN  =    137587.76429750
  -Hartree energ DENC   =   -181788.56517992
  -exchange      EXHF   =         0.00000000
  -V(xc)+E(xc)   XCENC  =     -1694.28377650
  PAW double counting   =     46139.08528680   -42611.23089231
  entropy T*S    EENTRO =        -0.13150054
  eigenvalues    EBANDS =     -2969.41924496
  atomic energy  EATOM  =     45086.50549395
  Solvation  Ediel_sol  =         0.00000000
  ---------------------------------------------------
  free energy    TOTEN  =      -175.02119921 eV

  energy without entropy =     -174.88969867  energy(sigma->0) =     -174.98832408


--------------------------------------------------------------------------------------------------------




--------------------------------------- Iteration      1(  22)  ---------------------------------------


    POTLOK:  cpu time   13.9073: real time   13.9098
    SETDIJ:  cpu time    0.1257: real time    0.1257
    EDDIAG:  cpu time   70.2790: real time   70.2795
  RMM-DIIS:  cpu time  184.7918: real time  184.7924
    ORTHCH:  cpu time   14.1898: real time   14.1898
       DOS:  cpu time    0.0016: real time    0.0016
    CHARGE:  cpu time   26.9734: real time   26.9734
    MIXING:  cpu time    1.2737: real time    1.2737
    --------------------------------------------
      LOOP:  cpu time  311.5423: real time  311.5458

 eigenvalue-minimisations  :   703
 total energy-change (2. order) : 0.1171825E+00  (-0.1602603E-01)
 number of electron     559.9999946 magnetization 
 augmentation part      241.1314911 magnetization 

 Broyden mixing:
  rms(total) = 0.64236E+00    rms(broyden)= 0.64221E+00
  rms(prec ) = 0.73386E+00
  weight for this iteration     100.00

 eigenvalues of (default mixing * dielectric matrix)
  average eigenvalue GAMMA=   0.3606
  2.0763  1.4351  0.7155  0.3544  0.3544  0.1530  0.1530  0.1511  0.1090  0.1090
  0.0996  0.0996  0.0850  0.0638  0.0638  0.0606  0.0476

 Free energy of the ion-electron system (eV)
  ---------------------------------------------------
  alpha Z        PSCENC =        75.25431677
  Ewald energy   TEWEN  =    137587.76429750
  -Hartree energ DENC   =   -181802.57072642
  -exchange      EXHF   =         0.00000000
  -V(xc)+E(xc)   XCENC  =     -1694.09601071
  PAW double counting   =     46140.90855112   -42612.38932535
  entropy T*S    EENTRO =        -0.14813350
  eigenvalues    EBANDS =     -2956.13248008
  atomic energy  EATOM  =     45086.50549395
  Solvation  Ediel_sol  =         0.00000000
  ---------------------------------------------------
  free energy    TOTEN  =      -174.90401671 eV

  energy without entropy =     -174.75588321  energy(sigma->0) =     -174.86698334


--------------------------------------------------------------------------------------------------------




--------------------------------------- Iteration      1(  23)  ---------------------------------------


    POTLOK:  cpu time   13.8086: real time   13.8112
    SETDIJ:  cpu time    0.1371: real time    0.1371
    EDDIAG:  cpu time   70.3318: real time   70.3320
  RMM-DIIS:  cpu time  184.1860: real time  184.1890
    ORTHCH:  cpu time   14.1677: real time   14.1676
       DOS:  cpu time    0.0015: real time    0.0015
    CHARGE:  cpu time   26.7585: real time   26.7583
    MIXING:  cpu time    1.3462: real time    1.3462
    --------------------------------------------
      LOOP:  cpu time  310.7374: real time  310.7430

 eigenvalue-minimisations  :   700
 total energy-change (2. order) : 0.1356618E+00  (-0.1270724E-01)
 number of electron     559.9999947 magnetization 
 augmentation part      241.0896322 magnetization 

 Broyden mixing:
  rms(total) = 0.48964E+00    rms(broyden)= 0.48950E+00
  rms(prec ) = 0.58092E+00
  weight for this iteration     100.00

 eigenvalues of (default mixing * dielectric matrix)
  average eigenvalue GAMMA=   0.3597
  2.1586  1.4904  0.7435  0.3635  0.3635  0.1787  0.1552  0.1552  0.1087  0.1087
[...]
 -0.006  -0.012   0.003   0.004   0.005  -0.006  -0.011   0.003
 -0.011  -0.020   0.006   0.007   0.009  -0.010  -0.019   0.006
 -0.015  -0.005   0.013   0.000   0.022  -0.014  -0.005   0.012
  0.000  -0.023  -0.006  -0.015  -0.000   0.000  -0.022  -0.006
 -0.022   0.000   0.009  -0.005  -0.016  -0.022   0.000   0.008
 -0.017  -0.006   0.015   0.000   0.027  -0.017  -0.006   0.015
  0.000  -0.027  -0.007  -0.018   0.000   0.000  -0.027  -0.007
 -0.027   0.000   0.010  -0.006  -0.019  -0.026   0.000   0.010
 total augmentation occupancy for first ion, spin component:           1
  1.539  -0.028   0.006   0.015   0.020   0.075  -0.008  -0.002   0.036  -0.009   0.089  -0.030   0.011   0.002   0.003  -0.019
 -0.028   1.399   0.032   0.070   0.000  -0.007   0.072   0.010  -0.014  -0.007   0.210  -0.063   0.019   0.003   0.002  -0.006
  0.006   0.032   1.546   0.001   0.002  -0.002   0.012   0.073  -0.012   0.017  -0.052   0.017  -0.003  -0.007  -0.005   0.016
  0.015   0.070   0.001   1.344   0.043   0.034  -0.013  -0.012   0.089  -0.023  -0.081   0.021  -0.001  -0.008  -0.003   0.001
  0.020   0.000   0.002   0.043   1.440  -0.009  -0.008   0.016  -0.022   0.066  -0.094   0.030  -0.003  -0.009  -0.008   0.027
  0.075  -0.007  -0.002   0.034  -0.009   0.217   0.019  -0.001  -0.045   0.003  -0.049   0.002   0.017  -0.010   0.035  -0.004
 -0.008   0.072   0.012  -0.013  -0.008   0.019   0.261  -0.023  -0.003   0.006  -0.108   0.007  -0.001   0.051  -0.010  -0.000
 -0.002   0.010   0.073  -0.012   0.016  -0.001  -0.023   0.215   0.013  -0.020   0.028  -0.001  -0.012   0.009  -0.018   0.003
  0.036  -0.014  -0.012   0.089  -0.022  -0.045  -0.003   0.013   0.261   0.007   0.043  -0.004  -0.009   0.036   0.004   0.000
 -0.009  -0.007   0.017  -0.023   0.066   0.003   0.006  -0.020   0.007   0.258   0.046  -0.003  -0.038   0.002   0.049   0.007
  0.089   0.210  -0.052  -0.081  -0.094  -0.049  -0.108   0.028   0.043   0.046   0.951  -0.140   0.084   0.014   0.064  -0.013
 -0.030  -0.063   0.017   0.021   0.030   0.002   0.007  -0.001  -0.004  -0.003  -0.140   0.023  -0.014  -0.003  -0.010   0.003
  0.011   0.019  -0.003  -0.001  -0.003   0.017  -0.001  -0.012  -0.009  -0.038   0.084  -0.014   0.029  -0.008  -0.004  -0.003
  0.002   0.003  -0.007  -0.008  -0.009  -0.010   0.051   0.009   0.036   0.002   0.014  -0.003  -0.008   0.036   0.004   0.000
  0.003   0.002  -0.005  -0.003  -0.008   0.035  -0.010  -0.018   0.004   0.049   0.064  -0.010  -0.004   0.004   0.034  -0.000
 -0.019  -0.006   0.016   0.001   0.027  -0.004  -0.000   0.003   0.000   0.007  -0.013   0.003  -0.003   0.000  -0.000   0.001
  0.001  -0.028  -0.007  -0.018   0.001   0.001  -0.008  -0.001  -0.006  -0.000  -0.003   0.001   0.000  -0.003  -0.000   0.000
 -0.028   0.001   0.012  -0.005  -0.020  -0.006   0.001   0.003  -0.001  -0.007  -0.008   0.001  -0.000  -0.000  -0.003   0.000


------------------------ aborting loop because EDIFF is reached ----------------------------------------


    CHARGE:  cpu time   25.8620: real time   25.8630
    FORLOC:  cpu time    6.8176: real time    6.8187
    FORNL :  cpu time   66.3105: real time   66.3140
    STRESS:  cpu time  201.4512: real time  201.4723
    FORCOR:  cpu time   21.8023: real time   21.8049
    FORHAR:  cpu time    9.7399: real time    9.7402
    MIXING:  cpu time    3.7286: real time    3.7287
    OFIELD:  cpu time    0.0000: real time    0.0000

  FORCE on cell =-STRESS in cart. coord.  units (eV):
  Direction    XX          YY          ZZ          XY          YZ          ZX
  --------------------------------------------------------------------------------------
  Alpha Z    75.25432    75.25432    75.25432
  Ewald   48640.68403 44012.65522 44934.31941   992.64619   620.84144  1680.05553
  Hartree 63246.31704 58923.77445 59779.67336   903.43852   564.19086  1518.84159
  E(xc)   -2902.80285 -2905.04943 -2904.46846     0.60258     0.37771     1.27899
  Local  ************************************ -1886.83492 -1179.17730 -3180.94809
  n-local  -887.61734  -880.52605  -882.17502    -2.21551    -1.69992    -3.53179
  augment  4101.33762  4105.63868  4104.34593    -0.96590    -0.69500    -2.45961
  Kinetic  7788.00073  7812.23207  7806.08617    -6.58589    -3.91640   -13.89325
  Fock        0.00000     0.00000     0.00000     0.00000     0.00000     0.00000
  -------------------------------------------------------------------------------------
  Total    -114.32400  -113.52424  -114.21772     0.08507    -0.07860    -0.65663
  in kB      -6.78398    -6.73652    -6.77767     0.00505    -0.00466    -0.03896
  external pressure =       -6.77 kB  Pullay stress =        0.00 kB


 VOLUME and BASIS-vectors are now :
 -----------------------------------------------------------------------------
  energy-cutoff  :      400.00
  volume of cell :    27000.00
      direct lattice vectors                 reciprocal lattice vectors
    30.000000000  0.000000000  0.000000000     0.033333333  0.000000000  0.000000000
     0.000000000 30.000000000  0.000000000     0.000000000  0.033333333  0.000000000
     0.000000000  0.000000000 30.000000000     0.000000000  0.000000000  0.033333333

  length of vectors
    30.000000000 30.000000000 30.000000000     0.033333333  0.033333333  0.033333333


 FORCES acting on ions
    electron-ion (+dipol)            ewald-force                    non-local-force                 convergence-correction
 -----------------------------------------------------------------------------------------------
   0.368E+03 0.983E+03 0.410E+03   -.365E+03 -.980E+03 -.409E+03   -.150E+01 -.185E+01 -.232E+00   0.659E-02 0.260E-02 0.129E-02
   -.974E+03 -.396E+03 0.415E+03   0.971E+03 0.394E+03 -.414E+03   0.182E+01 0.150E+01 -.204E+00   -.799E-02 0.149E-03 -.242E-02
   -.405E+03 0.974E+03 0.414E+03   0.403E+03 -.971E+03 -.413E+03   0.150E+01 -.181E+01 -.228E+00   -.105E-02 0.495E-02 0.739E-03
   0.938E+03 -.445E+03 0.397E+03   -.935E+03 0.443E+03 -.397E+03   -.188E+01 0.128E+01 -.235E+00   0.304E-02 -.140E-03 -.501E-02
   -.215E+02 0.590E+03 0.966E+03   0.214E+02 -.589E+03 -.963E+03   0.414E-01 -.323E+00 -.236E+01   0.453E-02 0.573E-02 0.332E-02
   -.562E+01 0.587E+03 -.970E+03   0.562E+01 -.586E+03 0.966E+03   -.540E-02 -.292E+00 0.234E+01   0.862E-03 -.347E-02 -.491E-02
   -.104E+02 0.114E+04 -.563E+01   0.104E+02 -.113E+04 0.563E+01   -.840E-02 -.310E+01 -.456E-02   0.127E-02 0.368E-02 -.399E-03
   0.112E+04 -.330E+02 -.585E+02   -.112E+04 0.331E+02 0.586E+02   -.302E+01 -.729E-01 -.107E+00   -.313E-02 0.263E-04 -.548E-02
   -.113E+04 -.110E+01 -.189E+01   0.113E+04 0.110E+01 0.190E+01   0.310E+01 -.685E-03 -.743E-02   -.217E-02 0.259E-02 -.302E-02
   -.457E+01 -.114E+04 -.256E+01   0.457E+01 0.113E+04 0.257E+01   -.859E-03 0.311E+01 -.726E-02   0.269E-02 0.743E-03 -.340E-02
   -.586E+03 0.579E+03 0.812E+03   0.583E+03 -.576E+03 -.809E+03   0.154E+01 -.156E+01 -.220E+01   -.427E-02 0.485E-02 0.193E-02
   -.581E+03 0.578E+03 -.815E+03   0.578E+03 -.576E+03 0.812E+03   0.157E+01 -.155E+01 0.220E+01   0.189E-02 -.186E-02 -.122E-02
   0.561E+03 -.599E+03 0.815E+03   -.559E+03 0.597E+03 -.812E+03   -.157E+01 0.155E+01 -.221E+01   0.511E-02 -.307E-02 -.908E-03
   0.574E+03 -.582E+03 -.819E+03   -.571E+03 0.580E+03 0.815E+03   -.157E+01 0.155E+01 0.219E+01   -.602E-03 0.405E-02 0.240E-02
   0.511E+03 0.597E+03 0.826E+03   -.508E+03 -.594E+03 -.823E+03   -.162E+01 -.146E+01 -.207E+01   0.521E-02 0.217E-02 0.157E-03
   0.571E+03 0.579E+03 -.823E+03   -.569E+03 -.577E+03 0.820E+03   -.156E+01 -.156E+01 0.219E+01   0.123E-02 -.557E-02 -.115E-02
   -.583E+03 -.581E+03 0.812E+03   0.581E+03 0.579E+03 -.809E+03   0.155E+01 0.156E+01 -.220E+01   -.347E-02 -.555E-02 0.251E-02
   -.580E+03 -.579E+03 -.814E+03   0.578E+03 0.577E+03 0.811E+03   0.155E+01 0.156E+01 0.220E+01   0.502E-02 -.271E-04 -.539E-03
   0.384E+03 0.975E+03 -.426E+03   -.382E+03 -.972E+03 0.426E+03   -.152E+01 -.180E+01 0.196E+00   0.378E-02 -.428E-02 -.725E-02
   -.972E+03 -.395E+03 -.418E+03   0.969E+03 0.393E+03 0.418E+03   0.183E+01 0.150E+01 0.222E+00   -.102E-02 0.330E-02 -.370E-02
   -.334E+03 0.320E+03 0.450E+03   0.334E+03 -.320E+03 -.451E+03   -.419E+00 0.377E+00 0.523E+00   -.249E-02 0.353E-02 -.374E-02
   0.800E+03 0.354E+03 0.317E+03   -.802E+03 -.354E+03 -.319E+03   0.150E+01 -.401E+00 0.142E+01   0.336E-02 -.141E-03 -.430E-02
   -.399E+03 -.975E+03 0.415E+03   0.397E+03 0.972E+03 -.414E+03   0.149E+01 0.182E+01 -.230E+00   0.425E-02 -.677E-02 -.451E-02
   -.400E+03 0.972E+03 -.421E+03   0.398E+03 -.970E+03 0.420E+03   0.150E+01 -.181E+01 0.204E+00   -.248E-02 -.302E-02 -.829E-02
   0.963E+03 -.404E+03 -.433E+03   -.960E+03 0.402E+03 0.433E+03   -.181E+01 0.152E+01 0.260E+00   -.170E-02 0.338E-02 -.122E-02
   -.974E+03 0.393E+03 0.415E+03   0.971E+03 -.391E+03 -.414E+03   0.183E+01 -.149E+01 -.206E+00   -.796E-02 0.258E-02 -.390E-02
   0.385E+03 -.981E+03 0.414E+03   -.383E+03 0.978E+03 -.413E+03   -.149E+01 0.182E+01 -.225E+00   0.376E-02 -.399E-02 -.589E-02
   0.283E+03 0.318E+03 0.443E+03   -.283E+03 -.318E+03 -.444E+03   0.544E+00 0.333E+00 0.443E+00   0.108E-01 0.220E-02 -.360E-02
   -.153E+02 0.640E+03 -.816E+01   0.152E+02 -.641E+03 0.814E+01   0.230E-01 0.728E+00 0.171E-01   0.329E-02 -.103E-02 -.581E-02
   -.593E+03 -.201E+01 0.964E+03   0.592E+03 0.201E+01 -.961E+03   0.290E+00 -.498E-04 -.235E+01   -.647E-02 0.805E-03 0.241E-02
   -.589E+03 -.979E+00 -.967E+03   0.588E+03 0.983E+00 0.963E+03   0.313E+00 -.576E-02 0.235E+01   0.170E-02 0.312E-02 -.338E-03
   0.530E+03 -.303E+02 0.977E+03   -.529E+03 0.305E+02 -.973E+03   -.458E+00 -.136E+00 -.223E+01   0.763E-02 0.490E-03 0.307E-03
   0.580E+03 -.305E+01 -.974E+03   -.579E+03 0.304E+01 0.971E+03   -.312E+00 0.705E-02 0.234E+01   0.231E-02 0.286E-03 0.307E-02
   0.730E+03 0.769E+03 -.284E+02   -.728E+03 -.767E+03 0.284E+02   -.123E+01 -.122E+01 -.835E-02   0.765E-02 -.403E-02 -.379E-02
   -.764E+03 -.763E+03 -.223E+01   0.762E+03 0.761E+03 0.223E+01   0.115E+01 0.114E+01 0.385E-02   0.215E-02 -.314E-02 -.614E-02
   -.766E+03 0.760E+03 -.307E+01   0.764E+03 -.758E+03 0.308E+01   0.114E+01 -.114E+01 0.307E-02   -.577E-02 0.234E-05 -.614E-02
   0.749E+03 -.774E+03 -.102E+02   -.747E+03 0.772E+03 0.102E+02   -.112E+01 0.117E+01 0.234E-01   0.153E-02 0.848E-03 -.565E-02
   -.197E+02 -.593E+01 0.107E+04   0.197E+02 0.592E+01 -.107E+04   0.427E-01 0.102E-01 -.162E+01   0.531E-02 0.440E-03 0.465E-02
   -.524E+01 -.168E+01 -.107E+04   0.524E+01 0.168E+01 0.107E+04   0.211E-02 -.297E-02 0.161E+01   0.357E-02 0.223E-03 -.208E-03
   0.960E+03 0.391E+03 -.443E+03   -.957E+03 -.389E+03 0.442E+03   -.184E+01 -.151E+01 0.240E+00   -.598E-03 -.412E-02 -.217E-02
   -.397E+03 -.973E+03 -.419E+03   0.395E+03 0.971E+03 0.418E+03   0.151E+01 0.181E+01 0.227E+00   0.583E-02 -.528E-03 -.268E-02
   -.327E+03 0.320E+03 -.458E+03   0.328E+03 -.320E+03 0.458E+03   -.370E+00 0.368E+00 -.524E+00   -.545E-03 -.609E-03 -.916E-02
   0.299E+03 -.335E+03 0.447E+03   -.299E+03 0.336E+03 -.448E+03   0.397E+00 -.342E+00 0.525E+00   0.890E-02 -.520E-02 -.749E-02
   0.308E+03 0.319E+03 -.465E+03   -.309E+03 -.320E+03 0.466E+03   0.389E+00 0.367E+00 -.506E+00   0.706E-02 -.427E-02 -.761E-02
   -.973E+03 0.393E+03 -.418E+03   0.970E+03 -.391E+03 0.418E+03   0.182E+01 -.150E+01 0.228E+00   -.733E-03 0.170E-02 -.365E-02
   0.389E+03 -.976E+03 -.421E+03   -.387E+03 0.973E+03 0.420E+03   -.151E+01 0.181E+01 0.208E+00   -.750E-03 0.290E-02 -.624E-03
   -.330E+03 -.325E+03 0.451E+03   0.331E+03 0.326E+03 -.451E+03   -.389E+00 -.376E+00 0.519E+00   0.115E-02 -.504E-02 -.581E-02
   0.612E+03 -.142E+02 -.250E+02   -.613E+03 0.140E+02 0.248E+02   0.763E+00 0.138E+00 0.169E+00   0.755E-02 -.142E-02 -.925E-02
   -.644E+03 -.172E+01 -.296E+01   0.645E+03 0.172E+01 0.299E+01   -.722E+00 0.987E-03 -.147E-01   -.427E-02 0.259E-02 -.876E-02
   -.108E+02 -.594E+03 0.965E+03   0.108E+02 0.593E+03 -.961E+03   0.232E-02 0.317E+00 -.234E+01   0.456E-02 -.683E-02 0.110E-02
   -.397E+01 -.589E+03 -.968E+03   0.393E+01 0.588E+03 0.964E+03   0.247E-01 0.312E+00 0.235E+01   0.288E-02 0.370E-03 0.695E-03
   -.143E+02 -.434E+01 -.764E+01   0.143E+02 0.434E+01 0.764E+01   0.117E-01 0.416E-02 0.566E-02   0.612E-02 -.420E-02 -.116E-01
   0.312E+03 -.326E+03 -.462E+03   -.312E+03 0.327E+03 0.463E+03   0.347E+00 -.390E+00 -.564E+00   0.494E-02 -.134E-02 -.367E-02
   -.326E+03 -.323E+03 -.457E+03   0.327E+03 0.324E+03 0.458E+03   -.374E+00 -.353E+00 -.517E+00   0.590E-02 -.175E-02 -.599E-02
   -.856E+01 -.644E+03 -.465E+01   0.857E+01 0.645E+03 0.467E+01   -.166E-01 -.742E+00 -.102E-01   0.648E-02 -.526E-02 -.870E-02
   0.187E+03 0.648E+02 0.970E+02   -.164E+03 -.585E+02 -.853E+02   -.177E+02 -.519E+01 -.904E+01   0.152E-03 -.181E-03 -.941E-03
   0.598E+03 0.190E+03 0.313E+03   -.654E+03 -.206E+03 -.341E+03   0.529E+02 0.154E+02 0.271E+02   0.456E-03 -.258E-03 -.852E-03
 -----------------------------------------------------------------------------------------------
   -.385E+02 -.111E+02 -.197E+02   0.341E-12 0.853E-12 -.227E-12   0.384E+02 0.111E+02 0.198E+02   0.103E+00 -.268E-01 -.167E+00
 
 
 POSITION                                       TOTAL-FORCE (eV/Angst)
 -----------------------------------------------------------------------------------
     13.37281      9.84801     12.50759         0.713502      1.102084      0.290292
     20.15199     16.62719     12.50759        -1.114445     -0.702767      0.285543
     16.62719      9.84801     12.50759        -0.708363      1.108252      0.291936
      9.84801     16.62719     12.50759         1.143396     -0.599979      0.311556
     15.00000     11.47521     10.20639        -0.011968      0.411692      1.279794
     15.00000     11.47521     19.79360         0.002359      0.408177     -1.285312
     15.00000      8.28283     15.00000         0.003326      1.519778      0.003006
      8.28283     15.00000     15.00000         1.524734      0.022860      0.037499
     21.71717     15.00000     15.00000        -1.516096     -0.000175     -0.000077
     15.00000     21.71717     15.00000         0.000130     -1.519068      0.004515
     18.35858     11.64142     10.25025        -0.745690      0.766269      1.078372
     18.35858     11.64142     19.74975        -0.762658      0.750674     -1.073081
     11.64142     18.35858     10.25025         0.754827     -0.772708      1.081406
     11.64142     18.35858     19.74975         0.770755     -0.750691     -1.072387
     11.64142     11.64142     10.25025         0.796007      0.743600      1.059149
     11.64142     11.64142     19.74975         0.761505      0.756982     -1.071973
     18.35858     18.35858     10.25025        -0.754158     -0.760909      1.074196
     18.35858     18.35858     19.74975        -0.755615     -0.756260     -1.071789
     13.37281      9.84801     17.49241         0.726610      1.109504     -0.276745
     20.15199     16.62719     17.49241        -1.108590     -0.705756     -0.290873
     16.73751     13.26249     12.54279         0.143316     -0.108511     -0.162883
      9.84801     13.37281     12.50759        -0.862711      0.234253     -0.845663
     16.62719     20.15199     12.50759        -0.701997     -1.107604      0.292606
     16.62719      9.84801     17.49241        -0.708605      1.109809     -0.286538
      9.84801     16.62719     17.49241         1.100193     -0.709530     -0.299309
     20.15199     13.37281     12.50759        -1.116119      0.698656      0.282632
     13.37281     20.15199     12.50759         0.704366     -1.107460      0.292305
     13.26249     13.26249     12.54279        -0.145029     -0.099071     -0.120411
     15.00000     11.52498     15.00000        -0.007719     -0.230645     -0.004194
     18.52479     15.00000     10.20639        -0.405373     -0.002514      1.284331
     18.52479     15.00000     19.79360        -0.413071      0.000687     -1.283059
     11.47521     15.00000     10.20640         0.495874      0.058414      1.232051
     11.47521     15.00000     19.79360         0.411984     -0.002180     -1.284035
     11.49535     11.49535     15.00000         0.865484      0.838016      0.020257
     18.50465     18.50465     15.00000        -0.828909     -0.828458     -0.000535
     18.50465     11.49535     15.00000        -0.826740      0.827430      0.000778
     11.49535     18.50465     15.00000         0.823232     -0.831991     -0.015202
     15.00000     15.00000     10.04368        -0.014078      0.006672      1.176406
     15.00000     15.00000     19.95633         0.000785     -0.000512     -1.175916
      9.84801     13.37281     17.49241         1.108532      0.706655     -0.282640
     16.62719     20.15199     17.49241        -0.710785     -1.106415     -0.297676
     16.73751     13.26249     17.45721         0.111998     -0.113644      0.158490
     13.26249     16.73751     12.54279        -0.116192      0.104619     -0.154871
     13.26249     13.26249     17.45721        -0.119613     -0.113940      0.152238
     20.15199     13.37281     17.49241        -1.108436      0.705543     -0.291871
     13.37281     20.15199     17.49241         0.708636     -1.107190     -0.284189
     16.73751     16.73751     12.54279         0.114531      0.110469     -0.157932
     11.52498     15.00000     15.00000        -0.223034     -0.043031     -0.043754
     18.47502     15.00000     15.00000         0.228472      0.001561      0.005075
     15.00000     18.52480     10.20639         0.000944     -0.413344      1.280944
     15.00000     18.52480     19.79360        -0.012971     -0.413730     -1.282828
     15.00000     15.00000     15.00000        -0.018167     -0.000744     -0.013105
     13.26249     16.73751     17.45721        -0.099377      0.133596      0.177229
     16.73751     16.73751     17.45721         0.115904      0.108165      0.155108
     15.00000     18.47502     15.00000         0.000484      0.230241      0.003014
      7.97931     12.96589     11.39365         4.682298      1.123010      2.648073
      7.00769     12.68438     10.89456        -2.897671     -0.788842     -1.529950
 -----------------------------------------------------------------------------------
    total drift:                               -0.009048     -0.004445      0.004518


--------------------------------------------------------------------------------------------------------



  FREE ENERGIE OF THE ION-ELECTRON SYSTEM (eV)
  ---------------------------------------------------
  free  energy   TOTEN  =      -174.61786789 eV

  energy  without entropy=     -174.49659131  energy(sigma->0) =     -174.58754875
 


--------------------------------------------------------------------------------------------------------


    POTLOK:  cpu time   14.1825: real time   14.1839


--------------------------------------------------------------------------------------------------------


     LOOP+:  cpu time18173.5497: real time18174.1489
    4ORBIT:  cpu time    0.0000: real time    0.0000

 total amount of memory used by VASP MPI-rank0  5486941. kBytes
=======================================================================

   base      :      30000. kBytes
   nonlr-proj:      17126. kBytes
   fftplans  :     924480. kBytes
   grid      :    1872000. kBytes
   one-center:        886. kBytes
   wavefun   :    2642449. kBytes
 
  
  
 General timing and accounting informations for this job:
 ========================================================
  
                  Total CPU time used (sec):    18247.510
                            User time (sec):    17239.730
                          System time (sec):     1007.780
                         Elapsed time (sec):    18248.157
  
                   Maximum memory used (kb):     7178724.
                   Average memory used (kb):           0.
  
                          Minor page faults:    809654058
                          Major page faults:            0
                 Voluntary context switches:          568
