       N       E                     dE             d eps       ncg     rms          rms(c)
DAV:   1     0.439465336951E+04    0.43947E+04   -0.10051E+05   688   0.815E+02
DAV:   2     0.201058003008E+04   -0.23841E+04   -0.21456E+04  1224   0.105E+02
DAV:   3     0.234958161293E+03   -0.17756E+04   -0.16734E+04  1000   0.919E+01
DAV:   4    -0.135656212609E+03   -0.37061E+03   -0.31439E+03   832   0.435E+01
DAV:   5    -0.180606452355E+03   -0.44950E+02   -0.36864E+02  1064   0.146E+01    0.155E+01
RMM:   6    -0.180686395104E+03   -0.79943E-01   -0.60083E+01   724   0.923E+00    0.239E+01
RMM:   7    -0.182931634786E+03   -0.22452E+01   -0.21097E+01   859   0.468E+00    0.210E+01
RMM:   8    -0.184777565483E+03   -0.18459E+01   -0.70698E+00   764   0.365E+00    0.267E+01
RMM:   9    -0.181328871692E+03    0.34487E+01   -0.54001E+00   728   0.321E+00    0.207E+01
RMM:  10    -0.179474931049E+03    0.18539E+01   -0.31435E+00   725   0.264E+00    0.190E+01
RMM:  11    -0.178919634437E+03    0.55530E+00   -0.20458E+00   730   0.209E+00    0.181E+01
RMM:  12    -0.178532948583E+03    0.38669E+00   -0.13385E+00   730   0.172E+00    0.184E+01
RMM:  13    -0.177737022383E+03    0.79593E+00   -0.17172E+00   716   0.192E+00    0.164E+01
RMM:  14    -0.177332863379E+03    0.40416E+00   -0.13227E+00   719   0.169E+00    0.182E+01
RMM:  15    -0.176576151413E+03    0.75671E+00   -0.10653E+00   713   0.149E+00    0.109E+01
RMM:  16    -0.176617960882E+03   -0.41809E-01   -0.65981E-01   717   0.122E+00    0.131E+01
RMM:  17    -0.176408550429E+03    0.20941E+00   -0.39778E-01   719   0.972E-01    0.123E+01
RMM:  18    -0.175936979944E+03    0.47157E+00   -0.44911E-01   703   0.105E+00    0.736E+00
RMM:  19    -0.175794968801E+03    0.14201E+00   -0.28866E-01   697   0.843E-01    0.730E+00
RMM:  20    -0.175882605063E+03   -0.87636E-01   -0.24426E-01   710   0.759E-01    0.804E+00
RMM:  21    -0.175702134704E+03    0.18047E+00   -0.23477E-01   707   0.773E-01    0.626E+00
RMM:  22    -0.175694479197E+03    0.76555E-02   -0.23854E-01   694   0.747E-01    0.745E+00
RMM:  23    -0.175567189499E+03    0.12729E+00   -0.13639E-01   696   0.580E-01    0.451E+00
RMM:  24    -0.175529342507E+03    0.37847E-01   -0.10448E-01   696   0.510E-01    0.407E+00
RMM:  25    -0.175473541171E+03    0.55801E-01   -0.66537E-02   694   0.411E-01    0.341E+00
RMM:  26    -0.175455009985E+03    0.18531E-01   -0.35110E-02   693   0.305E-01    0.294E+00
RMM:  27    -0.175433895807E+03    0.21114E-01   -0.21946E-02   699   0.248E-01    0.233E+00
RMM:  28    -0.175417199483E+03    0.16696E-01   -0.16131E-02   693   0.207E-01    0.169E+00
RMM:  29    -0.175411452875E+03    0.57466E-02   -0.10410E-02   694   0.168E-01    0.154E+00
RMM:  30    -0.175405604812E+03    0.58481E-02   -0.67507E-03   695   0.135E-01    0.127E+00
RMM:  31    -0.175402278821E+03    0.33260E-02   -0.59957E-03   690   0.119E-01    0.124E+00
RMM:  32    -0.175397103239E+03    0.51756E-02   -0.48155E-03   691   0.110E-01    0.831E-01
RMM:  33    -0.175397496895E+03   -0.39366E-03   -0.43123E-03   691   0.104E-01    0.820E-01
RMM:  34    -0.175396148544E+03    0.13484E-02   -0.26399E-03   691   0.878E-02    0.643E-01
RMM:  35    -0.175395629549E+03    0.51899E-03   -0.12364E-03   688   0.588E-02    0.458E-01
RMM:  36    -0.175397413781E+03   -0.17842E-02   -0.14122E-03   689   0.582E-02    0.456E-01
RMM:  37    -0.175398931576E+03   -0.15178E-02   -0.12382E-03   687   0.558E-02    0.358E-01
RMM:  38    -0.175401386823E+03   -0.24552E-02   -0.91342E-04   684   0.478E-02    0.377E-01
RMM:  39    -0.175404147686E+03   -0.27609E-02   -0.84993E-04   681   0.434E-02    0.201E-01
RMM:  40    -0.175406012765E+03   -0.18651E-02   -0.43476E-04   519   0.321E-02    0.192E-01
RMM:  41    -0.175408737924E+03   -0.27252E-02   -0.46472E-04   517   0.304E-02    0.178E-01
RMM:  42    -0.175410256864E+03   -0.15189E-02   -0.25828E-04   424   0.238E-02    0.135E-01
RMM:  43    -0.175412786594E+03   -0.25297E-02   -0.33358E-04   451   0.242E-02    0.150E-01
RMM:  44    -0.175414522616E+03   -0.17360E-02   -0.27842E-04   432   0.220E-02    0.156E-01
RMM:  45    -0.175416437198E+03   -0.19146E-02   -0.30940E-04   458   0.209E-02    0.135E-01
RMM:  46    -0.175417538119E+03   -0.11009E-02   -0.17760E-04   416   0.172E-02    0.593E-02
RMM:  47    -0.175418265353E+03   -0.72723E-03   -0.87957E-05   415   0.117E-02    0.607E-02
RMM:  48    -0.175419734102E+03   -0.14687E-02   -0.85119E-05   404   0.109E-02    0.471E-02
RMM:  49    -0.175420279886E+03   -0.54578E-03   -0.47814E-05   400   0.808E-03    0.365E-02
RMM:  50    -0.175421277655E+03   -0.99777E-03   -0.47937E-05   401   0.779E-03    0.322E-02
RMM:  51    -0.175421404539E+03   -0.12688E-03   -0.19809E-05   344   0.590E-03    0.236E-02
RMM:  52    -0.175422095180E+03   -0.69064E-03   -0.20067E-05   321   0.562E-03    0.208E-02
RMM:  53    -0.175422330004E+03   -0.23482E-03   -0.52577E-06   172   0.411E-03    0.124E-02
RMM:  54    -0.175422806707E+03   -0.47670E-03   -0.16763E-05   307   0.493E-03    0.198E-02
RMM:  55    -0.175423106909E+03   -0.30020E-03   -0.81326E-06   198   0.413E-03    0.821E-03
RMM:  56    -0.175423327135E+03   -0.22023E-03   -0.10599E-05   209   0.411E-03    0.116E-02
RMM:  57    -0.175423545313E+03   -0.21818E-03   -0.10132E-05   183   0.419E-03    0.663E-03
RMM:  58    -0.175423621540E+03   -0.76228E-04   -0.45163E-06   140   0.379E-03
   1 F= -.17542362E+03 E0= -.17541592E+03  d E =-.307913E-01
