  57  57   0   0
  0.4736842E+03  0.3000000E-08  0.3000000E-08  0.3000000E-08  0.5000000E-15
  1.000000000000000E-004
  CAR 
 6_Pd100_top_free_z(O)                   
      1.20059282    -30.38135915  301     -4.14774525      1.00000000
    -30.381  0.0000E+00  0.0000E+00
    -30.276  0.0000E+00  0.0000E+00
    -30.171  0.0000E+00  0.0000E+00
    -30.066  0.2430E-27  0.2558E-28
    -29.960  0.1067E-23  0.1123E-24
    -29.855  0.2650E-20  0.2791E-21
    -29.750  0.3716E-17  0.3915E-18
    -29.644  0.2932E-14  0.3090E-15
    -29.539  0.1297E-11  0.1369E-12
    -29.434  0.3194E-09  0.3376E-10
    -29.329  0.4335E-07  0.4598E-08
    -29.223  0.3202E-05  0.3417E-06
    -29.118  0.1257E-03  0.1358E-04
    -29.013  0.2512E-02  0.2780E-03
    -28.908  0.2304E-01  0.2703E-02
    -28.802  0.6452E-01  0.9496E-02
    -28.697 -0.2005E+00 -0.1161E-01
    -28.592 -0.8210E+00 -0.9805E-01
    -28.486  0.1833E+01  0.9488E-01
    -28.381  0.8617E+01  0.1002E+01
    -28.276  0.8598E+01  0.1907E+01
    -28.171  0.1812E+01  0.2098E+01
    -28.065 -0.8212E+00  0.2011E+01
    -27.960 -0.1983E+00  0.1991E+01
    -27.855  0.6454E-01  0.1997E+01
    -27.750  0.2289E-01  0.2000E+01
    -27.644  0.2488E-02  0.2000E+01
    -27.539  0.1242E-03  0.2000E+01
    -27.434  0.3156E-05  0.2000E+01
    -27.328  0.4264E-07  0.2000E+01
    -27.223  0.3134E-09  0.2000E+01
    -27.118  0.1272E-11  0.2000E+01
    -27.013  0.2109E-14  0.2000E+01
    -26.907  0.0000E+00  0.2000E+01
    -26.802  0.0000E+00  0.2000E+01
    -26.697  0.0000E+00  0.2000E+01
    -26.592  0.0000E+00  0.2000E+01
    -26.486  0.0000E+00  0.2000E+01
    -26.381  0.0000E+00  0.2000E+01
    -26.276  0.0000E+00  0.2000E+01
    -26.170  0.0000E+00  0.2000E+01
    -26.065  0.0000E+00  0.2000E+01
    -25.960  0.0000E+00  0.2000E+01
    -25.855  0.0000E+00  0.2000E+01
    -25.749  0.0000E+00  0.2000E+01
    -25.644  0.0000E+00  0.2000E+01
    -25.539  0.0000E+00  0.2000E+01
    -25.434  0.0000E+00  0.2000E+01
    -25.328  0.0000E+00  0.2000E+01
    -25.223  0.0000E+00  0.2000E+01
    -25.118  0.0000E+00  0.2000E+01
    -25.012  0.0000E+00  0.2000E+01
    -24.907  0.0000E+00  0.2000E+01
    -24.802  0.0000E+00  0.2000E+01
    -24.697  0.0000E+00  0.2000E+01
    -24.591  0.0000E+00  0.2000E+01
    -24.486  0.0000E+00  0.2000E+01
    -24.381  0.0000E+00  0.2000E+01
    -24.276  0.0000E+00  0.2000E+01
    -24.170  0.0000E+00  0.2000E+01
    -24.065  0.0000E+00  0.2000E+01
    -23.960  0.0000E+00  0.2000E+01
    -23.854  0.0000E+00  0.2000E+01
    -23.749  0.0000E+00  0.2000E+01
    -23.644  0.0000E+00  0.2000E+01
    -23.539  0.0000E+00  0.2000E+01
    -23.433  0.0000E+00  0.2000E+01
    -23.328  0.0000E+00  0.2000E+01
    -23.223  0.0000E+00  0.2000E+01
    -23.118  0.0000E+00  0.2000E+01
    -23.012  0.0000E+00  0.2000E+01
    -22.907  0.0000E+00  0.2000E+01
    -22.802  0.0000E+00  0.2000E+01
    -22.696  0.0000E+00  0.2000E+01
    -22.591  0.0000E+00  0.2000E+01
    -22.486  0.0000E+00  0.2000E+01
    -22.381  0.0000E+00  0.2000E+01
    -22.275  0.0000E+00  0.2000E+01
    -22.170  0.0000E+00  0.2000E+01
    -22.065  0.0000E+00  0.2000E+01
    -21.960  0.0000E+00  0.2000E+01
    -21.854  0.0000E+00  0.2000E+01
    -21.749  0.0000E+00  0.2000E+01
    -21.644  0.0000E+00  0.2000E+01
    -21.538  0.0000E+00  0.2000E+01
    -21.433  0.0000E+00  0.2000E+01
    -21.328  0.0000E+00  0.2000E+01
    -21.223  0.0000E+00  0.2000E+01
    -21.117  0.0000E+00  0.2000E+01
    -21.012  0.0000E+00  0.2000E+01
    -20.907  0.0000E+00  0.2000E+01
    -20.802  0.0000E+00  0.2000E+01
    -20.696  0.0000E+00  0.2000E+01
    -20.591  0.0000E+00  0.2000E+01
    -20.486  0.0000E+00  0.2000E+01
    -20.380  0.0000E+00  0.2000E+01
    -20.275  0.0000E+00  0.2000E+01
    -20.170  0.0000E+00  0.2000E+01
    -20.065  0.0000E+00  0.2000E+01
    -19.959  0.0000E+00  0.2000E+01
    -19.854  0.0000E+00  0.2000E+01
    -19.749  0.0000E+00  0.2000E+01
    -19.643  0.0000E+00  0.2000E+01
    -19.538  0.0000E+00  0.2000E+01
    -19.433  0.0000E+00  0.2000E+01
    -19.328  0.0000E+00  0.2000E+01
    -19.222  0.0000E+00  0.2000E+01
    -19.117  0.0000E+00  0.2000E+01
    -19.012  0.0000E+00  0.2000E+01
    -18.907  0.0000E+00  0.2000E+01
    -18.801  0.0000E+00  0.2000E+01
    -18.696  0.0000E+00  0.2000E+01
    -18.591  0.0000E+00  0.2000E+01
    -18.485  0.0000E+00  0.2000E+01
    -18.380  0.0000E+00  0.2000E+01
    -18.275  0.0000E+00  0.2000E+01
    -18.170  0.0000E+00  0.2000E+01
    -18.064  0.0000E+00  0.2000E+01
    -17.959  0.0000E+00  0.2000E+01
    -17.854  0.0000E+00  0.2000E+01
    -17.749  0.0000E+00  0.2000E+01
    -17.643  0.0000E+00  0.2000E+01
    -17.538  0.0000E+00  0.2000E+01
    -17.433  0.0000E+00  0.2000E+01
    -17.327  0.0000E+00  0.2000E+01
    -17.222  0.0000E+00  0.2000E+01
    -17.117  0.0000E+00  0.2000E+01
    -17.012  0.0000E+00  0.2000E+01
    -16.906  0.0000E+00  0.2000E+01
    -16.801  0.0000E+00  0.2000E+01
    -16.696  0.0000E+00  0.2000E+01
    -16.591  0.0000E+00  0.2000E+01
    -16.485  0.0000E+00  0.2000E+01
    -16.380  0.0000E+00  0.2000E+01
    -16.275  0.0000E+00  0.2000E+01
    -16.169  0.0000E+00  0.2000E+01
    -16.064  0.0000E+00  0.2000E+01
    -15.959  0.0000E+00  0.2000E+01
    -15.854  0.0000E+00  0.2000E+01
    -15.748  0.0000E+00  0.2000E+01
    -15.643  0.0000E+00  0.2000E+01
    -15.538  0.0000E+00  0.2000E+01
    -15.433  0.0000E+00  0.2000E+01
    -15.327  0.0000E+00  0.2000E+01
    -15.222  0.0000E+00  0.2000E+01
    -15.117  0.0000E+00  0.2000E+01
    -15.011  0.0000E+00  0.2000E+01
    -14.906  0.5103E-26  0.2000E+01
    -14.801  0.1830E-22  0.2000E+01
    -14.696  0.3712E-19  0.2000E+01
    -14.590  0.4246E-16  0.2000E+01
    -14.485  0.2728E-13  0.2000E+01
    -14.380  0.9816E-11  0.2000E+01
    -14.275  0.1958E-08  0.2000E+01
    -14.169  0.2145E-06  0.2000E+01
    -14.064  0.1270E-04  0.2000E+01
    -13.959  0.3949E-03  0.2000E+01
    -13.853  0.6089E-02  0.2001E+01
    -13.748  0.3996E-01  0.2005E+01
    -13.643  0.4011E-01  0.2009E+01
    -13.538 -0.4619E+00  0.1960E+01
    -13.432 -0.5412E+00  0.1904E+01
    -13.327  0.4184E+01  0.2344E+01
    -13.222  0.9907E+01  0.3387E+01
    -13.117  0.6292E+01  0.4049E+01
    -13.011  0.1769E+00  0.4068E+01
    -12.906 -0.6845E+00  0.3996E+01
    -12.801 -0.2786E-01  0.3993E+01
    -12.695  0.5494E-01  0.3999E+01
    -12.590  0.1151E-01  0.4000E+01
    -12.485  0.9309E-03  0.4000E+01
    -12.380  0.3630E-04  0.4000E+01
    -12.274  0.7343E-06  0.4000E+01
    -12.169  0.1581E-07  0.4000E+01
    -12.064  0.7235E-06  0.4000E+01
    -11.959  0.3584E-04  0.4000E+01
    -11.853  0.9215E-03  0.4000E+01
    -11.748  0.1143E-01  0.4001E+01
    -11.643  0.5483E-01  0.4007E+01
    -11.537 -0.2529E-01  0.4004E+01
    -11.432 -0.6667E+00  0.3934E+01
    -11.327  0.2256E+00  0.3958E+01
    -11.222  0.6184E+01  0.4609E+01
    -11.116  0.9145E+01  0.5572E+01
    -11.011  0.4925E+01  0.6090E+01
    -10.906  0.6732E+01  0.6799E+01
    -10.801  0.9096E+01  0.7756E+01
    -10.695  0.3245E+01  0.8098E+01
    -10.590 -0.6701E+00  0.8028E+01
    -10.485 -0.2985E+00  0.7996E+01
    -10.379  0.6866E-01  0.8003E+01
    -10.274 -0.5458E+00  0.7946E+01
    -10.169 -0.2372E+00  0.7921E+01
    -10.064  0.5251E+01  0.8474E+01
     -9.958  0.1003E+02  0.9530E+01
     -9.853  0.5225E+01  0.1008E+02
     -9.748 -0.2502E+00  0.1005E+02
     -9.643 -0.5759E+00  0.9993E+01
     -9.537  0.1331E-01  0.9994E+01
     -9.432  0.4753E-01  0.9999E+01
     -9.327  0.8414E-02  0.1000E+02
     -9.221  0.6076E-03  0.1000E+02
     -9.116  0.2148E-04  0.1000E+02
     -9.011  0.3964E-06  0.1000E+02
     -8.906  0.3942E-08  0.1000E+02
     -8.800  0.2149E-10  0.1000E+02
     -8.695  0.6539E-13  0.1000E+02
     -8.590  0.0000E+00  0.1000E+02
     -8.485  0.0000E+00  0.1000E+02
     -8.379  0.0000E+00  0.1000E+02
     -8.274  0.3465E-25  0.1000E+02
     -8.169  0.1092E-21  0.1000E+02
     -8.063  0.1944E-18  0.1000E+02
     -7.958  0.1950E-15  0.1000E+02
     -7.853  0.1098E-12  0.1000E+02
     -7.748  0.3457E-10  0.1000E+02
     -7.642  0.6022E-08  0.1000E+02
     -7.537  0.5744E-06  0.1000E+02
     -7.432  0.2946E-04  0.1000E+02
     -7.327  0.7860E-03  0.1000E+02
     -7.221  0.1018E-01  0.1000E+02
     -7.116  0.5207E-01  0.1001E+02
     -7.011 -0.9544E-02  0.1001E+02
     -6.905 -0.6425E+00  0.9938E+01
     -6.800 -0.5593E-02  0.9937E+01
     -6.695  0.5921E+01  0.1056E+02
     -6.590  0.1020E+02  0.1163E+02
     -6.484  0.4387E+01  0.1210E+02
     -6.379 -0.2905E+01  0.1179E+02
     -6.274  0.1435E+01  0.1194E+02
     -6.169  0.2446E+02  0.1452E+02
     -6.063  0.3819E+02  0.1854E+02
     -5.958  0.2421E+02  0.2108E+02
     -5.853  0.2155E+02  0.2335E+02
     -5.747  0.4917E+02  0.2853E+02
     -5.642  0.1094E+03  0.4004E+02
     -5.537  0.2162E+03  0.6280E+02
     -5.432  0.2945E+03  0.9380E+02
     -5.326  0.2610E+03  0.1213E+03
     -5.221  0.2102E+03  0.1434E+03
     -5.116  0.2537E+03  0.1701E+03
     -5.011  0.3431E+03  0.2062E+03
     -4.905  0.3518E+03  0.2433E+03
     -4.800  0.2951E+03  0.2743E+03
     -4.695  0.3261E+03  0.3087E+03
     -4.589  0.4141E+03  0.3523E+03
     -4.484  0.4235E+03  0.3968E+03
     -4.379  0.4461E+03  0.4438E+03
     -4.274  0.5434E+03  0.5010E+03
     -4.168  0.4922E+03  0.5528E+03
     -4.063  0.2319E+03  0.5772E+03
     -3.958  0.3822E+02  0.5813E+03
     -3.853  0.1624E+02  0.5830E+03
     -3.747  0.3066E+02  0.5862E+03
     -3.642  0.1637E+02  0.5879E+03
     -3.537  0.1261E+02  0.5892E+03
     -3.431  0.2427E+02  0.5918E+03
     -3.326  0.1683E+02  0.5936E+03
     -3.221  0.1184E+00  0.5936E+03
     -3.116  0.1687E+02  0.5954E+03
     -3.010  0.5864E+02  0.6015E+03
     -2.905  0.5920E+02  0.6078E+03
     -2.800  0.2155E+02  0.6100E+03
     -2.695 -0.4769E+00  0.6100E+03
     -2.589  0.7895E+01  0.6108E+03
     -2.484  0.2438E+02  0.6134E+03
     -2.379  0.2168E+02  0.6157E+03
     -2.273  0.1306E+02  0.6170E+03
     -2.168  0.2182E+02  0.6193E+03
     -2.063  0.3766E+02  0.6233E+03
     -1.958  0.4351E+02  0.6279E+03
     -1.852  0.3862E+02  0.6319E+03
     -1.747  0.3245E+02  0.6354E+03
     -1.642  0.3704E+02  0.6393E+03
     -1.537  0.3838E+02  0.6433E+03
     -1.431  0.2800E+02  0.6463E+03
     -1.326  0.1887E+02  0.6482E+03
     -1.221  0.1348E+02  0.6497E+03
     -1.115  0.2035E+02  0.6518E+03
     -1.010  0.5031E+02  0.6571E+03
     -0.905  0.7420E+02  0.6649E+03
     -0.800  0.5452E+02  0.6706E+03
     -0.694  0.1598E+02  0.6723E+03
     -0.589 -0.1778E+01  0.6721E+03
     -0.484 -0.1709E+01  0.6720E+03
     -0.379  0.1067E+00  0.6720E+03
     -0.273  0.1977E+00  0.6720E+03
     -0.168  0.4147E-01  0.6720E+03
     -0.063  0.3725E-02  0.6720E+03
      0.043  0.1674E-03  0.6720E+03
      0.148  0.3976E-05  0.6720E+03
      0.253  0.5126E-07  0.6720E+03
      0.358  0.3643E-09  0.6720E+03
      0.464  0.1438E-11  0.6720E+03
      0.569  0.2109E-14  0.6720E+03
      0.674  0.0000E+00  0.6720E+03
      0.780  0.0000E+00  0.6720E+03
      0.885  0.0000E+00  0.6720E+03
      0.990  0.0000E+00  0.6720E+03
      1.095  0.0000E+00  0.6720E+03
      1.201  0.0000E+00  0.6720E+03
