       N       E                     dE             d eps       ncg     rms          rms(c)
DAV:   1     0.438175619261E+04    0.43818E+04   -0.10049E+05   688   0.815E+02
DAV:   2     0.201072862078E+04   -0.23710E+04   -0.21338E+04  1224   0.105E+02
DAV:   3     0.234193614562E+03   -0.17765E+04   -0.16726E+04  1000   0.917E+01
DAV:   4    -0.135170872499E+03   -0.36936E+03   -0.31400E+03   832   0.435E+01
DAV:   5    -0.179005001998E+03   -0.43834E+02   -0.36598E+02  1040   0.144E+01    0.139E+01
RMM:   6    -0.177804497137E+03    0.12005E+01   -0.47298E+01   726   0.844E+00    0.192E+01
RMM:   7    -0.181021789949E+03   -0.32173E+01   -0.17204E+01   850   0.453E+00    0.215E+01
RMM:   8    -0.183422800276E+03   -0.24010E+01   -0.60672E+00   790   0.324E+00    0.280E+01
RMM:   9    -0.181460794612E+03    0.19620E+01   -0.43997E+00   743   0.298E+00    0.261E+01
RMM:  10    -0.179141168781E+03    0.23196E+01   -0.28588E+00   735   0.249E+00    0.243E+01
RMM:  11    -0.176895544093E+03    0.22456E+01   -0.13220E+00   735   0.169E+00    0.158E+01
RMM:  12    -0.175760984574E+03    0.11346E+01   -0.12574E+00   720   0.168E+00    0.134E+01
RMM:  13    -0.175233267486E+03    0.52772E+00   -0.74469E-01   722   0.127E+00    0.128E+01
RMM:  14    -0.175727151174E+03   -0.49388E+00   -0.79436E-01   717   0.130E+00    0.218E+01
RMM:  15    -0.175657486227E+03    0.69665E-01   -0.10610E+00   722   0.144E+00    0.165E+01
RMM:  16    -0.175538272823E+03    0.11921E+00   -0.80433E-01   719   0.130E+00    0.146E+01
RMM:  17    -0.175427489823E+03    0.11078E+00   -0.74604E-01   716   0.129E+00    0.215E+01
RMM:  18    -0.174786315737E+03    0.64117E+00   -0.55886E-01   705   0.111E+00    0.118E+01
RMM:  19    -0.174518945309E+03    0.26737E+00   -0.34509E-01   705   0.863E-01    0.985E+00
RMM:  20    -0.174395805984E+03    0.12314E+00   -0.49464E-01   699   0.102E+00    0.750E+00
RMM:  21    -0.174450877782E+03   -0.55072E-01   -0.34154E-01   709   0.899E-01    0.814E+00
RMM:  22    -0.174259725021E+03    0.19115E+00   -0.20194E-01   710   0.721E-01    0.792E+00
RMM:  23    -0.174105704371E+03    0.15402E+00   -0.10374E-01   700   0.515E-01    0.548E+00
RMM:  24    -0.173991811286E+03    0.11389E+00   -0.71531E-02   698   0.417E-01    0.378E+00
RMM:  25    -0.173963733502E+03    0.28078E-01   -0.53559E-02   699   0.355E-01    0.373E+00
RMM:  26    -0.173934613368E+03    0.29120E-01   -0.40036E-02   701   0.306E-01    0.264E+00
RMM:  27    -0.173919472834E+03    0.15141E-01   -0.30681E-02   702   0.272E-01    0.238E+00
RMM:  28    -0.173909476908E+03    0.99959E-02   -0.27606E-02   697   0.260E-01    0.210E+00
RMM:  29    -0.173905138832E+03    0.43381E-02   -0.23369E-02   696   0.244E-01    0.218E+00
RMM:  30    -0.173886252191E+03    0.18887E-01   -0.16647E-02   694   0.205E-01    0.184E+00
RMM:  31    -0.173875693881E+03    0.10558E-01   -0.10025E-02   695   0.165E-01    0.142E+00
RMM:  32    -0.173869397646E+03    0.62962E-02   -0.78944E-03   695   0.136E-01    0.126E+00
RMM:  33    -0.173863464638E+03    0.59330E-02   -0.46638E-03   693   0.111E-01    0.838E-01
RMM:  34    -0.173862445052E+03    0.10196E-02   -0.26632E-03   694   0.857E-02    0.712E-01
RMM:  35    -0.173862913616E+03   -0.46856E-03   -0.27775E-03   693   0.815E-02    0.628E-01
RMM:  36    -0.173862274350E+03    0.63927E-03   -0.19332E-03   690   0.685E-02    0.436E-01
RMM:  37    -0.173864039520E+03   -0.17652E-02   -0.12569E-03   690   0.553E-02    0.379E-01
RMM:  38    -0.173866147689E+03   -0.21082E-02   -0.98881E-04   685   0.491E-02    0.357E-01
RMM:  39    -0.173868368713E+03   -0.22210E-02   -0.83164E-04   684   0.444E-02    0.356E-01
RMM:  40    -0.173870953600E+03   -0.25849E-02   -0.84406E-04   676   0.443E-02    0.350E-01
RMM:  41    -0.173872203141E+03   -0.12495E-02   -0.49263E-04   573   0.361E-02    0.307E-01
RMM:  42    -0.173874291962E+03   -0.20888E-02   -0.42031E-04   496   0.330E-02    0.224E-01
RMM:  43    -0.173875314021E+03   -0.10221E-02   -0.26773E-04   419   0.279E-02    0.128E-01
RMM:  44    -0.173877108578E+03   -0.17946E-02   -0.24600E-04   419   0.247E-02    0.209E-01
RMM:  45    -0.173878504696E+03   -0.13961E-02   -0.19360E-04   411   0.227E-02    0.159E-01
RMM:  46    -0.173879461551E+03   -0.95686E-03   -0.13009E-04   412   0.173E-02    0.138E-01
RMM:  47    -0.173882233662E+03   -0.27721E-02   -0.27739E-04   437   0.206E-02    0.103E-01
RMM:  48    -0.173883177999E+03   -0.94434E-03   -0.12216E-04   415   0.149E-02    0.922E-02
RMM:  49    -0.173884528801E+03   -0.13508E-02   -0.99111E-05   409   0.125E-02    0.757E-02
RMM:  50    -0.173885907536E+03   -0.13787E-02   -0.96807E-05   408   0.122E-02    0.707E-02
RMM:  51    -0.173886483532E+03   -0.57600E-03   -0.64040E-05   409   0.106E-02    0.623E-02
RMM:  52    -0.173887710463E+03   -0.12269E-02   -0.87913E-05   405   0.109E-02    0.366E-02
RMM:  53    -0.173887971415E+03   -0.26095E-03   -0.39985E-05   402   0.703E-03    0.320E-02
RMM:  54    -0.173888495781E+03   -0.52437E-03   -0.39186E-05   390   0.639E-03    0.213E-02
RMM:  55    -0.173888622225E+03   -0.12644E-03   -0.12876E-05   205   0.440E-03    0.147E-02
RMM:  56    -0.173888921918E+03   -0.29969E-03   -0.99181E-06   216   0.430E-03    0.198E-02
RMM:  57    -0.173889117753E+03   -0.19583E-03   -0.43818E-06   146   0.394E-03    0.126E-02
RMM:  58    -0.173889336982E+03   -0.21923E-03   -0.78458E-06   190   0.425E-03    0.101E-02
RMM:  59    -0.173889530640E+03   -0.19366E-03   -0.86910E-06   219   0.415E-03    0.110E-02
RMM:  60    -0.173889639703E+03   -0.10906E-03   -0.24174E-06   117   0.319E-03    0.580E-03
RMM:  61    -0.173889624426E+03    0.15277E-04   -0.17478E-18    66   0.278E-03
   1 F= -.17388962E+03 E0= -.17385885E+03  d E =-.123114E+00
