<?xml version="1.0" encoding="ISO-8859-1"?>
<modeling>
 <generator>
  <i name="program" type="string">vasp </i>
  <i name="version" type="string">5.4.4.18Apr17-6-g9f103f2a35  </i>
  <i name="subversion" type="string">(build Sep 03 2018 23:53:05) complex            parallel </i>
  <i name="platform" type="string">LinuxIFC </i>
  <i name="date" type="string">2021 12 02 </i>
  <i name="time" type="string">23:10:12 </i>
 </generator>
 <incar>
  <i type="string" name="SYSTEM"> 6_Pd100_top_free_z(O)</i>
  <i type="int" name="ISTART">     0</i>
  <i type="string" name="PREC">normal   			! encut=max(enmax), ngx,y,z</i>
  <i type="string" name="ALGO"> Fast     			! Mix RMM-DIIS and Dav</i>
  <i type="logical" name="ADDGRID"> F  </i>
  <i type="int" name="ISPIN">     1</i>
  <i type="int" name="ICHARG">     2</i>
  <i type="int" name="NELM">   100</i>
  <i type="int" name="NELMIN">     6</i>
  <i type="int" name="IBRION">     2</i>
  <i name="EDIFF">      0.00010000</i>
  <i name="EDIFFG">     -0.05000000</i>
  <i type="int" name="NSW">     0</i>
  <i type="int" name="ISIF">     2</i>
  <i type="int" name="ISYM">     2</i>
  <i name="ENCUT">    400.00000000</i>
  <i type="string" name="LREAL"> Auto     			! Auto or A projection done</i>
  <i type="int" name="ISMEAR">     2</i>
  <i name="SIGMA">      0.20000000</i>
  <i type="logical" name="LWAVE"> F  </i>
  <i type="logical" name="LCHARG"> F  </i>
  <v type="int" name="KPOINT_BSE">    -1     0     0     0</v>
  <i type="int" name="MAXMEM"> 10000</i>
  <i type="int" name="NELM">   100</i>
  <i type="string" name="GGA"> RP         			! Revised PBE</i>
 </incar>
 <structure name="primitive_cell" >
  <crystal>
   <varray name="basis" >
    <v>      30.00000000       0.00000000       0.00000000 </v>
    <v>       0.00000000      30.00000000       0.00000000 </v>
    <v>       0.00000000       0.00000000      30.00000000 </v>
   </varray>
   <i name="volume">  27000.00000000 </i>
   <varray name="rec_basis" >
    <v>       0.03333333       0.00000000       0.00000000 </v>
    <v>       0.00000000       0.03333333       0.00000000 </v>
    <v>       0.00000000       0.00000000       0.03333333 </v>
   </varray>
  </crystal>
  <varray name="positions" >
   <v>       0.44576020       0.32826710       0.41691983 </v>
   <v>      -0.44576020       0.32826710       0.41691983 </v>
   <v>      -0.50000000       0.38250690       0.34021317 </v>
   <v>      -0.50000000       0.27609440      -0.50000000 </v>
   <v>       0.38804720       0.38804720       0.34167483 </v>
   <v>      -0.50000000       0.38416601      -0.50000000 </v>
   <v>       0.44208300       0.44208300       0.41809300 </v>
   <v>       0.38317830       0.38317830      -0.50000000 </v>
   <v>      -0.44208300       0.44208300       0.41809300 </v>
   <v>       0.44576020       0.32826710      -0.41691977 </v>
   <v>       0.32826705       0.44576024       0.41691983 </v>
   <v>      -0.38804720       0.38804720       0.34167483 </v>
   <v>      -0.38317830       0.38317830      -0.50000000 </v>
   <v>      -0.50000000      -0.50000000       0.33478917 </v>
   <v>      -0.50000000      -0.50000000      -0.50000000 </v>
   <v>      -0.44576020       0.32826710      -0.41691977 </v>
   <v>       0.38250685      -0.49999995       0.34021317 </v>
   <v>       0.44208300       0.44208300      -0.41809297 </v>
   <v>       0.38416599      -0.49999998      -0.50000000 </v>
   <v>      -0.44208300       0.44208300      -0.41809297 </v>
   <v>       0.44208298      -0.44208298       0.41809300 </v>
   <v>       0.32826705       0.44576024      -0.41691977 </v>
   <v>      -0.50000000       0.38250690      -0.34021320 </v>
   <v>       0.32826712      -0.44576022       0.41691983 </v>
   <v>      -0.38250685      -0.49999995       0.34021317 </v>
   <v>      -0.32826705       0.44576024       0.41691983 </v>
   <v>       0.27609443       0.49999998      -0.50000000 </v>
   <v>       0.38804720       0.38804720      -0.34167487 </v>
   <v>      -0.38416599      -0.49999998      -0.50000000 </v>
   <v>      -0.44208298      -0.44208298       0.41809300 </v>
   <v>       0.44208298      -0.44208298      -0.41809297 </v>
   <v>      -0.38804720       0.38804720      -0.34167487 </v>
   <v>       0.38804722      -0.38804722       0.34167483 </v>
   <v>       0.38250685      -0.49999995      -0.34021320 </v>
   <v>       0.32826712      -0.44576022      -0.41691977 </v>
   <v>      -0.32826705       0.44576024      -0.41691977 </v>
   <v>       0.50000000      -0.38250681       0.34021317 </v>
   <v>      -0.50000000      -0.38416596      -0.50000000 </v>
   <v>      -0.44208298      -0.44208298      -0.41809297 </v>
   <v>      -0.50000000      -0.50000000      -0.33478913 </v>
   <v>       0.38317828      -0.38317828      -0.50000000 </v>
   <v>      -0.32826712      -0.44576022       0.41691983 </v>
   <v>      -0.27609443       0.49999998      -0.50000000 </v>
   <v>      -0.38804722      -0.38804722       0.34167483 </v>
   <v>      -0.38250685      -0.49999995      -0.34021320 </v>
   <v>       0.44576027      -0.32826707       0.41691983 </v>
   <v>      -0.38317828      -0.38317828      -0.50000000 </v>
   <v>      -0.32826712      -0.44576022      -0.41691977 </v>
   <v>      -0.44576027      -0.32826707       0.41691983 </v>
   <v>       0.38804722      -0.38804722      -0.34167487 </v>
   <v>      -0.50000000      -0.38250681      -0.34021320 </v>
   <v>       0.44576027      -0.32826707      -0.41691977 </v>
   <v>      -0.44576027      -0.32826707      -0.41691977 </v>
   <v>      -0.36940010      -0.32789693       0.33050343 </v>
   <v>      -0.50000000      -0.27609445       0.50000000 </v>
   <v>      -0.38804722      -0.38804722      -0.34167487 </v>
   <v>      -0.35151750      -0.30433143       0.30729483 </v>
  </varray>
 </structure>
 <varray name="primitive_index" >
  <v type="int" >        1 </v>
  <v type="int" >        3 </v>
  <v type="int" >        5 </v>
  <v type="int" >        7 </v>
  <v type="int" >       15 </v>
  <v type="int" >       29 </v>
  <v type="int" >       28 </v>
  <v type="int" >       34 </v>
  <v type="int" >       21 </v>
  <v type="int" >       19 </v>
  <v type="int" >       22 </v>
  <v type="int" >       11 </v>
  <v type="int" >       36 </v>
  <v type="int" >       38 </v>
  <v type="int" >       52 </v>
  <v type="int" >       24 </v>
  <v type="int" >       32 </v>
  <v type="int" >       44 </v>
  <v type="int" >       48 </v>
  <v type="int" >       42 </v>
  <v type="int" >       43 </v>
  <v type="int" >       40 </v>
  <v type="int" >        6 </v>
  <v type="int" >        4 </v>
  <v type="int" >       30 </v>
  <v type="int" >       26 </v>
  <v type="int" >        8 </v>
  <v type="int" >       16 </v>
  <v type="int" >       49 </v>
  <v type="int" >       47 </v>
  <v type="int" >       53 </v>
  <v type="int" >       12 </v>
  <v type="int" >       13 </v>
  <v type="int" >       33 </v>
  <v type="int" >       25 </v>
  <v type="int" >       45 </v>
  <v type="int" >       50 </v>
  <v type="int" >       55 </v>
  <v type="int" >       54 </v>
  <v type="int" >       39 </v>
  <v type="int" >       37 </v>
  <v type="int" >        2 </v>
  <v type="int" >        9 </v>
  <v type="int" >       17 </v>
  <v type="int" >       31 </v>
  <v type="int" >       27 </v>
  <v type="int" >       35 </v>
  <v type="int" >       20 </v>
  <v type="int" >       23 </v>
  <v type="int" >       14 </v>
  <v type="int" >       51 </v>
  <v type="int" >       46 </v>
  <v type="int" >       41 </v>
  <v type="int" >       56 </v>
  <v type="int" >       10 </v>
  <v type="int" >       18 </v>
  <v type="int" >       57 </v>
 </varray>
 <kpoints>
  <generation param="Monkhorst-Pack">
   <v type="int" name="divisions">       1        1        1 </v>
   <v name="usershift">      0.00000000       0.00000000       0.00000000 </v>
   <v name="genvec1">      1.00000000       0.00000000       0.00000000 </v>
   <v name="genvec2">      0.00000000       1.00000000       0.00000000 </v>
   <v name="genvec3">      0.00000000       0.00000000       1.00000000 </v>
   <v name="shift">      0.00000000       0.00000000       0.00000000 </v>
  </generation>
  <varray name="kpointlist" >
   <v>       0.00000000       0.00000000       0.00000000 </v>
  </varray>
  <varray name="weights" >
   <v>       1.00000000 </v>
  </varray>
 </kpoints>
 <parameters>
  <separator name="general" >
   <i type="string" name="SYSTEM">6_Pd100_top_free_z(O)</i>
   <i type="logical" name="LCOMPAT"> F  </i>
  </separator>
  <separator name="electronic" >
   <i type="string" name="PREC">normal</i>
   <i name="ENMAX">    400.00000000</i>
   <i name="ENAUG">    644.87300000</i>
   <i name="EDIFF">      0.00010000</i>
   <i type="int" name="IALGO">    68</i>
   <i type="int" name="IWAVPR">    10</i>
   <i type="int" name="NBANDS">   336</i>
   <i name="NELECT">    560.00000000</i>
   <i type="int" name="TURBO">     0</i>
   <i type="int" name="IRESTART">     0</i>
   <i type="int" name="NREBOOT">     0</i>
   <i type="int" name="NMIN">     0</i>
   <i name="EREF">      0.00000000</i>
   <separator name="electronic smearing" >
    <i type="int" name="ISMEAR">     2</i>
    <i name="SIGMA">      0.20000000</i>
    <i name="KSPACING">      0.50000000</i>
    <i type="logical" name="KGAMMA"> T  </i>
   </separator>
   <separator name="electronic projectors" >
    <i type="logical" name="LREAL"> T  </i>
    <v name="ROPT">     -0.00050000     -0.00050000     -0.00050000</v>
    <i type="int" name="LMAXPAW">  -100</i>
    <i type="int" name="LMAXMIX">     2</i>
    <i type="logical" name="NLSPLINE"> F  </i>
   </separator>
   <separator name="electronic startup" >
    <i type="int" name="ISTART">     0</i>
    <i type="int" name="ICHARG">     2</i>
    <i type="int" name="INIWAV">     1</i>
   </separator>
   <separator name="electronic spin" >
    <i type="int" name="ISPIN">     1</i>
    <i type="logical" name="LNONCOLLINEAR"> F  </i>
    <v name="MAGMOM">      1.00000000      1.00000000      1.00000000      1.00000000      1.00000000      1.00000000      1.00000000      1.00000000      1.00000000      1.00000000      1.00000000      1.00000000      1.00000000      1.00000000      1.00000000      1.00000000      1.00000000      1.00000000      1.00000000      1.00000000
      1.00000000      1.00000000      1.00000000      1.00000000      1.00000000      1.00000000      1.00000000      1.00000000      1.00000000      1.00000000      1.00000000      1.00000000      1.00000000      1.00000000      1.00000000      1.00000000      1.00000000      1.00000000      1.00000000      1.00000000
      1.00000000      1.00000000      1.00000000      1.00000000      1.00000000      1.00000000      1.00000000      1.00000000      1.00000000      1.00000000      1.00000000      1.00000000      1.00000000      1.00000000      1.00000000      1.00000000      1.00000000</v>
    <i name="NUPDOWN">     -1.00000000</i>
    <i type="logical" name="LSORBIT"> F  </i>
    <v name="SAXIS">      0.00000000      0.00000000      1.00000000</v>
    <i type="logical" name="LSPIRAL"> F  </i>
    <v name="QSPIRAL">      0.00000000      0.00000000      0.00000000</v>
    <i type="logical" name="LZEROZ"> F  </i>
   </separator>
   <separator name="electronic exchange-correlation" >
    <i type="logical" name="LASPH"> F  </i>
    <i type="logical" name="LMETAGGA"> F  </i>
   </separator>
   <separator name="electronic convergence" >
    <i type="int" name="NELM">   100</i>
    <i type="int" name="NELMDL">    -5</i>
    <i type="int" name="NELMIN">     6</i>
    <i name="ENINI">    400.00000000</i>
    <separator name="electronic convergence detail" >
     <i type="logical" name="LDIAG"> T  </i>
     <i type="logical" name="LSUBROT"> F  </i>
     <i name="WEIMIN">      0.00000000</i>
     <i name="EBREAK">      0.00000007</i>
     <i name="DEPER">      0.30000000</i>
     <i type="int" name="NRMM">     4</i>
     <i name="TIME">      0.40000000</i>
    </separator>
   </separator>
   <separator name="electronic mixer" >
    <i name="AMIX">      0.40000000</i>
    <i name="BMIX">      1.00000000</i>
    <i name="AMIN">      0.10000000</i>
    <i name="AMIX_MAG">      1.60000000</i>
    <i name="BMIX_MAG">      1.00000000</i>
    <separator name="electronic mixer details" >
     <i type="int" name="IMIX">     4</i>
     <i type="logical" name="MIXFIRST"> F  </i>
     <i type="int" name="MAXMIX">   -45</i>
     <i name="WC">    100.00000000</i>
     <i type="int" name="INIMIX">     1</i>
     <i type="int" name="MIXPRE">     1</i>
     <i type="int" name="MREMOVE">     5</i>
    </separator>
   </separator>
   <separator name="electronic dipolcorrection" >
    <i type="logical" name="LDIPOL"> F  </i>
    <i type="logical" name="LMONO"> F  </i>
    <i type="int" name="IDIPOL">     0</i>
    <i name="EPSILON">      1.00000000</i>
    <v name="DIPOL">   -100.00000000   -100.00000000   -100.00000000</v>
    <i name="EFIELD">      0.00000000</i>
   </separator>
  </separator>
  <separator name="grids" >
   <i type="int" name="NGX">   150</i>
   <i type="int" name="NGY">   150</i>
   <i type="int" name="NGZ">   150</i>
   <i type="int" name="NGXF">   300</i>
   <i type="int" name="NGYF">   300</i>
   <i type="int" name="NGZF">   300</i>
   <i type="logical" name="ADDGRID"> F  </i>
  </separator>
  <separator name="ionic" >
   <i type="int" name="NSW">     0</i>
   <i type="int" name="IBRION">    -1</i>
   <i type="int" name="MDALGO">     0</i>
   <i type="int" name="ISIF">     2</i>
   <i name="PSTRESS">      0.00000000</i>
   <i name="EDIFFG">     -0.05000000</i>
   <i type="int" name="NFREE">     1</i>
   <i name="POTIM">      0.50000000</i>
   <i name="SMASS">     -3.00000000</i>
   <i name="SCALEE">      1.00000000</i>
  </separator>
  <separator name="ionic md" >
   <i name="TEBEG">      0.00010000</i>
   <i name="TEEND">      0.00010000</i>
   <i type="int" name="NBLOCK">     1</i>
   <i type="int" name="KBLOCK">     1</i>
   <i type="int" name="NPACO">   256</i>
   <i name="APACO">     16.00000000</i>
  </separator>
  <separator name="symmetry" >
   <i type="int" name="ISYM">     2</i>
   <i name="SYMPREC">      0.00001000</i>
  </separator>
  <separator name="dos" >
   <i type="int" name="LORBIT">     0</i>
   <v name="RWIGS">     -1.00000000     -1.00000000     -1.00000000</v>
   <i type="int" name="NEDOS">   301</i>
   <i name="EMIN">     10.00000000</i>
   <i name="EMAX">    -10.00000000</i>
   <i name="EFERMI">      0.00000000</i>
  </separator>
  <separator name="writing" >
   <i type="int" name="NWRITE">     2</i>
   <i type="logical" name="LWAVE"> F  </i>
   <i type="logical" name="LDOWNSAMPLE"> F  </i>
   <i type="logical" name="LCHARG"> F  </i>
   <i type="logical" name="LPARD"> F  </i>
   <i type="logical" name="LVTOT"> F  </i>
   <i type="logical" name="LVHAR"> F  </i>
   <i type="logical" name="LELF"> F  </i>
   <i type="logical" name="LOPTICS"> F  </i>
   <v name="STM">      0.00000000      0.00000000      0.00000000      0.00000000      0.00000000      0.00000000      0.00000000</v>
  </separator>
  <separator name="performance" >
   <i type="int" name="NPAR">     1</i>
   <i type="int" name="NSIM">     4</i>
   <i type="int" name="NBLK">    -1</i>
   <i type="logical" name="LPLANE"> T  </i>
   <i type="logical" name="LSCALAPACK"> T  </i>
   <i type="logical" name="LSCAAWARE"> F  </i>
   <i type="logical" name="LSCALU"> F  </i>
   <i type="logical" name="LASYNC"> F  </i>
   <i type="logical" name="LORBITALREAL"> F  </i>
  </separator>
  <separator name="miscellaneous" >
   <i type="int" name="IDIOT">     3</i>
   <i type="int" name="ISPECIAL">     0</i>
   <i type="logical" name="LMUSIC"> F  </i>
   <v name="POMASS">    106.42000000     12.01100000     16.00000000</v>
   <v name="DARWINR">      0.00000000      0.00000000      0.00000000</v>
   <v name="DARWINV">      1.00000000      1.00000000      1.00000000</v>
   <i type="logical" name="LCORR"> T  </i>
  </separator>
  <i type="logical" name="GGA_COMPAT"> T  </i>
  <i type="logical" name="LBERRY"> F  </i>
  <i type="int" name="ICORELEVEL">     0</i>
  <i type="logical" name="LDAU"> F  </i>
  <i type="int" name="I_CONSTRAINED_M">     0</i>
  <separator name="electronic exchange-correlation" >
   <i type="string" name="GGA">RP</i>
   <i type="int" name="VOSKOWN">     0</i>
   <i type="logical" name="LHFCALC"> F  </i>
   <i type="string" name="PRECFOCK"></i>
   <i type="logical" name="LSYMGRAD"> F  </i>
   <i type="logical" name="LHFONE"> F  </i>
   <i type="logical" name="LRHFCALC"> F  </i>
   <i type="logical" name="LTHOMAS"> F  </i>
   <i type="logical" name="LMODELHF"> F  </i>
   <i name="ENCUT4O">     -1.00000000</i>
   <i type="int" name="EXXOEP">     0</i>
   <i type="int" name="FOURORBIT">     0</i>
   <i name="AEXX">      0.00000000</i>
   <i name="HFALPHA">      0.00000000</i>
   <i name="MCALPHA">      0.00000000</i>
   <i name="ALDAX">      1.00000000</i>
   <i name="AGGAX">      1.00000000</i>
   <i name="ALDAC">      1.00000000</i>
   <i name="AGGAC">      1.00000000</i>
   <i type="int" name="NKREDX">     1</i>
   <i type="int" name="NKREDY">     1</i>
   <i type="int" name="NKREDZ">     1</i>
   <i type="logical" name="SHIFTRED"> F  </i>
   <i type="logical" name="ODDONLY"> F  </i>
   <i type="logical" name="EVENONLY"> F  </i>
   <i type="int" name="LMAXFOCK">     0</i>
   <i type="int" name="NMAXFOCKAE">     0</i>
   <i type="logical" name="LFOCKAEDFT"> F  </i>
   <i name="HFSCREEN">      0.00000000</i>
   <i name="HFSCREENC">      0.00000000</i>
   <i type="int" name="NBANDSGWLOW">     0</i>
  </separator>
  <separator name="vdW DFT" >
   <i type="logical" name="LUSE_VDW"> F  </i>
   <i name="Zab_VDW">     -0.84910000</i>
   <i name="PARAM1">      0.12340000</i>
   <i name="PARAM2">      1.00000000</i>
   <i name="PARAM3">      0.00000000</i>
  </separator>
  <separator name="model GW" >
   <i type="int" name="MODEL_GW">     0</i>
   <i name="MODEL_EPS0">    284.21052632</i>
   <i name="MODEL_ALPHA">      1.00000000</i>
  </separator>
  <separator name="linear response parameters" >
   <i type="logical" name="LEPSILON"> F  </i>
   <i type="logical" name="LRPA"> F  </i>
   <i type="logical" name="LNABLA"> F  </i>
   <i type="logical" name="LVEL"> F  </i>
   <i type="int" name="KINTER">     0</i>
   <i name="CSHIFT">      0.10000000</i>
   <i name="OMEGAMAX">     -1.00000000</i>
   <i name="DEG_THRESHOLD">      0.00200000</i>
   <i name="RTIME">     -0.10000000</i>
   <i name="WPLASMAI">      0.00000000</i>
   <v name="DFIELD">      0.00000000      0.00000000      0.00000000</v>
   <v name="WPLASMA">      0.00000000      0.00000000      0.00000000      0.00000000      0.00000000      0.00000000      0.00000000      0.00000000      0.00000000</v>
  </separator>
  <separator name="orbital magnetization" >
   <i type="logical" name="NUCIND"> F  </i>
   <v name="MAGPOS">      0.00000000      0.00000000      0.00000000</v>
   <i type="logical" name="LNICSALL"> T  </i>
   <i type="logical" name="ORBITALMAG"> F  </i>
   <i type="logical" name="LMAGBLOCH"> F  </i>
   <i type="logical" name="LCHIMAG"> F  </i>
   <i type="logical" name="LGAUGE"> T  </i>
   <i type="int" name="MAGATOM">     0</i>
   <v name="MAGDIPOL">      0.00000000      0.00000000      0.00000000</v>
   <v name="AVECCONST">      0.00000000      0.00000000      0.00000000</v>
  </separator>
  <separator name="response functions" >
   <i type="logical" name="LADDER"> F  </i>
   <i type="logical" name="LRPAFORCE"> F  </i>
   <i type="logical" name="LFXC"> F  </i>
   <i type="logical" name="LHARTREE"> T  </i>
   <i type="int" name="IBSE">     0</i>
   <v type="int" name="KPOINT">    -1     0     0     0</v>
   <i type="logical" name="LTCTE"> F  </i>
   <i type="logical" name="LTETE"> F  </i>
   <i type="logical" name="LTRIPLET"> F  </i>
   <i type="logical" name="LFXCEPS"> F  </i>
   <i type="logical" name="LFXHEG"> F  </i>
   <i type="int" name="NATURALO">     2</i>
   <i type="logical" name="L2ORDER"> F  </i>
   <i type="logical" name="LMP2LT"> F  </i>
   <i type="logical" name="LUSEW"> F  </i>
   <i name="ENCUTGW">     -2.00000000</i>
   <i name="ENCUTGWSOFT">     -2.00000000</i>
   <i name="ENCUTLF">     -1.00000000</i>
   <i type="int" name="LMAXMP2">    -1</i>
   <i name="SCISSOR">      0.00000000</i>
   <i type="int" name="NOMEGA">     0</i>
   <i type="int" name="NOMEGAR">     0</i>
   <i type="int" name="NBANDSGW">    -1</i>
   <i type="int" name="NBANDSO">    -1</i>
   <i type="int" name="NBANDSV">    -1</i>
   <i type="int" name="NELM">   100</i>
   <i type="int" name="NELMHF">     1</i>
   <i type="int" name="DIM">     3</i>
   <i type="int" name="ANTIRES">     0</i>
   <i name="OMEGAMAX">    -30.00000000</i>
   <i name="OMEGAMIN">    -30.00000000</i>
   <i name="OMEGATL">   -200.00000000</i>
   <i type="int" name="OMEGAGRID">   140</i>
   <i name="CSHIFT">     -0.10000000</i>
   <i type="logical" name="SELFENERGY"> F  </i>
   <i type="logical" name="LSPECTRAL"> F  </i>
   <i type="logical" name="LSPECTRALGW"> F  </i>
   <i type="logical" name="LSINGLES"> F  </i>
   <i type="logical" name="LFERMIGW"> F  </i>
   <i type="logical" name="ODDONLYGW"> F  </i>
   <i type="logical" name="EVENONLYGW"> F  </i>
   <i type="int" name="NKREDLFX">     1</i>
   <i type="int" name="NKREDLFY">     1</i>
   <i type="int" name="NKREDLFZ">     1</i>
   <i type="int" name="MAXMEM"> 10000</i>
   <i type="int" name="TELESCOPE">     0</i>
   <i type="int" name="TAUPAR">     1</i>
   <i type="int" name="OMEGAPAR">    -1</i>
   <i name="LAMBDA">      1.00000000</i>
  </separator>
  <separator name="External order field" >
   <i name="OFIELD_KAPPA">      0.00000000</i>
   <v name="OFIELD_K">      0.00000000      0.00000000      0.00000000</v>
   <i name="OFIELD_Q6_NEAR">      0.00000000</i>
   <i name="OFIELD_Q6_FAR">      0.00000000</i>
   <i name="OFIELD_A">      0.00000000</i>
  </separator>
 </parameters>
 <atominfo>
  <atoms>      57 </atoms>
  <types>       3 </types>
  <array name="atoms" >
   <dimension dim="1">ion</dimension>
   <field type="string">element</field>
   <field type="int">atomtype</field>
   <set>
    <rc><c>Pd</c><c>   1</c></rc>
    <rc><c>Pd</c><c>   1</c></rc>
    <rc><c>Pd</c><c>   1</c></rc>
    <rc><c>Pd</c><c>   1</c></rc>
    <rc><c>Pd</c><c>   1</c></rc>
    <rc><c>Pd</c><c>   1</c></rc>
    <rc><c>Pd</c><c>   1</c></rc>
    <rc><c>Pd</c><c>   1</c></rc>
    <rc><c>Pd</c><c>   1</c></rc>
    <rc><c>Pd</c><c>   1</c></rc>
    <rc><c>Pd</c><c>   1</c></rc>
    <rc><c>Pd</c><c>   1</c></rc>
    <rc><c>Pd</c><c>   1</c></rc>
    <rc><c>Pd</c><c>   1</c></rc>
    <rc><c>Pd</c><c>   1</c></rc>
    <rc><c>Pd</c><c>   1</c></rc>
    <rc><c>Pd</c><c>   1</c></rc>
    <rc><c>Pd</c><c>   1</c></rc>
    <rc><c>Pd</c><c>   1</c></rc>
    <rc><c>Pd</c><c>   1</c></rc>
    <rc><c>Pd</c><c>   1</c></rc>
    <rc><c>Pd</c><c>   1</c></rc>
    <rc><c>Pd</c><c>   1</c></rc>
    <rc><c>Pd</c><c>   1</c></rc>
    <rc><c>Pd</c><c>   1</c></rc>
    <rc><c>Pd</c><c>   1</c></rc>
    <rc><c>Pd</c><c>   1</c></rc>
    <rc><c>Pd</c><c>   1</c></rc>
    <rc><c>Pd</c><c>   1</c></rc>
    <rc><c>Pd</c><c>   1</c></rc>
    <rc><c>Pd</c><c>   1</c></rc>
    <rc><c>Pd</c><c>   1</c></rc>
    <rc><c>Pd</c><c>   1</c></rc>
    <rc><c>Pd</c><c>   1</c></rc>
    <rc><c>Pd</c><c>   1</c></rc>
    <rc><c>Pd</c><c>   1</c></rc>
    <rc><c>Pd</c><c>   1</c></rc>
    <rc><c>Pd</c><c>   1</c></rc>
    <rc><c>Pd</c><c>   1</c></rc>
    <rc><c>Pd</c><c>   1</c></rc>
    <rc><c>Pd</c><c>   1</c></rc>
    <rc><c>Pd</c><c>   1</c></rc>
    <rc><c>Pd</c><c>   1</c></rc>
    <rc><c>Pd</c><c>   1</c></rc>
    <rc><c>Pd</c><c>   1</c></rc>
    <rc><c>Pd</c><c>   1</c></rc>
    <rc><c>Pd</c><c>   1</c></rc>
    <rc><c>Pd</c><c>   1</c></rc>
    <rc><c>Pd</c><c>   1</c></rc>
    <rc><c>Pd</c><c>   1</c></rc>
    <rc><c>Pd</c><c>   1</c></rc>
    <rc><c>Pd</c><c>   1</c></rc>
    <rc><c>Pd</c><c>   1</c></rc>
    <rc><c>Pd</c><c>   1</c></rc>
    <rc><c>Pd</c><c>   1</c></rc>
    <rc><c>C </c><c>   2</c></rc>
    <rc><c>O </c><c>   3</c></rc>
   </set>
  </array>
  <array name="atomtypes" >
   <dimension dim="1">type</dimension>
   <field type="int">atomspertype</field>
   <field type="string">element</field>
   <field>mass</field>
   <field>valence</field>
   <field type="string">pseudopotential</field>
   <set>
    <rc><c>  55</c><c>Pd</c><c>    106.42000000</c><c>     10.00000000</c><c>  PAW_PBE Pd 04Jan2005                  </c></rc>
    <rc><c>   1</c><c>C </c><c>     12.01100000</c><c>      4.00000000</c><c>  PAW_PBE C 08Apr2002                   </c></rc>
    <rc><c>   1</c><c>O </c><c>     16.00000000</c><c>      6.00000000</c><c>  PAW_PBE O 08Apr2002                   </c></rc>
   </set>
  </array>
 </atominfo>
 <structure name="initialpos" >
  <crystal>
   <varray name="basis" >
    <v>      30.00000000       0.00000000       0.00000000 </v>
    <v>       0.00000000      30.00000000       0.00000000 </v>
    <v>       0.00000000       0.00000000      30.00000000 </v>
   </varray>
   <i name="volume">  27000.00000000 </i>
   <varray name="rec_basis" >
    <v>       0.03333333       0.00000000       0.00000000 </v>
    <v>       0.00000000       0.03333333       0.00000000 </v>
    <v>       0.00000000       0.00000000       0.03333333 </v>
   </varray>
  </crystal>
  <varray name="positions" >
   <v>       0.44576020       0.32826710       0.41691983 </v>
   <v>       0.67173288       0.55423978       0.41691983 </v>
   <v>       0.55423980       0.32826710       0.41691983 </v>
   <v>       0.32826712       0.55423978       0.41691983 </v>
   <v>       0.50000000       0.38250690       0.34021317 </v>
   <v>       0.50000000       0.38250690       0.65978680 </v>
   <v>       0.50000000       0.27609440       0.50000000 </v>
   <v>       0.27609443       0.49999998       0.50000000 </v>
   <v>       0.72390557       0.49999998       0.50000000 </v>
   <v>       0.50000000       0.72390555       0.50000000 </v>
   <v>       0.61195280       0.38804720       0.34167483 </v>
   <v>       0.61195280       0.38804720       0.65832513 </v>
   <v>       0.38804722       0.61195278       0.34167483 </v>
   <v>       0.38804722       0.61195278       0.65832513 </v>
   <v>       0.38804720       0.38804720       0.34167483 </v>
   <v>       0.38804720       0.38804720       0.65832513 </v>
   <v>       0.61195278       0.61195278       0.34167483 </v>
   <v>       0.61195278       0.61195278       0.65832513 </v>
   <v>       0.44576020       0.32826710       0.58308023 </v>
   <v>       0.67173288       0.55423978       0.58308023 </v>
   <v>       0.55791699       0.44208301       0.41809300 </v>
   <v>       0.32826705       0.44576024       0.41691983 </v>
   <v>       0.55423973       0.67173293       0.41691983 </v>
   <v>       0.55423980       0.32826710       0.58308023 </v>
   <v>       0.32826712       0.55423978       0.58308023 </v>
   <v>       0.67173295       0.44576024       0.41691983 </v>
   <v>       0.44576027       0.67173293       0.41691983 </v>
   <v>       0.44208301       0.44208301       0.41809300 </v>
   <v>       0.50000000       0.38416601       0.50000000 </v>
   <v>       0.61749315       0.50000005       0.34021317 </v>
   <v>       0.61749315       0.50000005       0.65978680 </v>
   <v>       0.38250685       0.50000005       0.34021317 </v>
   <v>       0.38250685       0.50000005       0.65978680 </v>
   <v>       0.38317830       0.38317830       0.50000000 </v>
   <v>       0.61682172       0.61682172       0.50000000 </v>
   <v>       0.61682170       0.38317830       0.50000000 </v>
   <v>       0.38317828       0.61682172       0.50000000 </v>
   <v>       0.50000000       0.50000000       0.33478917 </v>
   <v>       0.50000000       0.50000000       0.66521087 </v>
   <v>       0.32826705       0.44576024       0.58308023 </v>
   <v>       0.55423973       0.67173293       0.58308023 </v>
   <v>       0.55791699       0.44208301       0.58190703 </v>
   <v>       0.44208298       0.55791702       0.41809300 </v>
   <v>       0.44208301       0.44208301       0.58190703 </v>
   <v>       0.67173295       0.44576024       0.58308023 </v>
   <v>       0.44576027       0.67173293       0.58308023 </v>
   <v>       0.55791702       0.55791702       0.41809300 </v>
   <v>       0.38416599       0.50000002       0.50000000 </v>
   <v>       0.61583401       0.50000002       0.50000000 </v>
   <v>       0.50000000       0.61749319       0.34021317 </v>
   <v>       0.50000000       0.61749319       0.65978680 </v>
   <v>       0.50000000       0.50000000       0.50000000 </v>
   <v>       0.44208298       0.55791702       0.58190703 </v>
   <v>       0.55791702       0.55791702       0.58190703 </v>
   <v>       0.50000000       0.61583404       0.50000000 </v>
   <v>       0.63059990       0.67210307       0.33050343 </v>
   <v>       0.64848250       0.69566857       0.30729483 </v>
  </varray>
  <varray name="selective"  type="logical" >
   <v type="logical" >  F  F  F </v>
   <v type="logical" >  F  F  F </v>
   <v type="logical" >  F  F  F </v>
   <v type="logical" >  F  F  F </v>
   <v type="logical" >  F  F  F </v>
   <v type="logical" >  F  F  F </v>
   <v type="logical" >  F  F  F </v>
   <v type="logical" >  F  F  F </v>
   <v type="logical" >  F  F  F </v>
   <v type="logical" >  F  F  F </v>
   <v type="logical" >  F  F  F </v>
   <v type="logical" >  F  F  F </v>
   <v type="logical" >  F  F  F </v>
   <v type="logical" >  F  F  F </v>
   <v type="logical" >  F  F  F </v>
   <v type="logical" >  F  F  F </v>
   <v type="logical" >  F  F  F </v>
   <v type="logical" >  F  F  F </v>
   <v type="logical" >  F  F  F </v>
   <v type="logical" >  F  F  F </v>
   <v type="logical" >  F  F  F </v>
   <v type="logical" >  F  F  F </v>
   <v type="logical" >  F  F  F </v>
   <v type="logical" >  F  F  F </v>
   <v type="logical" >  F  F  F </v>
   <v type="logical" >  F  F  F </v>
   <v type="logical" >  F  F  F </v>
   <v type="logical" >  F  F  F </v>
   <v type="logical" >  F  F  F </v>
   <v type="logical" >  F  F  F </v>
   <v type="logical" >  F  F  F </v>
   <v type="logical" >  F  F  F </v>
   <v type="logical" >  F  F  F </v>
   <v type="logical" >  F  F  F </v>
   <v type="logical" >  F  F  F </v>
   <v type="logical" >  F  F  F </v>
   <v type="logical" >  F  F  F </v>
   <v type="logical" >  F  F  F </v>
   <v type="logical" >  F  F  F </v>
   <v type="logical" >  F  F  F </v>
   <v type="logical" >  F  F  F </v>
   <v type="logical" >  F  F  F </v>
   <v type="logical" >  F  F  F </v>
   <v type="logical" >  F  F  F </v>
   <v type="logical" >  F  F  F </v>
   <v type="logical" >  F  F  F </v>
   <v type="logical" >  F  F  F </v>
   <v type="logical" >  F  F  F </v>
   <v type="logical" >  F  F  F </v>
   <v type="logical" >  F  F  F </v>
   <v type="logical" >  F  F  F </v>
   <v type="logical" >  F  F  F </v>
   <v type="logical" >  F  F  F </v>
   <v type="logical" >  F  F  F </v>
   <v type="logical" >  F  F  F </v>
   <v type="logical" >  F  F  F </v>
   <v type="logical" >  F  F  F </v>
  </varray>
  <nose>
   <v>      -3.00000000       0.00000000       0.00010000       0.00010000 </v>
  </nose>
 </structure>
 <calculation>
  <scstep>
   <time name="dav">  370.14  370.20</time>
   <time name="total">  384.70  384.75</time>
   <energy>
    <i name="alphaZ">     75.25431677 </i>
    <i name="ewald"> 137545.25951353 </i>
    <i name="hartreedc">-180905.53609225 </i>
    <i name="XCdc">  -1703.09286856 </i>
    <i name="pawpsdc">  44873.02882129 </i>
    <i name="pawaedc"> -41398.84523641 </i>
    <i name="eentropy">      0.00976660 </i>
    <i name="bandstr">    818.79605904 </i>
    <i name="atom">  45086.50549395 </i>
    <i name="e_fr_energy">   4391.37977396 </i>
    <i name="e_wo_entrp">   4391.37000736 </i>
    <i name="e_0_energy">   4391.37733231 </i>
   </energy>
  </scstep>
  <scstep>
   <time name="dav">  588.68  588.68</time>
   <time name="total">  588.68  588.68</time>
   <energy>
    <i name="e_fr_energy">   2027.42548346 </i>
    <i name="e_wo_entrp">   2027.40236450 </i>
    <i name="e_0_energy">   2027.41970372 </i>
   </energy>
  </scstep>
  <scstep>
   <time name="dav">  497.01  497.00</time>
   <time name="total">  497.01  497.01</time>
   <energy>
    <i name="e_fr_energy">    241.16677455 </i>
    <i name="e_wo_entrp">    241.14784091 </i>
    <i name="e_0_energy">    241.16204114 </i>
   </energy>
  </scstep>
  <scstep>
   <time name="dav">  429.66  429.67</time>
   <time name="total">  429.66  429.67</time>
   <energy>
    <i name="e_fr_energy">   -133.79681650 </i>
    <i name="e_wo_entrp">   -133.80798186 </i>
    <i name="e_0_energy">   -133.79960784 </i>
   </energy>
  </scstep>
  <scstep>
   <time name="dav">  522.31  522.30</time>
   <time name="total">  548.85  548.84</time>
   <energy>
    <i name="e_fr_energy">   -180.12863388 </i>
    <i name="e_wo_entrp">   -180.67548265 </i>
    <i name="e_0_energy">   -180.26534608 </i>
   </energy>
  </scstep>
  <scstep>
   <time name="diag">   69.35   69.35</time>
   <time name="diis">  195.87  195.87</time>
   <time name="orth">   13.84   13.83</time>
   <time name="total">  319.95  319.95</time>
   <energy>
    <i name="e_fr_energy">   -179.86968598 </i>
    <i name="e_wo_entrp">   -179.63181590 </i>
    <i name="e_0_energy">   -179.81021846 </i>
   </energy>
  </scstep>
  <scstep>
   <time name="diag">   69.47   69.47</time>
   <time name="diis">  225.74  225.74</time>
   <time name="orth">   14.05   14.05</time>
   <time name="total">  350.91  350.91</time>
   <energy>
    <i name="e_fr_energy">   -182.38901892 </i>
    <i name="e_wo_entrp">   -182.36881926 </i>
    <i name="e_0_energy">   -182.38396900 </i>
   </energy>
  </scstep>
  <scstep>
   <time name="diag">   69.84   69.84</time>
   <time name="diis">  216.00  216.00</time>
   <time name="orth">   14.15   14.15</time>
   <time name="total">  341.84  341.83</time>
   <energy>
    <i name="e_fr_energy">   -184.81475807 </i>
    <i name="e_wo_entrp">   -184.66457923 </i>
    <i name="e_0_energy">   -184.77721336 </i>
   </energy>
  </scstep>
  <scstep>
   <time name="diag">   69.91   69.91</time>
   <time name="diis">  199.19  199.19</time>
   <time name="orth">   13.98   13.98</time>
   <time name="total">  324.24  324.24</time>
   <energy>
    <i name="e_fr_energy">   -183.19495213 </i>
    <i name="e_wo_entrp">   -182.96998160 </i>
    <i name="e_0_energy">   -183.13870950 </i>
   </energy>
  </scstep>
  <scstep>
   <time name="diag">   69.50   69.50</time>
   <time name="diis">  195.72  195.71</time>
   <time name="orth">   14.30   14.30</time>
   <time name="total">  321.28  321.28</time>
   <energy>
    <i name="e_fr_energy">   -179.79663674 </i>
    <i name="e_wo_entrp">   -179.61016114 </i>
    <i name="e_0_energy">   -179.75001784 </i>
   </energy>
  </scstep>
  <scstep>
   <time name="diag">   70.77   70.77</time>
   <time name="diis">  201.12  201.12</time>
   <time name="orth">   14.46   14.46</time>
   <time name="total">  328.77  328.78</time>
   <energy>
    <i name="e_fr_energy">   -177.60295039 </i>
    <i name="e_wo_entrp">   -177.48332313 </i>
    <i name="e_0_energy">   -177.57304357 </i>
   </energy>
  </scstep>
  <scstep>
   <time name="diag">   70.94   70.94</time>
   <time name="diis">  199.06  199.08</time>
   <time name="orth">   14.08   14.08</time>
   <time name="total">  327.15  327.17</time>
   <energy>
    <i name="e_fr_energy">   -177.79901506 </i>
    <i name="e_wo_entrp">   -177.81281403 </i>
    <i name="e_0_energy">   -177.80246480 </i>
   </energy>
  </scstep>
  <scstep>
   <time name="diag">   71.44   71.45</time>
   <time name="diis">  199.68  199.69</time>
   <time name="orth">   14.10   14.10</time>
   <time name="total">  328.31  328.34</time>
   <energy>
    <i name="e_fr_energy">   -177.76466199 </i>
    <i name="e_wo_entrp">   -177.80937169 </i>
    <i name="e_0_energy">   -177.77583942 </i>
   </energy>
  </scstep>
  <scstep>
   <time name="diag">   71.54   71.55</time>
   <time name="diis">  195.01  195.02</time>
   <time name="orth">   13.87   13.87</time>
   <time name="total">  323.31  323.33</time>
   <energy>
    <i name="e_fr_energy">   -176.91077880 </i>
    <i name="e_wo_entrp">   -176.85521930 </i>
    <i name="e_0_energy">   -176.89688892 </i>
   </energy>
  </scstep>
  <scstep>
   <time name="diag">   71.52   71.52</time>
   <time name="diis">  192.80  192.81</time>
   <time name="orth">   13.86   13.86</time>
   <time name="total">  320.76  320.78</time>
   <energy>
    <i name="e_fr_energy">   -176.27020799 </i>
    <i name="e_wo_entrp">   -176.18680841 </i>
    <i name="e_0_energy">   -176.24935809 </i>
   </energy>
  </scstep>
  <scstep>
   <time name="diag">   71.92   71.92</time>
   <time name="diis">  199.32  199.34</time>
   <time name="orth">   13.85   13.85</time>
   <time name="total">  327.58  327.61</time>
   <energy>
    <i name="e_fr_energy">   -176.42637389 </i>
    <i name="e_wo_entrp">   -176.40643633 </i>
    <i name="e_0_energy">   -176.42138950 </i>
   </energy>
  </scstep>
  <scstep>
   <time name="diag">   72.27   72.28</time>
   <time name="diis">  197.01  197.03</time>
   <time name="orth">   13.97   13.97</time>
   <time name="total">  325.50  325.53</time>
   <energy>
    <i name="e_fr_energy">   -176.10597371 </i>
    <i name="e_wo_entrp">   -176.11670794 </i>
    <i name="e_0_energy">   -176.10865727 </i>
   </energy>
  </scstep>
  <scstep>
   <time name="diag">   72.43   72.43</time>
   <time name="diis">  194.07  194.09</time>
   <time name="orth">   13.99   13.99</time>
   <time name="total">  322.88  322.90</time>
   <energy>
    <i name="e_fr_energy">   -176.02301121 </i>
    <i name="e_wo_entrp">   -176.08989109 </i>
    <i name="e_0_energy">   -176.03973118 </i>
   </energy>
  </scstep>
  <scstep>
   <time name="diag">   72.30   72.30</time>
   <time name="diis">  191.84  191.86</time>
   <time name="orth">   13.65   13.65</time>
   <time name="total">  319.99  320.01</time>
   <energy>
    <i name="e_fr_energy">   -175.80494744 </i>
    <i name="e_wo_entrp">   -175.77697697 </i>
    <i name="e_0_energy">   -175.79795482 </i>
   </energy>
  </scstep>
  <scstep>
   <time name="diag">   72.12   72.13</time>
   <time name="diis">  189.58  189.59</time>
   <time name="orth">   13.67   13.67</time>
   <time name="total">  317.95  317.98</time>
   <energy>
    <i name="e_fr_energy">   -175.49121859 </i>
    <i name="e_wo_entrp">   -175.44038789 </i>
    <i name="e_0_energy">   -175.47851091 </i>
   </energy>
  </scstep>
  <scstep>
   <time name="diag">   73.06   73.07</time>
   <time name="diis">  191.26  191.28</time>
   <time name="orth">   13.79   13.79</time>
   <time name="total">  321.06  321.09</time>
   <energy>
    <i name="e_fr_energy">   -175.43921768 </i>
    <i name="e_wo_entrp">   -175.37901180 </i>
    <i name="e_0_energy">   -175.42416621 </i>
   </energy>
  </scstep>
  <scstep>
   <time name="diag">   73.13   73.14</time>
   <time name="diis">  189.81  189.82</time>
   <time name="orth">   13.92   13.93</time>
   <time name="total">  319.17  319.19</time>
   <energy>
    <i name="e_fr_energy">   -175.36022222 </i>
    <i name="e_wo_entrp">   -175.29796819 </i>
    <i name="e_0_energy">   -175.34465871 </i>
   </energy>
  </scstep>
  <scstep>
   <time name="diag">   72.51   72.51</time>
   <time name="diis">  190.59  190.59</time>
   <time name="orth">   13.76   13.76</time>
   <time name="total">  319.19  319.19</time>
   <energy>
    <i name="e_fr_energy">   -175.21268965 </i>
    <i name="e_wo_entrp">   -175.11552399 </i>
    <i name="e_0_energy">   -175.18839823 </i>
   </energy>
  </scstep>
  <scstep>
   <time name="diag">   71.79   71.79</time>
   <time name="diis">  190.22  190.22</time>
   <time name="orth">   13.70   13.70</time>
   <time name="total">  317.46  317.46</time>
   <energy>
    <i name="e_fr_energy">   -175.16099764 </i>
    <i name="e_wo_entrp">   -175.06374292 </i>
    <i name="e_0_energy">   -175.13668396 </i>
   </energy>
  </scstep>
  <scstep>
   <time name="diag">   72.72   72.72</time>
   <time name="diis">  193.69  193.71</time>
   <time name="orth">   14.04   14.04</time>
   <time name="total">  323.16  323.17</time>
   <energy>
    <i name="e_fr_energy">   -175.17409885 </i>
    <i name="e_wo_entrp">   -175.07163885 </i>
    <i name="e_0_energy">   -175.14848385 </i>
   </energy>
  </scstep>
  <scstep>
   <time name="diag">   73.00   73.00</time>
   <time name="diis">  189.69  189.68</time>
   <time name="orth">   14.10   14.10</time>
   <time name="total">  319.37  319.38</time>
   <energy>
    <i name="e_fr_energy">   -175.08383727 </i>
    <i name="e_wo_entrp">   -174.98376517 </i>
    <i name="e_0_energy">   -175.05881924 </i>
   </energy>
  </scstep>
  <scstep>
   <time name="diag">   72.56   72.56</time>
   <time name="diis">  190.29  190.29</time>
   <time name="orth">   13.99   13.99</time>
   <time name="total">  319.37  319.38</time>
   <energy>
    <i name="e_fr_energy">   -175.05743430 </i>
    <i name="e_wo_entrp">   -174.96483961 </i>
    <i name="e_0_energy">   -175.03428563 </i>
   </energy>
  </scstep>
  <scstep>
   <time name="diag">   72.10   72.10</time>
   <time name="diis">  191.14  191.14</time>
   <time name="orth">   13.80   13.80</time>
   <time name="total">  319.72  319.72</time>
   <energy>
    <i name="e_fr_energy">   -175.06447006 </i>
    <i name="e_wo_entrp">   -174.97386738 </i>
    <i name="e_0_energy">   -175.04181939 </i>
   </energy>
  </scstep>
  <scstep>
   <time name="diag">   72.89   72.89</time>
   <time name="diis">  191.18  191.21</time>
   <time name="orth">   13.90   13.90</time>
   <time name="total">  320.95  320.98</time>
   <energy>
    <i name="e_fr_energy">   -175.03110536 </i>
    <i name="e_wo_entrp">   -174.94733067 </i>
    <i name="e_0_energy">   -175.01016169 </i>
   </energy>
  </scstep>
  <scstep>
   <time name="diag">   72.41   72.41</time>
   <time name="diis">  189.75  189.76</time>
   <time name="orth">   13.79   13.79</time>
   <time name="total">  318.48  318.50</time>
   <energy>
    <i name="e_fr_energy">   -175.03145206 </i>
    <i name="e_wo_entrp">   -174.94630194 </i>
    <i name="e_0_energy">   -175.01016453 </i>
   </energy>
  </scstep>
  <scstep>
   <time name="diag">   71.56   71.56</time>
   <time name="diis">  188.83  188.84</time>
   <time name="orth">   13.88   13.88</time>
   <time name="total">  316.98  317.01</time>
   <energy>
    <i name="e_fr_energy">   -175.03177347 </i>
    <i name="e_wo_entrp">   -174.94349372 </i>
    <i name="e_0_energy">   -175.00970353 </i>
   </energy>
  </scstep>
  <scstep>
   <time name="diag">   72.63   72.63</time>
   <time name="diis">  189.43  189.44</time>
   <time name="orth">   13.59   13.59</time>
   <time name="total">  318.74  318.77</time>
   <energy>
    <i name="e_fr_energy">   -175.02581769 </i>
    <i name="e_wo_entrp">   -174.93201682 </i>
    <i name="e_0_energy">   -175.00236748 </i>
   </energy>
  </scstep>
  <scstep>
   <time name="diag">   71.16   71.17</time>
   <time name="diis">  188.52  188.53</time>
   <time name="orth">   13.78   13.78</time>
   <time name="total">  316.15  316.17</time>
   <energy>
    <i name="e_fr_energy">   -175.02533890 </i>
    <i name="e_wo_entrp">   -174.93197183 </i>
    <i name="e_0_energy">   -175.00199713 </i>
   </energy>
  </scstep>
  <scstep>
   <time name="diag">   71.79   71.80</time>
   <time name="diis">  186.98  186.99</time>
   <time name="orth">   13.36   13.36</time>
   <time name="total">  313.85  313.88</time>
   <energy>
    <i name="e_fr_energy">   -175.02320069 </i>
    <i name="e_wo_entrp">   -174.93352917 </i>
    <i name="e_0_energy">   -175.00078281 </i>
   </energy>
  </scstep>
  <scstep>
   <time name="diag">   69.21   69.22</time>
   <time name="diis">  179.58  179.60</time>
   <time name="orth">   13.52   13.52</time>
   <time name="total">  304.55  304.58</time>
   <energy>
    <i name="e_fr_energy">   -175.02368773 </i>
    <i name="e_wo_entrp">   -174.93737538 </i>
    <i name="e_0_energy">   -175.00210964 </i>
   </energy>
  </scstep>
  <scstep>
   <time name="diag">   71.28   71.29</time>
   <time name="diis">  188.63  188.64</time>
   <time name="orth">   13.86   13.86</time>
   <time name="total">  316.89  316.92</time>
   <energy>
    <i name="e_fr_energy">   -175.02462617 </i>
    <i name="e_wo_entrp">   -174.93785489 </i>
    <i name="e_0_energy">   -175.00293335 </i>
   </energy>
  </scstep>
  <scstep>
   <time name="diag">   71.41   71.42</time>
   <time name="diis">  187.44  187.46</time>
   <time name="orth">   13.81   13.82</time>
   <time name="total">  315.74  315.77</time>
   <energy>
    <i name="e_fr_energy">   -175.02558874 </i>
    <i name="e_wo_entrp">   -174.93957762 </i>
    <i name="e_0_energy">   -175.00408596 </i>
   </energy>
  </scstep>
  <scstep>
   <time name="diag">   71.42   71.43</time>
   <time name="diis">  180.92  180.94</time>
   <time name="orth">   13.76   13.76</time>
   <time name="total">  309.31  309.34</time>
   <energy>
    <i name="e_fr_energy">   -175.02713578 </i>
    <i name="e_wo_entrp">   -174.93884859 </i>
    <i name="e_0_energy">   -175.00506398 </i>
   </energy>
  </scstep>
  <scstep>
   <time name="diag">   71.65   71.66</time>
   <time name="diis">  158.30  158.32</time>
   <time name="orth">   13.58   13.58</time>
   <time name="total">  286.45  286.48</time>
   <energy>
    <i name="e_fr_energy">   -175.02854251 </i>
    <i name="e_wo_entrp">   -174.93863566 </i>
    <i name="e_0_energy">   -175.00606580 </i>
   </energy>
  </scstep>
  <scstep>
   <time name="diag">   70.58   70.59</time>
   <time name="diis">  157.09  157.10</time>
   <time name="orth">   13.94   13.94</time>
   <time name="total">  284.82  284.85</time>
   <energy>
    <i name="e_fr_energy">   -175.03066798 </i>
    <i name="e_wo_entrp">   -174.94114191 </i>
    <i name="e_0_energy">   -175.00828646 </i>
   </energy>
  </scstep>
  <scstep>
   <time name="diag">   69.99   70.00</time>
   <time name="diis">  167.35  167.36</time>
   <time name="orth">   13.73   13.73</time>
   <time name="total">  294.73  294.75</time>
   <energy>
    <i name="e_fr_energy">   -175.03448915 </i>
    <i name="e_wo_entrp">   -174.94535952 </i>
    <i name="e_0_energy">   -175.01220674 </i>
   </energy>
  </scstep>
  <scstep>
   <time name="diag">   69.32   69.32</time>
   <time name="diis">  123.28  123.29</time>
   <time name="orth">   14.18   14.18</time>
   <time name="total">  250.96  250.98</time>
   <energy>
    <i name="e_fr_energy">   -175.03569901 </i>
    <i name="e_wo_entrp">   -174.94603618 </i>
    <i name="e_0_energy">   -175.01328330 </i>
   </energy>
  </scstep>
  <scstep>
   <time name="diag">   70.05   70.06</time>
   <time name="diis">  125.74  125.75</time>
   <time name="orth">   14.19   14.19</time>
   <time name="total">  255.05  255.07</time>
   <energy>
    <i name="e_fr_energy">   -175.03805363 </i>
    <i name="e_wo_entrp">   -174.94869698 </i>
    <i name="e_0_energy">   -175.01571447 </i>
   </energy>
  </scstep>
  <scstep>
   <time name="diag">   71.64   71.64</time>
   <time name="diis">  132.75  132.75</time>
   <time name="orth">   13.89   13.89</time>
   <time name="total">  263.17  263.17</time>
   <energy>
    <i name="e_fr_energy">   -175.04049940 </i>
    <i name="e_wo_entrp">   -174.95205993 </i>
    <i name="e_0_energy">   -175.01838953 </i>
   </energy>
  </scstep>
  <scstep>
   <time name="diag">   71.20   71.20</time>
   <time name="diis">  121.25  121.26</time>
   <time name="orth">   14.25   14.25</time>
   <time name="total">  252.00  252.00</time>
   <energy>
    <i name="e_fr_energy">   -175.04159052 </i>
    <i name="e_wo_entrp">   -174.95276194 </i>
    <i name="e_0_energy">   -175.01938337 </i>
   </energy>
  </scstep>
  <scstep>
   <time name="diag">   71.78   71.78</time>
   <time name="diis">  126.81  126.81</time>
   <time name="orth">   14.20   14.20</time>
   <time name="total">  258.54  258.53</time>
   <energy>
    <i name="e_fr_energy">   -175.04396436 </i>
    <i name="e_wo_entrp">   -174.95539942 </i>
    <i name="e_0_energy">   -175.02182312 </i>
   </energy>
  </scstep>
  <scstep>
   <time name="diag">   72.73   72.73</time>
   <time name="diis">  121.48  121.48</time>
   <time name="orth">   13.73   13.73</time>
   <time name="total">  253.45  253.46</time>
   <energy>
    <i name="e_fr_energy">   -175.04498495 </i>
    <i name="e_wo_entrp">   -174.95586396 </i>
    <i name="e_0_energy">   -175.02270470 </i>
   </energy>
  </scstep>
  <scstep>
   <time name="diag">   71.63   71.63</time>
   <time name="diis">  121.61  121.60</time>
   <time name="orth">   14.05   14.05</time>
   <time name="total">  252.38  252.38</time>
   <energy>
    <i name="e_fr_energy">   -175.04608025 </i>
    <i name="e_wo_entrp">   -174.95761453 </i>
    <i name="e_0_energy">   -175.02396382 </i>
   </energy>
  </scstep>
  <scstep>
   <time name="diag">   70.55   70.55</time>
   <time name="diis">  118.95  118.95</time>
   <time name="orth">   13.87   13.86</time>
   <time name="total">  249.02  249.02</time>
   <energy>
    <i name="e_fr_energy">   -175.04692465 </i>
    <i name="e_wo_entrp">   -174.95870633 </i>
    <i name="e_0_energy">   -175.02487007 </i>
   </energy>
  </scstep>
  <scstep>
   <time name="diag">   72.00   72.01</time>
   <time name="diis">  118.61  118.61</time>
   <time name="orth">   13.90   13.90</time>
   <time name="total">  250.08  250.08</time>
   <energy>
    <i name="e_fr_energy">   -175.04765567 </i>
    <i name="e_wo_entrp">   -174.95942218 </i>
    <i name="e_0_energy">   -175.02559730 </i>
   </energy>
  </scstep>
  <scstep>
   <time name="diag">   71.63   71.63</time>
   <time name="diis">  118.19  118.19</time>
   <time name="orth">   13.72   13.72</time>
   <time name="total">  248.28  248.28</time>
   <energy>
    <i name="e_fr_energy">   -175.04859378 </i>
    <i name="e_wo_entrp">   -174.95977976 </i>
    <i name="e_0_energy">   -175.02639028 </i>
   </energy>
  </scstep>
  <scstep>
   <time name="diag">   71.43   71.43</time>
   <time name="diis">  115.33  115.33</time>
   <time name="orth">   13.98   13.98</time>
   <time name="total">  245.49  245.49</time>
   <energy>
    <i name="e_fr_energy">   -175.04890971 </i>
    <i name="e_wo_entrp">   -174.96028454 </i>
    <i name="e_0_energy">   -175.02675342 </i>
   </energy>
  </scstep>
  <scstep>
   <time name="diag">   70.28   70.28</time>
   <time name="diis">  110.23  110.23</time>
   <time name="orth">   13.95   13.95</time>
   <time name="total">  239.72  239.72</time>
   <energy>
    <i name="e_fr_energy">   -175.04958797 </i>
    <i name="e_wo_entrp">   -174.96088221 </i>
    <i name="e_0_energy">   -175.02741153 </i>
   </energy>
  </scstep>
  <scstep>
   <time name="diag">   71.32   71.32</time>
   <time name="diis">   90.80   90.80</time>
   <time name="orth">   13.72   13.72</time>
   <time name="total">  221.50  221.50</time>
   <energy>
    <i name="e_fr_energy">   -175.04978334 </i>
    <i name="e_wo_entrp">   -174.96105452 </i>
    <i name="e_0_energy">   -175.02760113 </i>
   </energy>
  </scstep>
  <scstep>
   <time name="diag">   71.02   71.02</time>
   <time name="diis">   95.92   95.92</time>
   <time name="orth">   13.74   13.74</time>
   <time name="total">  224.91  224.91</time>
   <energy>
    <i name="e_fr_energy">   -175.05020529 </i>
    <i name="e_wo_entrp">   -174.96141219 </i>
    <i name="e_0_energy">   -175.02800701 </i>
   </energy>
  </scstep>
  <scstep>
   <time name="diag">   70.12   70.12</time>
   <time name="diis">   82.77   82.77</time>
   <time name="orth">   13.69   13.69</time>
   <time name="total">  211.95  211.95</time>
   <energy>
    <i name="e_fr_energy">   -175.05037189 </i>
    <i name="e_wo_entrp">   -174.96163508 </i>
    <i name="e_0_energy">   -175.02818769 </i>
   </energy>
  </scstep>
  <scstep>
   <time name="diag">   69.55   69.55</time>
   <time name="diis">   84.65   84.65</time>
   <time name="orth">   13.70   13.70</time>
   <time name="total">  212.57  212.57</time>
   <energy>
    <i name="e_fr_energy">   -175.05056667 </i>
    <i name="e_wo_entrp">   -174.96180892 </i>
    <i name="e_0_energy">   -175.02837723 </i>
   </energy>
  </scstep>
  <scstep>
   <time name="diag">   70.43   70.43</time>
   <time name="diis">   86.89   86.89</time>
   <time name="orth">   13.70   13.70</time>
   <time name="total">  215.84  215.84</time>
   <energy>
    <i name="e_fr_energy">   -175.05075417 </i>
    <i name="e_wo_entrp">   -174.96203402 </i>
    <i name="e_0_energy">   -175.02857413 </i>
   </energy>
  </scstep>
  <scstep>
   <time name="diag">   69.33   69.33</time>
   <time name="diis">   90.58   90.58</time>
   <time name="orth">   13.88   13.88</time>
   <time name="total">  218.62  218.62</time>
   <energy>
    <i name="e_fr_energy">   -175.05096621 </i>
    <i name="e_wo_entrp">   -174.96223806 </i>
    <i name="e_0_energy">   -175.02878417 </i>
   </energy>
  </scstep>
  <scstep>
   <time name="diag">   69.34   69.34</time>
   <time name="diis">   84.79   84.79</time>
   <time name="orth">   13.70   13.70</time>
   <time name="total">  213.12  213.12</time>
   <energy>
    <i name="e_fr_energy">   -175.05110774 </i>
    <i name="e_wo_entrp">   -174.96238340 </i>
    <i name="e_0_energy">   -175.02892665 </i>
   </energy>
  </scstep>
  <scstep>
   <time name="diag">   70.54   70.53</time>
   <time name="diis">   76.84   76.84</time>
   <time name="orth">   13.56   13.56</time>
   <time name="total">  175.57  175.57</time>
   <energy>
    <i name="alphaZ">     75.25431677 </i>
    <i name="ewald"> 137545.25951353 </i>
    <i name="hartreedc">-181894.52552032 </i>
    <i name="XCdc">  -1692.41818438 </i>
    <i name="pawpsdc">  46189.44031436 </i>
    <i name="pawaedc"> -42660.49956959 </i>
    <i name="eentropy">     -0.08873247 </i>
    <i name="bandstr">  -2823.97879413 </i>
    <i name="atom">  45086.50549395 </i>
    <i name="e_fr_energy">   -175.05116229 </i>
    <i name="e_wo_entrp">   -174.96242982 </i>
    <i name="e_0_energy">   -175.02897917 </i>
   </energy>
  </scstep>
  <structure>
   <crystal>
    <varray name="basis" >
     <v>      30.00000000       0.00000000       0.00000000 </v>
     <v>       0.00000000      30.00000000       0.00000000 </v>
     <v>       0.00000000       0.00000000      30.00000000 </v>
    </varray>
    <i name="volume">  27000.00000000 </i>
    <varray name="rec_basis" >
     <v>       0.03333333       0.00000000       0.00000000 </v>
     <v>       0.00000000       0.03333333       0.00000000 </v>
     <v>       0.00000000       0.00000000       0.03333333 </v>
    </varray>
   </crystal>
   <varray name="positions" >
    <v>       0.44576020       0.32826710       0.41691983 </v>
    <v>       0.67173288       0.55423978       0.41691983 </v>
    <v>       0.55423980       0.32826710       0.41691983 </v>
    <v>       0.32826712       0.55423978       0.41691983 </v>
    <v>       0.50000000       0.38250690       0.34021317 </v>
    <v>       0.50000000       0.38250690       0.65978680 </v>
    <v>       0.50000000       0.27609440       0.50000000 </v>
    <v>       0.27609443       0.49999998       0.50000000 </v>
    <v>       0.72390557       0.49999998       0.50000000 </v>
    <v>       0.50000000       0.72390555       0.50000000 </v>
    <v>       0.61195280       0.38804720       0.34167483 </v>
    <v>       0.61195280       0.38804720       0.65832513 </v>
    <v>       0.38804722       0.61195278       0.34167483 </v>
    <v>       0.38804722       0.61195278       0.65832513 </v>
    <v>       0.38804720       0.38804720       0.34167483 </v>
    <v>       0.38804720       0.38804720       0.65832513 </v>
    <v>       0.61195278       0.61195278       0.34167483 </v>
    <v>       0.61195278       0.61195278       0.65832513 </v>
    <v>       0.44576020       0.32826710       0.58308023 </v>
    <v>       0.67173288       0.55423978       0.58308023 </v>
    <v>       0.55791699       0.44208301       0.41809300 </v>
    <v>       0.32826705       0.44576024       0.41691983 </v>
    <v>       0.55423973       0.67173293       0.41691983 </v>
    <v>       0.55423980       0.32826710       0.58308023 </v>
    <v>       0.32826712       0.55423978       0.58308023 </v>
    <v>       0.67173295       0.44576024       0.41691983 </v>
    <v>       0.44576027       0.67173293       0.41691983 </v>
    <v>       0.44208301       0.44208301       0.41809300 </v>
    <v>       0.50000000       0.38416601       0.50000000 </v>
    <v>       0.61749315       0.50000005       0.34021317 </v>
    <v>       0.61749315       0.50000005       0.65978680 </v>
    <v>       0.38250685       0.50000005       0.34021317 </v>
    <v>       0.38250685       0.50000005       0.65978680 </v>
    <v>       0.38317830       0.38317830       0.50000000 </v>
    <v>       0.61682172       0.61682172       0.50000000 </v>
    <v>       0.61682170       0.38317830       0.50000000 </v>
    <v>       0.38317828       0.61682172       0.50000000 </v>
    <v>       0.50000000       0.50000000       0.33478917 </v>
    <v>       0.50000000       0.50000000       0.66521087 </v>
    <v>       0.32826705       0.44576024       0.58308023 </v>
    <v>       0.55423973       0.67173293       0.58308023 </v>
    <v>       0.55791699       0.44208301       0.58190703 </v>
    <v>       0.44208298       0.55791702       0.41809300 </v>
    <v>       0.44208301       0.44208301       0.58190703 </v>
    <v>       0.67173295       0.44576024       0.58308023 </v>
    <v>       0.44576027       0.67173293       0.58308023 </v>
    <v>       0.55791702       0.55791702       0.41809300 </v>
    <v>       0.38416599       0.50000002       0.50000000 </v>
    <v>       0.61583401       0.50000002       0.50000000 </v>
    <v>       0.50000000       0.61749319       0.34021317 </v>
    <v>       0.50000000       0.61749319       0.65978680 </v>
    <v>       0.50000000       0.50000000       0.50000000 </v>
    <v>       0.44208298       0.55791702       0.58190703 </v>
    <v>       0.55791702       0.55791702       0.58190703 </v>
    <v>       0.50000000       0.61583404       0.50000000 </v>
    <v>       0.63059990       0.67210307       0.33050343 </v>
    <v>       0.64848250       0.69566857       0.30729483 </v>
   </varray>
  </structure>
  <varray name="forces" >
   <v>       0.70518945       1.10774135       0.28886331 </v>
   <v>      -1.07088116      -0.80290525       0.32786156 </v>
   <v>      -0.71155218       1.10586935       0.28967578 </v>
   <v>       1.10375309      -0.70748491       0.29588692 </v>
   <v>      -0.00046243       0.41004475       1.28433190 </v>
   <v>       0.00410434       0.41541088      -1.28075285 </v>
   <v>       0.00084808       1.51739364      -0.00197022 </v>
   <v>       1.51623918       0.00030864       0.00050924 </v>
   <v>      -1.51209178      -0.00512564       0.00314262 </v>
   <v>       0.00821547      -1.52307845      -0.01265141 </v>
   <v>      -0.76850649       0.71568442       1.06883261 </v>
   <v>      -0.75526001       0.75719371      -1.07172083 </v>
   <v>       0.77828595      -0.75724159       1.05756901 </v>
   <v>       0.75574055      -0.75854308      -1.07186521 </v>
   <v>       0.75621238       0.75602557       1.07362938 </v>
   <v>       0.75742424       0.75756741      -1.07048077 </v>
   <v>      -0.48382147       0.07595062       1.10264500 </v>
   <v>      -0.75532366      -0.75669656      -1.07197519 </v>
   <v>       0.70684187       1.10546484      -0.29459110 </v>
   <v>      -1.10985724      -0.70461610      -0.28958609 </v>
   <v>       0.10925088      -0.09267463      -0.16102146 </v>
   <v>       1.10795711       0.70189081       0.29241580 </v>
   <v>      -0.71508871      -1.01795860       0.27475063 </v>
   <v>      -0.70224812       1.10393329      -0.29019808 </v>
   <v>       1.10148801      -0.70468567      -0.28709420 </v>
   <v>      -1.09925220       0.73837765       0.28901082 </v>
   <v>       0.70368302      -1.11397462       0.30877641 </v>
   <v>      -0.10787235      -0.11007765      -0.15843969 </v>
   <v>      -0.00183457      -0.22944837      -0.00031495 </v>
   <v>      -0.40275640       0.00362224       1.29694703 </v>
   <v>      -0.41396835       0.00111872      -1.28075417 </v>
   <v>       0.41134077      -0.00122837       1.28293908 </v>
   <v>       0.41849450       0.00985719      -1.28049746 </v>
   <v>       0.82823383       0.82941965      -0.00227369 </v>
   <v>      -0.82751989      -0.83861074       0.03054256 </v>
   <v>      -0.83303532       0.83059538       0.00667539 </v>
   <v>       0.83984465      -0.82325780      -0.00716148 </v>
   <v>       0.00681723      -0.00139372       1.18266651 </v>
   <v>       0.00143344       0.00088545      -1.17712042 </v>
   <v>       1.10377655       0.70794072      -0.30120715 </v>
   <v>      -0.70427042      -1.10894586      -0.29210533 </v>
   <v>       0.10848444      -0.11145565       0.16463751 </v>
   <v>      -0.10514978       0.10825249      -0.15450596 </v>
   <v>      -0.10892281      -0.11524185       0.15392008 </v>
   <v>      -1.11216522       0.70642380      -0.28622497 </v>
   <v>       0.70286537      -1.10949476      -0.29624867 </v>
   <v>       0.06945055      -0.00538106      -0.09185092 </v>
   <v>      -0.23396000      -0.00531539       0.00549970 </v>
   <v>       0.22461600      -0.00190439      -0.00297931 </v>
   <v>      -0.14380788      -0.38273951       1.28634715 </v>
   <v>       0.00104593      -0.41699883      -1.27882782 </v>
   <v>      -0.01721042      -0.01294672       0.02331563 </v>
   <v>      -0.11827866       0.10751235       0.16801414 </v>
   <v>       0.11363683       0.11314549       0.15196123 </v>
   <v>      -0.00180046       0.22386392       0.00090094 </v>
   <v>      -2.25930398      -4.04541304       2.28898172 </v>
   <v>       2.13092829       3.35334446      -2.48683023 </v>
  </varray>
  <varray name="stress" >
   <v>      -6.66468312       0.08208327      -0.09062406 </v>
   <v>       0.08208325      -6.65824166      -0.14886929 </v>
   <v>      -0.09062406      -0.14886928      -6.62385102 </v>
  </varray>
  <energy>
   <i name="e_fr_energy">   -175.05116229 </i>
   <i name="e_wo_entrp">   -175.02897917 </i>
   <i name="e_0_energy">     -0.08873247 </i>
  </energy>
  <time name="totalsc">18994.6718995.44</time>
  <eigenvalues>
   <array>
    <dimension dim="1">band</dimension>
    <dimension dim="2">kpoint</dimension>
    <dimension dim="3">spin</dimension>
    <field>eigene</field>
    <field>occ</field>
    <set>
     <set comment="spin 1">
      <set comment="kpoint 1">
       <r>  -28.4942    1.0000 </r>
       <r>  -13.3584    1.0000 </r>
       <r>  -11.1644    1.0000 </r>
       <r>  -10.9431    1.0000 </r>
       <r>  -10.3622    1.0000 </r>
       <r>   -6.6657    1.0000 </r>
       <r>   -6.1696    1.0000 </r>
       <r>   -6.1485    1.0000 </r>
       <r>   -6.1460    1.0000 </r>
       <r>   -6.1155    1.0000 </r>
       <r>   -6.0602    1.0000 </r>
       <r>   -5.8558    1.0000 </r>
       <r>   -5.8284    1.0000 </r>
       <r>   -5.8246    1.0000 </r>
       <r>   -5.7612    1.0000 </r>
       <r>   -5.7218    1.0000 </r>
       <r>   -5.7076    1.0000 </r>
       <r>   -5.7012    1.0000 </r>
       <r>   -5.6936    1.0000 </r>
       <r>   -5.6434    1.0000 </r>
       <r>   -5.6367    1.0000 </r>
       <r>   -5.6287    1.0000 </r>
       <r>   -5.6230    1.0000 </r>
       <r>   -5.6131    1.0000 </r>
       <r>   -5.6081    1.0000 </r>
       <r>   -5.5819    1.0000 </r>
       <r>   -5.5695    1.0000 </r>
       <r>   -5.5621    1.0000 </r>
       <r>   -5.5607    1.0000 </r>
       <r>   -5.5503    1.0000 </r>
       <r>   -5.5491    1.0000 </r>
       <r>   -5.5358    1.0000 </r>
       <r>   -5.5331    1.0000 </r>
       <r>   -5.5314    1.0000 </r>
       <r>   -5.5292    1.0000 </r>
       <r>   -5.5267    1.0000 </r>
       <r>   -5.5194    1.0000 </r>
       <r>   -5.5042    1.0000 </r>
       <r>   -5.4914    1.0000 </r>
       <r>   -5.4910    1.0000 </r>
       <r>   -5.4868    1.0000 </r>
       <r>   -5.4851    1.0000 </r>
       <r>   -5.4841    1.0000 </r>
       <r>   -5.4777    1.0000 </r>
       <r>   -5.4642    1.0000 </r>
       <r>   -5.4584    1.0000 </r>
       <r>   -5.4488    1.0000 </r>
       <r>   -5.4461    1.0000 </r>
       <r>   -5.4446    1.0000 </r>
       <r>   -5.4387    1.0000 </r>
       <r>   -5.4370    1.0000 </r>
       <r>   -5.4303    1.0000 </r>
       <r>   -5.4238    1.0000 </r>
       <r>   -5.4218    1.0000 </r>
       <r>   -5.4188    1.0000 </r>
       <r>   -5.4050    1.0000 </r>
       <r>   -5.3920    1.0000 </r>
       <r>   -5.3782    1.0000 </r>
       <r>   -5.3495    1.0000 </r>
       <r>   -5.3435    1.0000 </r>
       <r>   -5.3416    1.0000 </r>
       <r>   -5.3368    1.0000 </r>
       <r>   -5.3302    1.0000 </r>
       <r>   -5.3191    1.0000 </r>
       <r>   -5.3182    1.0000 </r>
       <r>   -5.3154    1.0000 </r>
       <r>   -5.3061    1.0000 </r>
       <r>   -5.2976    1.0000 </r>
       <r>   -5.2905    1.0000 </r>
       <r>   -5.2454    1.0000 </r>
       <r>   -5.2419    1.0000 </r>
       <r>   -5.2231    1.0000 </r>
       <r>   -5.2192    1.0000 </r>
       <r>   -5.2152    1.0000 </r>
       <r>   -5.2055    1.0000 </r>
       <r>   -5.1945    1.0000 </r>
       <r>   -5.1921    1.0000 </r>
       <r>   -5.1878    1.0000 </r>
       <r>   -5.1818    1.0000 </r>
       <r>   -5.1781    1.0000 </r>
       <r>   -5.1750    1.0000 </r>
       <r>   -5.1724    1.0000 </r>
       <r>   -5.1664    1.0000 </r>
       <r>   -5.1460    1.0000 </r>
       <r>   -5.1389    1.0000 </r>
       <r>   -5.1368    1.0000 </r>
       <r>   -5.1289    1.0000 </r>
       <r>   -5.1253    1.0000 </r>
       <r>   -5.1169    1.0000 </r>
       <r>   -5.0954    1.0000 </r>
       <r>   -5.0753    1.0000 </r>
       <r>   -5.0718    1.0000 </r>
       <r>   -5.0711    1.0000 </r>
       <r>   -5.0681    1.0000 </r>
       <r>   -5.0673    1.0000 </r>
       <r>   -5.0619    1.0000 </r>
       <r>   -5.0478    1.0000 </r>
       <r>   -5.0470    1.0000 </r>
       <r>   -5.0447    1.0000 </r>
       <r>   -5.0439    1.0000 </r>
       <r>   -5.0324    1.0000 </r>
       <r>   -5.0301    1.0000 </r>
       <r>   -5.0272    1.0000 </r>
       <r>   -5.0233    1.0000 </r>
       <r>   -5.0195    1.0000 </r>
       <r>   -5.0080    1.0000 </r>
       <r>   -5.0055    1.0000 </r>
       <r>   -5.0031    1.0000 </r>
       <r>   -4.9983    1.0000 </r>
       <r>   -4.9946    1.0000 </r>
       <r>   -4.9875    1.0000 </r>
       <r>   -4.9843    1.0000 </r>
       <r>   -4.9797    1.0000 </r>
       <r>   -4.9747    1.0000 </r>
       <r>   -4.9729    1.0000 </r>
       <r>   -4.9704    1.0000 </r>
       <r>   -4.9672    1.0000 </r>
       <r>   -4.9608    1.0000 </r>
       <r>   -4.9550    1.0000 </r>
       <r>   -4.9448    1.0000 </r>
       <r>   -4.9371    1.0000 </r>
       <r>   -4.9312    1.0000 </r>
       <r>   -4.9297    1.0000 </r>
       <r>   -4.9177    1.0000 </r>
       <r>   -4.9160    1.0000 </r>
       <r>   -4.9155    1.0000 </r>
       <r>   -4.9116    1.0000 </r>
       <r>   -4.8892    1.0000 </r>
       <r>   -4.8830    1.0000 </r>
       <r>   -4.8605    1.0000 </r>
       <r>   -4.8587    1.0000 </r>
       <r>   -4.8578    1.0000 </r>
       <r>   -4.8569    1.0000 </r>
       <r>   -4.8556    1.0000 </r>
       <r>   -4.8492    1.0000 </r>
       <r>   -4.8459    1.0000 </r>
       <r>   -4.8374    1.0000 </r>
       <r>   -4.8179    0.9999 </r>
       <r>   -4.8124    0.9999 </r>
       <r>   -4.8082    0.9999 </r>
       <r>   -4.8065    0.9999 </r>
       <r>   -4.8034    0.9999 </r>
       <r>   -4.7913    0.9998 </r>
       <r>   -4.7796    0.9998 </r>
       <r>   -4.7777    0.9998 </r>
       <r>   -4.7728    0.9998 </r>
       <r>   -4.7686    0.9997 </r>
       <r>   -4.7457    0.9995 </r>
       <r>   -4.7384    0.9995 </r>
       <r>   -4.7342    0.9994 </r>
       <r>   -4.7289    0.9993 </r>
       <r>   -4.7188    0.9992 </r>
       <r>   -4.7022    0.9989 </r>
       <r>   -4.7008    0.9989 </r>
       <r>   -4.6988    0.9988 </r>
       <r>   -4.6981    0.9988 </r>
       <r>   -4.6913    0.9987 </r>
       <r>   -4.6882    0.9986 </r>
       <r>   -4.6840    0.9985 </r>
       <r>   -4.6776    0.9983 </r>
       <r>   -4.6731    0.9982 </r>
       <r>   -4.6692    0.9981 </r>
       <r>   -4.6647    0.9979 </r>
       <r>   -4.6626    0.9979 </r>
       <r>   -4.6620    0.9978 </r>
       <r>   -4.6616    0.9978 </r>
       <r>   -4.6608    0.9978 </r>
       <r>   -4.6594    0.9978 </r>
       <r>   -4.6576    0.9977 </r>
       <r>   -4.6494    0.9974 </r>
       <r>   -4.6389    0.9970 </r>
       <r>   -4.6337    0.9968 </r>
       <r>   -4.6217    0.9964 </r>
       <r>   -4.6129    0.9961 </r>
       <r>   -4.6119    0.9960 </r>
       <r>   -4.6109    0.9960 </r>
       <r>   -4.6107    0.9960 </r>
       <r>   -4.6065    0.9958 </r>
       <r>   -4.5928    0.9954 </r>
       <r>   -4.5919    0.9954 </r>
       <r>   -4.5906    0.9954 </r>
       <r>   -4.5870    0.9953 </r>
       <r>   -4.5850    0.9952 </r>
       <r>   -4.5806    0.9952 </r>
       <r>   -4.5691    0.9951 </r>
       <r>   -4.5668    0.9951 </r>
       <r>   -4.5660    0.9951 </r>
       <r>   -4.5645    0.9951 </r>
       <r>   -4.5637    0.9951 </r>
       <r>   -4.5628    0.9951 </r>
       <r>   -4.5336    0.9963 </r>
       <r>   -4.5237    0.9972 </r>
       <r>   -4.5212    0.9975 </r>
       <r>   -4.5199    0.9977 </r>
       <r>   -4.5181    0.9979 </r>
       <r>   -4.5145    0.9984 </r>
       <r>   -4.5087    0.9993 </r>
       <r>   -4.5022    1.0005 </r>
       <r>   -4.4991    1.0011 </r>
       <r>   -4.4918    1.0027 </r>
       <r>   -4.4839    1.0048 </r>
       <r>   -4.4820    1.0053 </r>
       <r>   -4.4792    1.0061 </r>
       <r>   -4.4733    1.0079 </r>
       <r>   -4.4731    1.0080 </r>
       <r>   -4.4655    1.0106 </r>
       <r>   -4.4621    1.0118 </r>
       <r>   -4.4573    1.0137 </r>
       <r>   -4.4552    1.0145 </r>
       <r>   -4.4540    1.0150 </r>
       <r>   -4.4522    1.0157 </r>
       <r>   -4.4404    1.0208 </r>
       <r>   -4.4359    1.0229 </r>
       <r>   -4.4264    1.0274 </r>
       <r>   -4.4245    1.0283 </r>
       <r>   -4.4237    1.0287 </r>
       <r>   -4.4218    1.0296 </r>
       <r>   -4.4161    1.0323 </r>
       <r>   -4.4128    1.0339 </r>
       <r>   -4.3894    1.0443 </r>
       <r>   -4.3854    1.0458 </r>
       <r>   -4.3818    1.0470 </r>
       <r>   -4.3782    1.0481 </r>
       <r>   -4.3681    1.0505 </r>
       <r>   -4.3583    1.0516 </r>
       <r>   -4.3533    1.0515 </r>
       <r>   -4.3518    1.0514 </r>
       <r>   -4.3511    1.0514 </r>
       <r>   -4.3488    1.0511 </r>
       <r>   -4.3479    1.0510 </r>
       <r>   -4.3466    1.0508 </r>
       <r>   -4.3429    1.0500 </r>
       <r>   -4.3421    1.0497 </r>
       <r>   -4.3402    1.0492 </r>
       <r>   -4.3366    1.0479 </r>
       <r>   -4.3359    1.0476 </r>
       <r>   -4.3348    1.0471 </r>
       <r>   -4.3327    1.0461 </r>
       <r>   -4.3323    1.0459 </r>
       <r>   -4.3258    1.0420 </r>
       <r>   -4.3168    1.0348 </r>
       <r>   -4.3155    1.0335 </r>
       <r>   -4.3032    1.0191 </r>
       <r>   -4.3007    1.0155 </r>
       <r>   -4.3002    1.0148 </r>
       <r>   -4.2988    1.0127 </r>
       <r>   -4.2976    1.0109 </r>
       <r>   -4.2973    1.0104 </r>
       <r>   -4.2917    1.0010 </r>
       <r>   -4.2900    0.9978 </r>
       <r>   -4.2799    0.9772 </r>
       <r>   -4.2784    0.9738 </r>
       <r>   -4.2693    0.9515 </r>
       <r>   -4.2686    0.9497 </r>
       <r>   -4.2658    0.9422 </r>
       <r>   -4.2637    0.9364 </r>
       <r>   -4.2627    0.9333 </r>
       <r>   -4.2617    0.9303 </r>
       <r>   -4.2606    0.9271 </r>
       <r>   -4.2577    0.9185 </r>
       <r>   -4.2566    0.9149 </r>
       <r>   -4.2554    0.9112 </r>
       <r>   -4.2535    0.9051 </r>
       <r>   -4.2508    0.8963 </r>
       <r>   -4.2480    0.8866 </r>
       <r>   -4.2466    0.8817 </r>
       <r>   -4.2442    0.8735 </r>
       <r>   -4.2355    0.8408 </r>
       <r>   -4.2335    0.8328 </r>
       <r>   -4.2317    0.8257 </r>
       <r>   -4.2293    0.8157 </r>
       <r>   -4.2260    0.8022 </r>
       <r>   -4.2182    0.7681 </r>
       <r>   -4.2151    0.7546 </r>
       <r>   -4.1977    0.6716 </r>
       <r>   -4.1951    0.6584 </r>
       <r>   -4.1922    0.6438 </r>
       <r>   -4.1896    0.6308 </r>
       <r>   -4.1870    0.6174 </r>
       <r>   -4.1864    0.6143 </r>
       <r>   -4.1852    0.6082 </r>
       <r>   -4.1713    0.5357 </r>
       <r>   -4.1455    0.3996 </r>
       <r>   -4.1439    0.3913 </r>
       <r>   -4.1417    0.3800 </r>
       <r>   -4.1405    0.3739 </r>
       <r>   -4.1295    0.3186 </r>
       <r>   -4.1266    0.3047 </r>
       <r>   -4.1066    0.2124 </r>
       <r>   -3.9800   -0.0512 </r>
       <r>   -3.9155   -0.0335 </r>
       <r>   -3.8280   -0.0007 </r>
       <r>   -3.8272   -0.0005 </r>
       <r>   -3.7219    0.0041 </r>
       <r>   -3.5108    0.0001 </r>
       <r>   -3.5072    0.0001 </r>
       <r>   -3.4652    0.0000 </r>
       <r>   -3.0837    0.0000 </r>
       <r>   -3.0705    0.0000 </r>
       <r>   -3.0540    0.0000 </r>
       <r>   -3.0434    0.0000 </r>
       <r>   -3.0226    0.0000 </r>
       <r>   -2.9847    0.0000 </r>
       <r>   -2.9497    0.0000 </r>
       <r>   -2.7881    0.0000 </r>
       <r>   -2.5526    0.0000 </r>
       <r>   -2.5350    0.0000 </r>
       <r>   -2.5042    0.0000 </r>
       <r>   -2.3529    0.0000 </r>
       <r>   -2.1626    0.0000 </r>
       <r>   -2.1279    0.0000 </r>
       <r>   -2.0895    0.0000 </r>
       <r>   -2.0146    0.0000 </r>
       <r>   -1.9737    0.0000 </r>
       <r>   -1.9146    0.0000 </r>
       <r>   -1.8735    0.0000 </r>
       <r>   -1.8702    0.0000 </r>
       <r>   -1.7786    0.0000 </r>
       <r>   -1.7225    0.0000 </r>
       <r>   -1.6571    0.0000 </r>
       <r>   -1.6173    0.0000 </r>
       <r>   -1.5732    0.0000 </r>
       <r>   -1.4639    0.0000 </r>
       <r>   -1.2729    0.0000 </r>
       <r>   -1.2627    0.0000 </r>
       <r>   -1.2498    0.0000 </r>
       <r>   -1.2094    0.0000 </r>
       <r>   -1.1023    0.0000 </r>
       <r>   -0.9905    0.0000 </r>
       <r>   -0.9750    0.0000 </r>
       <r>   -0.9544    0.0000 </r>
       <r>   -0.9377    0.0000 </r>
       <r>   -0.9041    0.0000 </r>
       <r>   -0.8922    0.0000 </r>
       <r>   -0.8322    0.0000 </r>
       <r>   -0.7916    0.0000 </r>
      </set>
     </set>
    </set>
   </array>
  </eigenvalues>
  <separator name="orbital magnetization" >
   <v name="MAGDIPOLOUT">      0.00000000      0.00000000      0.00000000</v>
  </separator>
  <dos>
   <i name="efermi">     -4.16459043 </i>
   <total>
    <array>
     <dimension dim="1">gridpoints</dimension>
     <dimension dim="2">spin</dimension>
     <field>energy</field>
     <field>total</field>
     <field>integrated</field>
     <set>
      <set comment="spin 1">
       <r>   -30.4942     0.0000     0.0000 </r>
       <r>   -30.3885     0.0000     0.0000 </r>
       <r>   -30.2828     0.0000     0.0000 </r>
       <r>   -30.1772     0.0000     0.0000 </r>
       <r>   -30.0715     0.0000     0.0000 </r>
       <r>   -29.9658     0.0000     0.0000 </r>
       <r>   -29.8601     0.0000     0.0000 </r>
       <r>   -29.7545     0.0000     0.0000 </r>
       <r>   -29.6488     0.0000     0.0000 </r>
       <r>   -29.5431     0.0000     0.0000 </r>
       <r>   -29.4374     0.0000     0.0000 </r>
       <r>   -29.3318     0.0000     0.0000 </r>
       <r>   -29.2261     0.0001     0.0000 </r>
       <r>   -29.1204     0.0029     0.0003 </r>
       <r>   -29.0147     0.0252     0.0030 </r>
       <r>   -28.9091     0.0637     0.0097 </r>
       <r>   -28.8034    -0.2391    -0.0156 </r>
       <r>   -28.6977    -0.8090    -0.1011 </r>
       <r>   -28.5920     2.2320     0.1348 </r>
       <r>   -28.4864     8.9702     1.0827 </r>
       <r>   -28.3807     8.1735     1.9465 </r>
       <r>   -28.2750     1.3835     2.0927 </r>
       <r>   -28.1693    -0.8144     2.0066 </r>
       <r>   -28.0637    -0.1479     1.9910 </r>
       <r>   -27.9580     0.0640     1.9977 </r>
       <r>   -27.8523     0.0193     1.9998 </r>
       <r>   -27.7466     0.0019     2.0000 </r>
       <r>   -27.6410     0.0001     2.0000 </r>
       <r>   -27.5353     0.0000     2.0000 </r>
       <r>   -27.4296     0.0000     2.0000 </r>
       <r>   -27.3239     0.0000     2.0000 </r>
       <r>   -27.2183     0.0000     2.0000 </r>
       <r>   -27.1126     0.0000     2.0000 </r>
       <r>   -27.0069     0.0000     2.0000 </r>
       <r>   -26.9012     0.0000     2.0000 </r>
       <r>   -26.7956     0.0000     2.0000 </r>
       <r>   -26.6899     0.0000     2.0000 </r>
       <r>   -26.5842     0.0000     2.0000 </r>
       <r>   -26.4785     0.0000     2.0000 </r>
       <r>   -26.3729     0.0000     2.0000 </r>
       <r>   -26.2672     0.0000     2.0000 </r>
       <r>   -26.1615     0.0000     2.0000 </r>
       <r>   -26.0558     0.0000     2.0000 </r>
       <r>   -25.9502     0.0000     2.0000 </r>
       <r>   -25.8445     0.0000     2.0000 </r>
       <r>   -25.7388     0.0000     2.0000 </r>
       <r>   -25.6331     0.0000     2.0000 </r>
       <r>   -25.5275     0.0000     2.0000 </r>
       <r>   -25.4218     0.0000     2.0000 </r>
       <r>   -25.3161     0.0000     2.0000 </r>
       <r>   -25.2104     0.0000     2.0000 </r>
       <r>   -25.1048     0.0000     2.0000 </r>
       <r>   -24.9991     0.0000     2.0000 </r>
       <r>   -24.8934     0.0000     2.0000 </r>
       <r>   -24.7877     0.0000     2.0000 </r>
       <r>   -24.6821     0.0000     2.0000 </r>
       <r>   -24.5764     0.0000     2.0000 </r>
       <r>   -24.4707     0.0000     2.0000 </r>
       <r>   -24.3650     0.0000     2.0000 </r>
       <r>   -24.2594     0.0000     2.0000 </r>
       <r>   -24.1537     0.0000     2.0000 </r>
       <r>   -24.0480     0.0000     2.0000 </r>
       <r>   -23.9423     0.0000     2.0000 </r>
       <r>   -23.8367     0.0000     2.0000 </r>
       <r>   -23.7310     0.0000     2.0000 </r>
       <r>   -23.6253     0.0000     2.0000 </r>
       <r>   -23.5196     0.0000     2.0000 </r>
       <r>   -23.4140     0.0000     2.0000 </r>
       <r>   -23.3083     0.0000     2.0000 </r>
       <r>   -23.2026     0.0000     2.0000 </r>
       <r>   -23.0969     0.0000     2.0000 </r>
       <r>   -22.9913     0.0000     2.0000 </r>
       <r>   -22.8856     0.0000     2.0000 </r>
       <r>   -22.7799     0.0000     2.0000 </r>
       <r>   -22.6742     0.0000     2.0000 </r>
       <r>   -22.5685     0.0000     2.0000 </r>
       <r>   -22.4629     0.0000     2.0000 </r>
       <r>   -22.3572     0.0000     2.0000 </r>
       <r>   -22.2515     0.0000     2.0000 </r>
       <r>   -22.1458     0.0000     2.0000 </r>
       <r>   -22.0402     0.0000     2.0000 </r>
       <r>   -21.9345     0.0000     2.0000 </r>
       <r>   -21.8288     0.0000     2.0000 </r>
       <r>   -21.7231     0.0000     2.0000 </r>
       <r>   -21.6175     0.0000     2.0000 </r>
       <r>   -21.5118     0.0000     2.0000 </r>
       <r>   -21.4061     0.0000     2.0000 </r>
       <r>   -21.3004     0.0000     2.0000 </r>
       <r>   -21.1948     0.0000     2.0000 </r>
       <r>   -21.0891     0.0000     2.0000 </r>
       <r>   -20.9834     0.0000     2.0000 </r>
       <r>   -20.8777     0.0000     2.0000 </r>
       <r>   -20.7721     0.0000     2.0000 </r>
       <r>   -20.6664     0.0000     2.0000 </r>
       <r>   -20.5607     0.0000     2.0000 </r>
       <r>   -20.4550     0.0000     2.0000 </r>
       <r>   -20.3494     0.0000     2.0000 </r>
       <r>   -20.2437     0.0000     2.0000 </r>
       <r>   -20.1380     0.0000     2.0000 </r>
       <r>   -20.0323     0.0000     2.0000 </r>
       <r>   -19.9267     0.0000     2.0000 </r>
       <r>   -19.8210     0.0000     2.0000 </r>
       <r>   -19.7153     0.0000     2.0000 </r>
       <r>   -19.6096     0.0000     2.0000 </r>
       <r>   -19.5040     0.0000     2.0000 </r>
       <r>   -19.3983     0.0000     2.0000 </r>
       <r>   -19.2926     0.0000     2.0000 </r>
       <r>   -19.1869     0.0000     2.0000 </r>
       <r>   -19.0813     0.0000     2.0000 </r>
       <r>   -18.9756     0.0000     2.0000 </r>
       <r>   -18.8699     0.0000     2.0000 </r>
       <r>   -18.7642     0.0000     2.0000 </r>
       <r>   -18.6586     0.0000     2.0000 </r>
       <r>   -18.5529     0.0000     2.0000 </r>
       <r>   -18.4472     0.0000     2.0000 </r>
       <r>   -18.3415     0.0000     2.0000 </r>
       <r>   -18.2359     0.0000     2.0000 </r>
       <r>   -18.1302     0.0000     2.0000 </r>
       <r>   -18.0245     0.0000     2.0000 </r>
       <r>   -17.9188     0.0000     2.0000 </r>
       <r>   -17.8132     0.0000     2.0000 </r>
       <r>   -17.7075     0.0000     2.0000 </r>
       <r>   -17.6018     0.0000     2.0000 </r>
       <r>   -17.4961     0.0000     2.0000 </r>
       <r>   -17.3905     0.0000     2.0000 </r>
       <r>   -17.2848     0.0000     2.0000 </r>
       <r>   -17.1791     0.0000     2.0000 </r>
       <r>   -17.0734     0.0000     2.0000 </r>
       <r>   -16.9678     0.0000     2.0000 </r>
       <r>   -16.8621     0.0000     2.0000 </r>
       <r>   -16.7564     0.0000     2.0000 </r>
       <r>   -16.6507     0.0000     2.0000 </r>
       <r>   -16.5451     0.0000     2.0000 </r>
       <r>   -16.4394     0.0000     2.0000 </r>
       <r>   -16.3337     0.0000     2.0000 </r>
       <r>   -16.2280     0.0000     2.0000 </r>
       <r>   -16.1224     0.0000     2.0000 </r>
       <r>   -16.0167     0.0000     2.0000 </r>
       <r>   -15.9110     0.0000     2.0000 </r>
       <r>   -15.8053     0.0000     2.0000 </r>
       <r>   -15.6997     0.0000     2.0000 </r>
       <r>   -15.5940     0.0000     2.0000 </r>
       <r>   -15.4883     0.0000     2.0000 </r>
       <r>   -15.3826     0.0000     2.0000 </r>
       <r>   -15.2770     0.0000     2.0000 </r>
       <r>   -15.1713     0.0000     2.0000 </r>
       <r>   -15.0656     0.0000     2.0000 </r>
       <r>   -14.9599     0.0000     2.0000 </r>
       <r>   -14.8543     0.0000     2.0000 </r>
       <r>   -14.7486     0.0000     2.0000 </r>
       <r>   -14.6429     0.0000     2.0000 </r>
       <r>   -14.5372     0.0000     2.0000 </r>
       <r>   -14.4316     0.0000     2.0000 </r>
       <r>   -14.3259     0.0000     2.0000 </r>
       <r>   -14.2202     0.0000     2.0000 </r>
       <r>   -14.1145     0.0001     2.0000 </r>
       <r>   -14.0089     0.0015     2.0002 </r>
       <r>   -13.9032     0.0166     2.0019 </r>
       <r>   -13.7975     0.0622     2.0085 </r>
       <r>   -13.6918    -0.1055     1.9973 </r>
       <r>   -13.5862    -0.7907     1.9138 </r>
       <r>   -13.4805     0.9768     2.0170 </r>
       <r>   -13.3748     7.6687     2.8274 </r>
       <r>   -13.2691     9.3236     3.8127 </r>
       <r>   -13.1634     2.7481     4.1031 </r>
       <r>   -13.0578    -0.7729     4.0214 </r>
       <r>   -12.9521    -0.2959     3.9901 </r>
       <r>   -12.8464     0.0608     3.9966 </r>
       <r>   -12.7407     0.0288     3.9996 </r>
       <r>   -12.6351     0.0035     4.0000 </r>
       <r>   -12.5294     0.0002     4.0000 </r>
       <r>   -12.4237     0.0000     4.0000 </r>
       <r>   -12.3180     0.0000     4.0000 </r>
       <r>   -12.2124     0.0000     4.0000 </r>
       <r>   -12.1067     0.0000     4.0000 </r>
       <r>   -12.0010     0.0000     4.0000 </r>
       <r>   -11.8953     0.0002     4.0000 </r>
       <r>   -11.7897     0.0029     4.0003 </r>
       <r>   -11.6840     0.0257     4.0030 </r>
       <r>   -11.5783     0.0657     4.0100 </r>
       <r>   -11.4726    -0.2235     3.9864 </r>
       <r>   -11.3670    -0.7418     3.9080 </r>
       <r>   -11.2613     2.1029     4.1302 </r>
       <r>   -11.1556     8.1920     4.9959 </r>
       <r>   -11.0499     9.8509     6.0369 </r>
       <r>   -10.9443     9.8807     7.0810 </r>
       <r>   -10.8386     7.8846     7.9143 </r>
       <r>   -10.7329     1.7276     8.0968 </r>
       <r>   -10.6272    -1.3179     7.9575 </r>
       <r>   -10.5216    -0.4609     7.9088 </r>
       <r>   -10.4159     5.2172     8.4602 </r>
       <r>   -10.3102    10.0477     9.5220 </r>
       <r>   -10.2045     5.2709    10.0790 </r>
       <r>   -10.0989    -0.2430    10.0533 </r>
       <r>    -9.9932    -0.5744     9.9926 </r>
       <r>    -9.8875     0.0144     9.9941 </r>
       <r>    -9.7818     0.0470     9.9991 </r>
       <r>    -9.6762     0.0082     9.9999 </r>
       <r>    -9.5705     0.0006    10.0000 </r>
       <r>    -9.4648     0.0000    10.0000 </r>
       <r>    -9.3591     0.0000    10.0000 </r>
       <r>    -9.2535     0.0000    10.0000 </r>
       <r>    -9.1478     0.0000    10.0000 </r>
       <r>    -9.0421     0.0000    10.0000 </r>
       <r>    -8.9364     0.0000    10.0000 </r>
       <r>    -8.8308     0.0000    10.0000 </r>
       <r>    -8.7251     0.0000    10.0000 </r>
       <r>    -8.6194     0.0000    10.0000 </r>
       <r>    -8.5137     0.0000    10.0000 </r>
       <r>    -8.4081     0.0000    10.0000 </r>
       <r>    -8.3024     0.0000    10.0000 </r>
       <r>    -8.1967     0.0000    10.0000 </r>
       <r>    -8.0910     0.0000    10.0000 </r>
       <r>    -7.9854     0.0000    10.0000 </r>
       <r>    -7.8797     0.0000    10.0000 </r>
       <r>    -7.7740     0.0000    10.0000 </r>
       <r>    -7.6683     0.0000    10.0000 </r>
       <r>    -7.5627     0.0000    10.0000 </r>
       <r>    -7.4570     0.0000    10.0000 </r>
       <r>    -7.3513     0.0006    10.0001 </r>
       <r>    -7.2456     0.0083    10.0009 </r>
       <r>    -7.1400     0.0473    10.0059 </r>
       <r>    -7.0343     0.0134    10.0073 </r>
       <r>    -6.9286    -0.5778     9.9463 </r>
       <r>    -6.8229    -0.2286     9.9221 </r>
       <r>    -6.7173     5.3438    10.4868 </r>
       <r>    -6.6116    10.2412    11.5691 </r>
       <r>    -6.5059     5.1144    12.1096 </r>
       <r>    -6.4002    -2.8191    11.8116 </r>
       <r>    -6.2946    -0.8144    11.7256 </r>
       <r>    -6.1889    24.1985    14.2828 </r>
       <r>    -6.0832    44.9797    19.0360 </r>
       <r>    -5.9775    26.9966    21.8889 </r>
       <r>    -5.8719    16.2192    23.6028 </r>
       <r>    -5.7662    42.2851    28.0713 </r>
       <r>    -5.6605   102.1199    38.8629 </r>
       <r>    -5.5548   214.0907    61.4870 </r>
       <r>    -5.4492   301.4915    93.3472 </r>
       <r>    -5.3435   269.5973   121.8369 </r>
       <r>    -5.2378   213.2289   144.3700 </r>
       <r>    -5.1321   248.0343   170.5811 </r>
       <r>    -5.0265   336.2123   206.1104 </r>
       <r>    -4.9208   360.7819   244.2361 </r>
       <r>    -4.8151   310.3040   277.0276 </r>
       <r>    -4.7094   322.7305   311.1322 </r>
       <r>    -4.6038   395.5492   352.9320 </r>
       <r>    -4.4981   412.4014   396.5126 </r>
       <r>    -4.3924   445.8498   443.6279 </r>
       <r>    -4.2867   549.9166   501.7405 </r>
       <r>    -4.1811   496.3901   554.1967 </r>
       <r>    -4.0754   226.2920   578.1101 </r>
       <r>    -3.9697    31.0175   581.3879 </r>
       <r>    -3.8640    12.1322   582.6700 </r>
       <r>    -3.7584    28.6034   585.6927 </r>
       <r>    -3.6527    18.4826   587.6458 </r>
       <r>    -3.5470    18.7818   589.6306 </r>
       <r>    -3.4413    28.3507   592.6265 </r>
       <r>    -3.3356    13.0503   594.0056 </r>
       <r>    -3.2300    -3.7283   593.6117 </r>
       <r>    -3.1243    18.5173   595.5685 </r>
       <r>    -3.0186    58.1965   601.7184 </r>
       <r>    -2.9129    52.3951   607.2553 </r>
       <r>    -2.8073    18.0766   609.1655 </r>
       <r>    -2.7016     4.4473   609.6355 </r>
       <r>    -2.5959    14.1628   611.1321 </r>
       <r>    -2.4902    29.1000   614.2073 </r>
       <r>    -2.3846    23.0726   616.6455 </r>
       <r>    -2.2789    10.2231   617.7258 </r>
       <r>    -2.1732    16.6125   619.4814 </r>
       <r>    -2.0675    33.6101   623.0331 </r>
       <r>    -1.9619    42.6653   627.5418 </r>
       <r>    -1.8562    43.4637   632.1348 </r>
       <r>    -1.7505    38.4453   636.1975 </r>
       <r>    -1.6448    36.4575   640.0502 </r>
       <r>    -1.5392    31.5616   643.3855 </r>
       <r>    -1.4335    17.2628   645.2097 </r>
       <r>    -1.3278    18.6876   647.1845 </r>
       <r>    -1.2221    35.3690   650.9222 </r>
       <r>    -1.1165    32.6405   654.3714 </r>
       <r>    -1.0108    36.2037   658.1973 </r>
       <r>    -0.9051    60.6855   664.6102 </r>
       <r>    -0.7994    53.8113   670.2968 </r>
       <r>    -0.6938    18.7262   672.2757 </r>
       <r>    -0.5881    -1.0011   672.1699 </r>
       <r>    -0.4824    -1.8823   671.9710 </r>
       <r>    -0.3767     0.0250   671.9736 </r>
       <r>    -0.2711     0.2002   671.9948 </r>
       <r>    -0.1654     0.0452   671.9995 </r>
       <r>    -0.0597     0.0042   672.0000 </r>
       <r>     0.0460     0.0002   672.0000 </r>
       <r>     0.1516     0.0000   672.0000 </r>
       <r>     0.2573     0.0000   672.0000 </r>
       <r>     0.3630     0.0000   672.0000 </r>
       <r>     0.4687     0.0000   672.0000 </r>
       <r>     0.5743     0.0000   672.0000 </r>
       <r>     0.6800     0.0000   672.0000 </r>
       <r>     0.7857     0.0000   672.0000 </r>
       <r>     0.8914     0.0000   672.0000 </r>
       <r>     0.9970     0.0000   672.0000 </r>
       <r>     1.1027     0.0000   672.0000 </r>
       <r>     1.2084     0.0000   672.0000 </r>
      </set>
     </set>
    </array>
   </total>
  </dos>
 </calculation>
 <structure name="finalpos" >
  <crystal>
   <varray name="basis" >
    <v>      30.00000000       0.00000000       0.00000000 </v>
    <v>       0.00000000      30.00000000       0.00000000 </v>
    <v>       0.00000000       0.00000000      30.00000000 </v>
   </varray>
   <i name="volume">  27000.00000000 </i>
   <varray name="rec_basis" >
    <v>       0.03333333       0.00000000       0.00000000 </v>
    <v>       0.00000000       0.03333333       0.00000000 </v>
    <v>       0.00000000       0.00000000       0.03333333 </v>
   </varray>
  </crystal>
  <varray name="positions" >
   <v>       0.44576020       0.32826710       0.41691983 </v>
   <v>       0.67173288       0.55423978       0.41691983 </v>
   <v>       0.55423980       0.32826710       0.41691983 </v>
   <v>       0.32826712       0.55423978       0.41691983 </v>
   <v>       0.50000000       0.38250690       0.34021317 </v>
   <v>       0.50000000       0.38250690       0.65978680 </v>
   <v>       0.50000000       0.27609440       0.50000000 </v>
   <v>       0.27609443       0.49999998       0.50000000 </v>
   <v>       0.72390557       0.49999998       0.50000000 </v>
   <v>       0.50000000       0.72390555       0.50000000 </v>
   <v>       0.61195280       0.38804720       0.34167483 </v>
   <v>       0.61195280       0.38804720       0.65832513 </v>
   <v>       0.38804722       0.61195278       0.34167483 </v>
   <v>       0.38804722       0.61195278       0.65832513 </v>
   <v>       0.38804720       0.38804720       0.34167483 </v>
   <v>       0.38804720       0.38804720       0.65832513 </v>
   <v>       0.61195278       0.61195278       0.34167483 </v>
   <v>       0.61195278       0.61195278       0.65832513 </v>
   <v>       0.44576020       0.32826710       0.58308023 </v>
   <v>       0.67173288       0.55423978       0.58308023 </v>
   <v>       0.55791699       0.44208301       0.41809300 </v>
   <v>       0.32826705       0.44576024       0.41691983 </v>
   <v>       0.55423973       0.67173293       0.41691983 </v>
   <v>       0.55423980       0.32826710       0.58308023 </v>
   <v>       0.32826712       0.55423978       0.58308023 </v>
   <v>       0.67173295       0.44576024       0.41691983 </v>
   <v>       0.44576027       0.67173293       0.41691983 </v>
   <v>       0.44208301       0.44208301       0.41809300 </v>
   <v>       0.50000000       0.38416601       0.50000000 </v>
   <v>       0.61749315       0.50000005       0.34021317 </v>
   <v>       0.61749315       0.50000005       0.65978680 </v>
   <v>       0.38250685       0.50000005       0.34021317 </v>
   <v>       0.38250685       0.50000005       0.65978680 </v>
   <v>       0.38317830       0.38317830       0.50000000 </v>
   <v>       0.61682172       0.61682172       0.50000000 </v>
   <v>       0.61682170       0.38317830       0.50000000 </v>
   <v>       0.38317828       0.61682172       0.50000000 </v>
   <v>       0.50000000       0.50000000       0.33478917 </v>
   <v>       0.50000000       0.50000000       0.66521087 </v>
   <v>       0.32826705       0.44576024       0.58308023 </v>
   <v>       0.55423973       0.67173293       0.58308023 </v>
   <v>       0.55791699       0.44208301       0.58190703 </v>
   <v>       0.44208298       0.55791702       0.41809300 </v>
   <v>       0.44208301       0.44208301       0.58190703 </v>
   <v>       0.67173295       0.44576024       0.58308023 </v>
   <v>       0.44576027       0.67173293       0.58308023 </v>
   <v>       0.55791702       0.55791702       0.41809300 </v>
   <v>       0.38416599       0.50000002       0.50000000 </v>
   <v>       0.61583401       0.50000002       0.50000000 </v>
   <v>       0.50000000       0.61749319       0.34021317 </v>
   <v>       0.50000000       0.61749319       0.65978680 </v>
   <v>       0.50000000       0.50000000       0.50000000 </v>
   <v>       0.44208298       0.55791702       0.58190703 </v>
   <v>       0.55791702       0.55791702       0.58190703 </v>
   <v>       0.50000000       0.61583404       0.50000000 </v>
   <v>       0.63059990       0.67210307       0.33050343 </v>
   <v>       0.64848250       0.69566857       0.30729483 </v>
  </varray>
  <varray name="selective"  type="logical" >
   <v type="logical" >  F  F  F </v>
   <v type="logical" >  F  F  F </v>
   <v type="logical" >  F  F  F </v>
   <v type="logical" >  F  F  F </v>
   <v type="logical" >  F  F  F </v>
   <v type="logical" >  F  F  F </v>
   <v type="logical" >  F  F  F </v>
   <v type="logical" >  F  F  F </v>
   <v type="logical" >  F  F  F </v>
   <v type="logical" >  F  F  F </v>
   <v type="logical" >  F  F  F </v>
   <v type="logical" >  F  F  F </v>
   <v type="logical" >  F  F  F </v>
   <v type="logical" >  F  F  F </v>
   <v type="logical" >  F  F  F </v>
   <v type="logical" >  F  F  F </v>
   <v type="logical" >  F  F  F </v>
   <v type="logical" >  F  F  F </v>
   <v type="logical" >  F  F  F </v>
   <v type="logical" >  F  F  F </v>
   <v type="logical" >  F  F  F </v>
   <v type="logical" >  F  F  F </v>
   <v type="logical" >  F  F  F </v>
   <v type="logical" >  F  F  F </v>
   <v type="logical" >  F  F  F </v>
   <v type="logical" >  F  F  F </v>
   <v type="logical" >  F  F  F </v>
   <v type="logical" >  F  F  F </v>
   <v type="logical" >  F  F  F </v>
   <v type="logical" >  F  F  F </v>
   <v type="logical" >  F  F  F </v>
   <v type="logical" >  F  F  F </v>
   <v type="logical" >  F  F  F </v>
   <v type="logical" >  F  F  F </v>
   <v type="logical" >  F  F  F </v>
   <v type="logical" >  F  F  F </v>
   <v type="logical" >  F  F  F </v>
   <v type="logical" >  F  F  F </v>
   <v type="logical" >  F  F  F </v>
   <v type="logical" >  F  F  F </v>
   <v type="logical" >  F  F  F </v>
   <v type="logical" >  F  F  F </v>
   <v type="logical" >  F  F  F </v>
   <v type="logical" >  F  F  F </v>
   <v type="logical" >  F  F  F </v>
   <v type="logical" >  F  F  F </v>
   <v type="logical" >  F  F  F </v>
   <v type="logical" >  F  F  F </v>
   <v type="logical" >  F  F  F </v>
   <v type="logical" >  F  F  F </v>
   <v type="logical" >  F  F  F </v>
   <v type="logical" >  F  F  F </v>
   <v type="logical" >  F  F  F </v>
   <v type="logical" >  F  F  F </v>
   <v type="logical" >  F  F  F </v>
   <v type="logical" >  F  F  F </v>
   <v type="logical" >  F  F  F </v>
  </varray>
  <nose>
   <v>      -3.00000000       0.00000000       0.00010000       0.00010000 </v>
  </nose>
 </structure>
</modeling>
