 running on    1 total cores
 distrk:  each k-point on    1 cores,    1 groups
 distr:  one band on    1 cores,    1 groups
 using from now: INCAR     
 vasp.5.4.4.18Apr17-6-g9f103f2a35 (build Sep 03 2018 23:53:05) complex          
  
 POSCAR found type information on POSCAR  Pd C  O 
 POSCAR found :  3 types and      57 ions
 scaLAPACK will be used

 ----------------------------------------------------------------------------- 
|                                                                             |
|  ADVICE TO THIS USER RUNNING 'VASP/VAMP'   (HEAR YOUR MASTER'S VOICE ...):  |
|                                                                             |
|      You enforced a specific xc-type in the INCAR file,                     |
|      a different type was found on the POTCAR file                          |
|          I HOPE YOU KNOW, WHAT YOU ARE  DOING                               |
|                                                                             |
 ----------------------------------------------------------------------------- 

 LDA part: xc-table for Pade appr. of Perdew
 POSCAR, INCAR and KPOINTS ok, starting setup
 FFT: planning ...
 WAVECAR not read
 entering main loop
       N       E                     dE             d eps       ncg     rms          rms(c)
DAV:   1     0.439697605512E+04    0.43970E+04   -0.10057E+05   688   0.815E+02
DAV:   2     0.201024215646E+04   -0.23867E+04   -0.21465E+04  1224   0.105E+02
DAV:   3     0.229575871212E+03   -0.17807E+04   -0.16764E+04  1008   0.918E+01
DAV:   4    -0.135283875514E+03   -0.36486E+03   -0.30945E+03   840   0.436E+01
DAV:   5    -0.181459680784E+03   -0.46176E+02   -0.38132E+02  1040   0.147E+01    0.176E+01
RMM:   6    -0.180267418893E+03    0.11923E+01   -0.65111E+01   723   0.958E+00    0.233E+01
RMM:   7    -0.182695448415E+03   -0.24280E+01   -0.22850E+01   840   0.477E+00    0.206E+01
RMM:   8    -0.187203057573E+03   -0.45076E+01   -0.84359E+00   745   0.395E+00    0.289E+01
RMM:   9    -0.183803265064E+03    0.33998E+01   -0.57442E+00   727   0.339E+00    0.312E+01
RMM:  10    -0.181790633614E+03    0.20126E+01   -0.30245E+00   748   0.242E+00    0.233E+01
RMM:  11    -0.179568470111E+03    0.22222E+01   -0.23924E+00   728   0.228E+00    0.189E+01
RMM:  12    -0.178046759688E+03    0.15217E+01   -0.21338E+00   729   0.217E+00    0.150E+01
RMM:  13    -0.178828805344E+03   -0.78205E+00   -0.18542E+00   721   0.201E+00    0.212E+01
RMM:  14    -0.178350655234E+03    0.47815E+00   -0.19375E+00   711   0.199E+00    0.256E+01
RMM:  15    -0.176820418146E+03    0.15302E+01   -0.16275E+00   702   0.183E+00    0.115E+01
RMM:  16    -0.176234159651E+03    0.58626E+00   -0.89545E-01   699   0.141E+00    0.948E+00
RMM:  17    -0.176178625863E+03    0.55534E-01   -0.43145E-01   702   0.976E-01    0.982E+00
RMM:  18    -0.176289481703E+03   -0.11086E+00   -0.31691E-01   709   0.851E-01    0.119E+01
RMM:  19    -0.175935116812E+03    0.35436E+00   -0.28981E-01   712   0.834E-01    0.823E+00
RMM:  20    -0.175694053193E+03    0.24106E+00   -0.26587E-01   694   0.801E-01    0.569E+00
RMM:  21    -0.175797723288E+03   -0.10367E+00   -0.25007E-01   698   0.775E-01    0.806E+00
RMM:  22    -0.175743555079E+03    0.54168E-01   -0.22853E-01   697   0.757E-01    0.705E+00
RMM:  23    -0.175574539891E+03    0.16902E+00   -0.15877E-01   694   0.643E-01    0.454E+00
RMM:  24    -0.175544331226E+03    0.30209E-01   -0.93382E-02   694   0.492E-01    0.465E+00
RMM:  25    -0.175494490581E+03    0.49841E-01   -0.59820E-02   692   0.391E-01    0.337E+00
RMM:  26    -0.175481693372E+03    0.12797E-01   -0.47752E-02   692   0.350E-01    0.341E+00
RMM:  27    -0.175441156203E+03    0.40537E-01   -0.34593E-02   694   0.300E-01    0.215E+00
RMM:  28    -0.175423853650E+03    0.17303E-01   -0.20753E-02   702   0.233E-01    0.152E+00
RMM:  29    -0.175413213337E+03    0.10640E-01   -0.10057E-02   693   0.167E-01    0.984E-01
RMM:  30    -0.175409553283E+03    0.36601E-02   -0.58513E-03   695   0.124E-01    0.990E-01
RMM:  31    -0.175406648575E+03    0.29047E-02   -0.50627E-03   696   0.111E-01    0.808E-01
RMM:  32    -0.175405033309E+03    0.16153E-02   -0.49730E-03   688   0.113E-01    0.787E-01
RMM:  33    -0.175403772147E+03    0.12612E-02   -0.28610E-03   692   0.888E-02    0.669E-01
RMM:  34    -0.175404333554E+03   -0.56141E-03   -0.19879E-03   690   0.727E-02    0.677E-01
RMM:  35    -0.175404690360E+03   -0.35681E-03   -0.16722E-03   685   0.659E-02    0.513E-01
RMM:  36    -0.175405251101E+03   -0.56074E-03   -0.11216E-03   683   0.569E-02    0.348E-01
RMM:  37    -0.175408199872E+03   -0.29488E-02   -0.12040E-03   682   0.527E-02    0.369E-01
RMM:  38    -0.175411323485E+03   -0.31236E-02   -0.10068E-03   681   0.468E-02    0.242E-01
RMM:  39    -0.175412725468E+03   -0.14020E-02   -0.34481E-04   465   0.285E-02    0.210E-01
RMM:  40    -0.175416764934E+03   -0.40395E-02   -0.70376E-04   596   0.346E-02    0.229E-01
RMM:  41    -0.175418585568E+03   -0.18206E-02   -0.37933E-04   477   0.275E-02    0.103E-01
RMM:  42    -0.175421030998E+03   -0.24454E-02   -0.35239E-04   465   0.248E-02    0.170E-01
RMM:  43    -0.175422935027E+03   -0.19040E-02   -0.29284E-04   433   0.224E-02    0.115E-01
RMM:  44    -0.175424104416E+03   -0.11694E-02   -0.18513E-04   413   0.179E-02    0.111E-01
RMM:  45    -0.175425967875E+03   -0.18635E-02   -0.21569E-04   423   0.177E-02    0.761E-02
RMM:  46    -0.175426691783E+03   -0.72391E-03   -0.10823E-04   409   0.130E-02    0.609E-02
RMM:  47    -0.175427352262E+03   -0.66048E-03   -0.61784E-05   409   0.947E-03    0.497E-02
RMM:  48    -0.175428080962E+03   -0.72870E-03   -0.44610E-05   403   0.811E-03    0.317E-02
RMM:  49    -0.175428535241E+03   -0.45428E-03   -0.24767E-05   380   0.615E-03    0.332E-02
RMM:  50    -0.175429399437E+03   -0.86420E-03   -0.25488E-05   388   0.622E-03    0.331E-02
RMM:  51    -0.175429742494E+03   -0.34306E-03   -0.12319E-05   290   0.499E-03    0.265E-02
RMM:  52    -0.175430283247E+03   -0.54075E-03   -0.14670E-05   306   0.503E-03    0.209E-02
RMM:  53    -0.175430586954E+03   -0.30371E-03   -0.69626E-06   204   0.427E-03    0.149E-02
RMM:  54    -0.175430921993E+03   -0.33504E-03   -0.10777E-05   239   0.435E-03    0.149E-02
RMM:  55    -0.175431207593E+03   -0.28560E-03   -0.79218E-06   187   0.407E-03    0.104E-02
RMM:  56    -0.175431466338E+03   -0.25874E-03   -0.17172E-05   262   0.456E-03    0.124E-02
RMM:  57    -0.175431626588E+03   -0.16025E-03   -0.68348E-06   169   0.385E-03    0.524E-03
RMM:  58    -0.175431733510E+03   -0.10692E-03   -0.58641E-06   145   0.378E-03    0.655E-03
RMM:  59    -0.175431842430E+03   -0.10892E-03   -0.84512E-06   172   0.387E-03    0.347E-03
RMM:  60    -0.175431919365E+03   -0.76935E-04   -0.62245E-06   147   0.358E-03
   1 F= -.17543192E+03 E0= -.17540930E+03  d E =-.904909E-01
================================= SLURM INFO ===================================
Command: run-cluster -n 1 -m 10000 -j 000147_vasp --same-node /opt/VASP/vasp
Exit code: 0
Job name: 000147_vasp
Job time: 0 days 4h:56m:19s
MPI task count: 1
Working dir: /home/pashkov/pyFitIt/pyfitit/data/adaptive_pd_co_new_2/sample/000147
Job was running on nodes: h13
Task per node: 1
       JobID     MaxRSS  MaxDiskRead MaxDiskWrite    Elapsed    JobName 
------------ ---------- ------------ ------------ ---------- ---------- 
106635                                              04:56:19 000147_va+ 
106635.batch                                        04:56:19      batch 
