<?xml version="1.0" encoding="ISO-8859-1"?>
<modeling>
 <generator>
  <i name="program" type="string">vasp </i>
  <i name="version" type="string">5.4.4.18Apr17-6-g9f103f2a35  </i>
  <i name="subversion" type="string">(build Sep 03 2018 23:53:05) complex            parallel </i>
  <i name="platform" type="string">LinuxIFC </i>
  <i name="date" type="string">2021 11 30 </i>
  <i name="time" type="string">15:12:08 </i>
 </generator>
 <incar>
  <i type="string" name="SYSTEM"> 6_Pd100_top_free_z(O)</i>
  <i type="int" name="ISTART">     0</i>
  <i type="string" name="PREC">normal   			! encut=max(enmax), ngx,y,z</i>
  <i type="string" name="ALGO"> Fast     			! Mix RMM-DIIS and Dav</i>
  <i type="logical" name="ADDGRID"> F  </i>
  <i type="int" name="ISPIN">     1</i>
  <i type="int" name="ICHARG">     2</i>
  <i type="int" name="NELM">   100</i>
  <i type="int" name="NELMIN">     6</i>
  <i type="int" name="IBRION">     2</i>
  <i name="EDIFF">      0.00010000</i>
  <i name="EDIFFG">     -0.05000000</i>
  <i type="int" name="NSW">     0</i>
  <i type="int" name="ISIF">     2</i>
  <i type="int" name="ISYM">     2</i>
  <i name="ENCUT">    400.00000000</i>
  <i type="string" name="LREAL"> Auto     			! Auto or A projection done</i>
  <i type="int" name="ISMEAR">     2</i>
  <i name="SIGMA">      0.20000000</i>
  <i type="logical" name="LWAVE"> F  </i>
  <i type="logical" name="LCHARG"> F  </i>
  <v type="int" name="KPOINT_BSE">    -1     0     0     0</v>
  <i type="int" name="MAXMEM"> 10000</i>
  <i type="int" name="NELM">   100</i>
  <i type="string" name="GGA"> RP         			! Revised PBE</i>
 </incar>
 <structure name="primitive_cell" >
  <crystal>
   <varray name="basis" >
    <v>      30.00000000       0.00000000       0.00000000 </v>
    <v>       0.00000000      30.00000000       0.00000000 </v>
    <v>       0.00000000       0.00000000      30.00000000 </v>
   </varray>
   <i name="volume">  27000.00000000 </i>
   <varray name="rec_basis" >
    <v>       0.03333333       0.00000000       0.00000000 </v>
    <v>       0.00000000       0.03333333       0.00000000 </v>
    <v>       0.00000000       0.00000000       0.03333333 </v>
   </varray>
  </crystal>
  <varray name="positions" >
   <v>       0.44576020       0.32826710       0.41691983 </v>
   <v>      -0.44576020       0.32826710       0.41691983 </v>
   <v>      -0.50000000       0.38250690       0.34021317 </v>
   <v>      -0.50000000       0.27609440      -0.50000000 </v>
   <v>       0.38804720       0.38804720       0.34167483 </v>
   <v>      -0.50000000       0.38416601      -0.50000000 </v>
   <v>       0.44208300       0.44208300       0.41809300 </v>
   <v>       0.38317830       0.38317830      -0.50000000 </v>
   <v>      -0.44208300       0.44208300       0.41809300 </v>
   <v>       0.44576020       0.32826710      -0.41691977 </v>
   <v>       0.32826705       0.44576024       0.41691983 </v>
   <v>      -0.38804720       0.38804720       0.34167483 </v>
   <v>      -0.38317830       0.38317830      -0.50000000 </v>
   <v>      -0.50000000      -0.50000000       0.33478917 </v>
   <v>      -0.50000000      -0.50000000      -0.50000000 </v>
   <v>      -0.44576020       0.32826710      -0.41691977 </v>
   <v>       0.38250685      -0.49999995       0.34021317 </v>
   <v>       0.44208300       0.44208300      -0.41809297 </v>
   <v>       0.38416599      -0.49999998      -0.50000000 </v>
   <v>      -0.44208300       0.44208300      -0.41809297 </v>
   <v>       0.44208298      -0.44208298       0.41809300 </v>
   <v>       0.32826705       0.44576024      -0.41691977 </v>
   <v>      -0.50000000       0.38250690      -0.34021320 </v>
   <v>       0.32826712      -0.44576022       0.41691983 </v>
   <v>      -0.38250685      -0.49999995       0.34021317 </v>
   <v>      -0.32826705       0.44576024       0.41691983 </v>
   <v>       0.27609443       0.49999998      -0.50000000 </v>
   <v>       0.38804720       0.38804720      -0.34167487 </v>
   <v>      -0.38416599      -0.49999998      -0.50000000 </v>
   <v>      -0.44208298      -0.44208298       0.41809300 </v>
   <v>       0.44208298      -0.44208298      -0.41809297 </v>
   <v>      -0.38804720       0.38804720      -0.34167487 </v>
   <v>       0.38804722      -0.38804722       0.34167483 </v>
   <v>       0.38250685      -0.49999995      -0.34021320 </v>
   <v>       0.32826712      -0.44576022      -0.41691977 </v>
   <v>      -0.32826705       0.44576024      -0.41691977 </v>
   <v>       0.50000000      -0.38250681       0.34021317 </v>
   <v>      -0.50000000      -0.38416596      -0.50000000 </v>
   <v>      -0.44208298      -0.44208298      -0.41809297 </v>
   <v>      -0.50000000      -0.50000000      -0.33478913 </v>
   <v>       0.38317828      -0.38317828      -0.50000000 </v>
   <v>      -0.32826712      -0.44576022       0.41691983 </v>
   <v>      -0.27609443       0.49999998      -0.50000000 </v>
   <v>      -0.38804722      -0.38804722       0.34167483 </v>
   <v>      -0.38250685      -0.49999995      -0.34021320 </v>
   <v>       0.44576027      -0.32826707       0.41691983 </v>
   <v>      -0.38317828      -0.38317828      -0.50000000 </v>
   <v>       0.43731987      -0.32589927       0.49127373 </v>
   <v>      -0.32826712      -0.44576022      -0.41691977 </v>
   <v>      -0.44576027      -0.32826707       0.41691983 </v>
   <v>       0.38804722      -0.38804722      -0.34167487 </v>
   <v>      -0.50000000      -0.38250681      -0.34021320 </v>
   <v>       0.44576027      -0.32826707      -0.41691977 </v>
   <v>       0.42459747      -0.29056143       0.48950253 </v>
   <v>      -0.44576027      -0.32826707      -0.41691977 </v>
   <v>      -0.50000000      -0.27609445       0.50000000 </v>
   <v>      -0.38804722      -0.38804722      -0.34167487 </v>
  </varray>
 </structure>
 <varray name="primitive_index" >
  <v type="int" >        1 </v>
  <v type="int" >        3 </v>
  <v type="int" >        5 </v>
  <v type="int" >        7 </v>
  <v type="int" >       15 </v>
  <v type="int" >       29 </v>
  <v type="int" >       28 </v>
  <v type="int" >       34 </v>
  <v type="int" >       21 </v>
  <v type="int" >       19 </v>
  <v type="int" >       22 </v>
  <v type="int" >       11 </v>
  <v type="int" >       36 </v>
  <v type="int" >       38 </v>
  <v type="int" >       52 </v>
  <v type="int" >       24 </v>
  <v type="int" >       32 </v>
  <v type="int" >       44 </v>
  <v type="int" >       48 </v>
  <v type="int" >       42 </v>
  <v type="int" >       43 </v>
  <v type="int" >       40 </v>
  <v type="int" >        6 </v>
  <v type="int" >        4 </v>
  <v type="int" >       30 </v>
  <v type="int" >       26 </v>
  <v type="int" >        8 </v>
  <v type="int" >       16 </v>
  <v type="int" >       49 </v>
  <v type="int" >       47 </v>
  <v type="int" >       53 </v>
  <v type="int" >       12 </v>
  <v type="int" >       13 </v>
  <v type="int" >       33 </v>
  <v type="int" >       25 </v>
  <v type="int" >       45 </v>
  <v type="int" >       50 </v>
  <v type="int" >       55 </v>
  <v type="int" >       54 </v>
  <v type="int" >       39 </v>
  <v type="int" >       37 </v>
  <v type="int" >        2 </v>
  <v type="int" >        9 </v>
  <v type="int" >       17 </v>
  <v type="int" >       31 </v>
  <v type="int" >       27 </v>
  <v type="int" >       35 </v>
  <v type="int" >       56 </v>
  <v type="int" >       20 </v>
  <v type="int" >       23 </v>
  <v type="int" >       14 </v>
  <v type="int" >       51 </v>
  <v type="int" >       46 </v>
  <v type="int" >       57 </v>
  <v type="int" >       41 </v>
  <v type="int" >       10 </v>
  <v type="int" >       18 </v>
 </varray>
 <kpoints>
  <generation param="Monkhorst-Pack">
   <v type="int" name="divisions">       1        1        1 </v>
   <v name="usershift">      0.00000000       0.00000000       0.00000000 </v>
   <v name="genvec1">      1.00000000       0.00000000       0.00000000 </v>
   <v name="genvec2">      0.00000000       1.00000000       0.00000000 </v>
   <v name="genvec3">      0.00000000       0.00000000       1.00000000 </v>
   <v name="shift">      0.00000000       0.00000000       0.00000000 </v>
  </generation>
  <varray name="kpointlist" >
   <v>       0.00000000       0.00000000       0.00000000 </v>
  </varray>
  <varray name="weights" >
   <v>       1.00000000 </v>
  </varray>
 </kpoints>
 <parameters>
  <separator name="general" >
   <i type="string" name="SYSTEM">6_Pd100_top_free_z(O)</i>
   <i type="logical" name="LCOMPAT"> F  </i>
  </separator>
  <separator name="electronic" >
   <i type="string" name="PREC">normal</i>
   <i name="ENMAX">    400.00000000</i>
   <i name="ENAUG">    644.87300000</i>
   <i name="EDIFF">      0.00010000</i>
   <i type="int" name="IALGO">    68</i>
   <i type="int" name="IWAVPR">    10</i>
   <i type="int" name="NBANDS">   336</i>
   <i name="NELECT">    560.00000000</i>
   <i type="int" name="TURBO">     0</i>
   <i type="int" name="IRESTART">     0</i>
   <i type="int" name="NREBOOT">     0</i>
   <i type="int" name="NMIN">     0</i>
   <i name="EREF">      0.00000000</i>
   <separator name="electronic smearing" >
    <i type="int" name="ISMEAR">     2</i>
    <i name="SIGMA">      0.20000000</i>
    <i name="KSPACING">      0.50000000</i>
    <i type="logical" name="KGAMMA"> T  </i>
   </separator>
   <separator name="electronic projectors" >
    <i type="logical" name="LREAL"> T  </i>
    <v name="ROPT">     -0.00050000     -0.00050000     -0.00050000</v>
    <i type="int" name="LMAXPAW">  -100</i>
    <i type="int" name="LMAXMIX">     2</i>
    <i type="logical" name="NLSPLINE"> F  </i>
   </separator>
   <separator name="electronic startup" >
    <i type="int" name="ISTART">     0</i>
    <i type="int" name="ICHARG">     2</i>
    <i type="int" name="INIWAV">     1</i>
   </separator>
   <separator name="electronic spin" >
    <i type="int" name="ISPIN">     1</i>
    <i type="logical" name="LNONCOLLINEAR"> F  </i>
    <v name="MAGMOM">      1.00000000      1.00000000      1.00000000      1.00000000      1.00000000      1.00000000      1.00000000      1.00000000      1.00000000      1.00000000      1.00000000      1.00000000      1.00000000      1.00000000      1.00000000      1.00000000      1.00000000      1.00000000      1.00000000      1.00000000
      1.00000000      1.00000000      1.00000000      1.00000000      1.00000000      1.00000000      1.00000000      1.00000000      1.00000000      1.00000000      1.00000000      1.00000000      1.00000000      1.00000000      1.00000000      1.00000000      1.00000000      1.00000000      1.00000000      1.00000000
      1.00000000      1.00000000      1.00000000      1.00000000      1.00000000      1.00000000      1.00000000      1.00000000      1.00000000      1.00000000      1.00000000      1.00000000      1.00000000      1.00000000      1.00000000      1.00000000      1.00000000</v>
    <i name="NUPDOWN">     -1.00000000</i>
    <i type="logical" name="LSORBIT"> F  </i>
    <v name="SAXIS">      0.00000000      0.00000000      1.00000000</v>
    <i type="logical" name="LSPIRAL"> F  </i>
    <v name="QSPIRAL">      0.00000000      0.00000000      0.00000000</v>
    <i type="logical" name="LZEROZ"> F  </i>
   </separator>
   <separator name="electronic exchange-correlation" >
    <i type="logical" name="LASPH"> F  </i>
    <i type="logical" name="LMETAGGA"> F  </i>
   </separator>
   <separator name="electronic convergence" >
    <i type="int" name="NELM">   100</i>
    <i type="int" name="NELMDL">    -5</i>
    <i type="int" name="NELMIN">     6</i>
    <i name="ENINI">    400.00000000</i>
    <separator name="electronic convergence detail" >
     <i type="logical" name="LDIAG"> T  </i>
     <i type="logical" name="LSUBROT"> F  </i>
     <i name="WEIMIN">      0.00000000</i>
     <i name="EBREAK">      0.00000007</i>
     <i name="DEPER">      0.30000000</i>
     <i type="int" name="NRMM">     4</i>
     <i name="TIME">      0.40000000</i>
    </separator>
   </separator>
   <separator name="electronic mixer" >
    <i name="AMIX">      0.40000000</i>
    <i name="BMIX">      1.00000000</i>
    <i name="AMIN">      0.10000000</i>
    <i name="AMIX_MAG">      1.60000000</i>
    <i name="BMIX_MAG">      1.00000000</i>
    <separator name="electronic mixer details" >
     <i type="int" name="IMIX">     4</i>
     <i type="logical" name="MIXFIRST"> F  </i>
     <i type="int" name="MAXMIX">   -45</i>
     <i name="WC">    100.00000000</i>
     <i type="int" name="INIMIX">     1</i>
     <i type="int" name="MIXPRE">     1</i>
     <i type="int" name="MREMOVE">     5</i>
    </separator>
   </separator>
   <separator name="electronic dipolcorrection" >
    <i type="logical" name="LDIPOL"> F  </i>
    <i type="logical" name="LMONO"> F  </i>
    <i type="int" name="IDIPOL">     0</i>
    <i name="EPSILON">      1.00000000</i>
    <v name="DIPOL">   -100.00000000   -100.00000000   -100.00000000</v>
    <i name="EFIELD">      0.00000000</i>
   </separator>
  </separator>
  <separator name="grids" >
   <i type="int" name="NGX">   150</i>
   <i type="int" name="NGY">   150</i>
   <i type="int" name="NGZ">   150</i>
   <i type="int" name="NGXF">   300</i>
   <i type="int" name="NGYF">   300</i>
   <i type="int" name="NGZF">   300</i>
   <i type="logical" name="ADDGRID"> F  </i>
  </separator>
  <separator name="ionic" >
   <i type="int" name="NSW">     0</i>
   <i type="int" name="IBRION">    -1</i>
   <i type="int" name="MDALGO">     0</i>
   <i type="int" name="ISIF">     2</i>
   <i name="PSTRESS">      0.00000000</i>
   <i name="EDIFFG">     -0.05000000</i>
   <i type="int" name="NFREE">     1</i>
   <i name="POTIM">      0.50000000</i>
   <i name="SMASS">     -3.00000000</i>
   <i name="SCALEE">      1.00000000</i>
  </separator>
  <separator name="ionic md" >
   <i name="TEBEG">      0.00010000</i>
   <i name="TEEND">      0.00010000</i>
   <i type="int" name="NBLOCK">     1</i>
   <i type="int" name="KBLOCK">     1</i>
   <i type="int" name="NPACO">   256</i>
   <i name="APACO">     16.00000000</i>
  </separator>
  <separator name="symmetry" >
   <i type="int" name="ISYM">     2</i>
   <i name="SYMPREC">      0.00001000</i>
  </separator>
  <separator name="dos" >
   <i type="int" name="LORBIT">     0</i>
   <v name="RWIGS">     -1.00000000     -1.00000000     -1.00000000</v>
   <i type="int" name="NEDOS">   301</i>
   <i name="EMIN">     10.00000000</i>
   <i name="EMAX">    -10.00000000</i>
   <i name="EFERMI">      0.00000000</i>
  </separator>
  <separator name="writing" >
   <i type="int" name="NWRITE">     2</i>
   <i type="logical" name="LWAVE"> F  </i>
   <i type="logical" name="LDOWNSAMPLE"> F  </i>
   <i type="logical" name="LCHARG"> F  </i>
   <i type="logical" name="LPARD"> F  </i>
   <i type="logical" name="LVTOT"> F  </i>
   <i type="logical" name="LVHAR"> F  </i>
   <i type="logical" name="LELF"> F  </i>
   <i type="logical" name="LOPTICS"> F  </i>
   <v name="STM">      0.00000000      0.00000000      0.00000000      0.00000000      0.00000000      0.00000000      0.00000000</v>
  </separator>
  <separator name="performance" >
   <i type="int" name="NPAR">     1</i>
   <i type="int" name="NSIM">     4</i>
   <i type="int" name="NBLK">    -1</i>
   <i type="logical" name="LPLANE"> T  </i>
   <i type="logical" name="LSCALAPACK"> T  </i>
   <i type="logical" name="LSCAAWARE"> F  </i>
   <i type="logical" name="LSCALU"> F  </i>
   <i type="logical" name="LASYNC"> F  </i>
   <i type="logical" name="LORBITALREAL"> F  </i>
  </separator>
  <separator name="miscellaneous" >
   <i type="int" name="IDIOT">     3</i>
   <i type="int" name="ISPECIAL">     0</i>
   <i type="logical" name="LMUSIC"> F  </i>
   <v name="POMASS">    106.42000000     12.01100000     16.00000000</v>
   <v name="DARWINR">      0.00000000      0.00000000      0.00000000</v>
   <v name="DARWINV">      1.00000000      1.00000000      1.00000000</v>
   <i type="logical" name="LCORR"> T  </i>
  </separator>
  <i type="logical" name="GGA_COMPAT"> T  </i>
  <i type="logical" name="LBERRY"> F  </i>
  <i type="int" name="ICORELEVEL">     0</i>
  <i type="logical" name="LDAU"> F  </i>
  <i type="int" name="I_CONSTRAINED_M">     0</i>
  <separator name="electronic exchange-correlation" >
   <i type="string" name="GGA">RP</i>
   <i type="int" name="VOSKOWN">     0</i>
   <i type="logical" name="LHFCALC"> F  </i>
   <i type="string" name="PRECFOCK"></i>
   <i type="logical" name="LSYMGRAD"> F  </i>
   <i type="logical" name="LHFONE"> F  </i>
   <i type="logical" name="LRHFCALC"> F  </i>
   <i type="logical" name="LTHOMAS"> F  </i>
   <i type="logical" name="LMODELHF"> F  </i>
   <i name="ENCUT4O">     -1.00000000</i>
   <i type="int" name="EXXOEP">     0</i>
   <i type="int" name="FOURORBIT">     0</i>
   <i name="AEXX">      0.00000000</i>
   <i name="HFALPHA">      0.00000000</i>
   <i name="MCALPHA">      0.00000000</i>
   <i name="ALDAX">      1.00000000</i>
   <i name="AGGAX">      1.00000000</i>
   <i name="ALDAC">      1.00000000</i>
   <i name="AGGAC">      1.00000000</i>
   <i type="int" name="NKREDX">     1</i>
   <i type="int" name="NKREDY">     1</i>
   <i type="int" name="NKREDZ">     1</i>
   <i type="logical" name="SHIFTRED"> F  </i>
   <i type="logical" name="ODDONLY"> F  </i>
   <i type="logical" name="EVENONLY"> F  </i>
   <i type="int" name="LMAXFOCK">     0</i>
   <i type="int" name="NMAXFOCKAE">     0</i>
   <i type="logical" name="LFOCKAEDFT"> F  </i>
   <i name="HFSCREEN">      0.00000000</i>
   <i name="HFSCREENC">      0.00000000</i>
   <i type="int" name="NBANDSGWLOW">     0</i>
  </separator>
  <separator name="vdW DFT" >
   <i type="logical" name="LUSE_VDW"> F  </i>
   <i name="Zab_VDW">     -0.84910000</i>
   <i name="PARAM1">      0.12340000</i>
   <i name="PARAM2">      1.00000000</i>
   <i name="PARAM3">      0.00000000</i>
  </separator>
  <separator name="model GW" >
   <i type="int" name="MODEL_GW">     0</i>
   <i name="MODEL_EPS0">    284.21052632</i>
   <i name="MODEL_ALPHA">      1.00000000</i>
  </separator>
  <separator name="linear response parameters" >
   <i type="logical" name="LEPSILON"> F  </i>
   <i type="logical" name="LRPA"> F  </i>
   <i type="logical" name="LNABLA"> F  </i>
   <i type="logical" name="LVEL"> F  </i>
   <i type="int" name="KINTER">     0</i>
   <i name="CSHIFT">      0.10000000</i>
   <i name="OMEGAMAX">     -1.00000000</i>
   <i name="DEG_THRESHOLD">      0.00200000</i>
   <i name="RTIME">     -0.10000000</i>
   <i name="WPLASMAI">      0.00000000</i>
   <v name="DFIELD">      0.00000000      0.00000000      0.00000000</v>
   <v name="WPLASMA">      0.00000000      0.00000000      0.00000000      0.00000000      0.00000000      0.00000000      0.00000000      0.00000000      0.00000000</v>
  </separator>
  <separator name="orbital magnetization" >
   <i type="logical" name="NUCIND"> F  </i>
   <v name="MAGPOS">      0.00000000      0.00000000      0.00000000</v>
   <i type="logical" name="LNICSALL"> T  </i>
   <i type="logical" name="ORBITALMAG"> F  </i>
   <i type="logical" name="LMAGBLOCH"> F  </i>
   <i type="logical" name="LCHIMAG"> F  </i>
   <i type="logical" name="LGAUGE"> T  </i>
   <i type="int" name="MAGATOM">     0</i>
   <v name="MAGDIPOL">      0.00000000      0.00000000      0.00000000</v>
   <v name="AVECCONST">      0.00000000      0.00000000      0.00000000</v>
  </separator>
  <separator name="response functions" >
   <i type="logical" name="LADDER"> F  </i>
   <i type="logical" name="LRPAFORCE"> F  </i>
   <i type="logical" name="LFXC"> F  </i>
   <i type="logical" name="LHARTREE"> T  </i>
   <i type="int" name="IBSE">     0</i>
   <v type="int" name="KPOINT">    -1     0     0     0</v>
   <i type="logical" name="LTCTE"> F  </i>
   <i type="logical" name="LTETE"> F  </i>
   <i type="logical" name="LTRIPLET"> F  </i>
   <i type="logical" name="LFXCEPS"> F  </i>
   <i type="logical" name="LFXHEG"> F  </i>
   <i type="int" name="NATURALO">     2</i>
   <i type="logical" name="L2ORDER"> F  </i>
   <i type="logical" name="LMP2LT"> F  </i>
   <i type="logical" name="LUSEW"> F  </i>
   <i name="ENCUTGW">     -2.00000000</i>
   <i name="ENCUTGWSOFT">     -2.00000000</i>
   <i name="ENCUTLF">     -1.00000000</i>
   <i type="int" name="LMAXMP2">    -1</i>
   <i name="SCISSOR">      0.00000000</i>
   <i type="int" name="NOMEGA">     0</i>
   <i type="int" name="NOMEGAR">     0</i>
   <i type="int" name="NBANDSGW">    -1</i>
   <i type="int" name="NBANDSO">    -1</i>
   <i type="int" name="NBANDSV">    -1</i>
   <i type="int" name="NELM">   100</i>
   <i type="int" name="NELMHF">     1</i>
   <i type="int" name="DIM">     3</i>
   <i type="int" name="ANTIRES">     0</i>
   <i name="OMEGAMAX">    -30.00000000</i>
   <i name="OMEGAMIN">    -30.00000000</i>
   <i name="OMEGATL">   -200.00000000</i>
   <i type="int" name="OMEGAGRID">   140</i>
   <i name="CSHIFT">     -0.10000000</i>
   <i type="logical" name="SELFENERGY"> F  </i>
   <i type="logical" name="LSPECTRAL"> F  </i>
   <i type="logical" name="LSPECTRALGW"> F  </i>
   <i type="logical" name="LSINGLES"> F  </i>
   <i type="logical" name="LFERMIGW"> F  </i>
   <i type="logical" name="ODDONLYGW"> F  </i>
   <i type="logical" name="EVENONLYGW"> F  </i>
   <i type="int" name="NKREDLFX">     1</i>
   <i type="int" name="NKREDLFY">     1</i>
   <i type="int" name="NKREDLFZ">     1</i>
   <i type="int" name="MAXMEM"> 10000</i>
   <i type="int" name="TELESCOPE">     0</i>
   <i type="int" name="TAUPAR">     1</i>
   <i type="int" name="OMEGAPAR">    -1</i>
   <i name="LAMBDA">      1.00000000</i>
  </separator>
  <separator name="External order field" >
   <i name="OFIELD_KAPPA">      0.00000000</i>
   <v name="OFIELD_K">      0.00000000      0.00000000      0.00000000</v>
   <i name="OFIELD_Q6_NEAR">      0.00000000</i>
   <i name="OFIELD_Q6_FAR">      0.00000000</i>
   <i name="OFIELD_A">      0.00000000</i>
  </separator>
 </parameters>
 <atominfo>
  <atoms>      57 </atoms>
  <types>       3 </types>
  <array name="atoms" >
   <dimension dim="1">ion</dimension>
   <field type="string">element</field>
   <field type="int">atomtype</field>
   <set>
    <rc><c>Pd</c><c>   1</c></rc>
    <rc><c>Pd</c><c>   1</c></rc>
    <rc><c>Pd</c><c>   1</c></rc>
    <rc><c>Pd</c><c>   1</c></rc>
    <rc><c>Pd</c><c>   1</c></rc>
    <rc><c>Pd</c><c>   1</c></rc>
    <rc><c>Pd</c><c>   1</c></rc>
    <rc><c>Pd</c><c>   1</c></rc>
    <rc><c>Pd</c><c>   1</c></rc>
    <rc><c>Pd</c><c>   1</c></rc>
    <rc><c>Pd</c><c>   1</c></rc>
    <rc><c>Pd</c><c>   1</c></rc>
    <rc><c>Pd</c><c>   1</c></rc>
    <rc><c>Pd</c><c>   1</c></rc>
    <rc><c>Pd</c><c>   1</c></rc>
    <rc><c>Pd</c><c>   1</c></rc>
    <rc><c>Pd</c><c>   1</c></rc>
    <rc><c>Pd</c><c>   1</c></rc>
    <rc><c>Pd</c><c>   1</c></rc>
    <rc><c>Pd</c><c>   1</c></rc>
    <rc><c>Pd</c><c>   1</c></rc>
    <rc><c>Pd</c><c>   1</c></rc>
    <rc><c>Pd</c><c>   1</c></rc>
    <rc><c>Pd</c><c>   1</c></rc>
    <rc><c>Pd</c><c>   1</c></rc>
    <rc><c>Pd</c><c>   1</c></rc>
    <rc><c>Pd</c><c>   1</c></rc>
    <rc><c>Pd</c><c>   1</c></rc>
    <rc><c>Pd</c><c>   1</c></rc>
    <rc><c>Pd</c><c>   1</c></rc>
    <rc><c>Pd</c><c>   1</c></rc>
    <rc><c>Pd</c><c>   1</c></rc>
    <rc><c>Pd</c><c>   1</c></rc>
    <rc><c>Pd</c><c>   1</c></rc>
    <rc><c>Pd</c><c>   1</c></rc>
    <rc><c>Pd</c><c>   1</c></rc>
    <rc><c>Pd</c><c>   1</c></rc>
    <rc><c>Pd</c><c>   1</c></rc>
    <rc><c>Pd</c><c>   1</c></rc>
    <rc><c>Pd</c><c>   1</c></rc>
    <rc><c>Pd</c><c>   1</c></rc>
    <rc><c>Pd</c><c>   1</c></rc>
    <rc><c>Pd</c><c>   1</c></rc>
    <rc><c>Pd</c><c>   1</c></rc>
    <rc><c>Pd</c><c>   1</c></rc>
    <rc><c>Pd</c><c>   1</c></rc>
    <rc><c>Pd</c><c>   1</c></rc>
    <rc><c>Pd</c><c>   1</c></rc>
    <rc><c>Pd</c><c>   1</c></rc>
    <rc><c>Pd</c><c>   1</c></rc>
    <rc><c>Pd</c><c>   1</c></rc>
    <rc><c>Pd</c><c>   1</c></rc>
    <rc><c>Pd</c><c>   1</c></rc>
    <rc><c>Pd</c><c>   1</c></rc>
    <rc><c>Pd</c><c>   1</c></rc>
    <rc><c>C </c><c>   2</c></rc>
    <rc><c>O </c><c>   3</c></rc>
   </set>
  </array>
  <array name="atomtypes" >
   <dimension dim="1">type</dimension>
   <field type="int">atomspertype</field>
   <field type="string">element</field>
   <field>mass</field>
   <field>valence</field>
   <field type="string">pseudopotential</field>
   <set>
    <rc><c>  55</c><c>Pd</c><c>    106.42000000</c><c>     10.00000000</c><c>  PAW_PBE Pd 04Jan2005                  </c></rc>
    <rc><c>   1</c><c>C </c><c>     12.01100000</c><c>      4.00000000</c><c>  PAW_PBE C 08Apr2002                   </c></rc>
    <rc><c>   1</c><c>O </c><c>     16.00000000</c><c>      6.00000000</c><c>  PAW_PBE O 08Apr2002                   </c></rc>
   </set>
  </array>
 </atominfo>
 <structure name="initialpos" >
  <crystal>
   <varray name="basis" >
    <v>      30.00000000       0.00000000       0.00000000 </v>
    <v>       0.00000000      30.00000000       0.00000000 </v>
    <v>       0.00000000       0.00000000      30.00000000 </v>
   </varray>
   <i name="volume">  27000.00000000 </i>
   <varray name="rec_basis" >
    <v>       0.03333333       0.00000000       0.00000000 </v>
    <v>       0.00000000       0.03333333       0.00000000 </v>
    <v>       0.00000000       0.00000000       0.03333333 </v>
   </varray>
  </crystal>
  <varray name="positions" >
   <v>       0.44576020       0.32826710       0.41691983 </v>
   <v>       0.67173288       0.55423978       0.41691983 </v>
   <v>       0.55423980       0.32826710       0.41691983 </v>
   <v>       0.32826712       0.55423978       0.41691983 </v>
   <v>       0.50000000       0.38250690       0.34021317 </v>
   <v>       0.50000000       0.38250690       0.65978680 </v>
   <v>       0.50000000       0.27609440       0.50000000 </v>
   <v>       0.27609443       0.49999998       0.50000000 </v>
   <v>       0.72390557       0.49999998       0.50000000 </v>
   <v>       0.50000000       0.72390555       0.50000000 </v>
   <v>       0.61195280       0.38804720       0.34167483 </v>
   <v>       0.61195280       0.38804720       0.65832513 </v>
   <v>       0.38804722       0.61195278       0.34167483 </v>
   <v>       0.38804722       0.61195278       0.65832513 </v>
   <v>       0.38804720       0.38804720       0.34167483 </v>
   <v>       0.38804720       0.38804720       0.65832513 </v>
   <v>       0.61195278       0.61195278       0.34167483 </v>
   <v>       0.61195278       0.61195278       0.65832513 </v>
   <v>       0.44576020       0.32826710       0.58308023 </v>
   <v>       0.67173288       0.55423978       0.58308023 </v>
   <v>       0.55791699       0.44208301       0.41809300 </v>
   <v>       0.32826705       0.44576024       0.41691983 </v>
   <v>       0.55423973       0.67173293       0.41691983 </v>
   <v>       0.55423980       0.32826710       0.58308023 </v>
   <v>       0.32826712       0.55423978       0.58308023 </v>
   <v>       0.67173295       0.44576024       0.41691983 </v>
   <v>       0.44576027       0.67173293       0.41691983 </v>
   <v>       0.44208301       0.44208301       0.41809300 </v>
   <v>       0.50000000       0.38416601       0.50000000 </v>
   <v>       0.61749315       0.50000005       0.34021317 </v>
   <v>       0.61749315       0.50000005       0.65978680 </v>
   <v>       0.38250685       0.50000005       0.34021317 </v>
   <v>       0.38250685       0.50000005       0.65978680 </v>
   <v>       0.38317830       0.38317830       0.50000000 </v>
   <v>       0.61682172       0.61682172       0.50000000 </v>
   <v>       0.61682170       0.38317830       0.50000000 </v>
   <v>       0.38317828       0.61682172       0.50000000 </v>
   <v>       0.50000000       0.50000000       0.33478917 </v>
   <v>       0.50000000       0.50000000       0.66521087 </v>
   <v>       0.32826705       0.44576024       0.58308023 </v>
   <v>       0.55423973       0.67173293       0.58308023 </v>
   <v>       0.55791699       0.44208301       0.58190703 </v>
   <v>       0.44208298       0.55791702       0.41809300 </v>
   <v>       0.44208301       0.44208301       0.58190703 </v>
   <v>       0.67173295       0.44576024       0.58308023 </v>
   <v>       0.44576027       0.67173293       0.58308023 </v>
   <v>       0.55791702       0.55791702       0.41809300 </v>
   <v>       0.38416599       0.50000002       0.50000000 </v>
   <v>       0.61583401       0.50000002       0.50000000 </v>
   <v>       0.50000000       0.61749319       0.34021317 </v>
   <v>       0.50000000       0.61749319       0.65978680 </v>
   <v>       0.50000000       0.50000000       0.50000000 </v>
   <v>       0.44208298       0.55791702       0.58190703 </v>
   <v>       0.55791702       0.55791702       0.58190703 </v>
   <v>       0.50000000       0.61583404       0.50000000 </v>
   <v>       0.43731987       0.67410073       0.49127373 </v>
   <v>       0.42459747       0.70943857       0.48950253 </v>
  </varray>
  <varray name="selective"  type="logical" >
   <v type="logical" >  F  F  F </v>
   <v type="logical" >  F  F  F </v>
   <v type="logical" >  F  F  F </v>
   <v type="logical" >  F  F  F </v>
   <v type="logical" >  F  F  F </v>
   <v type="logical" >  F  F  F </v>
   <v type="logical" >  F  F  F </v>
   <v type="logical" >  F  F  F </v>
   <v type="logical" >  F  F  F </v>
   <v type="logical" >  F  F  F </v>
   <v type="logical" >  F  F  F </v>
   <v type="logical" >  F  F  F </v>
   <v type="logical" >  F  F  F </v>
   <v type="logical" >  F  F  F </v>
   <v type="logical" >  F  F  F </v>
   <v type="logical" >  F  F  F </v>
   <v type="logical" >  F  F  F </v>
   <v type="logical" >  F  F  F </v>
   <v type="logical" >  F  F  F </v>
   <v type="logical" >  F  F  F </v>
   <v type="logical" >  F  F  F </v>
   <v type="logical" >  F  F  F </v>
   <v type="logical" >  F  F  F </v>
   <v type="logical" >  F  F  F </v>
   <v type="logical" >  F  F  F </v>
   <v type="logical" >  F  F  F </v>
   <v type="logical" >  F  F  F </v>
   <v type="logical" >  F  F  F </v>
   <v type="logical" >  F  F  F </v>
   <v type="logical" >  F  F  F </v>
   <v type="logical" >  F  F  F </v>
   <v type="logical" >  F  F  F </v>
   <v type="logical" >  F  F  F </v>
   <v type="logical" >  F  F  F </v>
   <v type="logical" >  F  F  F </v>
   <v type="logical" >  F  F  F </v>
   <v type="logical" >  F  F  F </v>
   <v type="logical" >  F  F  F </v>
   <v type="logical" >  F  F  F </v>
   <v type="logical" >  F  F  F </v>
   <v type="logical" >  F  F  F </v>
   <v type="logical" >  F  F  F </v>
   <v type="logical" >  F  F  F </v>
   <v type="logical" >  F  F  F </v>
   <v type="logical" >  F  F  F </v>
   <v type="logical" >  F  F  F </v>
   <v type="logical" >  F  F  F </v>
   <v type="logical" >  F  F  F </v>
   <v type="logical" >  F  F  F </v>
   <v type="logical" >  F  F  F </v>
   <v type="logical" >  F  F  F </v>
   <v type="logical" >  F  F  F </v>
   <v type="logical" >  F  F  F </v>
   <v type="logical" >  F  F  F </v>
   <v type="logical" >  F  F  F </v>
   <v type="logical" >  F  F  F </v>
   <v type="logical" >  F  F  F </v>
  </varray>
  <nose>
   <v>      -3.00000000       0.00000000       0.00010000       0.00010000 </v>
  </nose>
 </structure>
 <calculation>
  <scstep>
   <time name="dav">  365.92  365.96</time>
   <time name="total">  380.14  380.19</time>
   <energy>
    <i name="alphaZ">     75.25431677 </i>
    <i name="ewald"> 140306.86103652 </i>
    <i name="hartreedc">-183661.35825045 </i>
    <i name="XCdc">  -1701.70338222 </i>
    <i name="pawpsdc">  44873.02882129 </i>
    <i name="pawaedc"> -41398.84523641 </i>
    <i name="eentropy">     -0.03033604 </i>
    <i name="bandstr">    814.23817778 </i>
    <i name="atom">  45086.50549395 </i>
    <i name="e_fr_energy">   4393.95064120 </i>
    <i name="e_wo_entrp">   4393.98097724 </i>
    <i name="e_0_energy">   4393.95822521 </i>
   </energy>
  </scstep>
  <scstep>
   <time name="dav">  587.84  587.84</time>
   <time name="total">  587.84  587.84</time>
   <energy>
    <i name="e_fr_energy">   2009.21756911 </i>
    <i name="e_wo_entrp">   2009.23845237 </i>
    <i name="e_0_energy">   2009.22278993 </i>
   </energy>
  </scstep>
  <scstep>
   <time name="dav">  499.39  499.39</time>
   <time name="total">  499.39  499.40</time>
   <energy>
    <i name="e_fr_energy">    228.77649521 </i>
    <i name="e_wo_entrp">    228.78870740 </i>
    <i name="e_0_energy">    228.77954826 </i>
   </energy>
  </scstep>
  <scstep>
   <time name="dav">  427.04  427.04</time>
   <time name="total">  427.04  427.04</time>
   <energy>
    <i name="e_fr_energy">   -135.55029073 </i>
    <i name="e_wo_entrp">   -135.50502179 </i>
    <i name="e_0_energy">   -135.53897350 </i>
   </energy>
  </scstep>
  <scstep>
   <time name="dav">  513.28  513.29</time>
   <time name="total">  539.84  539.84</time>
   <energy>
    <i name="e_fr_energy">   -179.48633882 </i>
    <i name="e_wo_entrp">   -180.03204801 </i>
    <i name="e_0_energy">   -179.62276612 </i>
   </energy>
  </scstep>
  <scstep>
   <time name="diag">   67.97   67.97</time>
   <time name="diis">  198.30  198.30</time>
   <time name="orth">   13.47   13.47</time>
   <time name="total">  318.87  318.87</time>
   <energy>
    <i name="e_fr_energy">   -180.10464772 </i>
    <i name="e_wo_entrp">   -179.85498703 </i>
    <i name="e_0_energy">   -180.04223255 </i>
   </energy>
  </scstep>
  <scstep>
   <time name="diag">   68.31   68.31</time>
   <time name="diis">  231.60  231.61</time>
   <time name="orth">   13.58   13.58</time>
   <time name="total">  353.14  353.15</time>
   <energy>
    <i name="e_fr_energy">   -181.64273273 </i>
    <i name="e_wo_entrp">   -181.78587929 </i>
    <i name="e_0_energy">   -181.67851937 </i>
   </energy>
  </scstep>
  <scstep>
   <time name="diag">   68.71   68.72</time>
   <time name="diis">  221.79  221.80</time>
   <time name="orth">   13.80   13.80</time>
   <time name="total">  343.66  343.68</time>
   <energy>
    <i name="e_fr_energy">   -182.45293776 </i>
    <i name="e_wo_entrp">   -182.36633032 </i>
    <i name="e_0_energy">   -182.43128590 </i>
   </energy>
  </scstep>
  <scstep>
   <time name="diag">   68.77   68.77</time>
   <time name="diis">  196.31  196.34</time>
   <time name="orth">   13.86   13.86</time>
   <time name="total">  318.69  318.72</time>
   <energy>
    <i name="e_fr_energy">   -182.55289838 </i>
    <i name="e_wo_entrp">   -182.40083257 </i>
    <i name="e_0_energy">   -182.51488192 </i>
   </energy>
  </scstep>
  <scstep>
   <time name="diag">   68.85   68.86</time>
   <time name="diis">  197.30  197.32</time>
   <time name="orth">   13.79   13.79</time>
   <time name="total">  319.40  319.43</time>
   <energy>
    <i name="e_fr_energy">   -180.42246172 </i>
    <i name="e_wo_entrp">   -180.34676345 </i>
    <i name="e_0_energy">   -180.40353715 </i>
   </energy>
  </scstep>
  <scstep>
   <time name="diag">   68.98   68.99</time>
   <time name="diis">  197.76  197.78</time>
   <time name="orth">   13.78   13.78</time>
   <time name="total">  319.78  319.80</time>
   <energy>
    <i name="e_fr_energy">   -178.52596399 </i>
    <i name="e_wo_entrp">   -178.51704333 </i>
    <i name="e_0_energy">   -178.52373382 </i>
   </energy>
  </scstep>
  <scstep>
   <time name="diag">   68.73   68.73</time>
   <time name="diis">  192.66  192.68</time>
   <time name="orth">   13.68   13.68</time>
   <time name="total">  314.31  314.34</time>
   <energy>
    <i name="e_fr_energy">   -176.99689990 </i>
    <i name="e_wo_entrp">   -176.96053911 </i>
    <i name="e_0_energy">   -176.98780971 </i>
   </energy>
  </scstep>
  <scstep>
   <time name="diag">   68.36   68.36</time>
   <time name="diis">  196.60  196.62</time>
   <time name="orth">   13.63   13.63</time>
   <time name="total">  318.01  318.03</time>
   <energy>
    <i name="e_fr_energy">   -176.84929686 </i>
    <i name="e_wo_entrp">   -176.90424872 </i>
    <i name="e_0_energy">   -176.86303483 </i>
   </energy>
  </scstep>
  <scstep>
   <time name="diag">   68.52   68.53</time>
   <time name="diis">  192.65  192.67</time>
   <time name="orth">   13.61   13.61</time>
   <time name="total">  314.32  314.35</time>
   <energy>
    <i name="e_fr_energy">   -176.68120113 </i>
    <i name="e_wo_entrp">   -176.70824817 </i>
    <i name="e_0_energy">   -176.68796289 </i>
   </energy>
  </scstep>
  <scstep>
   <time name="diag">   69.48   69.49</time>
   <time name="diis">  192.48  192.50</time>
   <time name="orth">   13.62   13.62</time>
   <time name="total">  315.11  315.14</time>
   <energy>
    <i name="e_fr_energy">   -176.39449502 </i>
    <i name="e_wo_entrp">   -176.38829526 </i>
    <i name="e_0_energy">   -176.39294508 </i>
   </energy>
  </scstep>
  <scstep>
   <time name="diag">   68.72   68.73</time>
   <time name="diis">  190.15  190.16</time>
   <time name="orth">   13.66   13.66</time>
   <time name="total">  313.11  313.13</time>
   <energy>
    <i name="e_fr_energy">   -176.10543143 </i>
    <i name="e_wo_entrp">   -176.08636960 </i>
    <i name="e_0_energy">   -176.10066597 </i>
   </energy>
  </scstep>
  <scstep>
   <time name="diag">   68.79   68.79</time>
   <time name="diis">  192.25  192.26</time>
   <time name="orth">   13.58   13.58</time>
   <time name="total">  314.19  314.21</time>
   <energy>
    <i name="e_fr_energy">   -175.58872118 </i>
    <i name="e_wo_entrp">   -175.60359409 </i>
    <i name="e_0_energy">   -175.59243941 </i>
   </energy>
  </scstep>
  <scstep>
   <time name="diag">   68.69   68.69</time>
   <time name="diis">  190.06  190.07</time>
   <time name="orth">   12.64   12.64</time>
   <time name="total">  309.07  309.09</time>
   <energy>
    <i name="e_fr_energy">   -175.34945856 </i>
    <i name="e_wo_entrp">   -175.35136100 </i>
    <i name="e_0_energy">   -175.34993417 </i>
   </energy>
  </scstep>
  <scstep>
   <time name="diag">   63.72   63.72</time>
   <time name="diis">  169.37  169.39</time>
   <time name="orth">   13.28   13.28</time>
   <time name="total">  284.33  284.35</time>
   <energy>
    <i name="e_fr_energy">   -175.08971452 </i>
    <i name="e_wo_entrp">   -175.14388075 </i>
    <i name="e_0_energy">   -175.10325607 </i>
   </energy>
  </scstep>
  <scstep>
   <time name="diag">   66.75   66.76</time>
   <time name="diis">  179.98  180.01</time>
   <time name="orth">   13.28   13.28</time>
   <time name="total">  298.52  298.55</time>
   <energy>
    <i name="e_fr_energy">   -175.21644551 </i>
    <i name="e_wo_entrp">   -175.30278095 </i>
    <i name="e_0_energy">   -175.23802937 </i>
   </energy>
  </scstep>
  <scstep>
   <time name="diag">   63.78   63.78</time>
   <time name="diis">  169.86  169.88</time>
   <time name="orth">   12.67   12.67</time>
   <time name="total">  283.90  283.92</time>
   <energy>
    <i name="e_fr_energy">   -175.05138429 </i>
    <i name="e_wo_entrp">   -175.11765191 </i>
    <i name="e_0_energy">   -175.06795119 </i>
   </energy>
  </scstep>
  <scstep>
   <time name="diag">   66.36   66.36</time>
   <time name="diis">  179.25  179.26</time>
   <time name="orth">   13.39   13.39</time>
   <time name="total">  297.16  297.18</time>
   <energy>
    <i name="e_fr_energy">   -174.95116948 </i>
    <i name="e_wo_entrp">   -175.00135052 </i>
    <i name="e_0_energy">   -174.96371474 </i>
   </energy>
  </scstep>
  <scstep>
   <time name="diag">   66.10   66.11</time>
   <time name="diis">  169.91  169.92</time>
   <time name="orth">   12.69   12.69</time>
   <time name="total">  286.41  286.43</time>
   <energy>
    <i name="e_fr_energy">   -174.75790521 </i>
    <i name="e_wo_entrp">   -174.76011941 </i>
    <i name="e_0_energy">   -174.75845876 </i>
   </energy>
  </scstep>
  <scstep>
   <time name="diag">   63.77   63.77</time>
   <time name="diis">  179.39  179.40</time>
   <time name="orth">   13.28   13.28</time>
   <time name="total">  294.68  294.70</time>
   <energy>
    <i name="e_fr_energy">   -174.75238186 </i>
    <i name="e_wo_entrp">   -174.72457052 </i>
    <i name="e_0_energy">   -174.74542903 </i>
   </energy>
  </scstep>
  <scstep>
   <time name="diag">   66.38   66.39</time>
   <time name="diis">  172.50  172.51</time>
   <time name="orth">   12.62   12.62</time>
   <time name="total">  289.30  289.32</time>
   <energy>
    <i name="e_fr_energy">   -174.58742941 </i>
    <i name="e_wo_entrp">   -174.54845112 </i>
    <i name="e_0_energy">   -174.57768484 </i>
   </energy>
  </scstep>
  <scstep>
   <time name="diag">   63.84   63.84</time>
   <time name="diis">  174.07  174.07</time>
   <time name="orth">   13.34   13.34</time>
   <time name="total">  289.81  289.82</time>
   <energy>
    <i name="e_fr_energy">   -174.50746361 </i>
    <i name="e_wo_entrp">   -174.49223850 </i>
    <i name="e_0_energy">   -174.50365734 </i>
   </energy>
  </scstep>
  <scstep>
   <time name="diag">   66.44   66.44</time>
   <time name="diis">  181.34  181.34</time>
   <time name="orth">   13.69   13.69</time>
   <time name="total">  301.85  301.85</time>
   <energy>
    <i name="e_fr_energy">   -174.49566874 </i>
    <i name="e_wo_entrp">   -174.48998172 </i>
    <i name="e_0_energy">   -174.49424698 </i>
   </energy>
  </scstep>
  <scstep>
   <time name="diag">   68.68   68.68</time>
   <time name="diis">  184.73  184.73</time>
   <time name="orth">   13.73   13.73</time>
   <time name="total">  307.77  307.77</time>
   <energy>
    <i name="e_fr_energy">   -174.47360675 </i>
    <i name="e_wo_entrp">   -174.48018720 </i>
    <i name="e_0_energy">   -174.47525186 </i>
   </energy>
  </scstep>
  <scstep>
   <time name="diag">   68.29   68.29</time>
   <time name="diis">  185.77  185.78</time>
   <time name="orth">   13.87   13.87</time>
   <time name="total">  308.24  308.24</time>
   <energy>
    <i name="e_fr_energy">   -174.43299177 </i>
    <i name="e_wo_entrp">   -174.41555153 </i>
    <i name="e_0_energy">   -174.42863171 </i>
   </energy>
  </scstep>
  <scstep>
   <time name="diag">   68.74   68.74</time>
   <time name="diis">  185.70  185.70</time>
   <time name="orth">   13.77   13.77</time>
   <time name="total">  309.01  309.01</time>
   <energy>
    <i name="e_fr_energy">   -174.41320163 </i>
    <i name="e_wo_entrp">   -174.40080198 </i>
    <i name="e_0_energy">   -174.41010171 </i>
   </energy>
  </scstep>
  <scstep>
   <time name="diag">   68.49   68.49</time>
   <time name="diis">  186.36  186.36</time>
   <time name="orth">   13.82   13.82</time>
   <time name="total">  309.38  309.38</time>
   <energy>
    <i name="e_fr_energy">   -174.39983461 </i>
    <i name="e_wo_entrp">   -174.38472642 </i>
    <i name="e_0_energy">   -174.39605756 </i>
   </energy>
  </scstep>
  <scstep>
   <time name="diag">   69.04   69.04</time>
   <time name="diis">  186.68  186.69</time>
   <time name="orth">   13.45   13.45</time>
   <time name="total">  310.38  310.39</time>
   <energy>
    <i name="e_fr_energy">   -174.38942009 </i>
    <i name="e_wo_entrp">   -174.37183913 </i>
    <i name="e_0_energy">   -174.38502485 </i>
   </energy>
  </scstep>
  <scstep>
   <time name="diag">   68.95   68.95</time>
   <time name="diis">  183.62  183.62</time>
   <time name="orth">   13.91   13.91</time>
   <time name="total">  307.75  307.75</time>
   <energy>
    <i name="e_fr_energy">   -174.38227159 </i>
    <i name="e_wo_entrp">   -174.36945285 </i>
    <i name="e_0_energy">   -174.37906691 </i>
   </energy>
  </scstep>
  <scstep>
   <time name="diag">   68.65   68.66</time>
   <time name="diis">  184.57  184.57</time>
   <time name="orth">   13.85   13.85</time>
   <time name="total">  308.72  308.73</time>
   <energy>
    <i name="e_fr_energy">   -174.37917967 </i>
    <i name="e_wo_entrp">   -174.36754946 </i>
    <i name="e_0_energy">   -174.37627212 </i>
   </energy>
  </scstep>
  <scstep>
   <time name="diag">   68.41   68.41</time>
   <time name="diis">  182.87  182.87</time>
   <time name="orth">   13.85   13.85</time>
   <time name="total">  305.98  305.98</time>
   <energy>
    <i name="e_fr_energy">   -174.37650288 </i>
    <i name="e_wo_entrp">   -174.36375928 </i>
    <i name="e_0_energy">   -174.37331698 </i>
   </energy>
  </scstep>
  <scstep>
   <time name="diag">   69.35   69.35</time>
   <time name="diis">  182.63  182.63</time>
   <time name="orth">   14.05   14.05</time>
   <time name="total">  308.09  308.09</time>
   <energy>
    <i name="e_fr_energy">   -174.37653935 </i>
    <i name="e_wo_entrp">   -174.36707364 </i>
    <i name="e_0_energy">   -174.37417292 </i>
   </energy>
  </scstep>
  <scstep>
   <time name="diag">   68.72   68.72</time>
   <time name="diis">  183.68  183.68</time>
   <time name="orth">   13.96   13.96</time>
   <time name="total">  308.18  308.18</time>
   <energy>
    <i name="e_fr_energy">   -174.37666646 </i>
    <i name="e_wo_entrp">   -174.36475179 </i>
    <i name="e_0_energy">   -174.37368779 </i>
   </energy>
  </scstep>
  <scstep>
   <time name="diag">   67.97   67.97</time>
   <time name="diis">  181.09  181.09</time>
   <time name="orth">   13.51   13.51</time>
   <time name="total">  304.36  304.37</time>
   <energy>
    <i name="e_fr_energy">   -174.37720893 </i>
    <i name="e_wo_entrp">   -174.36712561 </i>
    <i name="e_0_energy">   -174.37468810 </i>
   </energy>
  </scstep>
  <scstep>
   <time name="diag">   67.95   67.95</time>
   <time name="diis">  183.16  183.17</time>
   <time name="orth">   13.57   13.57</time>
   <time name="total">  306.08  306.09</time>
   <energy>
    <i name="e_fr_energy">   -174.38046903 </i>
    <i name="e_wo_entrp">   -174.37068865 </i>
    <i name="e_0_energy">   -174.37802394 </i>
   </energy>
  </scstep>
  <scstep>
   <time name="diag">   69.27   69.27</time>
   <time name="diis">  180.82  180.82</time>
   <time name="orth">   13.63   13.63</time>
   <time name="total">  305.55  305.55</time>
   <energy>
    <i name="e_fr_energy">   -174.38239342 </i>
    <i name="e_wo_entrp">   -174.37220384 </i>
    <i name="e_0_energy">   -174.37984602 </i>
   </energy>
  </scstep>
  <scstep>
   <time name="diag">   68.72   68.72</time>
   <time name="diis">  180.59  180.59</time>
   <time name="orth">   13.73   13.73</time>
   <time name="total">  304.99  304.99</time>
   <energy>
    <i name="e_fr_energy">   -174.38428715 </i>
    <i name="e_wo_entrp">   -174.37574643 </i>
    <i name="e_0_energy">   -174.38215197 </i>
   </energy>
  </scstep>
  <scstep>
   <time name="diag">   69.74   69.74</time>
   <time name="diis">  155.21  155.21</time>
   <time name="orth">   13.70   13.70</time>
   <time name="total">  281.18  281.18</time>
   <energy>
    <i name="e_fr_energy">   -174.38684866 </i>
    <i name="e_wo_entrp">   -174.37774213 </i>
    <i name="e_0_energy">   -174.38457202 </i>
   </energy>
  </scstep>
  <scstep>
   <time name="diag">   70.34   70.34</time>
   <time name="diis">  119.50  119.51</time>
   <time name="orth">   13.75   13.75</time>
   <time name="total">  246.21  246.21</time>
   <energy>
    <i name="e_fr_energy">   -174.38810113 </i>
    <i name="e_wo_entrp">   -174.37943358 </i>
    <i name="e_0_energy">   -174.38593424 </i>
   </energy>
  </scstep>
  <scstep>
   <time name="diag">   69.45   69.45</time>
   <time name="diis">  118.43  118.43</time>
   <time name="orth">   13.66   13.66</time>
   <time name="total">  244.34  244.34</time>
   <energy>
    <i name="e_fr_energy">   -174.39012708 </i>
    <i name="e_wo_entrp">   -174.38043896 </i>
    <i name="e_0_energy">   -174.38770505 </i>
   </energy>
  </scstep>
  <scstep>
   <time name="diag">   70.01   70.01</time>
   <time name="diis">  116.10  116.10</time>
   <time name="orth">   13.66   13.66</time>
   <time name="total">  242.64  242.64</time>
   <energy>
    <i name="e_fr_energy">   -174.39151772 </i>
    <i name="e_wo_entrp">   -174.38234781 </i>
    <i name="e_0_energy">   -174.38922524 </i>
   </energy>
  </scstep>
  <scstep>
   <time name="diag">   69.43   69.43</time>
   <time name="diis">  117.44  117.44</time>
   <time name="orth">   13.64   13.64</time>
   <time name="total">  243.66  243.67</time>
   <energy>
    <i name="e_fr_energy">   -174.39345575 </i>
    <i name="e_wo_entrp">   -174.38425015 </i>
    <i name="e_0_energy">   -174.39115435 </i>
   </energy>
  </scstep>
  <scstep>
   <time name="diag">   69.66   69.66</time>
   <time name="diis">  123.01  123.01</time>
   <time name="orth">   13.61   13.61</time>
   <time name="total">  249.21  249.21</time>
   <energy>
    <i name="e_fr_energy">   -174.39566845 </i>
    <i name="e_wo_entrp">   -174.38595692 </i>
    <i name="e_0_energy">   -174.39324057 </i>
   </energy>
  </scstep>
  <scstep>
   <time name="diag">   69.86   69.86</time>
   <time name="diis">  116.84  116.85</time>
   <time name="orth">   13.64   13.64</time>
   <time name="total">  244.23  244.24</time>
   <energy>
    <i name="e_fr_energy">   -174.39702806 </i>
    <i name="e_wo_entrp">   -174.38710384 </i>
    <i name="e_0_energy">   -174.39454701 </i>
   </energy>
  </scstep>
  <scstep>
   <time name="diag">   70.20   70.20</time>
   <time name="diis">  118.97  118.97</time>
   <time name="orth">   13.00   13.00</time>
   <time name="total">  243.49  243.50</time>
   <energy>
    <i name="e_fr_energy">   -174.39859117 </i>
    <i name="e_wo_entrp">   -174.38913429 </i>
    <i name="e_0_energy">   -174.39622695 </i>
   </energy>
  </scstep>
  <scstep>
   <time name="diag">   64.42   64.43</time>
   <time name="diis">  107.96  107.97</time>
   <time name="orth">   12.81   12.81</time>
   <time name="total">  225.66  225.67</time>
   <energy>
    <i name="e_fr_energy">   -174.40010571 </i>
    <i name="e_wo_entrp">   -174.39083881 </i>
    <i name="e_0_energy">   -174.39778899 </i>
   </energy>
  </scstep>
  <scstep>
   <time name="diag">   65.89   65.89</time>
   <time name="diis">  113.74  113.74</time>
   <time name="orth">   13.61   13.61</time>
   <time name="total">  234.87  234.87</time>
   <energy>
    <i name="e_fr_energy">   -174.40059769 </i>
    <i name="e_wo_entrp">   -174.39113782 </i>
    <i name="e_0_energy">   -174.39823272 </i>
   </energy>
  </scstep>
  <scstep>
   <time name="diag">   68.56   68.57</time>
   <time name="diis">  108.72  108.72</time>
   <time name="orth">   12.79   12.79</time>
   <time name="total">  230.98  231.00</time>
   <energy>
    <i name="e_fr_energy">   -174.40133125 </i>
    <i name="e_wo_entrp">   -174.39196729 </i>
    <i name="e_0_energy">   -174.39899026 </i>
   </energy>
  </scstep>
  <scstep>
   <time name="diag">   64.91   64.91</time>
   <time name="diis">  106.03  106.03</time>
   <time name="orth">   12.82   12.82</time>
   <time name="total">  225.18  225.19</time>
   <energy>
    <i name="e_fr_energy">   -174.40194341 </i>
    <i name="e_wo_entrp">   -174.39236599 </i>
    <i name="e_0_energy">   -174.39954906 </i>
   </energy>
  </scstep>
  <scstep>
   <time name="diag">   66.94   66.95</time>
   <time name="diis">  110.16  110.16</time>
   <time name="orth">   13.87   13.87</time>
   <time name="total">  233.39  233.40</time>
   <energy>
    <i name="e_fr_energy">   -174.40230978 </i>
    <i name="e_wo_entrp">   -174.39279478 </i>
    <i name="e_0_energy">   -174.39993103 </i>
   </energy>
  </scstep>
  <scstep>
   <time name="diag">   66.80   66.81</time>
   <time name="diis">   92.72   92.72</time>
   <time name="orth">   12.90   12.90</time>
   <time name="total">  213.51  213.52</time>
   <energy>
    <i name="e_fr_energy">   -174.40268897 </i>
    <i name="e_wo_entrp">   -174.39320150 </i>
    <i name="e_0_energy">   -174.40031710 </i>
   </energy>
  </scstep>
  <scstep>
   <time name="diag">   64.33   64.33</time>
   <time name="diis">   79.97   79.97</time>
   <time name="orth">   12.76   12.76</time>
   <time name="total">  197.83  197.83</time>
   <energy>
    <i name="e_fr_energy">   -174.40299301 </i>
    <i name="e_wo_entrp">   -174.39354178 </i>
    <i name="e_0_energy">   -174.40063020 </i>
   </energy>
  </scstep>
  <scstep>
   <time name="diag">   67.56   67.56</time>
   <time name="diis">   78.93   78.93</time>
   <time name="orth">   13.84   13.84</time>
   <time name="total">  202.45  202.45</time>
   <energy>
    <i name="e_fr_energy">   -174.40317705 </i>
    <i name="e_wo_entrp">   -174.39372121 </i>
    <i name="e_0_energy">   -174.40081309 </i>
   </energy>
  </scstep>
  <scstep>
   <time name="diag">   66.58   66.58</time>
   <time name="diis">   97.52   97.52</time>
   <time name="orth">   12.85   12.85</time>
   <time name="total">  218.21  218.21</time>
   <energy>
    <i name="e_fr_energy">   -174.40366641 </i>
    <i name="e_wo_entrp">   -174.39417537 </i>
    <i name="e_0_energy">   -174.40129365 </i>
   </energy>
  </scstep>
  <scstep>
   <time name="diag">   64.20   64.20</time>
   <time name="diis">   72.45   72.45</time>
   <time name="orth">   12.75   12.75</time>
   <time name="total">  190.14  190.14</time>
   <energy>
    <i name="e_fr_energy">   -174.40390227 </i>
    <i name="e_wo_entrp">   -174.39439811 </i>
    <i name="e_0_energy">   -174.40152623 </i>
   </energy>
  </scstep>
  <scstep>
   <time name="diag">   66.94   66.94</time>
   <time name="diis">   78.77   78.78</time>
   <time name="orth">   13.20   13.20</time>
   <time name="total">  200.33  200.35</time>
   <energy>
    <i name="e_fr_energy">   -174.40408830 </i>
    <i name="e_wo_entrp">   -174.39467720 </i>
    <i name="e_0_energy">   -174.40173552 </i>
   </energy>
  </scstep>
  <scstep>
   <time name="diag">   66.23   66.23</time>
   <time name="diis">   75.99   75.99</time>
   <time name="orth">   12.87   12.87</time>
   <time name="total">  195.31  195.31</time>
   <energy>
    <i name="e_fr_energy">   -174.40419058 </i>
    <i name="e_wo_entrp">   -174.39472694 </i>
    <i name="e_0_energy">   -174.40182467 </i>
   </energy>
  </scstep>
  <scstep>
   <time name="diag">   63.68   63.68</time>
   <time name="diis">   74.89   74.89</time>
   <time name="orth">   12.36   12.36</time>
   <time name="total">  190.58  190.58</time>
   <energy>
    <i name="e_fr_energy">   -174.40435321 </i>
    <i name="e_wo_entrp">   -174.39484420 </i>
    <i name="e_0_energy">   -174.40197596 </i>
   </energy>
  </scstep>
  <scstep>
   <time name="diag">   63.40   63.40</time>
   <time name="diis">   74.71   74.71</time>
   <time name="orth">   12.45   12.45</time>
   <time name="total">  190.15  190.16</time>
   <energy>
    <i name="e_fr_energy">   -174.40446542 </i>
    <i name="e_wo_entrp">   -174.39503842 </i>
    <i name="e_0_energy">   -174.40210867 </i>
   </energy>
  </scstep>
  <scstep>
   <time name="diag">   63.22   63.22</time>
   <time name="diis">   72.86   72.86</time>
   <time name="orth">   12.58   12.58</time>
   <time name="total">  161.17  161.18</time>
   <energy>
    <i name="alphaZ">     75.25431677 </i>
    <i name="ewald"> 140306.86103652 </i>
    <i name="hartreedc">-184677.64320587 </i>
    <i name="XCdc">  -1691.04867682 </i>
    <i name="pawpsdc">  46160.78450197 </i>
    <i name="pawaedc"> -42630.17285869 </i>
    <i name="eentropy">     -0.00945546 </i>
    <i name="bandstr">  -2804.93570072 </i>
    <i name="atom">  45086.50549395 </i>
    <i name="e_fr_energy">   -174.40454835 </i>
    <i name="e_wo_entrp">   -174.39509289 </i>
    <i name="e_0_energy">   -174.40218448 </i>
   </energy>
  </scstep>
  <structure>
   <crystal>
    <varray name="basis" >
     <v>      30.00000000       0.00000000       0.00000000 </v>
     <v>       0.00000000      30.00000000       0.00000000 </v>
     <v>       0.00000000       0.00000000      30.00000000 </v>
    </varray>
    <i name="volume">  27000.00000000 </i>
    <varray name="rec_basis" >
     <v>       0.03333333       0.00000000       0.00000000 </v>
     <v>       0.00000000       0.03333333       0.00000000 </v>
     <v>       0.00000000       0.00000000       0.03333333 </v>
    </varray>
   </crystal>
   <varray name="positions" >
    <v>       0.44576020       0.32826710       0.41691983 </v>
    <v>       0.67173288       0.55423978       0.41691983 </v>
    <v>       0.55423980       0.32826710       0.41691983 </v>
    <v>       0.32826712       0.55423978       0.41691983 </v>
    <v>       0.50000000       0.38250690       0.34021317 </v>
    <v>       0.50000000       0.38250690       0.65978680 </v>
    <v>       0.50000000       0.27609440       0.50000000 </v>
    <v>       0.27609443       0.49999998       0.50000000 </v>
    <v>       0.72390557       0.49999998       0.50000000 </v>
    <v>       0.50000000       0.72390555       0.50000000 </v>
    <v>       0.61195280       0.38804720       0.34167483 </v>
    <v>       0.61195280       0.38804720       0.65832513 </v>
    <v>       0.38804722       0.61195278       0.34167483 </v>
    <v>       0.38804722       0.61195278       0.65832513 </v>
    <v>       0.38804720       0.38804720       0.34167483 </v>
    <v>       0.38804720       0.38804720       0.65832513 </v>
    <v>       0.61195278       0.61195278       0.34167483 </v>
    <v>       0.61195278       0.61195278       0.65832513 </v>
    <v>       0.44576020       0.32826710       0.58308023 </v>
    <v>       0.67173288       0.55423978       0.58308023 </v>
    <v>       0.55791699       0.44208301       0.41809300 </v>
    <v>       0.32826705       0.44576024       0.41691983 </v>
    <v>       0.55423973       0.67173293       0.41691983 </v>
    <v>       0.55423980       0.32826710       0.58308023 </v>
    <v>       0.32826712       0.55423978       0.58308023 </v>
    <v>       0.67173295       0.44576024       0.41691983 </v>
    <v>       0.44576027       0.67173293       0.41691983 </v>
    <v>       0.44208301       0.44208301       0.41809300 </v>
    <v>       0.50000000       0.38416601       0.50000000 </v>
    <v>       0.61749315       0.50000005       0.34021317 </v>
    <v>       0.61749315       0.50000005       0.65978680 </v>
    <v>       0.38250685       0.50000005       0.34021317 </v>
    <v>       0.38250685       0.50000005       0.65978680 </v>
    <v>       0.38317830       0.38317830       0.50000000 </v>
    <v>       0.61682172       0.61682172       0.50000000 </v>
    <v>       0.61682170       0.38317830       0.50000000 </v>
    <v>       0.38317828       0.61682172       0.50000000 </v>
    <v>       0.50000000       0.50000000       0.33478917 </v>
    <v>       0.50000000       0.50000000       0.66521087 </v>
    <v>       0.32826705       0.44576024       0.58308023 </v>
    <v>       0.55423973       0.67173293       0.58308023 </v>
    <v>       0.55791699       0.44208301       0.58190703 </v>
    <v>       0.44208298       0.55791702       0.41809300 </v>
    <v>       0.44208301       0.44208301       0.58190703 </v>
    <v>       0.67173295       0.44576024       0.58308023 </v>
    <v>       0.44576027       0.67173293       0.58308023 </v>
    <v>       0.55791702       0.55791702       0.41809300 </v>
    <v>       0.38416599       0.50000002       0.50000000 </v>
    <v>       0.61583401       0.50000002       0.50000000 </v>
    <v>       0.50000000       0.61749319       0.34021317 </v>
    <v>       0.50000000       0.61749319       0.65978680 </v>
    <v>       0.50000000       0.50000000       0.50000000 </v>
    <v>       0.44208298       0.55791702       0.58190703 </v>
    <v>       0.55791702       0.55791702       0.58190703 </v>
    <v>       0.50000000       0.61583404       0.50000000 </v>
    <v>       0.43731987       0.67410073       0.49127373 </v>
    <v>       0.42459747       0.70943857       0.48950253 </v>
   </varray>
  </structure>
  <varray name="forces" >
   <v>       0.69670702       1.10810911       0.29354525 </v>
   <v>      -1.11108965      -0.70241006       0.29746553 </v>
   <v>      -0.69793161       1.11252211       0.28094129 </v>
   <v>       1.08347244      -0.74653026       0.26593140 </v>
   <v>       0.00280326       0.41324642       1.27807216 </v>
   <v>       0.00244763       0.41383996      -1.27756813 </v>
   <v>      -0.00983320       1.51377732      -0.00122128 </v>
   <v>       1.51995422       0.00475551      -0.00053002 </v>
   <v>      -1.51534818      -0.00064032       0.00026854 </v>
   <v>       0.51765532      -1.24913310       0.12943779 </v>
   <v>      -0.75393910       0.75680956       1.06935441 </v>
   <v>      -0.75257853       0.75829012      -1.06875403 </v>
   <v>       0.73413458      -0.78661653       1.02700009 </v>
   <v>       0.75443825      -0.75977460      -1.05622725 </v>
   <v>       0.75503433       0.75753578       1.06672450 </v>
   <v>       0.75573590       0.75655132      -1.06632627 </v>
   <v>      -0.75990104      -0.72478399       1.08513291 </v>
   <v>      -0.75373393      -0.73041699      -1.07377607 </v>
   <v>       0.69676945       1.10680150      -0.29402501 </v>
   <v>      -1.11229698      -0.70414715      -0.29913363 </v>
   <v>       0.11098516      -0.11580321      -0.15186505 </v>
   <v>       1.10491434       0.71042990       0.30155777 </v>
   <v>      -0.59032701      -1.16318346       0.17873434 </v>
   <v>      -0.69881814       1.11128335      -0.28010667 </v>
   <v>       1.08358549      -0.74036892      -0.26563685 </v>
   <v>      -1.10831765       0.69847499       0.29556685 </v>
   <v>       0.70977313      -1.42361980       0.44402954 </v>
   <v>      -0.10901854      -0.11889194      -0.15087769 </v>
   <v>      -0.00705258      -0.22777274      -0.00065102 </v>
   <v>      -0.41121634      -0.01201186       1.27682566 </v>
   <v>      -0.40786291      -0.01631789      -1.27468490 </v>
   <v>       0.42017037       0.00746797       1.27498023 </v>
   <v>       0.41835070       0.00383331      -1.27617749 </v>
   <v>       0.83075906       0.81746122       0.00084269 </v>
   <v>      -0.83591387      -0.84463912       0.00613020 </v>
   <v>      -0.81909625       0.83863954      -0.00081125 </v>
   <v>       1.52916767      -0.12213393      -0.05294000 </v>
   <v>      -0.00836731       0.00804808       1.18271553 </v>
   <v>      -0.00700725       0.00473436      -1.18144188 </v>
   <v>       1.10604552       0.71005804      -0.30402066 </v>
   <v>      -0.63876434      -1.15601435      -0.20127559 </v>
   <v>       0.11024359      -0.11152165       0.15182862 </v>
   <v>      -0.10799439       0.02678796      -0.21793257 </v>
   <v>      -0.11037530      -0.11325163       0.14881516 </v>
   <v>      -1.10761758       0.69841629      -0.29453924 </v>
   <v>       0.67459383      -1.21038377      -0.30167711 </v>
   <v>       0.11302456       0.11019724      -0.15944773 </v>
   <v>      -0.23177887      -0.02305466       0.00152936 </v>
   <v>       0.22811487       0.00139147      -0.00021775 </v>
   <v>       0.00762776      -0.43919106       1.24997058 </v>
   <v>       0.00516346      -0.42782685      -1.25907519 </v>
   <v>       0.01640055      -0.00705241       0.00186213 </v>
   <v>      -0.10896025       0.05871382       0.20146054 </v>
   <v>       0.11054441       0.11610594       0.15189617 </v>
   <v>      -0.38977357       0.55857403      -0.01842181 </v>
   <v>       2.76759477      -9.21881385      -0.15853195 </v>
   <v>      -3.70129726       8.71344990       0.02527486 </v>
  </varray>
  <varray name="stress" >
   <v>      -6.67902937      -0.21102841       0.02126693 </v>
   <v>      -0.21102842      -6.23487245       0.02659704 </v>
   <v>       0.02126696       0.02659705      -6.70258555 </v>
  </varray>
  <energy>
   <i name="e_fr_energy">   -174.40454835 </i>
   <i name="e_wo_entrp">   -174.40218448 </i>
   <i name="e_0_energy">     -0.00945546 </i>
  </energy>
  <time name="totalsc">18965.7618966.46</time>
  <eigenvalues>
   <array>
    <dimension dim="1">band</dimension>
    <dimension dim="2">kpoint</dimension>
    <dimension dim="3">spin</dimension>
    <field>eigene</field>
    <field>occ</field>
    <set>
     <set comment="spin 1">
      <set comment="kpoint 1">
       <r>  -28.9340    1.0000 </r>
       <r>  -13.6136    1.0000 </r>
       <r>  -11.8841    1.0000 </r>
       <r>  -11.7717    1.0000 </r>
       <r>  -10.1418    1.0000 </r>
       <r>   -6.6015    1.0000 </r>
       <r>   -6.1305    1.0000 </r>
       <r>   -6.1033    1.0000 </r>
       <r>   -6.0763    1.0000 </r>
       <r>   -5.9794    1.0000 </r>
       <r>   -5.8701    1.0000 </r>
       <r>   -5.7876    1.0000 </r>
       <r>   -5.7819    1.0000 </r>
       <r>   -5.7543    1.0000 </r>
       <r>   -5.7068    1.0000 </r>
       <r>   -5.6713    1.0000 </r>
       <r>   -5.6659    1.0000 </r>
       <r>   -5.6595    1.0000 </r>
       <r>   -5.6481    1.0000 </r>
       <r>   -5.6056    1.0000 </r>
       <r>   -5.5964    1.0000 </r>
       <r>   -5.5893    1.0000 </r>
       <r>   -5.5803    1.0000 </r>
       <r>   -5.5781    1.0000 </r>
       <r>   -5.5685    1.0000 </r>
       <r>   -5.5474    1.0000 </r>
       <r>   -5.5332    1.0000 </r>
       <r>   -5.5259    1.0000 </r>
       <r>   -5.5222    1.0000 </r>
       <r>   -5.5075    1.0000 </r>
       <r>   -5.5051    1.0000 </r>
       <r>   -5.5020    1.0000 </r>
       <r>   -5.4971    1.0000 </r>
       <r>   -5.4912    1.0000 </r>
       <r>   -5.4889    1.0000 </r>
       <r>   -5.4803    1.0000 </r>
       <r>   -5.4772    1.0000 </r>
       <r>   -5.4734    1.0000 </r>
       <r>   -5.4586    1.0000 </r>
       <r>   -5.4493    1.0000 </r>
       <r>   -5.4456    1.0000 </r>
       <r>   -5.4443    1.0000 </r>
       <r>   -5.4436    1.0000 </r>
       <r>   -5.4353    1.0000 </r>
       <r>   -5.4284    1.0000 </r>
       <r>   -5.4239    1.0000 </r>
       <r>   -5.4155    1.0000 </r>
       <r>   -5.4105    1.0000 </r>
       <r>   -5.4053    1.0000 </r>
       <r>   -5.4031    1.0000 </r>
       <r>   -5.3949    1.0000 </r>
       <r>   -5.3837    1.0000 </r>
       <r>   -5.3828    1.0000 </r>
       <r>   -5.3748    1.0000 </r>
       <r>   -5.3662    1.0000 </r>
       <r>   -5.3541    1.0000 </r>
       <r>   -5.3359    1.0000 </r>
       <r>   -5.3262    1.0000 </r>
       <r>   -5.3136    1.0000 </r>
       <r>   -5.3007    1.0000 </r>
       <r>   -5.2951    1.0000 </r>
       <r>   -5.2928    1.0000 </r>
       <r>   -5.2914    1.0000 </r>
       <r>   -5.2847    1.0000 </r>
       <r>   -5.2822    1.0000 </r>
       <r>   -5.2747    1.0000 </r>
       <r>   -5.2716    1.0000 </r>
       <r>   -5.2544    1.0000 </r>
       <r>   -5.2170    1.0000 </r>
       <r>   -5.2068    1.0000 </r>
       <r>   -5.2038    1.0000 </r>
       <r>   -5.1848    1.0000 </r>
       <r>   -5.1730    1.0000 </r>
       <r>   -5.1695    1.0000 </r>
       <r>   -5.1681    1.0000 </r>
       <r>   -5.1543    1.0000 </r>
       <r>   -5.1504    1.0000 </r>
       <r>   -5.1451    1.0000 </r>
       <r>   -5.1394    1.0000 </r>
       <r>   -5.1346    1.0000 </r>
       <r>   -5.1317    1.0000 </r>
       <r>   -5.1215    1.0000 </r>
       <r>   -5.1103    1.0000 </r>
       <r>   -5.1049    1.0000 </r>
       <r>   -5.0939    1.0000 </r>
       <r>   -5.0901    1.0000 </r>
       <r>   -5.0875    1.0000 </r>
       <r>   -5.0806    1.0000 </r>
       <r>   -5.0641    1.0000 </r>
       <r>   -5.0471    1.0000 </r>
       <r>   -5.0461    1.0000 </r>
       <r>   -5.0374    1.0000 </r>
       <r>   -5.0312    1.0000 </r>
       <r>   -5.0259    1.0000 </r>
       <r>   -5.0253    1.0000 </r>
       <r>   -5.0216    1.0000 </r>
       <r>   -5.0182    1.0000 </r>
       <r>   -5.0109    1.0000 </r>
       <r>   -5.0039    1.0000 </r>
       <r>   -5.0018    1.0000 </r>
       <r>   -4.9953    1.0000 </r>
       <r>   -4.9877    1.0000 </r>
       <r>   -4.9864    1.0000 </r>
       <r>   -4.9834    1.0000 </r>
       <r>   -4.9772    1.0000 </r>
       <r>   -4.9736    1.0000 </r>
       <r>   -4.9699    1.0000 </r>
       <r>   -4.9626    1.0000 </r>
       <r>   -4.9565    1.0000 </r>
       <r>   -4.9548    1.0000 </r>
       <r>   -4.9528    1.0000 </r>
       <r>   -4.9501    1.0000 </r>
       <r>   -4.9382    1.0000 </r>
       <r>   -4.9350    1.0000 </r>
       <r>   -4.9283    1.0000 </r>
       <r>   -4.9267    1.0000 </r>
       <r>   -4.9164    1.0000 </r>
       <r>   -4.9066    1.0000 </r>
       <r>   -4.9033    1.0000 </r>
       <r>   -4.8986    1.0000 </r>
       <r>   -4.8951    1.0000 </r>
       <r>   -4.8937    1.0000 </r>
       <r>   -4.8823    1.0000 </r>
       <r>   -4.8788    1.0000 </r>
       <r>   -4.8777    1.0000 </r>
       <r>   -4.8710    1.0000 </r>
       <r>   -4.8516    1.0000 </r>
       <r>   -4.8377    1.0000 </r>
       <r>   -4.8294    1.0000 </r>
       <r>   -4.8287    1.0000 </r>
       <r>   -4.8250    1.0000 </r>
       <r>   -4.8215    1.0000 </r>
       <r>   -4.8147    1.0000 </r>
       <r>   -4.8107    1.0000 </r>
       <r>   -4.8049    1.0000 </r>
       <r>   -4.8019    1.0000 </r>
       <r>   -4.7938    1.0000 </r>
       <r>   -4.7868    0.9999 </r>
       <r>   -4.7769    0.9999 </r>
       <r>   -4.7735    0.9999 </r>
       <r>   -4.7659    0.9999 </r>
       <r>   -4.7552    0.9999 </r>
       <r>   -4.7511    0.9999 </r>
       <r>   -4.7399    0.9998 </r>
       <r>   -4.7255    0.9997 </r>
       <r>   -4.7200    0.9997 </r>
       <r>   -4.7156    0.9997 </r>
       <r>   -4.7044    0.9996 </r>
       <r>   -4.7017    0.9995 </r>
       <r>   -4.6929    0.9994 </r>
       <r>   -4.6896    0.9994 </r>
       <r>   -4.6829    0.9993 </r>
       <r>   -4.6724    0.9992 </r>
       <r>   -4.6709    0.9991 </r>
       <r>   -4.6635    0.9990 </r>
       <r>   -4.6611    0.9990 </r>
       <r>   -4.6567    0.9989 </r>
       <r>   -4.6483    0.9987 </r>
       <r>   -4.6452    0.9986 </r>
       <r>   -4.6439    0.9986 </r>
       <r>   -4.6377    0.9984 </r>
       <r>   -4.6340    0.9983 </r>
       <r>   -4.6309    0.9982 </r>
       <r>   -4.6275    0.9981 </r>
       <r>   -4.6226    0.9980 </r>
       <r>   -4.6210    0.9979 </r>
       <r>   -4.6195    0.9979 </r>
       <r>   -4.6181    0.9978 </r>
       <r>   -4.6143    0.9977 </r>
       <r>   -4.6067    0.9974 </r>
       <r>   -4.6015    0.9973 </r>
       <r>   -4.5944    0.9970 </r>
       <r>   -4.5847    0.9966 </r>
       <r>   -4.5792    0.9964 </r>
       <r>   -4.5749    0.9963 </r>
       <r>   -4.5716    0.9962 </r>
       <r>   -4.5687    0.9960 </r>
       <r>   -4.5666    0.9960 </r>
       <r>   -4.5632    0.9959 </r>
       <r>   -4.5585    0.9957 </r>
       <r>   -4.5538    0.9956 </r>
       <r>   -4.5474    0.9954 </r>
       <r>   -4.5388    0.9952 </r>
       <r>   -4.5356    0.9951 </r>
       <r>   -4.5348    0.9951 </r>
       <r>   -4.5288    0.9951 </r>
       <r>   -4.5250    0.9951 </r>
       <r>   -4.5224    0.9951 </r>
       <r>   -4.5220    0.9951 </r>
       <r>   -4.5079    0.9953 </r>
       <r>   -4.4986    0.9957 </r>
       <r>   -4.4930    0.9961 </r>
       <r>   -4.4884    0.9964 </r>
       <r>   -4.4857    0.9967 </r>
       <r>   -4.4822    0.9970 </r>
       <r>   -4.4657    0.9992 </r>
       <r>   -4.4651    0.9993 </r>
       <r>   -4.4578    1.0006 </r>
       <r>   -4.4543    1.0013 </r>
       <r>   -4.4513    1.0020 </r>
       <r>   -4.4478    1.0028 </r>
       <r>   -4.4458    1.0033 </r>
       <r>   -4.4418    1.0043 </r>
       <r>   -4.4312    1.0074 </r>
       <r>   -4.4286    1.0083 </r>
       <r>   -4.4266    1.0089 </r>
       <r>   -4.4227    1.0103 </r>
       <r>   -4.4182    1.0119 </r>
       <r>   -4.4171    1.0124 </r>
       <r>   -4.4147    1.0133 </r>
       <r>   -4.4116    1.0145 </r>
       <r>   -4.3969    1.0208 </r>
       <r>   -4.3917    1.0232 </r>
       <r>   -4.3908    1.0236 </r>
       <r>   -4.3830    1.0273 </r>
       <r>   -4.3815    1.0280 </r>
       <r>   -4.3775    1.0299 </r>
       <r>   -4.3758    1.0307 </r>
       <r>   -4.3644    1.0361 </r>
       <r>   -4.3551    1.0404 </r>
       <r>   -4.3480    1.0434 </r>
       <r>   -4.3439    1.0450 </r>
       <r>   -4.3434    1.0452 </r>
       <r>   -4.3291    1.0496 </r>
       <r>   -4.3247    1.0505 </r>
       <r>   -4.3215    1.0510 </r>
       <r>   -4.3133    1.0516 </r>
       <r>   -4.3119    1.0516 </r>
       <r>   -4.3105    1.0516 </r>
       <r>   -4.3067    1.0513 </r>
       <r>   -4.3060    1.0512 </r>
       <r>   -4.3046    1.0510 </r>
       <r>   -4.3023    1.0506 </r>
       <r>   -4.3001    1.0502 </r>
       <r>   -4.2988    1.0498 </r>
       <r>   -4.2945    1.0485 </r>
       <r>   -4.2938    1.0482 </r>
       <r>   -4.2921    1.0475 </r>
       <r>   -4.2876    1.0454 </r>
       <r>   -4.2850    1.0439 </r>
       <r>   -4.2765    1.0378 </r>
       <r>   -4.2725    1.0342 </r>
       <r>   -4.2691    1.0307 </r>
       <r>   -4.2675    1.0290 </r>
       <r>   -4.2633    1.0240 </r>
       <r>   -4.2607    1.0207 </r>
       <r>   -4.2593    1.0188 </r>
       <r>   -4.2542    1.0112 </r>
       <r>   -4.2522    1.0080 </r>
       <r>   -4.2476    1.0002 </r>
       <r>   -4.2406    0.9867 </r>
       <r>   -4.2378    0.9806 </r>
       <r>   -4.2348    0.9741 </r>
       <r>   -4.2325    0.9687 </r>
       <r>   -4.2289    0.9600 </r>
       <r>   -4.2255    0.9512 </r>
       <r>   -4.2222    0.9424 </r>
       <r>   -4.2201    0.9363 </r>
       <r>   -4.2182    0.9310 </r>
       <r>   -4.2144    0.9197 </r>
       <r>   -4.2126    0.9138 </r>
       <r>   -4.2122    0.9126 </r>
       <r>   -4.2115    0.9105 </r>
       <r>   -4.2099    0.9053 </r>
       <r>   -4.2071    0.8960 </r>
       <r>   -4.2021    0.8791 </r>
       <r>   -4.1962    0.8574 </r>
       <r>   -4.1916    0.8397 </r>
       <r>   -4.1898    0.8329 </r>
       <r>   -4.1896    0.8318 </r>
       <r>   -4.1855    0.8151 </r>
       <r>   -4.1789    0.7875 </r>
       <r>   -4.1744    0.7676 </r>
       <r>   -4.1677    0.7370 </r>
       <r>   -4.1579    0.6907 </r>
       <r>   -4.1566    0.6841 </r>
       <r>   -4.1494    0.6482 </r>
       <r>   -4.1457    0.6296 </r>
       <r>   -4.1434    0.6179 </r>
       <r>   -4.1413    0.6067 </r>
       <r>   -4.1311    0.5536 </r>
       <r>   -4.1282    0.5387 </r>
       <r>   -4.1152    0.4697 </r>
       <r>   -4.1068    0.4257 </r>
       <r>   -4.0999    0.3896 </r>
       <r>   -4.0987    0.3837 </r>
       <r>   -4.0901    0.3400 </r>
       <r>   -4.0830    0.3047 </r>
       <r>   -3.9573   -0.0436 </r>
       <r>   -3.9310   -0.0516 </r>
       <r>   -3.8806   -0.0376 </r>
       <r>   -3.7931   -0.0026 </r>
       <r>   -3.7917   -0.0023 </r>
       <r>   -3.6507    0.0031 </r>
       <r>   -3.4641    0.0001 </r>
       <r>   -3.4584    0.0001 </r>
       <r>   -3.2306    0.0000 </r>
       <r>   -3.0481    0.0000 </r>
       <r>   -3.0326    0.0000 </r>
       <r>   -3.0298    0.0000 </r>
       <r>   -2.9969    0.0000 </r>
       <r>   -2.9886    0.0000 </r>
       <r>   -2.9585    0.0000 </r>
       <r>   -2.9072    0.0000 </r>
       <r>   -2.7555    0.0000 </r>
       <r>   -2.5293    0.0000 </r>
       <r>   -2.4966    0.0000 </r>
       <r>   -2.3744    0.0000 </r>
       <r>   -2.2977    0.0000 </r>
       <r>   -2.1373    0.0000 </r>
       <r>   -2.0919    0.0000 </r>
       <r>   -2.0355    0.0000 </r>
       <r>   -1.9731    0.0000 </r>
       <r>   -1.9232    0.0000 </r>
       <r>   -1.8687    0.0000 </r>
       <r>   -1.8393    0.0000 </r>
       <r>   -1.8325    0.0000 </r>
       <r>   -1.7850    0.0000 </r>
       <r>   -1.6868    0.0000 </r>
       <r>   -1.6099    0.0000 </r>
       <r>   -1.5883    0.0000 </r>
       <r>   -1.5191    0.0000 </r>
       <r>   -1.4486    0.0000 </r>
       <r>   -1.4344    0.0000 </r>
       <r>   -1.2888    0.0000 </r>
       <r>   -1.1795    0.0000 </r>
       <r>   -1.0984    0.0000 </r>
       <r>   -1.0111    0.0000 </r>
       <r>   -0.9559    0.0000 </r>
       <r>   -0.9491    0.0000 </r>
       <r>   -0.9051    0.0000 </r>
       <r>   -0.9013    0.0000 </r>
       <r>   -0.8628    0.0000 </r>
       <r>   -0.8361    0.0000 </r>
       <r>   -0.7802    0.0000 </r>
       <r>   -0.7092    0.0000 </r>
      </set>
     </set>
    </set>
   </array>
  </eigenvalues>
  <separator name="orbital magnetization" >
   <v name="MAGDIPOLOUT">      0.00000000      0.00000000      0.00000000</v>
  </separator>
  <dos>
   <i name="efermi">     -4.12093065 </i>
   <total>
    <array>
     <dimension dim="1">gridpoints</dimension>
     <dimension dim="2">spin</dimension>
     <field>energy</field>
     <field>total</field>
     <field>integrated</field>
     <set>
      <set comment="spin 1">
       <r>   -30.9340     0.0000     0.0000 </r>
       <r>   -30.8266     0.0000     0.0000 </r>
       <r>   -30.7191     0.0000     0.0000 </r>
       <r>   -30.6117     0.0000     0.0000 </r>
       <r>   -30.5043     0.0000     0.0000 </r>
       <r>   -30.3969     0.0000     0.0000 </r>
       <r>   -30.2895     0.0000     0.0000 </r>
       <r>   -30.1821     0.0000     0.0000 </r>
       <r>   -30.0747     0.0000     0.0000 </r>
       <r>   -29.9672     0.0000     0.0000 </r>
       <r>   -29.8598     0.0000     0.0000 </r>
       <r>   -29.7524     0.0000     0.0000 </r>
       <r>   -29.6450     0.0003     0.0000 </r>
       <r>   -29.5376     0.0048     0.0005 </r>
       <r>   -29.4302     0.0358     0.0044 </r>
       <r>   -29.3227     0.0472     0.0095 </r>
       <r>   -29.2153    -0.4306    -0.0368 </r>
       <r>   -29.1079    -0.5625    -0.0972 </r>
       <r>   -29.0005     4.1955     0.3535 </r>
       <r>   -28.8931     9.9193     1.4189 </r>
       <r>   -28.7857     5.9847     2.0618 </r>
       <r>   -28.6782    -0.0113     2.0606 </r>
       <r>   -28.5708    -0.6235     1.9936 </r>
       <r>   -28.4634     0.0017     1.9938 </r>
       <r>   -28.3560     0.0487     1.9990 </r>
       <r>   -28.2486     0.0085     1.9999 </r>
       <r>   -28.1412     0.0006     2.0000 </r>
       <r>   -28.0337     0.0000     2.0000 </r>
       <r>   -27.9263     0.0000     2.0000 </r>
       <r>   -27.8189     0.0000     2.0000 </r>
       <r>   -27.7115     0.0000     2.0000 </r>
       <r>   -27.6041     0.0000     2.0000 </r>
       <r>   -27.4967     0.0000     2.0000 </r>
       <r>   -27.3892     0.0000     2.0000 </r>
       <r>   -27.2818     0.0000     2.0000 </r>
       <r>   -27.1744     0.0000     2.0000 </r>
       <r>   -27.0670     0.0000     2.0000 </r>
       <r>   -26.9596     0.0000     2.0000 </r>
       <r>   -26.8522     0.0000     2.0000 </r>
       <r>   -26.7448     0.0000     2.0000 </r>
       <r>   -26.6373     0.0000     2.0000 </r>
       <r>   -26.5299     0.0000     2.0000 </r>
       <r>   -26.4225     0.0000     2.0000 </r>
       <r>   -26.3151     0.0000     2.0000 </r>
       <r>   -26.2077     0.0000     2.0000 </r>
       <r>   -26.1003     0.0000     2.0000 </r>
       <r>   -25.9928     0.0000     2.0000 </r>
       <r>   -25.8854     0.0000     2.0000 </r>
       <r>   -25.7780     0.0000     2.0000 </r>
       <r>   -25.6706     0.0000     2.0000 </r>
       <r>   -25.5632     0.0000     2.0000 </r>
       <r>   -25.4558     0.0000     2.0000 </r>
       <r>   -25.3483     0.0000     2.0000 </r>
       <r>   -25.2409     0.0000     2.0000 </r>
       <r>   -25.1335     0.0000     2.0000 </r>
       <r>   -25.0261     0.0000     2.0000 </r>
       <r>   -24.9187     0.0000     2.0000 </r>
       <r>   -24.8113     0.0000     2.0000 </r>
       <r>   -24.7038     0.0000     2.0000 </r>
       <r>   -24.5964     0.0000     2.0000 </r>
       <r>   -24.4890     0.0000     2.0000 </r>
       <r>   -24.3816     0.0000     2.0000 </r>
       <r>   -24.2742     0.0000     2.0000 </r>
       <r>   -24.1668     0.0000     2.0000 </r>
       <r>   -24.0594     0.0000     2.0000 </r>
       <r>   -23.9519     0.0000     2.0000 </r>
       <r>   -23.8445     0.0000     2.0000 </r>
       <r>   -23.7371     0.0000     2.0000 </r>
       <r>   -23.6297     0.0000     2.0000 </r>
       <r>   -23.5223     0.0000     2.0000 </r>
       <r>   -23.4149     0.0000     2.0000 </r>
       <r>   -23.3074     0.0000     2.0000 </r>
       <r>   -23.2000     0.0000     2.0000 </r>
       <r>   -23.0926     0.0000     2.0000 </r>
       <r>   -22.9852     0.0000     2.0000 </r>
       <r>   -22.8778     0.0000     2.0000 </r>
       <r>   -22.7704     0.0000     2.0000 </r>
       <r>   -22.6629     0.0000     2.0000 </r>
       <r>   -22.5555     0.0000     2.0000 </r>
       <r>   -22.4481     0.0000     2.0000 </r>
       <r>   -22.3407     0.0000     2.0000 </r>
       <r>   -22.2333     0.0000     2.0000 </r>
       <r>   -22.1259     0.0000     2.0000 </r>
       <r>   -22.0184     0.0000     2.0000 </r>
       <r>   -21.9110     0.0000     2.0000 </r>
       <r>   -21.8036     0.0000     2.0000 </r>
       <r>   -21.6962     0.0000     2.0000 </r>
       <r>   -21.5888     0.0000     2.0000 </r>
       <r>   -21.4814     0.0000     2.0000 </r>
       <r>   -21.3740     0.0000     2.0000 </r>
       <r>   -21.2665     0.0000     2.0000 </r>
       <r>   -21.1591     0.0000     2.0000 </r>
       <r>   -21.0517     0.0000     2.0000 </r>
       <r>   -20.9443     0.0000     2.0000 </r>
       <r>   -20.8369     0.0000     2.0000 </r>
       <r>   -20.7295     0.0000     2.0000 </r>
       <r>   -20.6220     0.0000     2.0000 </r>
       <r>   -20.5146     0.0000     2.0000 </r>
       <r>   -20.4072     0.0000     2.0000 </r>
       <r>   -20.2998     0.0000     2.0000 </r>
       <r>   -20.1924     0.0000     2.0000 </r>
       <r>   -20.0850     0.0000     2.0000 </r>
       <r>   -19.9775     0.0000     2.0000 </r>
       <r>   -19.8701     0.0000     2.0000 </r>
       <r>   -19.7627     0.0000     2.0000 </r>
       <r>   -19.6553     0.0000     2.0000 </r>
       <r>   -19.5479     0.0000     2.0000 </r>
       <r>   -19.4405     0.0000     2.0000 </r>
       <r>   -19.3330     0.0000     2.0000 </r>
       <r>   -19.2256     0.0000     2.0000 </r>
       <r>   -19.1182     0.0000     2.0000 </r>
       <r>   -19.0108     0.0000     2.0000 </r>
       <r>   -18.9034     0.0000     2.0000 </r>
       <r>   -18.7960     0.0000     2.0000 </r>
       <r>   -18.6886     0.0000     2.0000 </r>
       <r>   -18.5811     0.0000     2.0000 </r>
       <r>   -18.4737     0.0000     2.0000 </r>
       <r>   -18.3663     0.0000     2.0000 </r>
       <r>   -18.2589     0.0000     2.0000 </r>
       <r>   -18.1515     0.0000     2.0000 </r>
       <r>   -18.0441     0.0000     2.0000 </r>
       <r>   -17.9366     0.0000     2.0000 </r>
       <r>   -17.8292     0.0000     2.0000 </r>
       <r>   -17.7218     0.0000     2.0000 </r>
       <r>   -17.6144     0.0000     2.0000 </r>
       <r>   -17.5070     0.0000     2.0000 </r>
       <r>   -17.3996     0.0000     2.0000 </r>
       <r>   -17.2921     0.0000     2.0000 </r>
       <r>   -17.1847     0.0000     2.0000 </r>
       <r>   -17.0773     0.0000     2.0000 </r>
       <r>   -16.9699     0.0000     2.0000 </r>
       <r>   -16.8625     0.0000     2.0000 </r>
       <r>   -16.7551     0.0000     2.0000 </r>
       <r>   -16.6476     0.0000     2.0000 </r>
       <r>   -16.5402     0.0000     2.0000 </r>
       <r>   -16.4328     0.0000     2.0000 </r>
       <r>   -16.3254     0.0000     2.0000 </r>
       <r>   -16.2180     0.0000     2.0000 </r>
       <r>   -16.1106     0.0000     2.0000 </r>
       <r>   -16.0031     0.0000     2.0000 </r>
       <r>   -15.8957     0.0000     2.0000 </r>
       <r>   -15.7883     0.0000     2.0000 </r>
       <r>   -15.6809     0.0000     2.0000 </r>
       <r>   -15.5735     0.0000     2.0000 </r>
       <r>   -15.4661     0.0000     2.0000 </r>
       <r>   -15.3587     0.0000     2.0000 </r>
       <r>   -15.2512     0.0000     2.0000 </r>
       <r>   -15.1438     0.0000     2.0000 </r>
       <r>   -15.0364     0.0000     2.0000 </r>
       <r>   -14.9290     0.0000     2.0000 </r>
       <r>   -14.8216     0.0000     2.0000 </r>
       <r>   -14.7142     0.0000     2.0000 </r>
       <r>   -14.6067     0.0000     2.0000 </r>
       <r>   -14.4993     0.0000     2.0000 </r>
       <r>   -14.3919     0.0000     2.0000 </r>
       <r>   -14.2845     0.0009     2.0001 </r>
       <r>   -14.1771     0.0115     2.0013 </r>
       <r>   -14.0697     0.0556     2.0073 </r>
       <r>   -13.9622    -0.0417     2.0028 </r>
       <r>   -13.8548    -0.7191     1.9256 </r>
       <r>   -13.7474     0.4688     1.9759 </r>
       <r>   -13.6400     6.9716     2.7248 </r>
       <r>   -13.5326     9.6094     3.7570 </r>
       <r>   -13.4252     3.2218     4.1031 </r>
       <r>   -13.3177    -0.7276     4.0249 </r>
       <r>   -13.2103    -0.3238     3.9901 </r>
       <r>   -13.1029     0.0592     3.9965 </r>
       <r>   -12.9955     0.0291     3.9996 </r>
       <r>   -12.8881     0.0034     4.0000 </r>
       <r>   -12.7807     0.0002     4.0000 </r>
       <r>   -12.6733     0.0000     4.0000 </r>
       <r>   -12.5658     0.0007     4.0001 </r>
       <r>   -12.4584     0.0097     4.0011 </r>
       <r>   -12.3510     0.0588     4.0074 </r>
       <r>   -12.2436     0.0400     4.0117 </r>
       <r>   -12.1362    -0.6445     3.9425 </r>
       <r>   -12.0288    -0.5158     3.8871 </r>
       <r>   -11.9213     6.1917     4.5522 </r>
       <r>   -11.8139    15.7563     6.2447 </r>
       <r>   -11.7065    13.8797     7.7356 </r>
       <r>   -11.5991     3.6708     8.1299 </r>
       <r>   -11.4917    -0.9459     8.0283 </r>
       <r>   -11.3843    -0.3893     7.9864 </r>
       <r>   -11.2768     0.0798     7.9950 </r>
       <r>   -11.1694     0.0409     7.9994 </r>
       <r>   -11.0620     0.0052     8.0000 </r>
       <r>   -10.9546     0.0003     8.0000 </r>
       <r>   -10.8472     0.0003     8.0000 </r>
       <r>   -10.7398     0.0055     8.0006 </r>
       <r>   -10.6323     0.0386     8.0048 </r>
       <r>   -10.5249     0.0402     8.0091 </r>
       <r>   -10.4175    -0.4732     7.9583 </r>
       <r>   -10.3101    -0.4721     7.9075 </r>
       <r>   -10.2027     4.5834     8.3999 </r>
       <r>   -10.0953     9.9797     9.4719 </r>
       <r>    -9.9879     5.5937    10.0727 </r>
       <r>    -9.8804    -0.1629    10.0552 </r>
       <r>    -9.7730    -0.5826     9.9926 </r>
       <r>    -9.6656     0.0148     9.9942 </r>
       <r>    -9.5582     0.0458     9.9991 </r>
       <r>    -9.4508     0.0075     9.9999 </r>
       <r>    -9.3434     0.0005    10.0000 </r>
       <r>    -9.2359     0.0000    10.0000 </r>
       <r>    -9.1285     0.0000    10.0000 </r>
       <r>    -9.0211     0.0000    10.0000 </r>
       <r>    -8.9137     0.0000    10.0000 </r>
       <r>    -8.8063     0.0000    10.0000 </r>
       <r>    -8.6989     0.0000    10.0000 </r>
       <r>    -8.5914     0.0000    10.0000 </r>
       <r>    -8.4840     0.0000    10.0000 </r>
       <r>    -8.3766     0.0000    10.0000 </r>
       <r>    -8.2692     0.0000    10.0000 </r>
       <r>    -8.1618     0.0000    10.0000 </r>
       <r>    -8.0544     0.0000    10.0000 </r>
       <r>    -7.9469     0.0000    10.0000 </r>
       <r>    -7.8395     0.0000    10.0000 </r>
       <r>    -7.7321     0.0000    10.0000 </r>
       <r>    -7.6247     0.0000    10.0000 </r>
       <r>    -7.5173     0.0000    10.0000 </r>
       <r>    -7.4099     0.0000    10.0000 </r>
       <r>    -7.3025     0.0004    10.0000 </r>
       <r>    -7.1950     0.0061    10.0007 </r>
       <r>    -7.0876     0.0408    10.0051 </r>
       <r>    -6.9802     0.0336    10.0087 </r>
       <r>    -6.8728    -0.5069     9.9542 </r>
       <r>    -6.7654    -0.3851     9.9129 </r>
       <r>    -6.6580     4.9374    10.4432 </r>
       <r>    -6.5505    10.1842    11.5372 </r>
       <r>    -6.4431     5.0693    12.0817 </r>
       <r>    -6.3357    -2.3647    11.8277 </r>
       <r>    -6.2283     1.9206    12.0340 </r>
       <r>    -6.1209    22.1141    14.4094 </r>
       <r>    -6.0135    32.2779    17.8766 </r>
       <r>    -5.9060    23.0394    20.3514 </r>
       <r>    -5.7986    28.3795    23.3998 </r>
       <r>    -5.6912    62.6076    30.1248 </r>
       <r>    -5.5838   141.5534    45.3299 </r>
       <r>    -5.4764   256.0267    72.8313 </r>
       <r>    -5.3690   296.6009   104.6910 </r>
       <r>    -5.2615   237.5785   130.2108 </r>
       <r>    -5.1541   215.6039   153.3701 </r>
       <r>    -5.0467   288.2135   184.3288 </r>
       <r>    -4.9393   358.6603   222.8547 </r>
       <r>    -4.8319   337.8169   259.1416 </r>
       <r>    -4.7245   310.0346   292.4443 </r>
       <r>    -4.6170   366.2541   331.7859 </r>
       <r>    -4.5096   408.9904   375.7180 </r>
       <r>    -4.4022   415.8830   420.3905 </r>
       <r>    -4.2948   501.9597   474.3090 </r>
       <r>    -4.1874   547.7472   533.1459 </r>
       <r>    -4.0800   346.6019   570.3765 </r>
       <r>    -3.9726    90.1785   580.0631 </r>
       <r>    -3.8651    14.9399   581.6679 </r>
       <r>    -3.7577    27.3683   584.6077 </r>
       <r>    -3.6503    21.4665   586.9135 </r>
       <r>    -3.5429    14.7375   588.4966 </r>
       <r>    -3.4355    19.2054   590.5595 </r>
       <r>    -3.3281    14.3475   592.1007 </r>
       <r>    -3.2206     5.6617   592.7088 </r>
       <r>    -3.1132    18.2890   594.6734 </r>
       <r>    -3.0058    52.9012   600.3558 </r>
       <r>    -2.8984    56.7572   606.4524 </r>
       <r>    -2.7910    23.9193   609.0217 </r>
       <r>    -2.6836     5.9380   609.6596 </r>
       <r>    -2.5761     9.7702   610.7091 </r>
       <r>    -2.4687    21.1361   612.9794 </r>
       <r>    -2.3613    23.5555   615.5097 </r>
       <r>    -2.2539    17.5148   617.3910 </r>
       <r>    -2.1465    18.0119   619.3258 </r>
       <r>    -2.0391    29.3129   622.4745 </r>
       <r>    -1.9316    41.7626   626.9605 </r>
       <r>    -1.8242    48.5365   632.1740 </r>
       <r>    -1.7168    39.4514   636.4118 </r>
       <r>    -1.6094    31.8940   639.8377 </r>
       <r>    -1.5020    36.2835   643.7351 </r>
       <r>    -1.3946    31.7181   647.1422 </r>
       <r>    -1.2872    19.4086   649.2270 </r>
       <r>    -1.1797    15.6624   650.9094 </r>
       <r>    -1.0723    22.4390   653.3197 </r>
       <r>    -0.9649    43.9970   658.0456 </r>
       <r>    -0.8575    62.9570   664.8082 </r>
       <r>    -0.7501    48.4709   670.0148 </r>
       <r>    -0.6427    18.5039   672.0024 </r>
       <r>    -0.5352     1.4072   672.1536 </r>
       <r>    -0.4278    -1.4665   671.9960 </r>
       <r>    -0.3204    -0.1875   671.9759 </r>
       <r>    -0.2130     0.1659   671.9937 </r>
       <r>    -0.1056     0.0523   671.9993 </r>
       <r>     0.0018     0.0059   672.0000 </r>
       <r>     0.1093     0.0003   672.0000 </r>
       <r>     0.2167     0.0000   672.0000 </r>
       <r>     0.3241     0.0000   672.0000 </r>
       <r>     0.4315     0.0000   672.0000 </r>
       <r>     0.5389     0.0000   672.0000 </r>
       <r>     0.6463     0.0000   672.0000 </r>
       <r>     0.7538     0.0000   672.0000 </r>
       <r>     0.8612     0.0000   672.0000 </r>
       <r>     0.9686     0.0000   672.0000 </r>
       <r>     1.0760     0.0000   672.0000 </r>
       <r>     1.1834     0.0000   672.0000 </r>
       <r>     1.2908     0.0000   672.0000 </r>
      </set>
     </set>
    </array>
   </total>
  </dos>
 </calculation>
 <structure name="finalpos" >
  <crystal>
   <varray name="basis" >
    <v>      30.00000000       0.00000000       0.00000000 </v>
    <v>       0.00000000      30.00000000       0.00000000 </v>
    <v>       0.00000000       0.00000000      30.00000000 </v>
   </varray>
   <i name="volume">  27000.00000000 </i>
   <varray name="rec_basis" >
    <v>       0.03333333       0.00000000       0.00000000 </v>
    <v>       0.00000000       0.03333333       0.00000000 </v>
    <v>       0.00000000       0.00000000       0.03333333 </v>
   </varray>
  </crystal>
  <varray name="positions" >
   <v>       0.44576020       0.32826710       0.41691983 </v>
   <v>       0.67173288       0.55423978       0.41691983 </v>
   <v>       0.55423980       0.32826710       0.41691983 </v>
   <v>       0.32826712       0.55423978       0.41691983 </v>
   <v>       0.50000000       0.38250690       0.34021317 </v>
   <v>       0.50000000       0.38250690       0.65978680 </v>
   <v>       0.50000000       0.27609440       0.50000000 </v>
   <v>       0.27609443       0.49999998       0.50000000 </v>
   <v>       0.72390557       0.49999998       0.50000000 </v>
   <v>       0.50000000       0.72390555       0.50000000 </v>
   <v>       0.61195280       0.38804720       0.34167483 </v>
   <v>       0.61195280       0.38804720       0.65832513 </v>
   <v>       0.38804722       0.61195278       0.34167483 </v>
   <v>       0.38804722       0.61195278       0.65832513 </v>
   <v>       0.38804720       0.38804720       0.34167483 </v>
   <v>       0.38804720       0.38804720       0.65832513 </v>
   <v>       0.61195278       0.61195278       0.34167483 </v>
   <v>       0.61195278       0.61195278       0.65832513 </v>
   <v>       0.44576020       0.32826710       0.58308023 </v>
   <v>       0.67173288       0.55423978       0.58308023 </v>
   <v>       0.55791699       0.44208301       0.41809300 </v>
   <v>       0.32826705       0.44576024       0.41691983 </v>
   <v>       0.55423973       0.67173293       0.41691983 </v>
   <v>       0.55423980       0.32826710       0.58308023 </v>
   <v>       0.32826712       0.55423978       0.58308023 </v>
   <v>       0.67173295       0.44576024       0.41691983 </v>
   <v>       0.44576027       0.67173293       0.41691983 </v>
   <v>       0.44208301       0.44208301       0.41809300 </v>
   <v>       0.50000000       0.38416601       0.50000000 </v>
   <v>       0.61749315       0.50000005       0.34021317 </v>
   <v>       0.61749315       0.50000005       0.65978680 </v>
   <v>       0.38250685       0.50000005       0.34021317 </v>
   <v>       0.38250685       0.50000005       0.65978680 </v>
   <v>       0.38317830       0.38317830       0.50000000 </v>
   <v>       0.61682172       0.61682172       0.50000000 </v>
   <v>       0.61682170       0.38317830       0.50000000 </v>
   <v>       0.38317828       0.61682172       0.50000000 </v>
   <v>       0.50000000       0.50000000       0.33478917 </v>
   <v>       0.50000000       0.50000000       0.66521087 </v>
   <v>       0.32826705       0.44576024       0.58308023 </v>
   <v>       0.55423973       0.67173293       0.58308023 </v>
   <v>       0.55791699       0.44208301       0.58190703 </v>
   <v>       0.44208298       0.55791702       0.41809300 </v>
   <v>       0.44208301       0.44208301       0.58190703 </v>
   <v>       0.67173295       0.44576024       0.58308023 </v>
   <v>       0.44576027       0.67173293       0.58308023 </v>
   <v>       0.55791702       0.55791702       0.41809300 </v>
   <v>       0.38416599       0.50000002       0.50000000 </v>
   <v>       0.61583401       0.50000002       0.50000000 </v>
   <v>       0.50000000       0.61749319       0.34021317 </v>
   <v>       0.50000000       0.61749319       0.65978680 </v>
   <v>       0.50000000       0.50000000       0.50000000 </v>
   <v>       0.44208298       0.55791702       0.58190703 </v>
   <v>       0.55791702       0.55791702       0.58190703 </v>
   <v>       0.50000000       0.61583404       0.50000000 </v>
   <v>       0.43731987       0.67410073       0.49127373 </v>
   <v>       0.42459747       0.70943857       0.48950253 </v>
  </varray>
  <varray name="selective"  type="logical" >
   <v type="logical" >  F  F  F </v>
   <v type="logical" >  F  F  F </v>
   <v type="logical" >  F  F  F </v>
   <v type="logical" >  F  F  F </v>
   <v type="logical" >  F  F  F </v>
   <v type="logical" >  F  F  F </v>
   <v type="logical" >  F  F  F </v>
   <v type="logical" >  F  F  F </v>
   <v type="logical" >  F  F  F </v>
   <v type="logical" >  F  F  F </v>
   <v type="logical" >  F  F  F </v>
   <v type="logical" >  F  F  F </v>
   <v type="logical" >  F  F  F </v>
   <v type="logical" >  F  F  F </v>
   <v type="logical" >  F  F  F </v>
   <v type="logical" >  F  F  F </v>
   <v type="logical" >  F  F  F </v>
   <v type="logical" >  F  F  F </v>
   <v type="logical" >  F  F  F </v>
   <v type="logical" >  F  F  F </v>
   <v type="logical" >  F  F  F </v>
   <v type="logical" >  F  F  F </v>
   <v type="logical" >  F  F  F </v>
   <v type="logical" >  F  F  F </v>
   <v type="logical" >  F  F  F </v>
   <v type="logical" >  F  F  F </v>
   <v type="logical" >  F  F  F </v>
   <v type="logical" >  F  F  F </v>
   <v type="logical" >  F  F  F </v>
   <v type="logical" >  F  F  F </v>
   <v type="logical" >  F  F  F </v>
   <v type="logical" >  F  F  F </v>
   <v type="logical" >  F  F  F </v>
   <v type="logical" >  F  F  F </v>
   <v type="logical" >  F  F  F </v>
   <v type="logical" >  F  F  F </v>
   <v type="logical" >  F  F  F </v>
   <v type="logical" >  F  F  F </v>
   <v type="logical" >  F  F  F </v>
   <v type="logical" >  F  F  F </v>
   <v type="logical" >  F  F  F </v>
   <v type="logical" >  F  F  F </v>
   <v type="logical" >  F  F  F </v>
   <v type="logical" >  F  F  F </v>
   <v type="logical" >  F  F  F </v>
   <v type="logical" >  F  F  F </v>
   <v type="logical" >  F  F  F </v>
   <v type="logical" >  F  F  F </v>
   <v type="logical" >  F  F  F </v>
   <v type="logical" >  F  F  F </v>
   <v type="logical" >  F  F  F </v>
   <v type="logical" >  F  F  F </v>
   <v type="logical" >  F  F  F </v>
   <v type="logical" >  F  F  F </v>
   <v type="logical" >  F  F  F </v>
   <v type="logical" >  F  F  F </v>
   <v type="logical" >  F  F  F </v>
  </varray>
  <nose>
   <v>      -3.00000000       0.00000000       0.00010000       0.00010000 </v>
  </nose>
 </structure>
</modeling>
