       N       E                     dE             d eps       ncg     rms          rms(c)
DAV:   1     0.439590573999E+04    0.43959E+04   -0.10053E+05   688   0.815E+02
DAV:   2     0.201065124231E+04   -0.23853E+04   -0.21468E+04  1224   0.106E+02
DAV:   3     0.229395211228E+03   -0.17813E+04   -0.16766E+04  1000   0.919E+01
DAV:   4    -0.136990022455E+03   -0.36639E+03   -0.31122E+03   832   0.436E+01
DAV:   5    -0.180788116282E+03   -0.43798E+02   -0.36196E+02  1048   0.145E+01    0.192E+01
RMM:   6    -0.180163622458E+03    0.62449E+00   -0.69335E+01   722   0.940E+00    0.256E+01
RMM:   7    -0.183497653099E+03   -0.33340E+01   -0.23491E+01   856   0.470E+00    0.247E+01
RMM:   8    -0.188409286611E+03   -0.49116E+01   -0.10025E+01   775   0.411E+00    0.336E+01
RMM:   9    -0.187351595253E+03    0.10577E+01   -0.80838E+00   756   0.369E+00    0.317E+01
RMM:  10    -0.184826038914E+03    0.25256E+01   -0.59370E+00   737   0.349E+00    0.318E+01
RMM:  11    -0.181263356590E+03    0.35627E+01   -0.36989E+00   736   0.264E+00    0.287E+01
RMM:  12    -0.179044583933E+03    0.22188E+01   -0.34410E+00   726   0.258E+00    0.185E+01
RMM:  13    -0.177548060277E+03    0.14965E+01   -0.31241E+00   709   0.243E+00    0.134E+01
RMM:  14    -0.178171351635E+03   -0.62329E+00   -0.29815E+00   703   0.249E+00    0.193E+01
RMM:  15    -0.177674147716E+03    0.49720E+00   -0.16558E+00   715   0.186E+00    0.211E+01
RMM:  16    -0.176625466381E+03    0.10487E+01   -0.12604E+00   717   0.167E+00    0.140E+01
RMM:  17    -0.176369124009E+03    0.25634E+00   -0.71807E-01   707   0.127E+00    0.153E+01
RMM:  18    -0.175624759796E+03    0.74436E+00   -0.38995E-01   711   0.964E-01    0.100E+01
RMM:  19    -0.175528060646E+03    0.96699E-01   -0.41191E-01   696   0.965E-01    0.853E+00
RMM:  20    -0.175825748199E+03   -0.29769E+00   -0.40745E-01   710   0.938E-01    0.136E+01
RMM:  21    -0.175448472962E+03    0.37728E+00   -0.31519E-01   708   0.891E-01    0.903E+00
RMM:  22    -0.175208425636E+03    0.24005E+00   -0.20235E-01   698   0.700E-01    0.629E+00
RMM:  23    -0.175136071475E+03    0.72354E-01   -0.18569E-01   697   0.652E-01    0.637E+00
RMM:  24    -0.175075708844E+03    0.60363E-01   -0.16026E-01   701   0.625E-01    0.512E+00
RMM:  25    -0.175054960873E+03    0.20748E-01   -0.16563E-01   695   0.615E-01    0.559E+00
RMM:  26    -0.174979791705E+03    0.75169E-01   -0.11059E-01   694   0.517E-01    0.386E+00
RMM:  27    -0.174922332938E+03    0.57459E-01   -0.69799E-02   694   0.408E-01    0.291E+00
RMM:  28    -0.174908489393E+03    0.13844E-01   -0.63472E-02   695   0.392E-01    0.305E+00
RMM:  29    -0.174894842446E+03    0.13647E-01   -0.44603E-02   695   0.344E-01    0.263E+00
RMM:  30    -0.174858834537E+03    0.36008E-01   -0.24073E-02   692   0.262E-01    0.129E+00
RMM:  31    -0.174853146559E+03    0.56880E-02   -0.11025E-02   693   0.176E-01    0.101E+00
RMM:  32    -0.174849327302E+03    0.38193E-02   -0.64634E-03   698   0.128E-01    0.806E-01
RMM:  33    -0.174849043298E+03    0.28400E-03   -0.47415E-03   695   0.110E-01    0.100E+00
RMM:  34    -0.174845541329E+03    0.35020E-02   -0.30433E-03   691   0.947E-02    0.543E-01
RMM:  35    -0.174846265171E+03   -0.72384E-03   -0.23910E-03   689   0.815E-02    0.615E-01
RMM:  36    -0.174847722863E+03   -0.14577E-02   -0.20953E-03   687   0.735E-02    0.669E-01
RMM:  37    -0.174848078913E+03   -0.35605E-03   -0.15642E-03   685   0.649E-02    0.513E-01
RMM:  38    -0.174849140827E+03   -0.10619E-02   -0.11024E-03   687   0.511E-02    0.381E-01
RMM:  39    -0.174851308110E+03   -0.21673E-02   -0.90931E-04   685   0.476E-02    0.406E-01
RMM:  40    -0.174853356374E+03   -0.20483E-02   -0.65331E-04   634   0.398E-02    0.389E-01
RMM:  41    -0.174855207265E+03   -0.18509E-02   -0.48966E-04   552   0.340E-02    0.242E-01
RMM:  42    -0.174857132991E+03   -0.19257E-02   -0.36489E-04   465   0.299E-02    0.199E-01
RMM:  43    -0.174860258935E+03   -0.31259E-02   -0.47671E-04   526   0.307E-02    0.176E-01
RMM:  44    -0.174861499391E+03   -0.12405E-02   -0.20223E-04   421   0.210E-02    0.163E-01
RMM:  45    -0.174865242506E+03   -0.37431E-02   -0.61634E-04   556   0.286E-02    0.145E-01
RMM:  46    -0.174866375199E+03   -0.11327E-02   -0.25644E-04   435   0.203E-02    0.683E-02
RMM:  47    -0.174867756965E+03   -0.13818E-02   -0.16867E-04   417   0.161E-02    0.998E-02
RMM:  48    -0.174868908902E+03   -0.11519E-02   -0.13225E-04   412   0.141E-02    0.441E-02
RMM:  49    -0.174869452991E+03   -0.54409E-03   -0.67113E-05   407   0.993E-03    0.479E-02
RMM:  50    -0.174870615395E+03   -0.11624E-02   -0.62005E-05   407   0.937E-03    0.467E-02
RMM:  51    -0.174870969853E+03   -0.35446E-03   -0.31557E-05   389   0.699E-03    0.264E-02
RMM:  52    -0.174871748137E+03   -0.77828E-03   -0.28611E-05   384   0.657E-03    0.319E-02
RMM:  53    -0.174872303532E+03   -0.55540E-03   -0.20441E-05   314   0.553E-03    0.154E-02
RMM:  54    -0.174872682503E+03   -0.37897E-03   -0.12580E-05   274   0.463E-03    0.190E-02
RMM:  55    -0.174873161884E+03   -0.47938E-03   -0.15759E-05   270   0.465E-03    0.141E-02
RMM:  56    -0.174873229584E+03   -0.67699E-04   -0.14497E-06   112   0.348E-03
   1 F= -.17487323E+03 E0= -.17486372E+03  d E =-.380239E-01
