 vasp.5.4.4.18Apr17-6-g9f103f2a35 (build Sep 03 2018 23:53:05) complex          
  
 executed on             LinuxIFC date 2021.11.26  16:01:57
 running on    1 total cores
 distrk:  each k-point on    1 cores,    1 groups
 distr:  one band on NCORES_PER_BAND=   1 cores,    1 groups


--------------------------------------------------------------------------------------------------------


 INCAR:
 POTCAR:    PAW_PBE Pd 04Jan2005                  
 POTCAR:    PAW_PBE C 08Apr2002                   
 POTCAR:    PAW_PBE O 08Apr2002                   
 POTCAR:    PAW_PBE Pd 04Jan2005                  
   VRHFIN =Pd : s1 d9                                                           
   LEXCH  = PE                                                                  
   EATOM  =   809.7530 eV,   59.5152 Ry                                         
                                                                                
   TITEL  = PAW_PBE Pd 04Jan2005                                                
   LULTRA =        F    use ultrasoft PP ?                                      
   IUNSCR =        1    unscreen: 0-lin 1-nonlin 2-no                           
   RPACOR =    2.000    partial core radius                                     
   POMASS =  106.420; ZVAL   =   10.000    mass and valenz                      
   RCORE  =    2.600    outmost cutoff radius                                   
   RWIGS  =    2.710; RWIGS  =    1.434    wigner-seitz radius (au A)           
   ENMAX  =  250.925; ENMIN  =  188.194 eV                                      
   ICORE  =        3    local potential                                         
   LCOR   =        T    correct aug charges                                     
   LPAW   =        T    paw PP                                                  
   EAUG   =  416.230                                                            
   DEXC   =    0.000                                                            
   RMAX   =    2.653    core radius for proj-oper                               
   RAUG   =    1.300    factor for augmentation sphere                          
   RDEP   =    2.734    radius for radial grids                                 
   RDEPT  =    2.103    core radius for aug-charge                              
                                                                                
   Atomic configuration                                                         
   12 entries                                                                   
     n  l   j            E        occ.                                          
     1  0  0.50    -24164.6631   2.0000                                         
     2  0  0.50     -3530.9218   2.0000                                         
     2  1  1.50     -3165.6822   6.0000                                         
     3  0  0.50      -639.4577   2.0000                                         
     3  1  1.50      -519.4532   6.0000                                         
     3  2  2.50      -328.9757  10.0000                                         
     4  0  0.50       -88.7014   2.0000                                         
     4  1  1.50       -54.4540   6.0000                                         
     4  2  2.50        -6.6878   9.0000                                         
     5  0  0.50        -4.3543   1.0000                                         
     5  1  0.50        -1.3606   0.0000                                         
     4  3  2.50        -1.3606   0.0000                                         
   Description                                                                  
     l       E           TYP  RCUT    TYP  RCUT                                 
     2     -6.6878251     23  2.400                                             
     2     -8.0484077     23  2.400                                             
     0     -4.3542939     23  2.400                                             
     0      4.3406793     23  2.400                                             
     1     -4.0817478     23  2.600                                             
     1     15.8380318     23  2.600                                             
     3     -4.0817478     23  2.400                                             
  local pseudopotential read in
  partial core-charges read in
  partial kinetic energy density read in
  atomic valenz-charges read in
  non local Contribution for L=           2  read in
    real space projection operators read in
  non local Contribution for L=           2  read in
    real space projection operators read in
  non local Contribution for L=           0  read in
    real space projection operators read in
  non local Contribution for L=           0  read in
    real space projection operators read in
  non local Contribution for L=           1  read in
    real space projection operators read in
  non local Contribution for L=           1  read in
    real space projection operators read in
    PAW grid and wavefunctions read in
 
   number of l-projection  operators is LMAX  =           6
   number of lm-projection operators is LMMAX =          18
 
 POTCAR:    PAW_PBE C 08Apr2002                   
   VRHFIN =C: s2p2                                                              
   LEXCH  = PE                                                                  
   EATOM  =   147.1560 eV,   10.8157 Ry                                         
                                                                                
   TITEL  = PAW_PBE C 08Apr2002                                                 
   LULTRA =        F    use ultrasoft PP ?                                      
   IUNSCR =        1    unscreen: 0-lin 1-nonlin 2-no                           
   RPACOR =    1.200    partial core radius                                     
   POMASS =   12.011; ZVAL   =    4.000    mass and valenz                      
   RCORE  =    1.500    outmost cutoff radius                                   
   RWIGS  =    1.630; RWIGS  =    0.863    wigner-seitz radius (au A)           
   ENMAX  =  400.000; ENMIN  =  300.000 eV                                      
   ICORE  =        2    local potential                                         
   LCOR   =        T    correct aug charges                                     
   LPAW   =        T    paw PP                                                  
   EAUG   =  644.873                                                            
   DEXC   =    0.000                                                            
   RMAX   =    1.529    core radius for proj-oper                               
   RAUG   =    1.300    factor for augmentation sphere                          
   RDEP   =    1.501    radius for radial grids                                 
   RDEPT  =    1.300    core radius for aug-charge                              
                                                                                
   Atomic configuration                                                         
    4 entries                                                                   
     n  l   j            E        occ.                                          
     1  0  0.50      -273.3789   2.0000                                         
     2  0  0.50       -13.7508   2.0000                                         
     2  1  0.50        -5.2854   2.0000                                         
     3  2  1.50        -5.4423   0.0000                                         
   Description                                                                  
     l       E           TYP  RCUT    TYP  RCUT                                 
     0    -13.7508458     23  1.200                                             
     0     -8.2022199     23  1.200                                             
     1     -5.2854383     23  1.500                                             
     1     34.0145650     23  1.500                                             
     2     -5.4423304      7  1.500                                             
  local pseudopotential read in
  partial core-charges read in
  partial kinetic energy density read in
  atomic valenz-charges read in
  non local Contribution for L=           0  read in
    real space projection operators read in
  non local Contribution for L=           0  read in
    real space projection operators read in
  non local Contribution for L=           1  read in
    real space projection operators read in
  non local Contribution for L=           1  read in
    real space projection operators read in
    PAW grid and wavefunctions read in
 
   number of l-projection  operators is LMAX  =           4
   number of lm-projection operators is LMMAX =           8
 
 POTCAR:    PAW_PBE O 08Apr2002                   
   VRHFIN =O: s2p4                                                              
   LEXCH  = PE                                                                  
   EATOM  =   432.3788 eV,   31.7789 Ry                                         
                                                                                
   TITEL  = PAW_PBE O 08Apr2002                                                 
   LULTRA =        F    use ultrasoft PP ?                                      
   IUNSCR =        1    unscreen: 0-lin 1-nonlin 2-no                           
   RPACOR =    1.200    partial core radius                                     
   POMASS =   16.000; ZVAL   =    6.000    mass and valenz                      
   RCORE  =    1.520    outmost cutoff radius                                   
   RWIGS  =    1.550; RWIGS  =    0.820    wigner-seitz radius (au A)           
   ENMAX  =  400.000; ENMIN  =  300.000 eV                                      
   ICORE  =        2    local potential                                         
   LCOR   =        T    correct aug charges                                     
   LPAW   =        T    paw PP                                                  
   EAUG   =  605.392                                                            
   DEXC   =    0.000                                                            
   RMAX   =    1.553    core radius for proj-oper                               
   RAUG   =    1.300    factor for augmentation sphere                          
   RDEP   =    1.550    radius for radial grids                                 
   RDEPT  =    1.329    core radius for aug-charge                              
                                                                                
   Atomic configuration                                                         
    4 entries                                                                   
     n  l   j            E        occ.                                          
     1  0  0.50      -514.6923   2.0000                                         
     2  0  0.50       -23.9615   2.0000                                         
     2  1  0.50        -9.0305   4.0000                                         
     3  2  1.50        -9.5241   0.0000                                         
   Description                                                                  
     l       E           TYP  RCUT    TYP  RCUT                                 
     0    -23.9615318     23  1.200                                             
     0     -9.5240782     23  1.200                                             
     1     -9.0304911     23  1.520                                             
     1      8.1634956     23  1.520                                             
     2     -9.5240782      7  1.500                                             
  local pseudopotential read in
  partial core-charges read in
  partial kinetic energy density read in
  kinetic energy density of atom read in
  atomic valenz-charges read in
  non local Contribution for L=           0  read in
    real space projection operators read in
  non local Contribution for L=           0  read in
    real space projection operators read in
  non local Contribution for L=           1  read in
    real space projection operators read in
  non local Contribution for L=           1  read in
    real space projection operators read in
    PAW grid and wavefunctions read in
 
   number of l-projection  operators is LMAX  =           4
   number of lm-projection operators is LMMAX =           8
 
 Optimization of the real space projectors (new method)

 maximal supplied QI-value         = 14.36
 optimisation between [QCUT,QGAM] = [ 10.20, 20.39] = [ 29.12,116.47] Ry 
 Optimized for a Real-space Cutoff    1.51 Angstroem

   l    n(q)    QCUT    max X(q) W(low)/X(q) W(high)/X(q)  e(spline) 
   2      8    10.197    59.108    0.26E-03    0.14E-03    0.96E-07
   2      8    10.197    58.101    0.27E-03    0.14E-03    0.98E-07
   0      9    10.197   102.235    0.54E-04    0.60E-05    0.72E-07
   0      9    10.197    58.388    0.52E-04    0.60E-05    0.68E-07
   1      9    10.197    22.191    0.18E-03    0.25E-03    0.79E-07
   1      9    10.197    15.590    0.15E-03    0.21E-03    0.69E-07
 Optimization of the real space projectors (new method)

 maximal supplied QI-value         = 25.13
 optimisation between [QCUT,QGAM] = [ 10.05, 20.36] = [ 28.30,116.06] Ry 
 Optimized for a Real-space Cutoff    1.30 Angstroem

   l    n(q)    QCUT    max X(q) W(low)/X(q) W(high)/X(q)  e(spline) 
   0      8    10.053   115.676    0.49E-03    0.72E-03    0.18E-06
   0      8    10.053    87.132    0.49E-03    0.71E-03    0.18E-06
   1      7    10.053     4.429    0.32E-03    0.31E-03    0.18E-06
   1      7    10.053     2.733    0.23E-03    0.19E-03    0.20E-06
 Optimization of the real space projectors (new method)

 maximal supplied QI-value         = 24.76
 optimisation between [QCUT,QGAM] = [ 10.15, 20.30] = [ 28.85,115.39] Ry 
 Optimized for a Real-space Cutoff    1.38 Angstroem

   l    n(q)    QCUT    max X(q) W(low)/X(q) W(high)/X(q)  e(spline) 
   0      8    10.150    20.381    0.22E-03    0.32E-03    0.29E-06
   0      8    10.150    15.268    0.23E-03    0.35E-03    0.30E-06
   1      8    10.150     5.964    0.46E-03    0.53E-03    0.21E-06
   1      8    10.150     5.382    0.38E-03    0.45E-03    0.19E-06

 ----------------------------------------------------------------------------- 
|                                                                             |
|  ADVICE TO THIS USER RUNNING 'VASP/VAMP'   (HEAR YOUR MASTER'S VOICE ...):  |
|                                                                             |
|      You enforced a specific xc-type in the INCAR file,                     |
|      a different type was found on the POTCAR file                          |
|          I HOPE YOU KNOW, WHAT YOU ARE  DOING                               |
|                                                                             |
 ----------------------------------------------------------------------------- 

  PAW_PBE Pd 04Jan2005                  :
 energy of atom  1       EATOM= -809.7530
 kinetic energy error for atom=    0.0091 (will be added to EATOM!!)
  PAW_PBE C 08Apr2002                   :
 energy of atom  2       EATOM= -147.1560
 kinetic energy error for atom=    0.0288 (will be added to EATOM!!)
  PAW_PBE O 08Apr2002                   :
 energy of atom  3       EATOM= -432.3788
 kinetic energy error for atom=    0.1156 (will be added to EATOM!!)
 
 
 POSCAR: Pd55PES                                 
  positions in cartesian coordinates
  No initial velocities read in
 exchange correlation table for  LEXCH =        9
   RHO(1)=    0.500       N(1)  =     2000
   RHO(2)=  100.500       N(2)  =     4000
 


--------------------------------------------------------------------------------------------------------


 ion  position               nearest neighbor table
   1  0.446  0.328  0.417-   3 3.25   5 3.25   7 3.36  15 3.36  29 3.42  28 3.42
   2  0.672  0.554  0.417-  26 3.25  30 3.25  17 3.36   9 3.36  47 3.42  49 3.42
   3  0.554  0.328  0.417-   1 3.25   5 3.25   7 3.36  11 3.36  29 3.42  21 3.42
   4  0.328  0.554  0.417-  32 3.25  22 3.25  13 3.36   8 3.36  43 3.42  48 3.42
   5  0.500  0.383  0.340-   1 3.25   3 3.25  11 3.36  15 3.36  21 3.42  28 3.42
   6  0.500  0.383  0.660-  24 3.25  19 3.25  16 3.36  12 3.36  42 3.42  44 3.42
   7  0.500  0.276  0.500-  29 3.24   3 3.36   1 3.36  19 3.36  24 3.36
   8  0.276  0.500  0.500-  48 3.24  22 3.36  40 3.36   4 3.36  25 3.36
   9  0.724  0.500  0.500-  49 3.24  26 3.36  45 3.36   2 3.36  20 3.36
  10  0.500  0.724  0.500-  55 3.24  27 3.36  23 3.36  46 3.36  41 3.36
  11  0.612  0.388  0.342-  21 3.24   5 3.36   3 3.36  30 3.36  26 3.36
  12  0.612  0.388  0.658-  42 3.24  24 3.36  45 3.36   6 3.36  31 3.36
  13  0.388  0.612  0.342-  43 3.24  32 3.36  50 3.36   4 3.36  27 3.36
  14  0.388  0.612  0.658-  53 3.24  25 3.36  33 3.36  51 3.36  46 3.36
  15  0.388  0.388  0.342-  28 3.24   5 3.36   1 3.36  32 3.36  22 3.36
  16  0.388  0.388  0.658-  44 3.24  19 3.36  40 3.36   6 3.36  33 3.36
  17  0.612  0.612  0.342-  47 3.24  30 3.36  50 3.36   2 3.36  23 3.36
  18  0.612  0.612  0.658-  54 3.24  31 3.36  20 3.36  51 3.36  41 3.36
  19  0.446  0.328  0.583-   6 3.25  24 3.25  16 3.36   7 3.36  44 3.42  29 3.42
  20  0.672  0.554  0.583-  31 3.25  45 3.25  18 3.36   9 3.36  54 3.42  49 3.42
  21  0.558  0.442  0.418-  11 3.24   5 3.42   3 3.42  30 3.42  26 3.42
  22  0.328  0.446  0.417-   4 3.25  32 3.25   8 3.36  15 3.36  48 3.42  28 3.42
  23  0.554  0.672  0.417-  27 3.25  50 3.25  10 3.36  17 3.36  55 3.42  47 3.42
  24  0.554  0.328  0.583-   6 3.25  19 3.25  12 3.36   7 3.36  42 3.42  29 3.42
  25  0.328  0.554  0.583-  33 3.25  40 3.25  14 3.36   8 3.36  53 3.42  48 3.42
  26  0.672  0.446  0.417-   2 3.25  30 3.25   9 3.36  11 3.36  49 3.42  21 3.42
  27  0.446  0.672  0.417-  23 3.25  50 3.25  10 3.36  13 3.36  55 3.42  43 3.42
  28  0.442  0.442  0.418-  15 3.24   5 3.42   1 3.42  32 3.42  22 3.42
  29  0.500  0.384  0.500-   7 3.24   3 3.42   1 3.42  24 3.42  19 3.42
  30  0.617  0.500  0.340-   2 3.25  26 3.25  17 3.36  11 3.36  47 3.42  21 3.42
  31  0.617  0.500  0.660-  20 3.25  45 3.25  18 3.36  12 3.36  54 3.42  42 3.42
  32  0.383  0.500  0.340-   4 3.25  22 3.25  13 3.36  15 3.36  43 3.42  28 3.42
  33  0.383  0.500  0.660-  25 3.25  40 3.25  14 3.36  16 3.36  53 3.42  44 3.42
  34  0.383  0.383  0.500-
  35  0.617  0.617  0.500-
  36  0.617  0.383  0.500-
  37  0.383  0.617  0.500-  56 1.98
  38  0.500  0.500  0.335-
  39  0.500  0.500  0.665-
  40  0.328  0.446  0.583-  33 3.25  25 3.25  16 3.36   8 3.36  44 3.42  48 3.42
  41  0.554  0.672  0.583-  46 3.25  51 3.25  10 3.36  18 3.36  54 3.42  55 3.42
  42  0.558  0.442  0.582-  12 3.24   6 3.42  24 3.42  31 3.42  45 3.42
  43  0.442  0.558  0.418-  13 3.24   4 3.42  32 3.42  27 3.42  50 3.42
  44  0.442  0.442  0.582-  16 3.24   6 3.42  19 3.42  33 3.42  40 3.42
  45  0.672  0.446  0.583-  20 3.25  31 3.25   9 3.36  12 3.36  49 3.42  42 3.42
  46  0.446  0.672  0.583-  41 3.25  51 3.25  10 3.36  14 3.36  53 3.42  55 3.42
  47  0.558  0.558  0.418-  17 3.24   2 3.42  30 3.42  23 3.42  50 3.42
  48  0.384  0.500  0.500-   8 3.24   4 3.42  22 3.42  25 3.42  40 3.42
  49  0.616  0.500  0.500-   9 3.24   2 3.42  26 3.42  20 3.42  45 3.42
  50  0.500  0.617  0.340-  27 3.25  23 3.25  13 3.36  17 3.36  43 3.42  47 3.42
  51  0.500  0.617  0.660-  41 3.25  46 3.25  14 3.36  18 3.36  53 3.42  54 3.42
  52  0.500  0.500  0.500-
  53  0.442  0.558  0.582-  14 3.24  25 3.42  33 3.42  51 3.42  46 3.42
  54  0.558  0.558  0.582-  18 3.24  31 3.42  20 3.42  51 3.42  41 3.42
  55  0.500  0.616  0.500-  10 3.24  23 3.42  27 3.42  41 3.42  46 3.42
  56  0.348  0.673  0.503-  57 1.13  37 1.98
  57  0.323  0.701  0.503-  56 1.13
 
  LATTYP: Found a simple cubic cell.
 ALAT       =    30.0000000000
  
  Lattice vectors:
  
 A1 = (  30.0000000000,   0.0000000000,   0.0000000000)
 A2 = (   0.0000000000,  30.0000000000,   0.0000000000)
 A3 = (   0.0000000000,   0.0000000000,  30.0000000000)


Analysis of symmetry for initial positions (statically):
=====================================================================
 Subroutine PRICEL returns:
 Original cell was already a primitive cell.
 

 Routine SETGRP: Setting up the symmetry group for a 
 simple cubic supercell.


 Subroutine GETGRP returns: Found  1 space group operations
 (whereof  1 operations were pure point group operations)
 out of a pool of 48 trial point group operations.


The static configuration has the point symmetry C_1 .


Analysis of symmetry for dynamics (positions and initial velocities):
=====================================================================
 Subroutine PRICEL returns:
 Original cell was already a primitive cell.
 

 Routine SETGRP: Setting up the symmetry group for a 
 simple cubic supercell.


 Subroutine GETGRP returns: Found  1 space group operations
 (whereof  1 operations were pure point group operations)
 out of a pool of 48 trial point group operations.


The dynamic configuration has the point symmetry C_1 .


Analysis of constrained symmetry for selective dynamics:
=====================================================================
 Subroutine PRICEL returns:
 Original cell was already a primitive cell.
 

 Routine SETGRP: Setting up the symmetry group for a 
 simple cubic supercell.


 Subroutine GETGRP returns: Found  1 space group operations
 (whereof  1 operations were pure point group operations)
 out of a pool of 48 trial point group operations.


The constrained configuration has the point symmetry C_1 .


 Subroutine INISYM returns: Found  1 space group operations
 (whereof  1 operations are pure point group operations),
 and found     1 'primitive' translations

 
 
 KPOINTS: K-points                                

Automatic generation of k-mesh.
Space group operators:
 irot       det(A)        alpha          n_x          n_y          n_z        tau_x        tau_y        tau_z
    1     1.000000     0.000000     1.000000     0.000000     0.000000     0.000000     0.000000     0.000000
 
 Subroutine IBZKPT returns following result:
 ===========================================
 
 Found      1 irreducible k-points:
 
 Following reciprocal coordinates:
            Coordinates               Weight
  0.000000  0.000000  0.000000      1.000000
 
 Following cartesian coordinates:
            Coordinates               Weight
  0.000000  0.000000  0.000000      1.000000
 


--------------------------------------------------------------------------------------------------------




 Dimension of arrays:
   k-points           NKPTS =      1   k-points in BZ     NKDIM =      1   number of bands    NBANDS=    336
   number of dos      NEDOS =    301   number of ions     NIONS =     57
   non local maximal  LDIM  =      6   non local SUM 2l+1 LMDIM =     18
   total plane-waves  NPLWV = ******
   max r-space proj   IRMAX =   1847   max aug-charges    IRDMAX=   6262
   dimension x,y,z NGX =   150 NGY =  150 NGZ =  150
   dimension x,y,z NGXF=   300 NGYF=  300 NGZF=  300
   support grid    NGXF=   300 NGYF=  300 NGZF=  300
   ions per type =              55   1   1
   NGX,Y,Z   is equivalent  to a cutoff of   8.31,  8.31,  8.31 a.u.
   NGXF,Y,Z  is equivalent  to a cutoff of  16.62, 16.62, 16.62 a.u.

 SYSTEM =  6_Pd100_top_free_z(O)                   
 POSCAR =  Pd55PES                                 

 Startparameter for this run:
   NWRITE =      2    write-flag & timer
   PREC   = normal    normal or accurate (medium, high low for compatibility)
   ISTART =      0    job   : 0-new  1-cont  2-samecut
   ICHARG =      2    charge: 1-file 2-atom 10-const
   ISPIN  =      1    spin polarized calculation?
   LNONCOLLINEAR =      F non collinear calculations
   LSORBIT =      F    spin-orbit coupling
   INIWAV =      1    electr: 0-lowe 1-rand  2-diag
   LASPH  =      F    aspherical Exc in radial PAW
   METAGGA=      F    non-selfconsistent MetaGGA calc.

 Electronic Relaxation 1
   ENCUT  =  400.0 eV  29.40 Ry    5.42 a.u.  48.92 48.92 48.92*2*pi/ulx,y,z
   ENINI  =  400.0     initial cutoff
   ENAUG  =  644.9 eV  augmentation charge cutoff
   NELM   =    100;   NELMIN=  6; NELMDL= -5     # of ELM steps 
   EDIFF  = 0.1E-03   stopping-criterion for ELM
   LREAL  =      T    real-space projection
   NLSPLINE    = F    spline interpolate recip. space projectors
   LCOMPAT=      F    compatible to vasp.4.4
   GGA_COMPAT  = T    GGA compatible to vasp.4.4-vasp.4.6
   LMAXPAW     = -100 max onsite density
   LMAXMIX     =    2 max onsite mixed and CHGCAR
   VOSKOWN=      0    Vosko Wilk Nusair interpolation
   ROPT   =   -0.00050  -0.00050  -0.00050
 Ionic relaxation
   EDIFFG = -.5E-01   stopping-criterion for IOM
   NSW    =      0    number of steps for IOM
   NBLOCK =      1;   KBLOCK =      1    inner block; outer block 
   IBRION =     -1    ionic relax: 0-MD 1-quasi-New 2-CG
   NFREE  =      1    steps in history (QN), initial steepest desc. (CG)
   ISIF   =      2    stress and relaxation
   IWAVPR =     10    prediction:  0-non 1-charg 2-wave 3-comb
   ISYM   =      2    0-nonsym 1-usesym 2-fastsym
   LCORR  =      T    Harris-Foulkes like correction to forces

   POTIM  = 0.5000    time-step for ionic-motion
   TEIN   =    0.0    initial temperature
   TEBEG  =    0.0;   TEEND  =   0.0 temperature during run
   SMASS  =  -3.00    Nose mass-parameter (am)
   estimated Nose-frequenzy (Omega)   =  0.10E-29 period in steps =****** mass=  -0.206E-25a.u.
   SCALEE = 1.0000    scale energy and forces
   NPACO  =    256;   APACO  = 16.0  distance and # of slots for P.C.
   PSTRESS=    0.0 pullay stress

  Mass of Ions in am
   POMASS = 106.42 12.01 16.00
  Ionic Valenz
   ZVAL   =  10.00  4.00  6.00
  Atomic Wigner-Seitz radii
   RWIGS  =  -1.00 -1.00 -1.00
  virtual crystal weights 
   VCA    =   1.00  1.00  1.00
   NELECT =     560.0000    total number of electrons
   NUPDOWN=      -1.0000    fix difference up-down

 DOS related values:
   EMIN   =  10.00;   EMAX   =-10.00  energy-range for DOS
   EFERMI =   0.00
   ISMEAR =     2;   SIGMA  =   0.20  broadening in eV -4-tet -1-fermi 0-gaus

 Electronic relaxation 2 (details)
   IALGO  =     68    algorithm
   LDIAG  =      T    sub-space diagonalisation (order eigenvalues)
   LSUBROT=      F    optimize rotation matrix (better conditioning)
   TURBO    =      0    0=normal 1=particle mesh
   IRESTART =      0    0=no restart 2=restart with 2 vectors
   NREBOOT  =      0    no. of reboots
   NMIN     =      0    reboot dimension
   EREF     =   0.00    reference energy to select bands
   IMIX   =      4    mixing-type and parameters
     AMIX     =   0.40;   BMIX     =  1.00
     AMIX_MAG =   1.60;   BMIX_MAG =  1.00
     AMIN     =   0.10
     WC   =   100.;   INIMIX=   1;  MIXPRE=   1;  MAXMIX= -45

 Intra band minimization:
   WEIMIN = 0.0000     energy-eigenvalue tresh-hold
   EBREAK =  0.74E-07  absolut break condition
   DEPER  =   0.30     relativ break condition  

   TIME   =   0.40     timestep for ELM

  volume/ion in A,a.u.               =     473.68      3196.58
  Fermi-wavevector in a.u.,A,eV,Ry     =   0.449797  0.849992  2.752691  0.202317
  Thomas-Fermi vector in A             =   1.430086
 
 Write flags
   LWAVE        =      F    write WAVECAR
   LDOWNSAMPLE  =      F    k-point downsampling of WAVECAR
   LCHARG       =      F    write CHGCAR
   LVTOT        =      F    write LOCPOT, total local potential
   LVHAR        =      F    write LOCPOT, Hartree potential only
   LELF         =      F    write electronic localiz. function (ELF)
   LORBIT       =      0    0 simple, 1 ext, 2 COOP (PROOUT), +10 PAW based schemes


 Dipole corrections
   LMONO  =      F    monopole corrections only (constant potential shift)
   LDIPOL =      F    correct potential (dipole corrections)
   IDIPOL =      0    1-x, 2-y, 3-z, 4-all directions 
   EPSILON=  1.0000000 bulk dielectric constant

 Exchange correlation treatment:
   GGA     =    RP    GGA type
   LEXCH   =     9    internal setting for exchange type
   VOSKOWN=      0    Vosko Wilk Nusair interpolation
   LHFCALC =     F    Hartree Fock is set to
   LHFONE  =     F    Hartree Fock one center treatment
   AEXX    =    0.0000 exact exchange contribution

 Linear response parameters
   LEPSILON=     F    determine dielectric tensor
   LRPA    =     F    only Hartree local field effects (RPA)
   LNABLA  =     F    use nabla operator in PAW spheres
   LVEL    =     F    velocity operator in full k-point grid
   LINTERFAST=   F  fast interpolation
   KINTER  =     0    interpolate to denser k-point grid
   CSHIFT  =0.1000    complex shift for real part using Kramers Kronig
   OMEGAMAX=  -1.0    maximum frequency
   DEG_THRESHOLD= 0.2000000E-02 threshold for treating states as degnerate
   RTIME   =   -0.100 relaxation time in fs
  (WPLASMAI=    0.000 imaginary part of plasma frequency in eV, 0.658/RTIME)
   DFIELD  = 0.0000000 0.0000000 0.0000000 field for delta impulse in time
 
 Orbital magnetization related:
   ORBITALMAG=     F  switch on orbital magnetization
   LCHIMAG   =     F  perturbation theory with respect to B field
   DQ        =  0.001000  dq finite difference perturbation B field
   LLRAUG    =     F  two centre corrections for induced B field



--------------------------------------------------------------------------------------------------------


 Static calculation
 charge density and potential will be updated during run
 non-spin polarized calculation
 RMM-DIIS sequential band-by-band and
  variant of blocked Davidson during initial phase
 perform sub-space diagonalisation
    before iterative eigenvector-optimisation
 modified Broyden-mixing scheme, WC =      100.0
 initial mixing is a Kerker type mixing with AMIX =  0.4000 and BMIX =      1.0000
 Hartree-type preconditioning will be used
 using additional bands           56
 real space projection scheme for non local part
 use partial core corrections
 calculate Harris-corrections to forces 
   (improved forces if not selfconsistent)
 use gradient corrections 
 use of overlap-Matrix (Vanderbilt PP)
 Methfessel and Paxton  Order N= 2 SIGMA  =   0.20


--------------------------------------------------------------------------------------------------------


  energy-cutoff  :      400.00
  volume of cell :    27000.00
      direct lattice vectors                 reciprocal lattice vectors
    30.000000000  0.000000000  0.000000000     0.033333333  0.000000000  0.000000000
     0.000000000 30.000000000  0.000000000     0.000000000  0.033333333  0.000000000
     0.000000000  0.000000000 30.000000000     0.000000000  0.000000000  0.033333333

  length of vectors
    30.000000000 30.000000000 30.000000000     0.033333333  0.033333333  0.033333333


 
 k-points in units of 2pi/SCALE and weight: K-points                                
   0.00000000  0.00000000  0.00000000       1.000
 
 k-points in reciprocal lattice and weights: K-points                                
   0.00000000  0.00000000  0.00000000       1.000
 
 position of ions in fractional coordinates (direct lattice) 
   0.44576020  0.32826710  0.41691983
   0.67173288  0.55423978  0.41691983
   0.55423980  0.32826710  0.41691983
   0.32826712  0.55423978  0.41691983
   0.50000000  0.38250690  0.34021317
   0.50000000  0.38250690  0.65978680
   0.50000000  0.27609440  0.50000000
   0.27609443  0.49999998  0.50000000
   0.72390557  0.49999998  0.50000000
   0.50000000  0.72390555  0.50000000
   0.61195280  0.38804720  0.34167483
   0.61195280  0.38804720  0.65832513
   0.38804722  0.61195278  0.34167483
   0.38804722  0.61195278  0.65832513
   0.38804720  0.38804720  0.34167483
   0.38804720  0.38804720  0.65832513
   0.61195278  0.61195278  0.34167483
   0.61195278  0.61195278  0.65832513
   0.44576020  0.32826710  0.58308023
   0.67173288  0.55423978  0.58308023
   0.55791699  0.44208301  0.41809300
   0.32826705  0.44576024  0.41691983
   0.55423973  0.67173293  0.41691983
   0.55423980  0.32826710  0.58308023
   0.32826712  0.55423978  0.58308023
   0.67173295  0.44576024  0.41691983
   0.44576027  0.67173293  0.41691983
   0.44208301  0.44208301  0.41809300
   0.50000000  0.38416601  0.50000000
   0.61749315  0.50000005  0.34021317
   0.61749315  0.50000005  0.65978680
   0.38250685  0.50000005  0.34021317
   0.38250685  0.50000005  0.65978680
   0.38317830  0.38317830  0.50000000
   0.61682172  0.61682172  0.50000000
   0.61682170  0.38317830  0.50000000
   0.38317828  0.61682172  0.50000000
   0.50000000  0.50000000  0.33478917
   0.50000000  0.50000000  0.66521087
   0.32826705  0.44576024  0.58308023
   0.55423973  0.67173293  0.58308023
   0.55791699  0.44208301  0.58190703
   0.44208298  0.55791702  0.41809300
   0.44208301  0.44208301  0.58190703
   0.67173295  0.44576024  0.58308023
   0.44576027  0.67173293  0.58308023
   0.55791702  0.55791702  0.41809300
   0.38416599  0.50000002  0.50000000
   0.61583401  0.50000002  0.50000000
   0.50000000  0.61749319  0.34021317
   0.50000000  0.61749319  0.65978680
   0.50000000  0.50000000  0.50000000
   0.44208298  0.55791702  0.58190703
   0.55791702  0.55791702  0.58190703
   0.50000000  0.61583404  0.50000000
   0.34796633  0.67264103  0.50291240
   0.32311863  0.70085673  0.50338840
 
 position of ions in cartesian coordinates  (Angst):
  13.37280588  9.84801292 12.50759500
  20.15198637 16.62719342 12.50759500
  16.62719412  9.84801292 12.50759500
   9.84801363 16.62719342 12.50759500
  15.00000000 11.47520705 10.20639500
  15.00000000 11.47520705 19.79360400
  15.00000000  8.28283206 15.00000000
   8.28283277 14.99999929 15.00000000
  21.71716723 14.99999929 15.00000000
  15.00000000 21.71716652 14.99999999
  18.35858397 11.64141603 10.25024500
  18.35858397 11.64141603 19.74975399
  11.64141674 18.35858326 10.25024500
  11.64141674 18.35858326 19.74975400
  11.64141603 11.64141603 10.25024500
  11.64141603 11.64141603 19.74975400
  18.35858326 18.35858326 10.25024500
  18.35858326 18.35858326 19.74975400
  13.37280588  9.84801291 17.49240700
  20.15198638 16.62719341 17.49240700
  16.73750985 13.26249015 12.54279000
   9.84801151 13.37280729 12.50759500
  16.62719200 20.15198779 12.50759500
  16.62719412  9.84801292 17.49240700
   9.84801363 16.62719342 17.49240700
  20.15198849 13.37280729 12.50759500
  13.37280800 20.15198779 12.50759500
  13.26249015 13.26249015 12.54279000
  15.00000000 11.52498029 15.00000000
  18.52479437 15.00000140 10.20639500
  18.52479437 15.00000141 19.79360400
  11.47520562 15.00000141 10.20639501
  11.47520563 15.00000141 19.79360400
  11.49534898 11.49534898 15.00000000
  18.50465172 18.50465172 15.00000000
  18.50465102 11.49534898 15.00000000
  11.49534828 18.50465172 15.00000000
  15.00000000 15.00000000 10.04367500
  15.00000000 15.00000000 19.95632599
   9.84801151 13.37280729 17.49240700
  16.62719200 20.15198779 17.49240700
  16.73750985 13.26249015 17.45721100
  13.26248944 16.73751056 12.54279001
  13.26249015 13.26249015 17.45721100
  20.15198849 13.37280729 17.49240699
  13.37280800 20.15198779 17.49240700
  16.73751056 16.73751056 12.54279000
  11.52497959 15.00000071 15.00000000
  18.47502041 15.00000071 15.00000000
  14.99999999 18.52479579 10.20639500
  15.00000000 18.52479578 19.79360400
  15.00000000 15.00000000 15.00000000
  13.26248944 16.73751057 17.45721101
  16.73751056 16.73751057 17.45721100
  15.00000000 18.47502112 15.00000000
  10.43899000 20.17923100 15.08737200
   9.69355900 21.02570200 15.10165200
 


--------------------------------------------------------------------------------------------------------


 k-point  1 :   0.0000 0.0000 0.0000  plane waves:  490521

 maximum and minimum number of plane-waves per node :    490521   490521

 maximum number of plane-waves:    490521
 maximum index in each direction: 
   IXMAX=   48   IYMAX=   48   IZMAX=   48
   IXMIN=  -48   IYMIN=  -48   IZMIN=  -48


 serial   3D FFT for wavefunctions
 parallel 3D FFT for charge:
    minimum data exchange during FFTs selected (reduces bandwidth)


 total amount of memory used by VASP MPI-rank0  5486942. kBytes
=======================================================================

   base      :      30000. kBytes
   nonlr-proj:      17127. kBytes
   fftplans  :     924480. kBytes
   grid      :    1872000. kBytes
   one-center:        886. kBytes
   wavefun   :    2642449. kBytes
 
     INWAV:  cpu time    0.0001: real time    0.0006
 Broyden mixing: mesh for mixing (old mesh)
   NGX = 97   NGY = 97   NGZ = 97
  (NGX  =300   NGY  =300   NGZ  =300)
  gives a total of 912673 points

 initial charge density was supplied:
 charge density of overlapping atoms calculated
 number of electron     560.0000000 magnetization 
 keeping initial charge density in first step


--------------------------------------------------------------------------------------------------------


 Maximum index for non-local projection operator         1763
 Maximum index for augmentation-charges         5898 (set IRDMAX)


--------------------------------------------------------------------------------------------------------


 First call to EWALD:  gamma=   0.059
 Maximum number of real-space cells 3x 3x 3
 Maximum number of reciprocal cells 3x 3x 3

    FEWALD:  cpu time    0.0208: real time    0.0208


--------------------------------------- Iteration      1(   1)  ---------------------------------------


    POTLOK:  cpu time   19.0264: real time   19.0306
    SETDIJ:  cpu time    0.1724: real time    0.1724
     EDDAV:  cpu time  560.4455: real time  560.5472
       DOS:  cpu time    0.0017: real time    0.0017
    --------------------------------------------
      LOOP:  cpu time  579.6460: real time  579.7519

 eigenvalue-minimisations  :   688
 total energy-change (2. order) : 0.4386208E+04  (-0.1005220E+05)
 number of electron     560.0000000 magnetization 
 augmentation part      560.0000000 magnetization 

 Free energy of the ion-electron system (eV)
  ---------------------------------------------------
  alpha Z        PSCENC =        75.25431677
  Ewald energy   TEWEN  =    138536.01407269
  -Hartree energ DENC   =   -181897.79574174
  -exchange      EXHF   =         0.00000000
  -V(xc)+E(xc)   XCENC  =     -1703.21837339
  PAW double counting   =     44873.02882129   -41398.84523641
  entropy T*S    EENTRO =        -0.00411708
  eigenvalues    EBANDS =       815.26923620
  atomic energy  EATOM  =     45086.50549395
  Solvation  Ediel_sol  =         0.00000000
  ---------------------------------------------------
  free energy    TOTEN  =      4386.20847228 eV

  energy without entropy =     4386.21258936  energy(sigma->0) =     4386.20950155


--------------------------------------------------------------------------------------------------------




--------------------------------------- Iteration      1(   2)  ---------------------------------------


     EDDAV:  cpu time  905.0426: real time  905.0566
       DOS:  cpu time    0.0017: real time    0.0017
    --------------------------------------------
      LOOP:  cpu time  905.0443: real time  905.0583

 eigenvalue-minimisations  :  1224
 total energy-change (2. order) :-0.2376954E+04  (-0.2137232E+04)
 number of electron     560.0000000 magnetization 
 augmentation part      560.0000000 magnetization 

 Free energy of the ion-electron system (eV)
  ---------------------------------------------------
  alpha Z        PSCENC =        75.25431677
  Ewald energy   TEWEN  =    138536.01407269
  -Hartree energ DENC   =   -181897.79574174
  -exchange      EXHF   =         0.00000000
  -V(xc)+E(xc)   XCENC  =     -1703.21837339
  PAW double counting   =     44873.02882129   -41398.84523641
  entropy T*S    EENTRO =         0.04308455
  eigenvalues    EBANDS =     -1561.73181072
  atomic energy  EATOM  =     45086.50549395
  Solvation  Ediel_sol  =         0.00000000
  ---------------------------------------------------
  free energy    TOTEN  =      2009.25462699 eV

  energy without entropy =     2009.21154243  energy(sigma->0) =     2009.24385585


--------------------------------------------------------------------------------------------------------




--------------------------------------- Iteration      1(   3)  ---------------------------------------


     EDDAV:  cpu time  772.1385: real time  772.1590
       DOS:  cpu time    0.0014: real time    0.0014
    --------------------------------------------
      LOOP:  cpu time  772.1399: real time  772.1605

 eigenvalue-minimisations  :  1008
 total energy-change (2. order) :-0.1780221E+04  (-0.1672675E+04)
 number of electron     560.0000000 magnetization 
 augmentation part      560.0000000 magnetization 

 Free energy of the ion-electron system (eV)
  ---------------------------------------------------
  alpha Z        PSCENC =        75.25431677
  Ewald energy   TEWEN  =    138536.01407269
  -Hartree energ DENC   =   -181897.79574174
  -exchange      EXHF   =         0.00000000
  -V(xc)+E(xc)   XCENC  =     -1703.21837339
  PAW double counting   =     44873.02882129   -41398.84523641
  entropy T*S    EENTRO =         0.01334873
  eigenvalues    EBANDS =     -3341.92277838
  atomic energy  EATOM  =     45086.50549395
  Solvation  Ediel_sol  =         0.00000000
  ---------------------------------------------------
  free energy    TOTEN  =       229.03392351 eV

  energy without entropy =      229.02057478  energy(sigma->0) =      229.03058633


--------------------------------------------------------------------------------------------------------




--------------------------------------- Iteration      1(   4)  ---------------------------------------


     EDDAV:  cpu time  655.1361: real time  655.1491
       DOS:  cpu time    0.0015: real time    0.0015
    --------------------------------------------
      LOOP:  cpu time  655.1376: real time  655.1506

 eigenvalue-minimisations  :   824
 total energy-change (2. order) :-0.3646704E+03  (-0.3072943E+03)
 number of electron     560.0000000 magnetization 
 augmentation part      560.0000000 magnetization 

 Free energy of the ion-electron system (eV)
  ---------------------------------------------------
  alpha Z        PSCENC =        75.25431677
  Ewald energy   TEWEN  =    138536.01407269
  -Hartree energ DENC   =   -181897.79574174
  -exchange      EXHF   =         0.00000000
  -V(xc)+E(xc)   XCENC  =     -1703.21837339
  PAW double counting   =     44873.02882129   -41398.84523641
  entropy T*S    EENTRO =         0.01516104
  eigenvalues    EBANDS =     -3706.59496813
  atomic energy  EATOM  =     45086.50549395
  Solvation  Ediel_sol  =         0.00000000
  ---------------------------------------------------
  free energy    TOTEN  =      -135.63645394 eV

  energy without entropy =     -135.65161498  energy(sigma->0) =     -135.64024420


--------------------------------------------------------------------------------------------------------




--------------------------------------- Iteration      1(   5)  ---------------------------------------


     EDDAV:  cpu time  798.8526: real time  798.8715
       DOS:  cpu time    0.0019: real time    0.0019
    CHARGE:  cpu time   38.8572: real time   38.8574
    MIXING:  cpu time    0.6702: real time    0.6702
    --------------------------------------------
      LOOP:  cpu time  838.3819: real time  838.4011

 eigenvalue-minimisations  :  1048
 total energy-change (2. order) :-0.4438809E+02  (-0.3628241E+02)
 number of electron     559.9999922 magnetization 
 augmentation part      245.0591467 magnetization 

 Broyden mixing:
  rms(total) = 0.15450E+01    rms(broyden)= 0.15442E+01
  rms(prec ) = 0.16513E+01
  weight for this iteration     100.00

 Free energy of the ion-electron system (eV)
  ---------------------------------------------------
  alpha Z        PSCENC =        75.25431677
  Ewald energy   TEWEN  =    138536.01407269
  -Hartree energ DENC   =   -181897.79574174
  -exchange      EXHF   =         0.00000000
  -V(xc)+E(xc)   XCENC  =     -1703.21837339
  PAW double counting   =     44873.02882129   -41398.84523641
  entropy T*S    EENTRO =         0.51372861
  eigenvalues    EBANDS =     -3751.48162074
  atomic energy  EATOM  =     45086.50549395
  Solvation  Ediel_sol  =         0.00000000
  ---------------------------------------------------
  free energy    TOTEN  =      -180.02453897 eV

  energy without entropy =     -180.53826758  energy(sigma->0) =     -180.15297112


--------------------------------------------------------------------------------------------------------




--------------------------------------- Iteration      1(   6)  ---------------------------------------


    POTLOK:  cpu time   18.6504: real time   18.6512
    SETDIJ:  cpu time    0.1649: real time    0.1649
    EDDIAG:  cpu time  107.2032: real time  107.2054
  RMM-DIIS:  cpu time  304.5577: real time  304.5743
    ORTHCH:  cpu time   21.0646: real time   21.0646
       DOS:  cpu time    0.0018: real time    0.0018
    CHARGE:  cpu time   38.7803: real time   38.7804
    MIXING:  cpu time    0.7259: real time    0.7259
    --------------------------------------------
      LOOP:  cpu time  491.1488: real time  491.1685

 eigenvalue-minimisations  :   724
 total energy-change (2. order) :-0.1900261E+01  (-0.6577986E+01)
 number of electron     559.9999941 magnetization 
 augmentation part      240.3360428 magnetization 

 Broyden mixing:
  rms(total) = 0.26250E+01    rms(broyden)= 0.26248E+01
  rms(prec ) = 0.31099E+01
  weight for this iteration     100.00

 eigenvalues of (default mixing * dielectric matrix)
  average eigenvalue GAMMA=   0.2948
  0.2948

 Free energy of the ion-electron system (eV)
  ---------------------------------------------------
  alpha Z        PSCENC =        75.25431677
  Ewald energy   TEWEN  =    138536.01407269
  -Hartree energ DENC   =   -182294.32043801
  -exchange      EXHF   =         0.00000000
  -V(xc)+E(xc)   XCENC  =     -1696.88369081
  PAW double counting   =     45647.52753055   -42146.87862805
  entropy T*S    EENTRO =        -0.09056281
  eigenvalues    EBANDS =     -3389.05289425
  atomic energy  EATOM  =     45086.50549395
  Solvation  Ediel_sol  =         0.00000000
  ---------------------------------------------------
  free energy    TOTEN  =      -181.92479997 eV

  energy without entropy =     -181.83423716  energy(sigma->0) =     -181.90215927


--------------------------------------------------------------------------------------------------------




--------------------------------------- Iteration      1(   7)  ---------------------------------------


    POTLOK:  cpu time   18.6270: real time   18.6300
    SETDIJ:  cpu time    0.1636: real time    0.1636
    EDDIAG:  cpu time  107.6873: real time  107.6905
  RMM-DIIS:  cpu time  359.2634: real time  359.2737
    ORTHCH:  cpu time   21.0422: real time   21.0422
       DOS:  cpu time    0.0019: real time    0.0019
    CHARGE:  cpu time   37.4193: real time   37.4205
    MIXING:  cpu time    0.7619: real time    0.7619
    --------------------------------------------
      LOOP:  cpu time  544.9666: real time  544.9843

 eigenvalue-minimisations  :   860
 total energy-change (2. order) :-0.2671937E+01  (-0.1927922E+01)
 number of electron     559.9999911 magnetization 
 augmentation part      240.1155542 magnetization 

 Broyden mixing:
  rms(total) = 0.29229E+01    rms(broyden)= 0.29226E+01
  rms(prec ) = 0.35235E+01
  weight for this iteration     100.00

 eigenvalues of (default mixing * dielectric matrix)
  average eigenvalue GAMMA=   0.2534
  0.3831  0.1237

 Free energy of the ion-electron system (eV)
  ---------------------------------------------------
  alpha Z        PSCENC =        75.25431677
  Ewald energy   TEWEN  =    138536.01407269
  -Hartree energ DENC   =   -182369.29661232
  -exchange      EXHF   =         0.00000000
  -V(xc)+E(xc)   XCENC  =     -1697.11477017
  PAW double counting   =     45705.00897457   -42202.37803459
  entropy T*S    EENTRO =         0.11833116
  eigenvalues    EBANDS =     -3318.70850928
  atomic energy  EATOM  =     45086.50549395
  Solvation  Ediel_sol  =         0.00000000
  ---------------------------------------------------
  free energy    TOTEN  =      -184.59673723 eV

  energy without entropy =     -184.71506838  energy(sigma->0) =     -184.62632002


--------------------------------------------------------------------------------------------------------




--------------------------------------- Iteration      1(   8)  ---------------------------------------


    POTLOK:  cpu time   19.4311: real time   19.4321
    SETDIJ:  cpu time    0.1619: real time    0.1619
    EDDIAG:  cpu time  107.4585: real time  107.4613
  RMM-DIIS:  cpu time  334.1420: real time  334.1507
    ORTHCH:  cpu time   20.5116: real time   20.5118
       DOS:  cpu time    0.0020: real time    0.0020
    CHARGE:  cpu time   38.8989: real time   38.8991
    MIXING:  cpu time    0.7776: real time    0.7776
    --------------------------------------------
      LOOP:  cpu time  521.3836: real time  521.3966

 eigenvalue-minimisations  :   798
 total energy-change (2. order) : 0.1405557E+01  (-0.7630692E+00)
 number of electron     559.9999890 magnetization 
 augmentation part      240.2113239 magnetization 

 Broyden mixing:
  rms(total) = 0.20986E+01    rms(broyden)= 0.20982E+01
  rms(prec ) = 0.23912E+01
  weight for this iteration     100.00

 eigenvalues of (default mixing * dielectric matrix)
  average eigenvalue GAMMA=   0.2871
  0.5840  0.1386  0.1386

 Free energy of the ion-electron system (eV)
  ---------------------------------------------------
  alpha Z        PSCENC =        75.25431677
  Ewald energy   TEWEN  =    138536.01407269
  -Hartree energ DENC   =   -182412.53582492
  -exchange      EXHF   =         0.00000000
  -V(xc)+E(xc)   XCENC  =     -1697.26042988
  PAW double counting   =     45748.51355384   -42244.40410702
  entropy T*S    EENTRO =        -0.23795773
  eigenvalues    EBANDS =     -3275.04029757
  atomic energy  EATOM  =     45086.50549395
  Solvation  Ediel_sol  =         0.00000000
  ---------------------------------------------------
  free energy    TOTEN  =      -183.19117988 eV

  energy without entropy =     -182.95322214  energy(sigma->0) =     -183.13169045


--------------------------------------------------------------------------------------------------------




--------------------------------------- Iteration      1(   9)  ---------------------------------------


    POTLOK:  cpu time   18.6420: real time   18.6430
    SETDIJ:  cpu time    0.1903: real time    0.1903
    EDDIAG:  cpu time  107.6593: real time  107.6615
  RMM-DIIS:  cpu time  300.6576: real time  300.6661
    ORTHCH:  cpu time   20.9181: real time   20.9181
       DOS:  cpu time    0.0019: real time    0.0019
    CHARGE:  cpu time   39.5801: real time   39.5803
    MIXING:  cpu time    0.8022: real time    0.8022
    --------------------------------------------
      LOOP:  cpu time  488.4515: real time  488.4634

 eigenvalue-minimisations  :   723
 total energy-change (2. order) : 0.2309143E+01  (-0.6034783E+00)
 number of electron     559.9999927 magnetization 
 augmentation part      241.2292187 magnetization 

 Broyden mixing:
  rms(total) = 0.21999E+01    rms(broyden)= 0.21996E+01
  rms(prec ) = 0.25424E+01
  weight for this iteration     100.00

 eigenvalues of (default mixing * dielectric matrix)
  average eigenvalue GAMMA=   0.3061
  0.7705  0.1769  0.1769  0.0999

 Free energy of the ion-electron system (eV)
  ---------------------------------------------------
  alpha Z        PSCENC =        75.25431677
  Ewald energy   TEWEN  =    138536.01407269
  -Hartree energ DENC   =   -182433.92056493
  -exchange      EXHF   =         0.00000000
  -V(xc)+E(xc)   XCENC  =     -1697.25920945
  PAW double counting   =     45822.63358015   -42315.76975135
  entropy T*S    EENTRO =        -0.04079286
  eigenvalues    EBANDS =     -3254.29918228
  atomic energy  EATOM  =     45086.50549395
  Solvation  Ediel_sol  =         0.00000000
  ---------------------------------------------------
  free energy    TOTEN  =      -180.88203731 eV

  energy without entropy =     -180.84124445  energy(sigma->0) =     -180.87183910


--------------------------------------------------------------------------------------------------------




--------------------------------------- Iteration      1(  10)  ---------------------------------------


    POTLOK:  cpu time   18.9514: real time   18.9525
    SETDIJ:  cpu time    0.1625: real time    0.1625
    EDDIAG:  cpu time  107.7396: real time  107.7416
  RMM-DIIS:  cpu time  291.9888: real time  292.0001
    ORTHCH:  cpu time   21.2128: real time   21.2129
       DOS:  cpu time    0.0019: real time    0.0019
    CHARGE:  cpu time   39.3865: real time   39.3866
    MIXING:  cpu time    0.9110: real time    0.9110
    --------------------------------------------
      LOOP:  cpu time  480.3545: real time  480.3691

 eigenvalue-minimisations  :   720
 total energy-change (2. order) : 0.1869344E+01  (-0.4116623E+00)
 number of electron     559.9999919 magnetization 
 augmentation part      241.7203855 magnetization 

 Broyden mixing:
  rms(total) = 0.19240E+01    rms(broyden)= 0.19236E+01
  rms(prec ) = 0.21948E+01
  weight for this iteration     100.00

 eigenvalues of (default mixing * dielectric matrix)
  average eigenvalue GAMMA=   0.2985
  0.8739  0.1891  0.1891  0.1483  0.0919

 Free energy of the ion-electron system (eV)
  ---------------------------------------------------
  alpha Z        PSCENC =        75.25431677
  Ewald energy   TEWEN  =    138536.01407269
  -Hartree energ DENC   =   -182463.60307445
  -exchange      EXHF   =         0.00000000
  -V(xc)+E(xc)   XCENC  =     -1696.98798751
  PAW double counting   =     45894.07343828   -42384.41675263
  entropy T*S    EENTRO =        -0.05734174
  eigenvalues    EBANDS =     -3225.79485821
  atomic energy  EATOM  =     45086.50549395
  Solvation  Ediel_sol  =         0.00000000
  ---------------------------------------------------
  free energy    TOTEN  =      -179.01269284 eV

  energy without entropy =     -178.95535110  energy(sigma->0) =     -178.99835740


--------------------------------------------------------------------------------------------------------




--------------------------------------- Iteration      1(  11)  ---------------------------------------


    POTLOK:  cpu time   18.8475: real time   18.8485
    SETDIJ:  cpu time    0.1599: real time    0.1599
    EDDIAG:  cpu time  108.1441: real time  108.1472
  RMM-DIIS:  cpu time  301.9729: real time  301.9814
    ORTHCH:  cpu time   20.8367: real time   20.8368
       DOS:  cpu time    0.0019: real time    0.0019
    CHARGE:  cpu time   38.9674: real time   38.9675
    MIXING:  cpu time    0.9541: real time    0.9541
    --------------------------------------------
      LOOP:  cpu time  489.8845: real time  489.8972

 eigenvalue-minimisations  :   724
 total energy-change (2. order) : 0.6266825E+00  (-0.2392450E+00)
 number of electron     559.9999911 magnetization 
 augmentation part      241.6790312 magnetization 

 Broyden mixing:
  rms(total) = 0.18775E+01    rms(broyden)= 0.18772E+01
  rms(prec ) = 0.22808E+01
  weight for this iteration     100.00

 eigenvalues of (default mixing * dielectric matrix)
  average eigenvalue GAMMA=   0.2829
  0.9168  0.2168  0.2168  0.1668  0.0901  0.0901

 Free energy of the ion-electron system (eV)
  ---------------------------------------------------
  alpha Z        PSCENC =        75.25431677
  Ewald energy   TEWEN  =    138536.01407269
  -Hartree energ DENC   =   -182497.41050867
  -exchange      EXHF   =         0.00000000
  -V(xc)+E(xc)   XCENC  =     -1696.70456243
  PAW double counting   =     45944.36091166   -42432.58505903
  entropy T*S    EENTRO =         0.04044490
  eigenvalues    EBANDS =     -3193.86112021
  atomic energy  EATOM  =     45086.50549395
  Solvation  Ediel_sol  =         0.00000000
  ---------------------------------------------------
  free energy    TOTEN  =      -178.38601038 eV

  energy without entropy =     -178.42645528  energy(sigma->0) =     -178.39612160


--------------------------------------------------------------------------------------------------------




--------------------------------------- Iteration      1(  12)  ---------------------------------------


    POTLOK:  cpu time   18.6880: real time   18.6910
    SETDIJ:  cpu time    0.1606: real time    0.1606
    EDDIAG:  cpu time  107.9692: real time  107.9710
  RMM-DIIS:  cpu time  303.3752: real time  303.3838
    ORTHCH:  cpu time   20.5197: real time   20.5197
       DOS:  cpu time    0.0019: real time    0.0019
    CHARGE:  cpu time   40.1330: real time   40.1332
    MIXING:  cpu time    0.9699: real time    0.9699
    --------------------------------------------
      LOOP:  cpu time  491.8174: real time  491.8312

 eigenvalue-minimisations  :   734
 total energy-change (2. order) :-0.3216370E+00  (-0.1208747E+00)
 number of electron     559.9999899 magnetization 
 augmentation part      241.4119596 magnetization 

 Broyden mixing:
  rms(total) = 0.21918E+01    rms(broyden)= 0.21916E+01
  rms(prec ) = 0.26816E+01
  weight for this iteration     100.00

 eigenvalues of (default mixing * dielectric matrix)
  average eigenvalue GAMMA=   0.2803
  0.9921  0.2791  0.2791  0.1202  0.1202  0.1164  0.0554

 Free energy of the ion-electron system (eV)
  ---------------------------------------------------
  alpha Z        PSCENC =        75.25431677
  Ewald energy   TEWEN  =    138536.01407269
  -Hartree energ DENC   =   -182522.71349350
  -exchange      EXHF   =         0.00000000
  -V(xc)+E(xc)   XCENC  =     -1696.47489511
  PAW double counting   =     45975.57176014   -42462.39643314
  entropy T*S    EENTRO =        -0.01813871
  eigenvalues    EBANDS =     -3170.45033046
  atomic energy  EATOM  =     45086.50549395
  Solvation  Ediel_sol  =         0.00000000
  ---------------------------------------------------
  free energy    TOTEN  =      -178.70764736 eV

  energy without entropy =     -178.68950865  energy(sigma->0) =     -178.70311268


--------------------------------------------------------------------------------------------------------




--------------------------------------- Iteration      1(  13)  ---------------------------------------


    POTLOK:  cpu time   19.5079: real time   19.5116
    SETDIJ:  cpu time    0.1661: real time    0.1661
    EDDIAG:  cpu time  109.4127: real time  109.4143
  RMM-DIIS:  cpu time  300.0647: real time  300.0747
    ORTHCH:  cpu time   21.0270: real time   21.0271
       DOS:  cpu time    0.0020: real time    0.0020
    CHARGE:  cpu time   40.1117: real time   40.1118
    MIXING:  cpu time    1.1013: real time    1.1013
    --------------------------------------------
      LOOP:  cpu time  491.3933: real time  491.4086

 eigenvalue-minimisations  :   729
 total energy-change (2. order) : 0.8510808E-01  (-0.1331191E+00)
 number of electron     559.9999883 magnetization 
 augmentation part      241.2329027 magnetization 

 Broyden mixing:
  rms(total) = 0.27810E+01    rms(broyden)= 0.27808E+01
  rms(prec ) = 0.31971E+01
  weight for this iteration     100.00

 eigenvalues of (default mixing * dielectric matrix)
  average eigenvalue GAMMA=   0.2796
  1.0986  0.3914  0.2627  0.1233  0.1233  0.1205  0.0692  0.0477

 Free energy of the ion-electron system (eV)
  ---------------------------------------------------
  alpha Z        PSCENC =        75.25431677
  Ewald energy   TEWEN  =    138536.01407269
  -Hartree energ DENC   =   -182556.50513408
  -exchange      EXHF   =         0.00000000
  -V(xc)+E(xc)   XCENC  =     -1696.12855494
  PAW double counting   =     46020.16948951   -42504.95834734
  entropy T*S    EENTRO =         0.05452809
  eigenvalues    EBANDS =     -3139.02840394
  atomic energy  EATOM  =     45086.50549395
  Solvation  Ediel_sol  =         0.00000000
  ---------------------------------------------------
  free energy    TOTEN  =      -178.62253928 eV

  energy without entropy =     -178.67706738  energy(sigma->0) =     -178.63617131


--------------------------------------------------------------------------------------------------------




--------------------------------------- Iteration      1(  14)  ---------------------------------------


    POTLOK:  cpu time   19.7781: real time   19.7791
    SETDIJ:  cpu time    0.1583: real time    0.1583
    EDDIAG:  cpu time  109.1058: real time  109.1080
  RMM-DIIS:  cpu time  289.4435: real time  289.4522
    ORTHCH:  cpu time   21.4280: real time   21.4323
       DOS:  cpu time    0.0021: real time    0.0021
    CHARGE:  cpu time   39.8097: real time   39.8102
    MIXING:  cpu time    1.1390: real time    1.1390
    --------------------------------------------
      LOOP:  cpu time  480.8646: real time  480.8814

 eigenvalue-minimisations  :   708
 total energy-change (2. order) : 0.1290286E+01  (-0.1599967E+00)
 number of electron     559.9999920 magnetization 
 augmentation part      241.1455731 magnetization 

 Broyden mixing:
  rms(total) = 0.14578E+01    rms(broyden)= 0.14575E+01
  rms(prec ) = 0.16501E+01
  weight for this iteration     100.00

 eigenvalues of (default mixing * dielectric matrix)
  average eigenvalue GAMMA=   0.2935
  1.2870  0.4662  0.2751  0.1399  0.1399  0.1021  0.1021  0.0818  0.0475

 Free energy of the ion-electron system (eV)
  ---------------------------------------------------
  alpha Z        PSCENC =        75.25431677
  Ewald energy   TEWEN  =    138536.01407269
  -Hartree energ DENC   =   -182581.50478066
  -exchange      EXHF   =         0.00000000
  -V(xc)+E(xc)   XCENC  =     -1695.75234949
  PAW double counting   =     46065.68779533   -42548.41230829
  entropy T*S    EENTRO =        -0.17027979
  eigenvalues    EBANDS =     -3114.95421355
  atomic energy  EATOM  =     45086.50549395
  Solvation  Ediel_sol  =         0.00000000
  ---------------------------------------------------
  free energy    TOTEN  =      -177.33225304 eV

  energy without entropy =     -177.16197325  energy(sigma->0) =     -177.28968309


--------------------------------------------------------------------------------------------------------




--------------------------------------- Iteration      1(  15)  ---------------------------------------


    POTLOK:  cpu time   18.5812: real time   18.5834
    SETDIJ:  cpu time    0.1552: real time    0.1552
    EDDIAG:  cpu time  107.3562: real time  107.3607
  RMM-DIIS:  cpu time  291.8924: real time  291.8985
    ORTHCH:  cpu time   20.2964: real time   20.2965
       DOS:  cpu time    0.0020: real time    0.0020
    CHARGE:  cpu time   39.0039: real time   39.0040
    MIXING:  cpu time    1.3300: real time    1.3301
    --------------------------------------------
      LOOP:  cpu time  478.6173: real time  478.6305

 eigenvalue-minimisations  :   708
 total energy-change (2. order) : 0.1159320E+01  (-0.1300270E+00)
 number of electron     559.9999918 magnetization 
 augmentation part      241.3218971 magnetization 

 Broyden mixing:
  rms(total) = 0.11525E+01    rms(broyden)= 0.11521E+01
  rms(prec ) = 0.13242E+01
  weight for this iteration     100.00

 eigenvalues of (default mixing * dielectric matrix)
  average eigenvalue GAMMA=   0.3044
  1.4560  0.5336  0.2236  0.2236  0.1625  0.1089  0.1089  0.0899  0.0899  0.0468

 Free energy of the ion-electron system (eV)
  ---------------------------------------------------
  alpha Z        PSCENC =        75.25431677
  Ewald energy   TEWEN  =    138536.01407269
  -Hartree energ DENC   =   -182609.74726510
  -exchange      EXHF   =         0.00000000
  -V(xc)+E(xc)   XCENC  =     -1695.25778744
  PAW double counting   =     46120.03774769   -42600.21069970
  entropy T*S    EENTRO =        -0.05675218
  eigenvalues    EBANDS =     -3088.71205927
  atomic energy  EATOM  =     45086.50549395
  Solvation  Ediel_sol  =         0.00000000
  ---------------------------------------------------
  free energy    TOTEN  =      -176.17293258 eV

  energy without entropy =     -176.11618039  energy(sigma->0) =     -176.15874453


--------------------------------------------------------------------------------------------------------




--------------------------------------- Iteration      1(  16)  ---------------------------------------


    POTLOK:  cpu time   19.3081: real time   19.3117
    SETDIJ:  cpu time    0.1658: real time    0.1658
    EDDIAG:  cpu time  106.5659: real time  106.5698
  RMM-DIIS:  cpu time  283.6204: real time  283.6290
    ORTHCH:  cpu time   20.8805: real time   20.8806
       DOS:  cpu time    0.0020: real time    0.0020
    CHARGE:  cpu time   38.1341: real time   38.1343
    MIXING:  cpu time    1.2725: real time    1.2725
    --------------------------------------------
      LOOP:  cpu time  469.9492: real time  469.9655

 eigenvalue-minimisations  :   702
 total energy-change (2. order) :-0.4021005E-01  (-0.8358110E-01)
 number of electron     559.9999938 magnetization 
 augmentation part      241.3042073 magnetization 

 Broyden mixing:
  rms(total) = 0.13465E+01    rms(broyden)= 0.13462E+01
  rms(prec ) = 0.15785E+01
  weight for this iteration     100.00

 eigenvalues of (default mixing * dielectric matrix)
  average eigenvalue GAMMA=   0.3057
  1.5005  0.6260  0.2852  0.2852  0.1244  0.1244  0.1009  0.1009  0.0985  0.0696
  0.0469

 Free energy of the ion-electron system (eV)
  ---------------------------------------------------
  alpha Z        PSCENC =        75.25431677
  Ewald energy   TEWEN  =    138536.01407269
  -Hartree energ DENC   =   -182634.08440664
  -exchange      EXHF   =         0.00000000
  -V(xc)+E(xc)   XCENC  =     -1694.84463141
  PAW double counting   =     46159.30081537   -42637.47479791
  entropy T*S    EENTRO =         0.02777654
  eigenvalues    EBANDS =     -3066.91178201
  atomic energy  EATOM  =     45086.50549395
  Solvation  Ediel_sol  =         0.00000000
  ---------------------------------------------------
  free energy    TOTEN  =      -176.21314263 eV

  energy without entropy =     -176.24091917  energy(sigma->0) =     -176.22008677


--------------------------------------------------------------------------------------------------------




--------------------------------------- Iteration      1(  17)  ---------------------------------------


    POTLOK:  cpu time   18.8690: real time   18.8719
    SETDIJ:  cpu time    0.1643: real time    0.1643
    EDDIAG:  cpu time  106.0218: real time  106.0279
  RMM-DIIS:  cpu time  297.1984: real time  297.2145
    ORTHCH:  cpu time   20.6492: real time   20.6495
       DOS:  cpu time    0.0021: real time    0.0021
    CHARGE:  cpu time   38.6380: real time   38.6387
    MIXING:  cpu time    1.3077: real time    1.3078
    --------------------------------------------
      LOOP:  cpu time  482.8503: real time  482.8765

 eigenvalue-minimisations  :   716
 total energy-change (2. order) : 0.1365606E+00  (-0.4144027E-01)
 number of electron     559.9999940 magnetization 
 augmentation part      241.1945398 magnetization 

 Broyden mixing:
  rms(total) = 0.12382E+01    rms(broyden)= 0.12380E+01
  rms(prec ) = 0.14636E+01
  weight for this iteration     100.00

 eigenvalues of (default mixing * dielectric matrix)
  average eigenvalue GAMMA=   0.3145
  1.5720  0.7738  0.3336  0.3336  0.1338  0.1338  0.1062  0.1062  0.0886  0.0886
  0.0468  0.0571

 Free energy of the ion-electron system (eV)
  ---------------------------------------------------
  alpha Z        PSCENC =        75.25431677
  Ewald energy   TEWEN  =    138536.01407269
  -Hartree energ DENC   =   -182652.20724437
  -exchange      EXHF   =         0.00000000
  -V(xc)+E(xc)   XCENC  =     -1694.63831584
  PAW double counting   =     46175.38806979   -42652.53130850
  entropy T*S    EENTRO =         0.06611609
  eigenvalues    EBANDS =     -3049.92778261
  atomic energy  EATOM  =     45086.50549395
  Solvation  Ediel_sol  =         0.00000000
  ---------------------------------------------------
  free energy    TOTEN  =      -176.07658204 eV

  energy without entropy =     -176.14269812  energy(sigma->0) =     -176.09311106


--------------------------------------------------------------------------------------------------------




--------------------------------------- Iteration      1(  18)  ---------------------------------------


    POTLOK:  cpu time   18.8150: real time   18.8161
    SETDIJ:  cpu time    0.1610: real time    0.1610
    EDDIAG:  cpu time  107.9179: real time  107.9220
  RMM-DIIS:  cpu time  293.7266: real time  293.7384
    ORTHCH:  cpu time   20.9150: real time   20.9154
       DOS:  cpu time    0.0020: real time    0.0020
    CHARGE:  cpu time   40.4229: real time   40.4237
    MIXING:  cpu time    1.4679: real time    1.4680
    --------------------------------------------
      LOOP:  cpu time  483.4283: real time  483.4465

 eigenvalue-minimisations  :   716
 total energy-change (2. order) :-0.3621364E+00  (-0.3845541E-01)
 number of electron     559.9999929 magnetization 
 augmentation part      241.1216518 magnetization 

 Broyden mixing:
  rms(total) = 0.15946E+01    rms(broyden)= 0.15944E+01
  rms(prec ) = 0.19398E+01
  weight for this iteration     100.00

 eigenvalues of (default mixing * dielectric matrix)
  average eigenvalue GAMMA=   0.3189
  1.6504  0.9147  0.3615  0.3615  0.1492  0.1492  0.1012  0.1012  0.0979  0.0979
  0.0673  0.0486  0.0452

 Free energy of the ion-electron system (eV)
  ---------------------------------------------------
  alpha Z        PSCENC =        75.25431677
  Ewald energy   TEWEN  =    138536.01407269
  -Hartree energ DENC   =   -182673.37830187
  -exchange      EXHF   =         0.00000000
  -V(xc)+E(xc)   XCENC  =     -1694.37526034
  PAW double counting   =     46193.00356218   -42668.86624500
  entropy T*S    EENTRO =         0.08760654
  eigenvalues    EBANDS =     -3030.68396335
  atomic energy  EATOM  =     45086.50549395
  Solvation  Ediel_sol  =         0.00000000
  ---------------------------------------------------
  free energy    TOTEN  =      -176.43871842 eV

  energy without entropy =     -176.52632496  energy(sigma->0) =     -176.46062006


--------------------------------------------------------------------------------------------------------




--------------------------------------- Iteration      1(  19)  ---------------------------------------


    POTLOK:  cpu time   18.5753: real time   18.5778
    SETDIJ:  cpu time    0.1582: real time    0.1582
    EDDIAG:  cpu time  108.1293: real time  108.1322
  RMM-DIIS:  cpu time  295.1587: real time  295.1684
    ORTHCH:  cpu time   20.9806: real time   20.9806
       DOS:  cpu time    0.0020: real time    0.0020
    CHARGE:  cpu time   38.9099: real time   38.9101
    MIXING:  cpu time    1.4517: real time    1.4518
    --------------------------------------------
      LOOP:  cpu time  483.3658: real time  483.3812

 eigenvalue-minimisations  :   718
 total energy-change (2. order) : 0.6135609E+00  (-0.3941506E-01)
 number of electron     559.9999931 magnetization 
 augmentation part      241.1236212 magnetization 

 Broyden mixing:
  rms(total) = 0.11695E+01    rms(broyden)= 0.11692E+01
  rms(prec ) = 0.13593E+01
  weight for this iteration     100.00

 eigenvalues of (default mixing * dielectric matrix)
  average eigenvalue GAMMA=   0.3174
  1.7012  0.9687  0.3948  0.3948  0.1652  0.1652  0.1088  0.1088  0.0978  0.0978
  0.0786  0.0738  0.0470  0.0412

 Free energy of the ion-electron system (eV)
  ---------------------------------------------------
  alpha Z        PSCENC =        75.25431677
  Ewald energy   TEWEN  =    138536.01407269
  -Hartree energ DENC   =   -182694.18726890
  -exchange      EXHF   =         0.00000000
  -V(xc)+E(xc)   XCENC  =     -1694.13275894
  PAW double counting   =     46208.34858677   -42682.99070491
  entropy T*S    EENTRO =         0.05892152
  eigenvalues    EBANDS =     -3010.69581645
  atomic energy  EATOM  =     45086.50549395
  Solvation  Ediel_sol  =         0.00000000
  ---------------------------------------------------
  free energy    TOTEN  =      -175.82515749 eV

  energy without entropy =     -175.88407901  energy(sigma->0) =     -175.83988787


--------------------------------------------------------------------------------------------------------




--------------------------------------- Iteration      1(  20)  ---------------------------------------


    POTLOK:  cpu time   18.0744: real time   18.0754
    SETDIJ:  cpu time    0.1563: real time    0.1563
    EDDIAG:  cpu time  106.4186: real time  106.4204
  RMM-DIIS:  cpu time  288.3282: real time  288.3380
    ORTHCH:  cpu time   20.5816: real time   20.5817
       DOS:  cpu time    0.0019: real time    0.0019
    CHARGE:  cpu time   38.6609: real time   38.6610
    MIXING:  cpu time    1.6104: real time    1.6104
    --------------------------------------------
      LOOP:  cpu time  473.8322: real time  473.8451

 eigenvalue-minimisations  :   700
 total energy-change (2. order) : 0.3690025E+00  (-0.3103263E-01)
 number of electron     559.9999934 magnetization 
 augmentation part      241.1186209 magnetization 

 Broyden mixing:
  rms(total) = 0.62446E+00    rms(broyden)= 0.62422E+00
  rms(prec ) = 0.71185E+00
  weight for this iteration     100.00

 eigenvalues of (default mixing * dielectric matrix)
  average eigenvalue GAMMA=   0.3214
  1.7370  1.0758  0.4065  0.4065  0.2282  0.1417  0.1417  0.1193  0.1193  0.1057
  0.1057  0.0787  0.0665  0.0471  0.0410

 Free energy of the ion-electron system (eV)
  ---------------------------------------------------
  alpha Z        PSCENC =        75.25431677
  Ewald energy   TEWEN  =    138536.01407269
  -Hartree energ DENC   =   -182708.61977242
  -exchange      EXHF   =         0.00000000
  -V(xc)+E(xc)   XCENC  =     -1694.02081535
  PAW double counting   =     46214.28267022   -42688.25707524
  entropy T*S    EENTRO =        -0.03866241
  eigenvalues    EBANDS =     -2996.57638320
  atomic energy  EATOM  =     45086.50549395
  Solvation  Ediel_sol  =         0.00000000
  ---------------------------------------------------
  free energy    TOTEN  =      -175.45615499 eV

  energy without entropy =     -175.41749258  energy(sigma->0) =     -175.44648939


--------------------------------------------------------------------------------------------------------




--------------------------------------- Iteration      1(  21)  ---------------------------------------


    POTLOK:  cpu time   18.6914: real time   18.6934
    SETDIJ:  cpu time    0.1592: real time    0.1592
    EDDIAG:  cpu time  107.0891: real time  107.0910
  RMM-DIIS:  cpu time  277.5994: real time  277.6178
    ORTHCH:  cpu time   20.1019: real time   20.1049
       DOS:  cpu time    0.0021: real time    0.0021
    CHARGE:  cpu time   38.9351: real time   38.9352
    MIXING:  cpu time    1.7586: real time    1.7586
    --------------------------------------------
      LOOP:  cpu time  464.3367: real time  464.3623

 eigenvalue-minimisations  :   700
 total energy-change (2. order) : 0.3616864E-01  (-0.2636059E-01)
 number of electron     559.9999923 magnetization 
 augmentation part      241.1012434 magnetization 

 Broyden mixing:
  rms(total) = 0.56147E+00    rms(broyden)= 0.56129E+00
  rms(prec ) = 0.63051E+00
  weight for this iteration     100.00

 eigenvalues of (default mixing * dielectric matrix)
  average eigenvalue GAMMA=   0.3440
  1.8714  1.2210  0.6055  0.3603  0.3603  0.1527  0.1527  0.1259  0.1068  0.1068
  0.1023  0.1023  0.0817  0.0664  0.0471  0.0410

 Free energy of the ion-electron system (eV)
  ---------------------------------------------------
  alpha Z        PSCENC =        75.25431677
  Ewald energy   TEWEN  =    138536.01407269
  -Hartree energ DENC   =   -182725.69718060
  -exchange      EXHF   =         0.00000000
  -V(xc)+E(xc)   XCENC  =     -1693.87283452
  PAW double counting   =     46216.45972697   -42689.65316690
  entropy T*S    EENTRO =        -0.08093621
  eigenvalues    EBANDS =     -2980.34947850
  atomic energy  EATOM  =     45086.50549395
  Solvation  Ediel_sol  =         0.00000000
  ---------------------------------------------------
  free energy    TOTEN  =      -175.41998635 eV

  energy without entropy =     -175.33905014  energy(sigma->0) =     -175.39975230


--------------------------------------------------------------------------------------------------------




--------------------------------------- Iteration      1(  22)  ---------------------------------------


    POTLOK:  cpu time   18.7010: real time   18.7023
    SETDIJ:  cpu time    0.1579: real time    0.1579
    EDDIAG:  cpu time  109.2057: real time  109.2083
  RMM-DIIS:  cpu time  286.3011: real time  286.3108
    ORTHCH:  cpu time   20.8443: real time   20.8444
       DOS:  cpu time    0.0020: real time    0.0020
    CHARGE:  cpu time   39.5681: real time   39.5683
    MIXING:  cpu time    1.8408: real time    1.8409
    --------------------------------------------
      LOOP:  cpu time  476.6208: real time  476.6350

 eigenvalue-minimisations  :   700
 total energy-change (2. order) :-0.1893469E-02  (-0.2137977E-01)
 number of electron     559.9999931 magnetization 
 augmentation part      241.0876352 magnetization 

 Broyden mixing:
  rms(total) = 0.71805E+00    rms(broyden)= 0.71791E+00
  rms(prec ) = 0.83733E+00
  weight for this iteration     100.00

 eigenvalues of (default mixing * dielectric matrix)
  average eigenvalue GAMMA=   0.3494
  2.0229  1.2735  0.6447  0.3842  0.3842  0.1593  0.1593  0.1621  0.1134  0.1134
  0.1013  0.0950  0.0950  0.0766  0.0663  0.0471  0.0410

 Free energy of the ion-electron system (eV)
  ---------------------------------------------------
  alpha Z        PSCENC =        75.25431677
  Ewald energy   TEWEN  =    138536.01407269
  -Hartree energ DENC   =   -182746.43041503
  -exchange      EXHF   =         0.00000000
  -V(xc)+E(xc)   XCENC  =     -1693.61567621
  PAW double counting   =     46219.38852188   -42691.55048641
  entropy T*S    EENTRO =        -0.05916431
  eigenvalues    EBANDS =     -2960.92854316
  atomic energy  EATOM  =     45086.50549395
  Solvation  Ediel_sol  =         0.00000000
  ---------------------------------------------------
  free energy    TOTEN  =      -175.42187982 eV

  energy without entropy =     -175.36271551  energy(sigma->0) =     -175.40708874


--------------------------------------------------------------------------------------------------------




--------------------------------------- Iteration      1(  23)  ---------------------------------------


    POTLOK:  cpu time   19.0194: real time   19.0223
    SETDIJ:  cpu time    0.1640: real time    0.1640
    EDDIAG:  cpu time  104.3135: real time  104.3176
  RMM-DIIS:  cpu time  284.4439: real time  284.4519
    ORTHCH:  cpu time   20.9833: real time   20.9834
       DOS:  cpu time    0.0020: real time    0.0020
    CHARGE:  cpu time   40.3374: real time   40.3407
    MIXING:  cpu time    1.9658: real time    1.9658
    --------------------------------------------
      LOOP:  cpu time  471.2292: real time  471.2477

 eigenvalue-minimisations  :   697
 total energy-change (2. order) : 0.1514495E+00  (-0.1362719E-01)
 number of electron     559.9999923 magnetization 
 augmentation part      241.0783153 magnetization 

 Broyden mixing:
  rms(total) = 0.54345E+00    rms(broyden)= 0.54329E+00
  rms(prec ) = 0.65041E+00
  weight for this iteration     100.00

 eigenvalues of (default mixing * dielectric matrix)
  average eigenvalue GAMMA=   0.3465
  2.1036  1.2972  0.6015  0.4210  0.4210  0.2162  0.1546  0.1546  0.1076  0.1076
[...]
 -0.007  -0.012   0.004   0.004   0.006  -0.006  -0.011   0.004
 -0.011  -0.020   0.006   0.007   0.010  -0.011  -0.019   0.006
 -0.015  -0.005   0.012   0.000   0.022  -0.014  -0.005   0.012
  0.000  -0.022  -0.006  -0.015  -0.000   0.000  -0.022  -0.006
 -0.022   0.000   0.009  -0.005  -0.016  -0.021   0.000   0.008
 -0.018  -0.006   0.015   0.000   0.027  -0.017  -0.006   0.015
  0.000  -0.027  -0.007  -0.018  -0.000   0.000  -0.026  -0.007
 -0.027   0.000   0.010  -0.006  -0.019  -0.026   0.000   0.010
 total augmentation occupancy for first ion, spin component:           1
  1.534  -0.030   0.005   0.015   0.022   0.077  -0.008  -0.002   0.036  -0.009   0.091  -0.031   0.011   0.002   0.003  -0.019
 -0.030   1.399   0.027   0.071  -0.001  -0.007   0.072   0.011  -0.015  -0.008   0.218  -0.065   0.019   0.001   0.002  -0.006
  0.005   0.027   1.542   0.003   0.003  -0.002   0.013   0.074  -0.013   0.017  -0.053   0.018  -0.003  -0.007  -0.005   0.016
  0.015   0.071   0.003   1.335   0.042   0.034  -0.014  -0.012   0.092  -0.022  -0.084   0.022  -0.001  -0.008  -0.003   0.001
  0.022  -0.001   0.003   0.042   1.436  -0.010  -0.008   0.016  -0.021   0.069  -0.105   0.034  -0.004  -0.009  -0.008   0.026
  0.077  -0.007  -0.002   0.034  -0.010   0.217   0.019  -0.002  -0.045   0.003  -0.048   0.002   0.017  -0.010   0.034  -0.004
 -0.008   0.072   0.013  -0.014  -0.008   0.019   0.263  -0.023  -0.003   0.006  -0.109   0.007  -0.001   0.051  -0.010  -0.000
 -0.002   0.011   0.074  -0.012   0.016  -0.002  -0.023   0.215   0.014  -0.019   0.028  -0.001  -0.012   0.009  -0.018   0.003
  0.036  -0.015  -0.013   0.092  -0.021  -0.045  -0.003   0.014   0.261   0.007   0.044  -0.004  -0.009   0.036   0.004   0.000
 -0.009  -0.008   0.017  -0.022   0.069   0.003   0.006  -0.019   0.007   0.258   0.047  -0.002  -0.038   0.002   0.049   0.007
  0.091   0.218  -0.053  -0.084  -0.105  -0.048  -0.109   0.028   0.044   0.047   0.952  -0.141   0.084   0.014   0.064  -0.013
 -0.031  -0.065   0.018   0.022   0.034   0.002   0.007  -0.001  -0.004  -0.002  -0.141   0.023  -0.014  -0.003  -0.010   0.003
  0.011   0.019  -0.003  -0.001  -0.004   0.017  -0.001  -0.012  -0.009  -0.038   0.084  -0.014   0.029  -0.008  -0.004  -0.003
  0.002   0.001  -0.007  -0.008  -0.009  -0.010   0.051   0.009   0.036   0.002   0.014  -0.003  -0.008   0.036   0.004   0.000
  0.003   0.002  -0.005  -0.003  -0.008   0.034  -0.010  -0.018   0.004   0.049   0.064  -0.010  -0.004   0.004   0.034  -0.000
 -0.019  -0.006   0.016   0.001   0.026  -0.004  -0.000   0.003   0.000   0.007  -0.013   0.003  -0.003   0.000  -0.000   0.001
  0.001  -0.028  -0.007  -0.018   0.001   0.001  -0.008  -0.002  -0.006  -0.000  -0.003   0.001   0.000  -0.003  -0.000   0.000
 -0.028   0.001   0.012  -0.005  -0.020  -0.006   0.001   0.003  -0.001  -0.007  -0.008   0.001  -0.000  -0.000  -0.003   0.000


------------------------ aborting loop because EDIFF is reached ----------------------------------------


    CHARGE:  cpu time   36.1075: real time   36.1076
    FORLOC:  cpu time    9.1027: real time    9.1027
    FORNL :  cpu time   95.0696: real time   95.0699
    STRESS:  cpu time  292.6855: real time  292.6877
    FORCOR:  cpu time   29.1465: real time   29.1469
    FORHAR:  cpu time   13.1578: real time   13.1580
    MIXING:  cpu time    5.3203: real time    5.3204
    OFIELD:  cpu time    0.0001: real time    0.0001

  FORCE on cell =-STRESS in cart. coord.  units (eV):
  Direction    XX          YY          ZZ          XY          YZ          ZX
  --------------------------------------------------------------------------------------
  Alpha Z    75.25432    75.25432    75.25432
  Ewald   46772.26452 47534.54559 44229.09815 -2061.37323    43.57250   -35.79675
  Hartree 61528.90613 62203.69833 59165.85055 -1846.05258    36.25257   -31.04548
  E(xc)   -2904.68081 -2903.76150 -2905.90250    -1.58790     0.07906    -0.04695
  Local  ************************************  3880.34437   -78.72659    66.10773
  n-local  -883.71270  -885.59722  -879.66820     4.72304    -0.16483     0.10124
  augment  4103.60977  4101.01708  4106.13387     3.56752    -0.21961     0.13487
  Kinetic  7802.93620  7792.31853  7818.42873    19.82848    -0.88511     0.58964
  Fock        0.00000     0.00000     0.00000     0.00000     0.00000     0.00000
  -------------------------------------------------------------------------------------
  Total    -112.22896  -113.25025  -113.13627    -0.55029    -0.09201     0.04428
  in kB      -6.65966    -6.72026    -6.71349    -0.03265    -0.00546     0.00263
  external pressure =       -6.70 kB  Pullay stress =        0.00 kB


 VOLUME and BASIS-vectors are now :
 -----------------------------------------------------------------------------
  energy-cutoff  :      400.00
  volume of cell :    27000.00
      direct lattice vectors                 reciprocal lattice vectors
    30.000000000  0.000000000  0.000000000     0.033333333  0.000000000  0.000000000
     0.000000000 30.000000000  0.000000000     0.000000000  0.033333333  0.000000000
     0.000000000  0.000000000 30.000000000     0.000000000  0.000000000  0.033333333

  length of vectors
    30.000000000 30.000000000 30.000000000     0.033333333  0.033333333  0.033333333


 FORCES acting on ions
    electron-ion (+dipol)            ewald-force                    non-local-force                 convergence-correction
 -----------------------------------------------------------------------------------------------
   0.391E+03 0.977E+03 0.418E+03   -.389E+03 -.974E+03 -.417E+03   -.152E+01 -.182E+01 -.231E+00   -.202E-02 0.584E-02 -.583E-02
   -.978E+03 -.390E+03 0.418E+03   0.975E+03 0.388E+03 -.418E+03   0.181E+01 0.152E+01 -.230E+00   0.218E-02 0.518E-03 0.193E-02
   -.397E+03 0.975E+03 0.417E+03   0.395E+03 -.972E+03 -.417E+03   0.153E+01 -.183E+01 -.210E+00   -.299E-02 0.270E-02 -.287E-02
   0.973E+03 -.343E+03 0.449E+03   -.970E+03 0.340E+03 -.448E+03   -.180E+01 0.163E+01 -.129E+00   0.212E-02 -.336E-02 -.131E-02
   -.399E+01 0.592E+03 0.967E+03   0.402E+01 -.591E+03 -.964E+03   -.166E-01 -.304E+00 -.236E+01   -.654E-02 0.111E-02 -.123E-02
   -.408E+01 0.592E+03 -.967E+03   0.411E+01 -.591E+03 0.964E+03   -.185E-01 -.302E+00 0.236E+01   -.146E-02 0.716E-03 -.118E-03
   -.279E+01 0.114E+04 0.568E-01   0.278E+01 -.113E+04 -.561E-01   0.493E-02 -.311E+01 -.724E-03   -.123E-02 0.781E-04 0.436E-03
   0.114E+04 0.374E+02 0.635E+00   -.114E+04 -.375E+02 -.638E+00   -.312E+01 0.290E-01 0.253E-03   0.261E-02 -.124E-03 0.267E-02
   -.114E+04 0.326E+01 0.608E-01   0.113E+04 -.325E+01 -.586E-01   0.311E+01 -.543E-02 -.753E-03   -.578E-03 0.127E-02 -.119E-02
   -.522E+02 -.114E+04 0.101E+01   0.522E+02 0.114E+04 -.101E+01   -.492E-01 0.309E+01 0.449E-03   0.116E-02 -.388E-03 -.967E-03
   -.581E+03 0.581E+03 0.814E+03   0.579E+03 -.579E+03 -.811E+03   0.156E+01 -.156E+01 -.220E+01   -.408E-02 -.128E-02 -.147E-02
   -.581E+03 0.581E+03 -.814E+03   0.579E+03 -.579E+03 0.811E+03   0.156E+01 -.156E+01 0.220E+01   -.240E-02 -.270E-02 0.677E-03
   0.565E+03 -.559E+03 0.850E+03   -.562E+03 0.557E+03 -.846E+03   -.158E+01 0.158E+01 -.217E+01   0.606E-03 -.146E-02 -.161E-02
   0.564E+03 -.558E+03 -.852E+03   -.561E+03 0.555E+03 0.848E+03   -.157E+01 0.158E+01 0.217E+01   -.372E-02 -.312E-02 -.662E-03
   0.575E+03 0.587E+03 0.817E+03   -.573E+03 -.584E+03 -.814E+03   -.154E+01 -.157E+01 -.220E+01   0.294E-02 0.254E-02 -.287E-03
   0.575E+03 0.587E+03 -.817E+03   -.573E+03 -.585E+03 0.814E+03   -.154E+01 -.157E+01 0.220E+01   0.760E-03 0.105E-02 -.197E-03
   -.588E+03 -.574E+03 0.818E+03   0.585E+03 0.572E+03 -.815E+03   0.158E+01 0.153E+01 -.219E+01   0.268E-03 0.191E-02 -.530E-04
   -.588E+03 -.574E+03 -.818E+03   0.586E+03 0.572E+03 0.815E+03   0.158E+01 0.153E+01 0.219E+01   -.298E-03 0.263E-02 -.146E-02
   0.391E+03 0.977E+03 -.418E+03   -.389E+03 -.974E+03 0.417E+03   -.152E+01 -.182E+01 0.233E+00   -.562E-03 0.135E-02 0.162E-02
   -.978E+03 -.390E+03 -.418E+03   0.975E+03 0.388E+03 0.417E+03   0.181E+01 0.152E+01 0.231E+00   -.359E-03 0.212E-02 -.244E-02
   -.328E+03 0.329E+03 0.455E+03   0.328E+03 -.329E+03 -.456E+03   -.368E+00 0.369E+00 0.513E+00   -.451E-02 -.321E-02 -.979E-03
   0.971E+03 0.414E+03 0.423E+03   -.968E+03 -.412E+03 -.423E+03   -.183E+01 -.154E+01 -.212E+00   0.580E-02 -.259E-02 -.464E-02
   -.418E+03 -.968E+03 0.425E+03   0.416E+03 0.965E+03 -.425E+03   0.152E+01 0.184E+01 -.199E+00   -.139E-02 0.256E-02 0.546E-03
   -.397E+03 0.975E+03 -.417E+03   0.395E+03 -.972E+03 0.417E+03   0.152E+01 -.183E+01 0.211E+00   -.102E-02 0.141E-02 0.111E-02
   0.973E+03 -.339E+03 -.448E+03   -.970E+03 0.337E+03 0.448E+03   -.179E+01 0.163E+01 0.117E+00   -.175E-03 -.832E-03 0.121E-02
   -.975E+03 0.398E+03 0.417E+03   0.972E+03 -.395E+03 -.417E+03   0.183E+01 -.152E+01 -.215E+00   -.546E-03 0.626E-04 0.119E-02
   0.333E+03 -.962E+03 0.463E+03   -.331E+03 0.959E+03 -.463E+03   -.163E+01 0.172E+01 -.366E-01   0.413E-03 0.130E-02 -.660E-03
   0.313E+03 0.336E+03 0.458E+03   -.314E+03 -.337E+03 -.459E+03   0.385E+00 0.345E+00 0.518E+00   -.323E-02 -.326E-02 -.602E-02
   -.565E+01 0.647E+03 0.113E+00   0.565E+01 -.648E+03 -.111E+00   0.185E-02 0.722E+00 0.248E-04   -.171E-02 0.170E-02 -.121E-02
   -.592E+03 0.473E+01 0.968E+03   0.591E+03 -.475E+01 -.964E+03   0.304E+00 0.236E-01 -.236E+01   -.105E-03 -.209E-02 -.678E-03
   -.592E+03 0.484E+01 -.968E+03   0.592E+03 -.487E+01 0.964E+03   0.301E+00 0.254E-01 0.236E+01   -.272E-02 -.496E-03 -.527E-03
   0.581E+03 0.171E+02 0.978E+03   -.580E+03 -.171E+02 -.975E+03   -.295E+00 0.280E-03 -.238E+01   0.116E-02 -.740E-02 -.127E-02
   0.581E+03 0.180E+02 -.979E+03   -.580E+03 -.180E+02 0.975E+03   -.296E+00 0.466E-02 0.238E+01   -.127E-02 -.331E-03 -.153E-02
   0.757E+03 0.773E+03 0.162E+00   -.755E+03 -.771E+03 -.160E+00   -.115E+01 -.111E+01 0.256E-04   0.593E-03 0.186E-02 -.249E-02
   -.775E+03 -.755E+03 0.189E+00   0.773E+03 0.753E+03 -.191E+00   0.115E+01 0.113E+01 0.119E-03   0.280E-03 0.106E-02 0.140E-02
   -.764E+03 0.764E+03 0.655E-01   0.762E+03 -.762E+03 -.628E-01   0.115E+01 -.116E+01 -.187E-02   -.113E-02 0.293E-03 0.244E-03
   0.624E+03 -.555E+03 0.976E+01   -.627E+03 0.561E+03 -.939E+01   0.328E+01 -.541E+01 -.300E+00   -.170E-02 -.121E-02 0.155E-02
   -.864E+01 0.975E+01 0.108E+04   0.866E+01 -.977E+01 -.107E+04   -.792E-02 0.825E-02 -.159E+01   -.613E-02 -.622E-02 -.584E-03
   -.898E+01 0.101E+02 -.108E+04   0.899E+01 -.101E+02 0.107E+04   -.151E-02 0.196E-02 0.160E+01   -.298E-02 -.251E-02 -.164E-04
   0.971E+03 0.415E+03 -.423E+03   -.968E+03 -.413E+03 0.422E+03   -.183E+01 -.154E+01 0.210E+00   0.153E-02 0.268E-02 0.130E-02
   -.419E+03 -.968E+03 -.425E+03   0.417E+03 0.965E+03 0.425E+03   0.152E+01 0.184E+01 0.197E+00   0.197E-02 0.101E-02 -.936E-03
   -.328E+03 0.329E+03 -.455E+03   0.329E+03 -.329E+03 0.456E+03   -.371E+00 0.371E+00 -.511E+00   -.265E-02 -.113E-02 -.312E-03
   0.296E+03 -.291E+03 0.472E+03   -.296E+03 0.291E+03 -.473E+03   0.387E+00 -.351E+00 0.372E+00   -.248E-02 -.366E-02 -.153E-02
   0.313E+03 0.336E+03 -.458E+03   -.314E+03 -.337E+03 0.458E+03   0.388E+00 0.341E+00 -.518E+00   -.115E-02 -.746E-04 0.158E-02
   -.975E+03 0.398E+03 -.417E+03   0.972E+03 -.395E+03 0.417E+03   0.183E+01 -.152E+01 0.215E+00   -.128E-02 -.110E-02 -.207E-02
   0.328E+03 -.961E+03 -.463E+03   -.326E+03 0.959E+03 0.463E+03   -.164E+01 0.170E+01 0.231E-01   0.308E-03 0.127E-03 -.761E-03
   -.337E+03 -.311E+03 0.459E+03   0.337E+03 0.311E+03 -.459E+03   -.328E+00 -.401E+00 0.514E+00   -.248E-03 -.192E-03 0.135E-02
   0.627E+03 0.398E+02 0.664E+00   -.628E+03 -.396E+02 -.673E+00   0.642E+00 -.234E+00 0.564E-02   -.905E-04 -.192E-02 0.612E-03
   -.647E+03 0.678E+01 0.118E+00   0.648E+03 -.679E+01 -.119E+00   -.727E+00 0.178E-01 0.312E-04   -.222E-03 -.466E-03 0.447E-03
   -.173E+02 -.578E+03 0.981E+03   0.173E+02 0.577E+03 -.977E+03   -.361E-02 0.284E+00 -.238E+01   -.242E-02 0.183E-02 -.816E-03
   -.182E+02 -.578E+03 -.981E+03   0.183E+02 0.577E+03 0.977E+03   -.875E-02 0.285E+00 0.238E+01   0.525E-03 -.813E-03 -.573E-03
   -.159E+02 0.179E+02 0.306E+00   0.158E+02 -.179E+02 -.307E+00   0.264E-01 -.247E-01 0.249E-03   -.207E-02 -.329E-02 0.261E-03
   0.295E+03 -.289E+03 -.472E+03   -.295E+03 0.290E+03 0.472E+03   0.353E+00 -.319E+00 -.405E+00   -.356E-02 -.321E-02 0.639E-03
   -.337E+03 -.311E+03 -.458E+03   0.337E+03 0.311E+03 0.459E+03   -.324E+00 -.404E+00 -.515E+00   -.535E-03 0.241E-03 -.109E-02
   -.439E+02 -.619E+03 0.840E+00   0.440E+02 0.620E+03 -.848E+00   -.480E-01 -.595E+00 0.489E-02   0.483E-03 0.193E-02 0.566E-03
   0.188E+03 -.220E+03 -.472E+01   -.172E+03 0.202E+03 0.438E+01   -.121E+02 0.134E+02 0.191E+00   -.595E-03 0.114E-03 0.143E-03
   0.533E+03 -.592E+03 -.897E+01   -.576E+03 0.641E+03 0.977E+01   0.407E+02 -.458E+02 -.732E+00   -.448E-03 -.996E-04 0.146E-03
 -----------------------------------------------------------------------------------------------
   -.327E+02 0.392E+02 0.928E+00   -.455E-12 0.341E-12 -.211E-11   0.328E+02 -.392E+02 -.896E+00   -.469E-01 -.165E-01 -.288E-01
 
 
 POSITION                                       TOTAL-FORCE (eV/Angst)
 -----------------------------------------------------------------------------------
     13.37281      9.84801     12.50759         0.702455      1.103949      0.296068
     20.15199     16.62719     12.50759        -1.103344     -0.705088      0.296340
     16.62719      9.84801     12.50759        -0.709626      1.102920      0.283150
      9.84801     16.62719     12.50759         1.127819     -0.757757      0.272561
     15.00000     11.47521     10.20639         0.004289      0.414167      1.277506
     15.00000     11.47521     19.79360         0.004716      0.413850     -1.277592
     15.00000      8.28283     15.00000        -0.005694      1.514689      0.000297
      8.28283     15.00000     15.00000         1.507860     -0.009106     -0.000149
     21.71717     15.00000     15.00000        -1.514835      0.004167      0.000268
     15.00000     21.71717     15.00000         0.021806     -1.498928     -0.000518
     18.35858     11.64142     10.25025        -0.756875      0.758863      1.067175
     18.35858     11.64142     19.74975        -0.756770      0.758753     -1.067537
     11.64142     18.35858     10.25025         0.756329     -0.758271      1.054641
     11.64142     18.35858     19.74975         0.756397     -0.758817     -1.051697
     11.64142     11.64142     10.25025         0.747615      0.758910      1.066613
     11.64142     11.64142     19.74975         0.746882      0.759366     -1.065771
     18.35858     18.35858     10.25025        -0.759166     -0.742075      1.066684
     18.35858     18.35858     19.74975        -0.759917     -0.741575     -1.066242
     13.37281      9.84801     17.49241         0.702813      1.103807     -0.296781
     20.15199     16.62719     17.49241        -1.103187     -0.705395     -0.296872
     16.73751     13.26249     12.54279         0.107509     -0.108035     -0.159669
      9.84801     13.37281     12.50759         1.102497      0.703787      0.291482
     16.62719     20.15199     12.50759        -0.696081     -1.105570      0.287574
     16.62719      9.84801     17.49241        -0.709137      1.103365     -0.283497
      9.84801     16.62719     17.49241         1.127297     -0.760421     -0.273495
     20.15199     13.37281     12.50759        -1.103222      0.708683      0.286097
     13.37281     20.15199     12.50759         0.752705     -1.133565      0.267103
     13.26249     13.26249     12.54279        -0.103435     -0.102788     -0.144248
     15.00000     11.52498     15.00000        -0.006786     -0.226563     -0.000043
     18.52479     15.00000     10.20639        -0.414945     -0.007284      1.277882
     18.52479     15.00000     19.79360        -0.414621     -0.007623     -1.278187
     11.47521     15.00000     10.20640         0.412826      0.000196      1.275177
     11.47521     15.00000     19.79360         0.413331     -0.001385     -1.274602
     11.49535     11.49535     15.00000         0.830792      0.796805     -0.000474
     18.50465     18.50465     15.00000        -0.817918     -0.828266     -0.000370
     18.50465     11.49535     15.00000        -0.831797      0.838588      0.000954
     11.49535     18.50465     15.00000        -0.218732      0.726630      0.071108
     15.00000     15.00000     10.04368         0.011580     -0.014389      1.161403
     15.00000     15.00000     19.95633         0.009211     -0.011878     -1.164363
      9.84801     13.37281     17.49241         1.102681      0.704624     -0.291144
     16.62719     20.15199     17.49241        -0.696447     -1.105687     -0.287036
     16.73751     13.26249     17.45721         0.107676     -0.108429      0.159493
     13.26249     16.73751     12.54279        -0.109444      0.089715     -0.164144
     13.26249     13.26249     17.45721        -0.103370     -0.103210      0.144284
     20.15199     13.37281     17.49241        -1.103438      0.708228     -0.286208
     13.37281     20.15199     17.49241         0.749083     -1.132013     -0.272288
     16.73751     16.73751     12.54279         0.104142      0.102974     -0.145377
     11.52498     15.00000     15.00000        -0.209997      0.035827     -0.003324
     18.47502     15.00000     15.00000         0.227246      0.005051     -0.000228
     15.00000     18.52480     10.20639         0.000364     -0.410065      1.277808
     15.00000     18.52480     19.79360         0.002252     -0.410607     -1.276774
     15.00000     15.00000     15.00000        -0.010577      0.009270     -0.000240
     13.26249     16.73751     17.45721        -0.101988      0.083605      0.180720
     16.73751     16.73751     17.45721         0.104436      0.103000      0.145435
     15.00000     18.47502     15.00000         0.061441      0.233313     -0.002357
     10.43899     20.17923     15.08737         3.376194     -4.487944     -0.151310
      9.69356     21.02570     15.10165        -2.560896      3.095631      0.074718
 -----------------------------------------------------------------------------------
    total drift:                                0.014625     -0.004773      0.003280


--------------------------------------------------------------------------------------------------------



  FREE ENERGIE OF THE ION-ELECTRON SYSTEM (eV)
  ---------------------------------------------------
  free  energy   TOTEN  =      -175.08977216 eV

  energy  without entropy=     -175.03901319  energy(sigma->0) =     -175.07708242
 


--------------------------------------------------------------------------------------------------------


    POTLOK:  cpu time   18.4701: real time   18.4705


--------------------------------------------------------------------------------------------------------


     LOOP+:  cpu time28113.8283: real time28114.7542
    4ORBIT:  cpu time    0.0000: real time    0.0000

 total amount of memory used by VASP MPI-rank0  5486942. kBytes
=======================================================================

   base      :      30000. kBytes
   nonlr-proj:      17127. kBytes
   fftplans  :     924480. kBytes
   grid      :    1872000. kBytes
   one-center:        886. kBytes
   wavefun   :    2642449. kBytes
 
  
  
 General timing and accounting informations for this job:
 ========================================================
  
                  Total CPU time used (sec):    28224.195
                            User time (sec):    26101.891
                          System time (sec):     2122.305
                         Elapsed time (sec):    28225.212
  
                   Maximum memory used (kb):     7178888.
                   Average memory used (kb):           0.
  
                          Minor page faults:    814061326
                          Major page faults:            0
                 Voluntary context switches:          542
