 vasp.5.4.4.18Apr17-6-g9f103f2a35 (build Sep 03 2018 23:53:05) complex          
  
 executed on             LinuxIFC date 2021.12.01  10:36:26
 running on    1 total cores
 distrk:  each k-point on    1 cores,    1 groups
 distr:  one band on NCORES_PER_BAND=   1 cores,    1 groups


--------------------------------------------------------------------------------------------------------


 INCAR:
 POTCAR:    PAW_PBE Pd 04Jan2005                  
 POTCAR:    PAW_PBE C 08Apr2002                   
 POTCAR:    PAW_PBE O 08Apr2002                   
 POTCAR:    PAW_PBE Pd 04Jan2005                  
   VRHFIN =Pd : s1 d9                                                           
   LEXCH  = PE                                                                  
   EATOM  =   809.7530 eV,   59.5152 Ry                                         
                                                                                
   TITEL  = PAW_PBE Pd 04Jan2005                                                
   LULTRA =        F    use ultrasoft PP ?                                      
   IUNSCR =        1    unscreen: 0-lin 1-nonlin 2-no                           
   RPACOR =    2.000    partial core radius                                     
   POMASS =  106.420; ZVAL   =   10.000    mass and valenz                      
   RCORE  =    2.600    outmost cutoff radius                                   
   RWIGS  =    2.710; RWIGS  =    1.434    wigner-seitz radius (au A)           
   ENMAX  =  250.925; ENMIN  =  188.194 eV                                      
   ICORE  =        3    local potential                                         
   LCOR   =        T    correct aug charges                                     
   LPAW   =        T    paw PP                                                  
   EAUG   =  416.230                                                            
   DEXC   =    0.000                                                            
   RMAX   =    2.653    core radius for proj-oper                               
   RAUG   =    1.300    factor for augmentation sphere                          
   RDEP   =    2.734    radius for radial grids                                 
   RDEPT  =    2.103    core radius for aug-charge                              
                                                                                
   Atomic configuration                                                         
   12 entries                                                                   
     n  l   j            E        occ.                                          
     1  0  0.50    -24164.6631   2.0000                                         
     2  0  0.50     -3530.9218   2.0000                                         
     2  1  1.50     -3165.6822   6.0000                                         
     3  0  0.50      -639.4577   2.0000                                         
     3  1  1.50      -519.4532   6.0000                                         
     3  2  2.50      -328.9757  10.0000                                         
     4  0  0.50       -88.7014   2.0000                                         
     4  1  1.50       -54.4540   6.0000                                         
     4  2  2.50        -6.6878   9.0000                                         
     5  0  0.50        -4.3543   1.0000                                         
     5  1  0.50        -1.3606   0.0000                                         
     4  3  2.50        -1.3606   0.0000                                         
   Description                                                                  
     l       E           TYP  RCUT    TYP  RCUT                                 
     2     -6.6878251     23  2.400                                             
     2     -8.0484077     23  2.400                                             
     0     -4.3542939     23  2.400                                             
     0      4.3406793     23  2.400                                             
     1     -4.0817478     23  2.600                                             
     1     15.8380318     23  2.600                                             
     3     -4.0817478     23  2.400                                             
  local pseudopotential read in
  partial core-charges read in
  partial kinetic energy density read in
  atomic valenz-charges read in
  non local Contribution for L=           2  read in
    real space projection operators read in
  non local Contribution for L=           2  read in
    real space projection operators read in
  non local Contribution for L=           0  read in
    real space projection operators read in
  non local Contribution for L=           0  read in
    real space projection operators read in
  non local Contribution for L=           1  read in
    real space projection operators read in
  non local Contribution for L=           1  read in
    real space projection operators read in
    PAW grid and wavefunctions read in
 
   number of l-projection  operators is LMAX  =           6
   number of lm-projection operators is LMMAX =          18
 
 POTCAR:    PAW_PBE C 08Apr2002                   
   VRHFIN =C: s2p2                                                              
   LEXCH  = PE                                                                  
   EATOM  =   147.1560 eV,   10.8157 Ry                                         
                                                                                
   TITEL  = PAW_PBE C 08Apr2002                                                 
   LULTRA =        F    use ultrasoft PP ?                                      
   IUNSCR =        1    unscreen: 0-lin 1-nonlin 2-no                           
   RPACOR =    1.200    partial core radius                                     
   POMASS =   12.011; ZVAL   =    4.000    mass and valenz                      
   RCORE  =    1.500    outmost cutoff radius                                   
   RWIGS  =    1.630; RWIGS  =    0.863    wigner-seitz radius (au A)           
   ENMAX  =  400.000; ENMIN  =  300.000 eV                                      
   ICORE  =        2    local potential                                         
   LCOR   =        T    correct aug charges                                     
   LPAW   =        T    paw PP                                                  
   EAUG   =  644.873                                                            
   DEXC   =    0.000                                                            
   RMAX   =    1.529    core radius for proj-oper                               
   RAUG   =    1.300    factor for augmentation sphere                          
   RDEP   =    1.501    radius for radial grids                                 
   RDEPT  =    1.300    core radius for aug-charge                              
                                                                                
   Atomic configuration                                                         
    4 entries                                                                   
     n  l   j            E        occ.                                          
     1  0  0.50      -273.3789   2.0000                                         
     2  0  0.50       -13.7508   2.0000                                         
     2  1  0.50        -5.2854   2.0000                                         
     3  2  1.50        -5.4423   0.0000                                         
   Description                                                                  
     l       E           TYP  RCUT    TYP  RCUT                                 
     0    -13.7508458     23  1.200                                             
     0     -8.2022199     23  1.200                                             
     1     -5.2854383     23  1.500                                             
     1     34.0145650     23  1.500                                             
     2     -5.4423304      7  1.500                                             
  local pseudopotential read in
  partial core-charges read in
  partial kinetic energy density read in
  atomic valenz-charges read in
  non local Contribution for L=           0  read in
    real space projection operators read in
  non local Contribution for L=           0  read in
    real space projection operators read in
  non local Contribution for L=           1  read in
    real space projection operators read in
  non local Contribution for L=           1  read in
    real space projection operators read in
    PAW grid and wavefunctions read in
 
   number of l-projection  operators is LMAX  =           4
   number of lm-projection operators is LMMAX =           8
 
 POTCAR:    PAW_PBE O 08Apr2002                   
   VRHFIN =O: s2p4                                                              
   LEXCH  = PE                                                                  
   EATOM  =   432.3788 eV,   31.7789 Ry                                         
                                                                                
   TITEL  = PAW_PBE O 08Apr2002                                                 
   LULTRA =        F    use ultrasoft PP ?                                      
   IUNSCR =        1    unscreen: 0-lin 1-nonlin 2-no                           
   RPACOR =    1.200    partial core radius                                     
   POMASS =   16.000; ZVAL   =    6.000    mass and valenz                      
   RCORE  =    1.520    outmost cutoff radius                                   
   RWIGS  =    1.550; RWIGS  =    0.820    wigner-seitz radius (au A)           
   ENMAX  =  400.000; ENMIN  =  300.000 eV                                      
   ICORE  =        2    local potential                                         
   LCOR   =        T    correct aug charges                                     
   LPAW   =        T    paw PP                                                  
   EAUG   =  605.392                                                            
   DEXC   =    0.000                                                            
   RMAX   =    1.553    core radius for proj-oper                               
   RAUG   =    1.300    factor for augmentation sphere                          
   RDEP   =    1.550    radius for radial grids                                 
   RDEPT  =    1.329    core radius for aug-charge                              
                                                                                
   Atomic configuration                                                         
    4 entries                                                                   
     n  l   j            E        occ.                                          
     1  0  0.50      -514.6923   2.0000                                         
     2  0  0.50       -23.9615   2.0000                                         
     2  1  0.50        -9.0305   4.0000                                         
     3  2  1.50        -9.5241   0.0000                                         
   Description                                                                  
     l       E           TYP  RCUT    TYP  RCUT                                 
     0    -23.9615318     23  1.200                                             
     0     -9.5240782     23  1.200                                             
     1     -9.0304911     23  1.520                                             
     1      8.1634956     23  1.520                                             
     2     -9.5240782      7  1.500                                             
  local pseudopotential read in
  partial core-charges read in
  partial kinetic energy density read in
  kinetic energy density of atom read in
  atomic valenz-charges read in
  non local Contribution for L=           0  read in
    real space projection operators read in
  non local Contribution for L=           0  read in
    real space projection operators read in
  non local Contribution for L=           1  read in
    real space projection operators read in
  non local Contribution for L=           1  read in
    real space projection operators read in
    PAW grid and wavefunctions read in
 
   number of l-projection  operators is LMAX  =           4
   number of lm-projection operators is LMMAX =           8
 
 Optimization of the real space projectors (new method)

 maximal supplied QI-value         = 14.36
 optimisation between [QCUT,QGAM] = [ 10.20, 20.39] = [ 29.12,116.47] Ry 
 Optimized for a Real-space Cutoff    1.51 Angstroem

   l    n(q)    QCUT    max X(q) W(low)/X(q) W(high)/X(q)  e(spline) 
   2      8    10.197    59.108    0.26E-03    0.14E-03    0.96E-07
   2      8    10.197    58.101    0.27E-03    0.14E-03    0.98E-07
   0      9    10.197   102.235    0.54E-04    0.60E-05    0.72E-07
   0      9    10.197    58.388    0.52E-04    0.60E-05    0.68E-07
   1      9    10.197    22.191    0.18E-03    0.25E-03    0.79E-07
   1      9    10.197    15.590    0.15E-03    0.21E-03    0.69E-07
 Optimization of the real space projectors (new method)

 maximal supplied QI-value         = 25.13
 optimisation between [QCUT,QGAM] = [ 10.05, 20.36] = [ 28.30,116.06] Ry 
 Optimized for a Real-space Cutoff    1.30 Angstroem

   l    n(q)    QCUT    max X(q) W(low)/X(q) W(high)/X(q)  e(spline) 
   0      8    10.053   115.676    0.49E-03    0.72E-03    0.18E-06
   0      8    10.053    87.132    0.49E-03    0.71E-03    0.18E-06
   1      7    10.053     4.429    0.32E-03    0.31E-03    0.18E-06
   1      7    10.053     2.733    0.23E-03    0.19E-03    0.20E-06
 Optimization of the real space projectors (new method)

 maximal supplied QI-value         = 24.76
 optimisation between [QCUT,QGAM] = [ 10.15, 20.30] = [ 28.85,115.39] Ry 
 Optimized for a Real-space Cutoff    1.38 Angstroem

   l    n(q)    QCUT    max X(q) W(low)/X(q) W(high)/X(q)  e(spline) 
   0      8    10.150    20.381    0.22E-03    0.32E-03    0.29E-06
   0      8    10.150    15.268    0.23E-03    0.35E-03    0.30E-06
   1      8    10.150     5.964    0.46E-03    0.53E-03    0.21E-06
   1      8    10.150     5.382    0.38E-03    0.45E-03    0.19E-06

 ----------------------------------------------------------------------------- 
|                                                                             |
|  ADVICE TO THIS USER RUNNING 'VASP/VAMP'   (HEAR YOUR MASTER'S VOICE ...):  |
|                                                                             |
|      You enforced a specific xc-type in the INCAR file,                     |
|      a different type was found on the POTCAR file                          |
|          I HOPE YOU KNOW, WHAT YOU ARE  DOING                               |
|                                                                             |
 ----------------------------------------------------------------------------- 

  PAW_PBE Pd 04Jan2005                  :
 energy of atom  1       EATOM= -809.7530
 kinetic energy error for atom=    0.0091 (will be added to EATOM!!)
  PAW_PBE C 08Apr2002                   :
 energy of atom  2       EATOM= -147.1560
 kinetic energy error for atom=    0.0288 (will be added to EATOM!!)
  PAW_PBE O 08Apr2002                   :
 energy of atom  3       EATOM= -432.3788
 kinetic energy error for atom=    0.1156 (will be added to EATOM!!)
 
 
 POSCAR: Pd55PES                                 
  positions in cartesian coordinates
  No initial velocities read in
 exchange correlation table for  LEXCH =        9
   RHO(1)=    0.500       N(1)  =     2000
   RHO(2)=  100.500       N(2)  =     4000
 


--------------------------------------------------------------------------------------------------------


 ion  position               nearest neighbor table
   1  0.446  0.328  0.417-   3 3.25   5 3.25   7 3.36  15 3.36  29 3.42  28 3.42
   2  0.672  0.554  0.417-  26 3.25  30 3.25  17 3.36   9 3.36  47 3.42  49 3.42
   3  0.554  0.328  0.417-   1 3.25   5 3.25   7 3.36  11 3.36  29 3.42  21 3.42
   4  0.328  0.554  0.417-  32 3.25  22 3.25  13 3.36   8 3.36  43 3.42  48 3.42
   5  0.500  0.383  0.340-   1 3.25   3 3.25  11 3.36  15 3.36  21 3.42  28 3.42
   6  0.500  0.383  0.660-  24 3.25  19 3.25  16 3.36  12 3.36  42 3.42  44 3.42
   7  0.500  0.276  0.500-  29 3.24   3 3.36   1 3.36  19 3.36  24 3.36
   8  0.276  0.500  0.500-  48 3.24  22 3.36  40 3.36   4 3.36  25 3.36
   9  0.724  0.500  0.500-  49 3.24  26 3.36  45 3.36   2 3.36  20 3.36
  10  0.500  0.724  0.500-  55 3.24  27 3.36  23 3.36  46 3.36  41 3.36
  11  0.612  0.388  0.342-  21 3.24   5 3.36   3 3.36  30 3.36  26 3.36
  12  0.612  0.388  0.658-  42 3.24  24 3.36  45 3.36   6 3.36  31 3.36
  13  0.388  0.612  0.342-  43 3.24  32 3.36  50 3.36   4 3.36  27 3.36
  14  0.388  0.612  0.658-  53 3.24  25 3.36  33 3.36  51 3.36  46 3.36
  15  0.388  0.388  0.342-  28 3.24   5 3.36   1 3.36  32 3.36  22 3.36
  16  0.388  0.388  0.658-  44 3.24  19 3.36  40 3.36   6 3.36  33 3.36
  17  0.612  0.612  0.342-  47 3.24  30 3.36  50 3.36   2 3.36  23 3.36
  18  0.612  0.612  0.658-  54 3.24  31 3.36  20 3.36  51 3.36  41 3.36
  19  0.446  0.328  0.583-   6 3.25  24 3.25  16 3.36   7 3.36  44 3.42  29 3.42
  20  0.672  0.554  0.583-  31 3.25  45 3.25  18 3.36   9 3.36  54 3.42  49 3.42
  21  0.558  0.442  0.418-  11 3.24   5 3.42   3 3.42  30 3.42  26 3.42
  22  0.328  0.446  0.417-   4 3.25  32 3.25   8 3.36  15 3.36  48 3.42  28 3.42
  23  0.554  0.672  0.417-  27 3.25  50 3.25  10 3.36  17 3.36  55 3.42  47 3.42
  24  0.554  0.328  0.583-   6 3.25  19 3.25  12 3.36   7 3.36  42 3.42  29 3.42
  25  0.328  0.554  0.583-  33 3.25  40 3.25  14 3.36   8 3.36  53 3.42  48 3.42
  26  0.672  0.446  0.417-   2 3.25  30 3.25   9 3.36  11 3.36  49 3.42  21 3.42
  27  0.446  0.672  0.417-  23 3.25  50 3.25  10 3.36  13 3.36  55 3.42  43 3.42
  28  0.442  0.442  0.418-  15 3.24   5 3.42   1 3.42  32 3.42  22 3.42
  29  0.500  0.384  0.500-   7 3.24   3 3.42   1 3.42  24 3.42  19 3.42
  30  0.617  0.500  0.340-   2 3.25  26 3.25  17 3.36  11 3.36  47 3.42  21 3.42
  31  0.617  0.500  0.660-  20 3.25  45 3.25  18 3.36  12 3.36  54 3.42  42 3.42
  32  0.383  0.500  0.340-   4 3.25  22 3.25  13 3.36  15 3.36  43 3.42  28 3.42
  33  0.383  0.500  0.660-  25 3.25  40 3.25  14 3.36  16 3.36  53 3.42  44 3.42
  34  0.383  0.383  0.500-
  35  0.617  0.617  0.500-
  36  0.617  0.383  0.500-
  37  0.383  0.617  0.500-
  38  0.500  0.500  0.335-
  39  0.500  0.500  0.665-
  40  0.328  0.446  0.583-  33 3.25  25 3.25  16 3.36   8 3.36  44 3.42  48 3.42
  41  0.554  0.672  0.583-  46 3.25  51 3.25  10 3.36  18 3.36  54 3.42  55 3.42
  42  0.558  0.442  0.582-  12 3.24   6 3.42  24 3.42  31 3.42  45 3.42
  43  0.442  0.558  0.418-  13 3.24   4 3.42  32 3.42  27 3.42  50 3.42
  44  0.442  0.442  0.582-  16 3.24   6 3.42  19 3.42  33 3.42  40 3.42
  45  0.672  0.446  0.583-  20 3.25  31 3.25   9 3.36  12 3.36  49 3.42  42 3.42
  46  0.446  0.672  0.583-  41 3.25  51 3.25  10 3.36  14 3.36  53 3.42  55 3.42
  47  0.558  0.558  0.418-  17 3.24   2 3.42  30 3.42  23 3.42  50 3.42
  48  0.384  0.500  0.500-   8 3.24   4 3.42  22 3.42  25 3.42  40 3.42
  49  0.616  0.500  0.500-   9 3.24   2 3.42  26 3.42  20 3.42  45 3.42
  50  0.500  0.617  0.340-  27 3.25  23 3.25  13 3.36  17 3.36  43 3.42  47 3.42
  51  0.500  0.617  0.660-  41 3.25  46 3.25  14 3.36  18 3.36  53 3.42  54 3.42
  52  0.500  0.500  0.500-
  53  0.442  0.558  0.582-  14 3.24  25 3.42  33 3.42  51 3.42  46 3.42
  54  0.558  0.558  0.582-  18 3.24  31 3.42  20 3.42  51 3.42  41 3.42
  55  0.500  0.616  0.500-  10 3.24  23 3.42  27 3.42  41 3.42  46 3.42
  56  0.658  0.654  0.734-  57 1.13
  57  0.676  0.672  0.761-  56 1.13
 
  LATTYP: Found a simple cubic cell.
 ALAT       =    30.0000000000
  
  Lattice vectors:
  
 A1 = (  30.0000000000,   0.0000000000,   0.0000000000)
 A2 = (   0.0000000000,  30.0000000000,   0.0000000000)
 A3 = (   0.0000000000,   0.0000000000,  30.0000000000)


Analysis of symmetry for initial positions (statically):
=====================================================================
 Subroutine PRICEL returns:
 Original cell was already a primitive cell.
 

 Routine SETGRP: Setting up the symmetry group for a 
 simple cubic supercell.


 Subroutine GETGRP returns: Found  1 space group operations
 (whereof  1 operations were pure point group operations)
 out of a pool of 48 trial point group operations.


The static configuration has the point symmetry C_1 .


Analysis of symmetry for dynamics (positions and initial velocities):
=====================================================================
 Subroutine PRICEL returns:
 Original cell was already a primitive cell.
 

 Routine SETGRP: Setting up the symmetry group for a 
 simple cubic supercell.


 Subroutine GETGRP returns: Found  1 space group operations
 (whereof  1 operations were pure point group operations)
 out of a pool of 48 trial point group operations.


The dynamic configuration has the point symmetry C_1 .


Analysis of constrained symmetry for selective dynamics:
=====================================================================
 Subroutine PRICEL returns:
 Original cell was already a primitive cell.
 

 Routine SETGRP: Setting up the symmetry group for a 
 simple cubic supercell.


 Subroutine GETGRP returns: Found  1 space group operations
 (whereof  1 operations were pure point group operations)
 out of a pool of 48 trial point group operations.


The constrained configuration has the point symmetry C_1 .


 Subroutine INISYM returns: Found  1 space group operations
 (whereof  1 operations are pure point group operations),
 and found     1 'primitive' translations

 
 
 KPOINTS: K-points                                

Automatic generation of k-mesh.
Space group operators:
 irot       det(A)        alpha          n_x          n_y          n_z        tau_x        tau_y        tau_z
    1     1.000000     0.000000     1.000000     0.000000     0.000000     0.000000     0.000000     0.000000
 
 Subroutine IBZKPT returns following result:
 ===========================================
 
 Found      1 irreducible k-points:
 
 Following reciprocal coordinates:
            Coordinates               Weight
  0.000000  0.000000  0.000000      1.000000
 
 Following cartesian coordinates:
            Coordinates               Weight
  0.000000  0.000000  0.000000      1.000000
 


--------------------------------------------------------------------------------------------------------




 Dimension of arrays:
   k-points           NKPTS =      1   k-points in BZ     NKDIM =      1   number of bands    NBANDS=    336
   number of dos      NEDOS =    301   number of ions     NIONS =     57
   non local maximal  LDIM  =      6   non local SUM 2l+1 LMDIM =     18
   total plane-waves  NPLWV = ******
   max r-space proj   IRMAX =   1847   max aug-charges    IRDMAX=   6262
   dimension x,y,z NGX =   150 NGY =  150 NGZ =  150
   dimension x,y,z NGXF=   300 NGYF=  300 NGZF=  300
   support grid    NGXF=   300 NGYF=  300 NGZF=  300
   ions per type =              55   1   1
   NGX,Y,Z   is equivalent  to a cutoff of   8.31,  8.31,  8.31 a.u.
   NGXF,Y,Z  is equivalent  to a cutoff of  16.62, 16.62, 16.62 a.u.

 SYSTEM =  6_Pd100_top_free_z(O)                   
 POSCAR =  Pd55PES                                 

 Startparameter for this run:
   NWRITE =      2    write-flag & timer
   PREC   = normal    normal or accurate (medium, high low for compatibility)
   ISTART =      0    job   : 0-new  1-cont  2-samecut
   ICHARG =      2    charge: 1-file 2-atom 10-const
   ISPIN  =      1    spin polarized calculation?
   LNONCOLLINEAR =      F non collinear calculations
   LSORBIT =      F    spin-orbit coupling
   INIWAV =      1    electr: 0-lowe 1-rand  2-diag
   LASPH  =      F    aspherical Exc in radial PAW
   METAGGA=      F    non-selfconsistent MetaGGA calc.

 Electronic Relaxation 1
   ENCUT  =  400.0 eV  29.40 Ry    5.42 a.u.  48.92 48.92 48.92*2*pi/ulx,y,z
   ENINI  =  400.0     initial cutoff
   ENAUG  =  644.9 eV  augmentation charge cutoff
   NELM   =    100;   NELMIN=  6; NELMDL= -5     # of ELM steps 
   EDIFF  = 0.1E-03   stopping-criterion for ELM
   LREAL  =      T    real-space projection
   NLSPLINE    = F    spline interpolate recip. space projectors
   LCOMPAT=      F    compatible to vasp.4.4
   GGA_COMPAT  = T    GGA compatible to vasp.4.4-vasp.4.6
   LMAXPAW     = -100 max onsite density
   LMAXMIX     =    2 max onsite mixed and CHGCAR
   VOSKOWN=      0    Vosko Wilk Nusair interpolation
   ROPT   =   -0.00050  -0.00050  -0.00050
 Ionic relaxation
   EDIFFG = -.5E-01   stopping-criterion for IOM
   NSW    =      0    number of steps for IOM
   NBLOCK =      1;   KBLOCK =      1    inner block; outer block 
   IBRION =     -1    ionic relax: 0-MD 1-quasi-New 2-CG
   NFREE  =      1    steps in history (QN), initial steepest desc. (CG)
   ISIF   =      2    stress and relaxation
   IWAVPR =     10    prediction:  0-non 1-charg 2-wave 3-comb
   ISYM   =      2    0-nonsym 1-usesym 2-fastsym
   LCORR  =      T    Harris-Foulkes like correction to forces

   POTIM  = 0.5000    time-step for ionic-motion
   TEIN   =    0.0    initial temperature
   TEBEG  =    0.0;   TEEND  =   0.0 temperature during run
   SMASS  =  -3.00    Nose mass-parameter (am)
   estimated Nose-frequenzy (Omega)   =  0.10E-29 period in steps =****** mass=  -0.206E-25a.u.
   SCALEE = 1.0000    scale energy and forces
   NPACO  =    256;   APACO  = 16.0  distance and # of slots for P.C.
   PSTRESS=    0.0 pullay stress

  Mass of Ions in am
   POMASS = 106.42 12.01 16.00
  Ionic Valenz
   ZVAL   =  10.00  4.00  6.00
  Atomic Wigner-Seitz radii
   RWIGS  =  -1.00 -1.00 -1.00
  virtual crystal weights 
   VCA    =   1.00  1.00  1.00
   NELECT =     560.0000    total number of electrons
   NUPDOWN=      -1.0000    fix difference up-down

 DOS related values:
   EMIN   =  10.00;   EMAX   =-10.00  energy-range for DOS
   EFERMI =   0.00
   ISMEAR =     2;   SIGMA  =   0.20  broadening in eV -4-tet -1-fermi 0-gaus

 Electronic relaxation 2 (details)
   IALGO  =     68    algorithm
   LDIAG  =      T    sub-space diagonalisation (order eigenvalues)
   LSUBROT=      F    optimize rotation matrix (better conditioning)
   TURBO    =      0    0=normal 1=particle mesh
   IRESTART =      0    0=no restart 2=restart with 2 vectors
   NREBOOT  =      0    no. of reboots
   NMIN     =      0    reboot dimension
   EREF     =   0.00    reference energy to select bands
   IMIX   =      4    mixing-type and parameters
     AMIX     =   0.40;   BMIX     =  1.00
     AMIX_MAG =   1.60;   BMIX_MAG =  1.00
     AMIN     =   0.10
     WC   =   100.;   INIMIX=   1;  MIXPRE=   1;  MAXMIX= -45

 Intra band minimization:
   WEIMIN = 0.0000     energy-eigenvalue tresh-hold
   EBREAK =  0.74E-07  absolut break condition
   DEPER  =   0.30     relativ break condition  

   TIME   =   0.40     timestep for ELM

  volume/ion in A,a.u.               =     473.68      3196.58
  Fermi-wavevector in a.u.,A,eV,Ry     =   0.449797  0.849992  2.752691  0.202317
  Thomas-Fermi vector in A             =   1.430086
 
 Write flags
   LWAVE        =      F    write WAVECAR
   LDOWNSAMPLE  =      F    k-point downsampling of WAVECAR
   LCHARG       =      F    write CHGCAR
   LVTOT        =      F    write LOCPOT, total local potential
   LVHAR        =      F    write LOCPOT, Hartree potential only
   LELF         =      F    write electronic localiz. function (ELF)
   LORBIT       =      0    0 simple, 1 ext, 2 COOP (PROOUT), +10 PAW based schemes


 Dipole corrections
   LMONO  =      F    monopole corrections only (constant potential shift)
   LDIPOL =      F    correct potential (dipole corrections)
   IDIPOL =      0    1-x, 2-y, 3-z, 4-all directions 
   EPSILON=  1.0000000 bulk dielectric constant

 Exchange correlation treatment:
   GGA     =    RP    GGA type
   LEXCH   =     9    internal setting for exchange type
   VOSKOWN=      0    Vosko Wilk Nusair interpolation
   LHFCALC =     F    Hartree Fock is set to
   LHFONE  =     F    Hartree Fock one center treatment
   AEXX    =    0.0000 exact exchange contribution

 Linear response parameters
   LEPSILON=     F    determine dielectric tensor
   LRPA    =     F    only Hartree local field effects (RPA)
   LNABLA  =     F    use nabla operator in PAW spheres
   LVEL    =     F    velocity operator in full k-point grid
   LINTERFAST=   F  fast interpolation
   KINTER  =     0    interpolate to denser k-point grid
   CSHIFT  =0.1000    complex shift for real part using Kramers Kronig
   OMEGAMAX=  -1.0    maximum frequency
   DEG_THRESHOLD= 0.2000000E-02 threshold for treating states as degnerate
   RTIME   =   -0.100 relaxation time in fs
  (WPLASMAI=    0.000 imaginary part of plasma frequency in eV, 0.658/RTIME)
   DFIELD  = 0.0000000 0.0000000 0.0000000 field for delta impulse in time
 
 Orbital magnetization related:
   ORBITALMAG=     F  switch on orbital magnetization
   LCHIMAG   =     F  perturbation theory with respect to B field
   DQ        =  0.001000  dq finite difference perturbation B field
   LLRAUG    =     F  two centre corrections for induced B field



--------------------------------------------------------------------------------------------------------


 Static calculation
 charge density and potential will be updated during run
 non-spin polarized calculation
 RMM-DIIS sequential band-by-band and
  variant of blocked Davidson during initial phase
 perform sub-space diagonalisation
    before iterative eigenvector-optimisation
 modified Broyden-mixing scheme, WC =      100.0
 initial mixing is a Kerker type mixing with AMIX =  0.4000 and BMIX =      1.0000
 Hartree-type preconditioning will be used
 using additional bands           56
 real space projection scheme for non local part
 use partial core corrections
 calculate Harris-corrections to forces 
   (improved forces if not selfconsistent)
 use gradient corrections 
 use of overlap-Matrix (Vanderbilt PP)
 Methfessel and Paxton  Order N= 2 SIGMA  =   0.20


--------------------------------------------------------------------------------------------------------


  energy-cutoff  :      400.00
  volume of cell :    27000.00
      direct lattice vectors                 reciprocal lattice vectors
    30.000000000  0.000000000  0.000000000     0.033333333  0.000000000  0.000000000
     0.000000000 30.000000000  0.000000000     0.000000000  0.033333333  0.000000000
     0.000000000  0.000000000 30.000000000     0.000000000  0.000000000  0.033333333

  length of vectors
    30.000000000 30.000000000 30.000000000     0.033333333  0.033333333  0.033333333


 
 k-points in units of 2pi/SCALE and weight: K-points                                
   0.00000000  0.00000000  0.00000000       1.000
 
 k-points in reciprocal lattice and weights: K-points                                
   0.00000000  0.00000000  0.00000000       1.000
 
 position of ions in fractional coordinates (direct lattice) 
   0.44576020  0.32826710  0.41691983
   0.67173288  0.55423978  0.41691983
   0.55423980  0.32826710  0.41691983
   0.32826712  0.55423978  0.41691983
   0.50000000  0.38250690  0.34021317
   0.50000000  0.38250690  0.65978680
   0.50000000  0.27609440  0.50000000
   0.27609443  0.49999998  0.50000000
   0.72390557  0.49999998  0.50000000
   0.50000000  0.72390555  0.50000000
   0.61195280  0.38804720  0.34167483
   0.61195280  0.38804720  0.65832513
   0.38804722  0.61195278  0.34167483
   0.38804722  0.61195278  0.65832513
   0.38804720  0.38804720  0.34167483
   0.38804720  0.38804720  0.65832513
   0.61195278  0.61195278  0.34167483
   0.61195278  0.61195278  0.65832513
   0.44576020  0.32826710  0.58308023
   0.67173288  0.55423978  0.58308023
   0.55791699  0.44208301  0.41809300
   0.32826705  0.44576024  0.41691983
   0.55423973  0.67173293  0.41691983
   0.55423980  0.32826710  0.58308023
   0.32826712  0.55423978  0.58308023
   0.67173295  0.44576024  0.41691983
   0.44576027  0.67173293  0.41691983
   0.44208301  0.44208301  0.41809300
   0.50000000  0.38416601  0.50000000
   0.61749315  0.50000005  0.34021317
   0.61749315  0.50000005  0.65978680
   0.38250685  0.50000005  0.34021317
   0.38250685  0.50000005  0.65978680
   0.38317830  0.38317830  0.50000000
   0.61682172  0.61682172  0.50000000
   0.61682170  0.38317830  0.50000000
   0.38317828  0.61682172  0.50000000
   0.50000000  0.50000000  0.33478917
   0.50000000  0.50000000  0.66521087
   0.32826705  0.44576024  0.58308023
   0.55423973  0.67173293  0.58308023
   0.55791699  0.44208301  0.58190703
   0.44208298  0.55791702  0.41809300
   0.44208301  0.44208301  0.58190703
   0.67173295  0.44576024  0.58308023
   0.44576027  0.67173293  0.58308023
   0.55791702  0.55791702  0.41809300
   0.38416599  0.50000002  0.50000000
   0.61583401  0.50000002  0.50000000
   0.50000000  0.61749319  0.34021317
   0.50000000  0.61749319  0.65978680
   0.50000000  0.50000000  0.50000000
   0.44208298  0.55791702  0.58190703
   0.55791702  0.55791702  0.58190703
   0.50000000  0.61583404  0.50000000
   0.65798650  0.65371207  0.73351960
   0.67648510  0.67171020  0.76086240
 
 position of ions in cartesian coordinates  (Angst):
  13.37280588  9.84801292 12.50759500
  20.15198637 16.62719342 12.50759500
  16.62719412  9.84801292 12.50759500
   9.84801363 16.62719342 12.50759500
  15.00000000 11.47520705 10.20639500
  15.00000000 11.47520705 19.79360400
  15.00000000  8.28283206 15.00000000
   8.28283277 14.99999929 15.00000000
  21.71716723 14.99999929 15.00000000
  15.00000000 21.71716652 14.99999999
  18.35858397 11.64141603 10.25024500
  18.35858397 11.64141603 19.74975399
  11.64141674 18.35858326 10.25024500
  11.64141674 18.35858326 19.74975400
  11.64141603 11.64141603 10.25024500
  11.64141603 11.64141603 19.74975400
  18.35858326 18.35858326 10.25024500
  18.35858326 18.35858326 19.74975400
  13.37280588  9.84801291 17.49240700
  20.15198638 16.62719341 17.49240700
  16.73750985 13.26249015 12.54279000
   9.84801151 13.37280729 12.50759500
  16.62719200 20.15198779 12.50759500
  16.62719412  9.84801292 17.49240700
   9.84801363 16.62719342 17.49240700
  20.15198849 13.37280729 12.50759500
  13.37280800 20.15198779 12.50759500
  13.26249015 13.26249015 12.54279000
  15.00000000 11.52498029 15.00000000
  18.52479437 15.00000140 10.20639500
  18.52479437 15.00000141 19.79360400
  11.47520562 15.00000141 10.20639501
  11.47520563 15.00000141 19.79360400
  11.49534898 11.49534898 15.00000000
  18.50465172 18.50465172 15.00000000
  18.50465102 11.49534898 15.00000000
  11.49534828 18.50465172 15.00000000
  15.00000000 15.00000000 10.04367500
  15.00000000 15.00000000 19.95632599
   9.84801151 13.37280729 17.49240700
  16.62719200 20.15198779 17.49240700
  16.73750985 13.26249015 17.45721100
  13.26248944 16.73751056 12.54279001
  13.26249015 13.26249015 17.45721100
  20.15198849 13.37280729 17.49240699
  13.37280800 20.15198779 17.49240700
  16.73751056 16.73751056 12.54279000
  11.52497959 15.00000071 15.00000000
  18.47502041 15.00000071 15.00000000
  14.99999999 18.52479579 10.20639500
  15.00000000 18.52479578 19.79360400
  15.00000000 15.00000000 15.00000000
  13.26248944 16.73751057 17.45721101
  16.73751056 16.73751057 17.45721100
  15.00000000 18.47502112 15.00000000
  19.73959500 19.61136200 22.00558800
  20.29455300 20.15130600 22.82587200
 


--------------------------------------------------------------------------------------------------------


 k-point  1 :   0.0000 0.0000 0.0000  plane waves:  490521

 maximum and minimum number of plane-waves per node :    490521   490521

 maximum number of plane-waves:    490521
 maximum index in each direction: 
   IXMAX=   48   IYMAX=   48   IZMAX=   48
   IXMIN=  -48   IYMIN=  -48   IZMIN=  -48


 serial   3D FFT for wavefunctions
 parallel 3D FFT for charge:
    minimum data exchange during FFTs selected (reduces bandwidth)


 total amount of memory used by VASP MPI-rank0  5486941. kBytes
=======================================================================

   base      :      30000. kBytes
   nonlr-proj:      17126. kBytes
   fftplans  :     924480. kBytes
   grid      :    1872000. kBytes
   one-center:        886. kBytes
   wavefun   :    2642449. kBytes
 
     INWAV:  cpu time    0.0001: real time    0.0004
 Broyden mixing: mesh for mixing (old mesh)
   NGX = 97   NGY = 97   NGZ = 97
  (NGX  =300   NGY  =300   NGZ  =300)
  gives a total of 912673 points

 initial charge density was supplied:
 charge density of overlapping atoms calculated
 number of electron     560.0000000 magnetization 
 keeping initial charge density in first step


--------------------------------------------------------------------------------------------------------


 Maximum index for non-local projection operator         1763
 Maximum index for augmentation-charges         5898 (set IRDMAX)


--------------------------------------------------------------------------------------------------------


 First call to EWALD:  gamma=   0.059
 Maximum number of real-space cells 3x 3x 3
 Maximum number of reciprocal cells 3x 3x 3

    FEWALD:  cpu time    0.0148: real time    0.0148


--------------------------------------- Iteration      1(   1)  ---------------------------------------


    POTLOK:  cpu time   13.7691: real time   13.7731
    SETDIJ:  cpu time    0.1174: real time    0.1174
     EDDAV:  cpu time  348.4178: real time  348.5041
       DOS:  cpu time    0.0013: real time    0.0013
    --------------------------------------------
      LOOP:  cpu time  362.3056: real time  362.3959

 eigenvalue-minimisations  :   688
 total energy-change (2. order) : 0.4378138E+04  (-0.1004932E+05)
 number of electron     560.0000000 magnetization 
 augmentation part      560.0000000 magnetization 

 Free energy of the ion-electron system (eV)
  ---------------------------------------------------
  alpha Z        PSCENC =        75.25431677
  Ewald energy   TEWEN  =    136417.16767113
  -Hartree energ DENC   =   -179785.80602658
  -exchange      EXHF   =         0.00000000
  -V(xc)+E(xc)   XCENC  =     -1704.16410409
  PAW double counting   =     44873.02882129   -41398.84523641
  entropy T*S    EENTRO =        -0.01167583
  eigenvalues    EBANDS =       815.00851381
  atomic energy  EATOM  =     45086.50549395
  Solvation  Ediel_sol  =         0.00000000
  ---------------------------------------------------
  free energy    TOTEN  =      4378.13777405 eV

  energy without entropy =     4378.14944987  energy(sigma->0) =     4378.14069300


--------------------------------------------------------------------------------------------------------




--------------------------------------- Iteration      1(   2)  ---------------------------------------


     EDDAV:  cpu time  564.0257: real time  564.0663
       DOS:  cpu time    0.0013: real time    0.0013
    --------------------------------------------
      LOOP:  cpu time  564.0270: real time  564.0675

 eigenvalue-minimisations  :  1232
 total energy-change (2. order) :-0.2369865E+04  (-0.2131762E+04)
 number of electron     560.0000000 magnetization 
 augmentation part      560.0000000 magnetization 

 Free energy of the ion-electron system (eV)
  ---------------------------------------------------
  alpha Z        PSCENC =        75.25431677
  Ewald energy   TEWEN  =    136417.16767113
  -Hartree energ DENC   =   -179785.80602658
  -exchange      EXHF   =         0.00000000
  -V(xc)+E(xc)   XCENC  =     -1704.16410409
  PAW double counting   =     44873.02882129   -41398.84523641
  entropy T*S    EENTRO =         0.03682319
  eigenvalues    EBANDS =     -1554.90467178
  atomic energy  EATOM  =     45086.50549395
  Solvation  Ediel_sol  =         0.00000000
  ---------------------------------------------------
  free energy    TOTEN  =      2008.27308746 eV

  energy without entropy =     2008.23626427  energy(sigma->0) =     2008.26388166


--------------------------------------------------------------------------------------------------------




--------------------------------------- Iteration      1(   3)  ---------------------------------------


     EDDAV:  cpu time  472.8239: real time  472.8296
       DOS:  cpu time    0.0011: real time    0.0011
    --------------------------------------------
      LOOP:  cpu time  472.8250: real time  472.8307

 eigenvalue-minimisations  :  1000
 total energy-change (2. order) :-0.1775986E+04  (-0.1670744E+04)
 number of electron     560.0000000 magnetization 
 augmentation part      560.0000000 magnetization 

 Free energy of the ion-electron system (eV)
  ---------------------------------------------------
  alpha Z        PSCENC =        75.25431677
  Ewald energy   TEWEN  =    136417.16767113
  -Hartree energ DENC   =   -179785.80602658
  -exchange      EXHF   =         0.00000000
  -V(xc)+E(xc)   XCENC  =     -1704.16410409
  PAW double counting   =     44873.02882129   -41398.84523641
  entropy T*S    EENTRO =        -0.02876655
  eigenvalues    EBANDS =     -3330.82495524
  atomic energy  EATOM  =     45086.50549395
  Solvation  Ediel_sol  =         0.00000000
  ---------------------------------------------------
  free energy    TOTEN  =       232.28721427 eV

  energy without entropy =      232.31598082  energy(sigma->0) =      232.29440591


--------------------------------------------------------------------------------------------------------




--------------------------------------- Iteration      1(   4)  ---------------------------------------


     EDDAV:  cpu time  408.2178: real time  408.2208
       DOS:  cpu time    0.0012: real time    0.0012
    --------------------------------------------
      LOOP:  cpu time  408.2190: real time  408.2220

 eigenvalue-minimisations  :   832
 total energy-change (2. order) :-0.3664107E+03  (-0.3130414E+03)
 number of electron     560.0000000 magnetization 
 augmentation part      560.0000000 magnetization 

 Free energy of the ion-electron system (eV)
  ---------------------------------------------------
  alpha Z        PSCENC =        75.25431677
  Ewald energy   TEWEN  =    136417.16767113
  -Hartree energ DENC   =   -179785.80602658
  -exchange      EXHF   =         0.00000000
  -V(xc)+E(xc)   XCENC  =     -1704.16410409
  PAW double counting   =     44873.02882129   -41398.84523641
  entropy T*S    EENTRO =         0.01634178
  eigenvalues    EBANDS =     -3697.28081242
  atomic energy  EATOM  =     45086.50549395
  Solvation  Ediel_sol  =         0.00000000
  ---------------------------------------------------
  free energy    TOTEN  =      -134.12353458 eV

  energy without entropy =     -134.13987636  energy(sigma->0) =     -134.12762002


--------------------------------------------------------------------------------------------------------




--------------------------------------- Iteration      1(   5)  ---------------------------------------


     EDDAV:  cpu time  492.4753: real time  492.4821
       DOS:  cpu time    0.0014: real time    0.0013
    CHARGE:  cpu time   24.4413: real time   24.4421
    MIXING:  cpu time    0.4289: real time    0.4289
    --------------------------------------------
      LOOP:  cpu time  517.3468: real time  517.3544

 eigenvalue-minimisations  :  1048
 total energy-change (2. order) :-0.4449082E+02  (-0.3703813E+02)
 number of electron     559.9999857 magnetization 
 augmentation part      245.2987926 magnetization 

 Broyden mixing:
  rms(total) = 0.13869E+01    rms(broyden)= 0.13859E+01
  rms(prec ) = 0.14915E+01
  weight for this iteration     100.00

 Free energy of the ion-electron system (eV)
  ---------------------------------------------------
  alpha Z        PSCENC =        75.25431677
  Ewald energy   TEWEN  =    136417.16767113
  -Hartree energ DENC   =   -179785.80602658
  -exchange      EXHF   =         0.00000000
  -V(xc)+E(xc)   XCENC  =     -1704.16410409
  PAW double counting   =     44873.02882129   -41398.84523641
  entropy T*S    EENTRO =         0.51614523
  eigenvalues    EBANDS =     -3742.27143616
  atomic energy  EATOM  =     45086.50549395
  Solvation  Ediel_sol  =         0.00000000
  ---------------------------------------------------
  free energy    TOTEN  =      -178.61435487 eV

  energy without entropy =     -179.13050011  energy(sigma->0) =     -178.74339118


--------------------------------------------------------------------------------------------------------




--------------------------------------- Iteration      1(   6)  ---------------------------------------


    POTLOK:  cpu time   12.8173: real time   12.8179
    SETDIJ:  cpu time    0.1237: real time    0.1237
    EDDIAG:  cpu time   65.4551: real time   65.4568
  RMM-DIIS:  cpu time  185.9615: real time  185.9643
    ORTHCH:  cpu time   13.2519: real time   13.2519
       DOS:  cpu time    0.0015: real time    0.0014
    CHARGE:  cpu time   24.7218: real time   24.7221
    MIXING:  cpu time    0.4455: real time    0.4455
    --------------------------------------------
      LOOP:  cpu time  302.7782: real time  302.7838

 eigenvalue-minimisations  :   724
 total energy-change (2. order) : 0.5266143E+00  (-0.5032228E+01)
 number of electron     559.9999878 magnetization 
 augmentation part      240.7291530 magnetization 

 Broyden mixing:
  rms(total) = 0.23077E+01    rms(broyden)= 0.23076E+01
  rms(prec ) = 0.26968E+01
  weight for this iteration     100.00

 eigenvalues of (default mixing * dielectric matrix)
  average eigenvalue GAMMA=   0.3039
  0.3039

 Free energy of the ion-electron system (eV)
  ---------------------------------------------------
  alpha Z        PSCENC =        75.25431677
  Ewald energy   TEWEN  =    136417.16767113
  -Hartree energ DENC   =   -180200.71761648
  -exchange      EXHF   =         0.00000000
  -V(xc)+E(xc)   XCENC  =     -1697.83149956
  PAW double counting   =     45618.00058192   -42116.40084732
  entropy T*S    EENTRO =        -0.13479723
  eigenvalues    EBANDS =     -3359.93104376
  atomic energy  EATOM  =     45086.50549395
  Solvation  Ediel_sol  =         0.00000000
  ---------------------------------------------------
  free energy    TOTEN  =      -178.08774057 eV

  energy without entropy =     -177.95294334  energy(sigma->0) =     -178.05404127


--------------------------------------------------------------------------------------------------------




--------------------------------------- Iteration      1(   7)  ---------------------------------------


    POTLOK:  cpu time   12.5875: real time   12.5882
    SETDIJ:  cpu time    0.1177: real time    0.1177
    EDDIAG:  cpu time   65.4141: real time   65.4170
  RMM-DIIS:  cpu time  223.7435: real time  223.7502
    ORTHCH:  cpu time   13.2433: real time   13.2433
       DOS:  cpu time    0.0014: real time    0.0014
    CHARGE:  cpu time   24.5647: real time   24.5648
    MIXING:  cpu time    0.4703: real time    0.4703
    --------------------------------------------
      LOOP:  cpu time  340.1426: real time  340.1531

 eigenvalue-minimisations  :   867
 total energy-change (2. order) :-0.1799104E+01  (-0.1800468E+01)
 number of electron     559.9999848 magnetization 
 augmentation part      240.5611366 magnetization 

 Broyden mixing:
  rms(total) = 0.19445E+01    rms(broyden)= 0.19442E+01
  rms(prec ) = 0.23540E+01
  weight for this iteration     100.00

 eigenvalues of (default mixing * dielectric matrix)
  average eigenvalue GAMMA=   0.3272
  0.5045  0.1499

 Free energy of the ion-electron system (eV)
  ---------------------------------------------------
  alpha Z        PSCENC =        75.25431677
  Ewald energy   TEWEN  =    136417.16767113
  -Hartree energ DENC   =   -180274.53971381
  -exchange      EXHF   =         0.00000000
  -V(xc)+E(xc)   XCENC  =     -1697.93958601
  PAW double counting   =     45670.31864199   -42166.28112079
  entropy T*S    EENTRO =        -0.08784643
  eigenvalues    EBANDS =     -3290.28470142
  atomic energy  EATOM  =     45086.50549395
  Solvation  Ediel_sol  =         0.00000000
  ---------------------------------------------------
  free energy    TOTEN  =      -179.88684462 eV

  energy without entropy =     -179.79899819  energy(sigma->0) =     -179.86488301


--------------------------------------------------------------------------------------------------------




--------------------------------------- Iteration      1(   8)  ---------------------------------------


    POTLOK:  cpu time   12.6101: real time   12.6108
    SETDIJ:  cpu time    0.1191: real time    0.1191
    EDDIAG:  cpu time   65.6480: real time   65.6486
  RMM-DIIS:  cpu time  200.0867: real time  200.0899
    ORTHCH:  cpu time   13.1687: real time   13.1687
       DOS:  cpu time    0.0014: real time    0.0014
    CHARGE:  cpu time   24.3427: real time   24.3426
    MIXING:  cpu time    0.4899: real time    0.4899
    --------------------------------------------
      LOOP:  cpu time  316.4667: real time  316.4711

 eigenvalue-minimisations  :   769
 total energy-change (2. order) :-0.3238706E+01  (-0.6359482E+00)
 number of electron     559.9999849 magnetization 
 augmentation part      239.9387334 magnetization 

 Broyden mixing:
  rms(total) = 0.25229E+01    rms(broyden)= 0.25226E+01
  rms(prec ) = 0.29691E+01
  weight for this iteration     100.00

 eigenvalues of (default mixing * dielectric matrix)
  average eigenvalue GAMMA=   0.3192
  0.6833  0.1371  0.1371

 Free energy of the ion-electron system (eV)
  ---------------------------------------------------
  alpha Z        PSCENC =        75.25431677
  Ewald energy   TEWEN  =    136417.16767113
  -Hartree energ DENC   =   -180330.55932375
  -exchange      EXHF   =         0.00000000
  -V(xc)+E(xc)   XCENC  =     -1697.93211369
  PAW double counting   =     45731.34964060   -42224.24825425
  entropy T*S    EENTRO =        -0.18011244
  eigenvalues    EBANDS =     -3240.48286894
  atomic energy  EATOM  =     45086.50549395
  Solvation  Ediel_sol  =         0.00000000
  ---------------------------------------------------
  free energy    TOTEN  =      -183.12555061 eV

  energy without entropy =     -182.94543817  energy(sigma->0) =     -183.08052250


--------------------------------------------------------------------------------------------------------




--------------------------------------- Iteration      1(   9)  ---------------------------------------


    POTLOK:  cpu time   12.4801: real time   12.4807
    SETDIJ:  cpu time    0.1208: real time    0.1208
    EDDIAG:  cpu time   65.4314: real time   65.4317
  RMM-DIIS:  cpu time  188.3155: real time  188.3175
    ORTHCH:  cpu time   13.1827: real time   13.1828
       DOS:  cpu time    0.0014: real time    0.0014
    CHARGE:  cpu time   24.3427: real time   24.3428
    MIXING:  cpu time    0.5241: real time    0.5241
    --------------------------------------------
      LOOP:  cpu time  304.3988: real time  304.4018

 eigenvalue-minimisations  :   730
 total energy-change (2. order) : 0.2379187E+01  (-0.4843082E+00)
 number of electron     559.9999833 magnetization 
 augmentation part      240.8890985 magnetization 

 Broyden mixing:
  rms(total) = 0.23439E+01    rms(broyden)= 0.23435E+01
  rms(prec ) = 0.27086E+01
  weight for this iteration     100.00

 eigenvalues of (default mixing * dielectric matrix)
  average eigenvalue GAMMA=   0.3016
  0.7896  0.1584  0.1584  0.1000

 Free energy of the ion-electron system (eV)
  ---------------------------------------------------
  alpha Z        PSCENC =        75.25431677
  Ewald energy   TEWEN  =    136417.16767113
  -Hartree energ DENC   =   -180348.43898964
  -exchange      EXHF   =         0.00000000
  -V(xc)+E(xc)   XCENC  =     -1697.92652450
  PAW double counting   =     45785.86461053   -42276.10203972
  entropy T*S    EENTRO =        -0.09265825
  eigenvalues    EBANDS =     -3222.97824414
  atomic energy  EATOM  =     45086.50549395
  Solvation  Ediel_sol  =         0.00000000
  ---------------------------------------------------
  free energy    TOTEN  =      -180.74636388 eV

  energy without entropy =     -180.65370563  energy(sigma->0) =     -180.72319932


--------------------------------------------------------------------------------------------------------




--------------------------------------- Iteration      1(  10)  ---------------------------------------


    POTLOK:  cpu time   12.8986: real time   12.8993
    SETDIJ:  cpu time    0.1194: real time    0.1194
    EDDIAG:  cpu time   65.4880: real time   65.4887
  RMM-DIIS:  cpu time  189.0945: real time  189.0981
    ORTHCH:  cpu time   13.4238: real time   13.4238
       DOS:  cpu time    0.0014: real time    0.0014
    CHARGE:  cpu time   24.5644: real time   24.5644
    MIXING:  cpu time    0.5515: real time    0.5516
    --------------------------------------------
      LOOP:  cpu time  306.1417: real time  306.1465

 eigenvalue-minimisations  :   730
 total energy-change (2. order) : 0.1718438E+01  (-0.2607497E+00)
 number of electron     559.9999841 magnetization 
 augmentation part      241.3768249 magnetization 

 Broyden mixing:
  rms(total) = 0.24135E+01    rms(broyden)= 0.24132E+01
  rms(prec ) = 0.28641E+01
  weight for this iteration     100.00

 eigenvalues of (default mixing * dielectric matrix)
  average eigenvalue GAMMA=   0.2741
  0.8445  0.1702  0.1702  0.1060  0.0797

 Free energy of the ion-electron system (eV)
  ---------------------------------------------------
  alpha Z        PSCENC =        75.25431677
  Ewald energy   TEWEN  =    136417.16767113
  -Hartree energ DENC   =   -180373.99857752
  -exchange      EXHF   =         0.00000000
  -V(xc)+E(xc)   XCENC  =     -1697.79180596
  PAW double counting   =     45825.80049518   -42314.19135866
  entropy T*S    EENTRO =         0.00206306
  eigenvalues    EBANDS =     -3197.77622381
  atomic energy  EATOM  =     45086.50549395
  Solvation  Ediel_sol  =         0.00000000
  ---------------------------------------------------
  free energy    TOTEN  =      -179.02792585 eV

  energy without entropy =     -179.02998892  energy(sigma->0) =     -179.02844162


--------------------------------------------------------------------------------------------------------




--------------------------------------- Iteration      1(  11)  ---------------------------------------


    POTLOK:  cpu time   12.4382: real time   12.4390
    SETDIJ:  cpu time    0.1191: real time    0.1191
    EDDIAG:  cpu time   65.2206: real time   65.2218
  RMM-DIIS:  cpu time  188.8838: real time  188.8854
    ORTHCH:  cpu time   13.2771: real time   13.2824
       DOS:  cpu time    0.0015: real time    0.0015
    CHARGE:  cpu time   24.8063: real time   24.8063
    MIXING:  cpu time    0.6037: real time    0.6037
    --------------------------------------------
      LOOP:  cpu time  305.3503: real time  305.3591

 eigenvalue-minimisations  :   731
 total energy-change (2. order) : 0.1623117E+01  (-0.1429309E+00)
 number of electron     559.9999855 magnetization 
 augmentation part      241.4023925 magnetization 

 Broyden mixing:
  rms(total) = 0.15747E+01    rms(broyden)= 0.15744E+01
  rms(prec ) = 0.18584E+01
  weight for this iteration     100.00

 eigenvalues of (default mixing * dielectric matrix)
  average eigenvalue GAMMA=   0.2676
  0.9098  0.2048  0.2048  0.1120  0.1120  0.0623

 Free energy of the ion-electron system (eV)
  ---------------------------------------------------
  alpha Z        PSCENC =        75.25431677
  Ewald energy   TEWEN  =    136417.16767113
  -Hartree energ DENC   =   -180394.50488785
  -exchange      EXHF   =         0.00000000
  -V(xc)+E(xc)   XCENC  =     -1697.67279867
  PAW double counting   =     45850.50352953   -42337.68453793
  entropy T*S    EENTRO =        -0.15230635
  eigenvalues    EBANDS =     -3176.82128983
  atomic energy  EATOM  =     45086.50549395
  Solvation  Ediel_sol  =         0.00000000
  ---------------------------------------------------
  free energy    TOTEN  =      -177.40480924 eV

  energy without entropy =     -177.25250289  energy(sigma->0) =     -177.36673266


--------------------------------------------------------------------------------------------------------




--------------------------------------- Iteration      1(  12)  ---------------------------------------


    POTLOK:  cpu time   12.9508: real time   12.9514
    SETDIJ:  cpu time    0.1200: real time    0.1200
    EDDIAG:  cpu time   65.1977: real time   65.1980
  RMM-DIIS:  cpu time  186.5464: real time  186.5490
    ORTHCH:  cpu time   12.9999: real time   12.9999
       DOS:  cpu time    0.0014: real time    0.0014
    CHARGE:  cpu time   24.7509: real time   24.7509
    MIXING:  cpu time    0.6409: real time    0.6409
    --------------------------------------------
      LOOP:  cpu time  303.2081: real time  303.2117

 eigenvalue-minimisations  :   720
 total energy-change (2. order) : 0.9846832E+00  (-0.1350215E+00)
 number of electron     559.9999871 magnetization 
 augmentation part      241.5938856 magnetization 

 Broyden mixing:
  rms(total) = 0.16665E+01    rms(broyden)= 0.16662E+01
  rms(prec ) = 0.19800E+01
  weight for this iteration     100.00

 eigenvalues of (default mixing * dielectric matrix)
  average eigenvalue GAMMA=   0.2532
  0.9380  0.2317  0.2317  0.1137  0.1137  0.0855  0.0586

 Free energy of the ion-electron system (eV)
  ---------------------------------------------------
  alpha Z        PSCENC =        75.25431677
  Ewald energy   TEWEN  =    136417.16767113
  -Hartree energ DENC   =   -180411.46143540
  -exchange      EXHF   =         0.00000000
  -V(xc)+E(xc)   XCENC  =     -1697.45273116
  PAW double counting   =     45882.03600151   -42367.60352611
  entropy T*S    EENTRO =        -0.09804394
  eigenvalues    EBANDS =     -3160.76787280
  atomic energy  EATOM  =     45086.50549395
  Solvation  Ediel_sol  =         0.00000000
  ---------------------------------------------------
  free energy    TOTEN  =      -176.42012605 eV

  energy without entropy =     -176.32208211  energy(sigma->0) =     -176.39561507


--------------------------------------------------------------------------------------------------------




--------------------------------------- Iteration      1(  13)  ---------------------------------------


    POTLOK:  cpu time   12.8360: real time   12.8366
    SETDIJ:  cpu time    0.1194: real time    0.1194
    EDDIAG:  cpu time   65.0031: real time   65.0033
  RMM-DIIS:  cpu time  188.1968: real time  188.2030
    ORTHCH:  cpu time   13.1334: real time   13.1337
       DOS:  cpu time    0.0015: real time    0.0014
    CHARGE:  cpu time   24.8292: real time   24.8299
    MIXING:  cpu time    0.6661: real time    0.6662
    --------------------------------------------
      LOOP:  cpu time  304.7854: real time  304.7936

 eigenvalue-minimisations  :   727
 total energy-change (2. order) : 0.8856463E+00  (-0.7943601E-01)
 number of electron     559.9999856 magnetization 
 augmentation part      241.6165420 magnetization 

 Broyden mixing:
  rms(total) = 0.12033E+01    rms(broyden)= 0.12030E+01
  rms(prec ) = 0.14363E+01
  weight for this iteration     100.00

 eigenvalues of (default mixing * dielectric matrix)
  average eigenvalue GAMMA=   0.2569
  0.9705  0.2985  0.2985  0.1206  0.1206  0.1190  0.0747  0.0526

 Free energy of the ion-electron system (eV)
  ---------------------------------------------------
  alpha Z        PSCENC =        75.25431677
  Ewald energy   TEWEN  =    136417.16767113
  -Hartree energ DENC   =   -180426.09841486
  -exchange      EXHF   =         0.00000000
  -V(xc)+E(xc)   XCENC  =     -1697.26550389
  PAW double counting   =     45902.72426477   -42387.18985085
  entropy T*S    EENTRO =        -0.09233557
  eigenvalues    EBANDS =     -3146.54012118
  atomic energy  EATOM  =     45086.50549395
  Solvation  Ediel_sol  =         0.00000000
  ---------------------------------------------------
  free energy    TOTEN  =      -175.53447974 eV

  energy without entropy =     -175.44214417  energy(sigma->0) =     -175.51139585


--------------------------------------------------------------------------------------------------------




--------------------------------------- Iteration      1(  14)  ---------------------------------------


    POTLOK:  cpu time   12.4832: real time   12.4841
    SETDIJ:  cpu time    0.1199: real time    0.1199
    EDDIAG:  cpu time   65.1794: real time   65.1811
  RMM-DIIS:  cpu time  186.6169: real time  186.6220
    ORTHCH:  cpu time   12.9510: real time   12.9512
       DOS:  cpu time    0.0015: real time    0.0015
    CHARGE:  cpu time   24.3892: real time   24.3896
    MIXING:  cpu time    0.6933: real time    0.6933
    --------------------------------------------
      LOOP:  cpu time  302.4343: real time  302.4427

 eigenvalue-minimisations  :   720
 total energy-change (2. order) :-0.5267867E+00  (-0.7408747E-01)
 number of electron     559.9999850 magnetization 
 augmentation part      241.4509283 magnetization 

 Broyden mixing:
  rms(total) = 0.18787E+01    rms(broyden)= 0.18785E+01
  rms(prec ) = 0.22653E+01
  weight for this iteration     100.00

 eigenvalues of (default mixing * dielectric matrix)
  average eigenvalue GAMMA=   0.2844
  1.1026  0.6178  0.2467  0.1128  0.1128  0.1398  0.1235  0.0551  0.0484

 Free energy of the ion-electron system (eV)
  ---------------------------------------------------
  alpha Z        PSCENC =        75.25431677
  Ewald energy   TEWEN  =    136417.16767113
  -Hartree energ DENC   =   -180449.15837590
  -exchange      EXHF   =         0.00000000
  -V(xc)+E(xc)   XCENC  =     -1696.94243141
  PAW double counting   =     45932.45783444   -42415.24964325
  entropy T*S    EENTRO =         0.01071851
  eigenvalues    EBANDS =     -3126.10685070
  atomic energy  EATOM  =     45086.50549395
  Solvation  Ediel_sol  =         0.00000000
  ---------------------------------------------------
  free energy    TOTEN  =      -176.06126646 eV

  energy without entropy =     -176.07198497  energy(sigma->0) =     -176.06394609


--------------------------------------------------------------------------------------------------------




--------------------------------------- Iteration      1(  15)  ---------------------------------------


    POTLOK:  cpu time   12.5446: real time   12.5457
    SETDIJ:  cpu time    0.1160: real time    0.1160
    EDDIAG:  cpu time   65.7269: real time   65.7284
  RMM-DIIS:  cpu time  184.0273: real time  184.0293
    ORTHCH:  cpu time   12.9224: real time   12.9225
       DOS:  cpu time    0.0015: real time    0.0015
    CHARGE:  cpu time   24.9647: real time   24.9647
    MIXING:  cpu time    0.7934: real time    0.7934
    --------------------------------------------
      LOOP:  cpu time  301.0967: real time  301.1015

 eigenvalue-minimisations  :   714
 total energy-change (2. order) :-0.1902174E+00  (-0.1160581E+00)
 number of electron     559.9999840 magnetization 
 augmentation part      241.1944687 magnetization 

 Broyden mixing:
  rms(total) = 0.27314E+01    rms(broyden)= 0.27312E+01
  rms(prec ) = 0.31240E+01
  weight for this iteration     100.00

 eigenvalues of (default mixing * dielectric matrix)
  average eigenvalue GAMMA=   0.2914
  1.2766  0.7590  0.2099  0.1395  0.1395  0.0983  0.0983  0.0929  0.0499  0.0499

 Free energy of the ion-electron system (eV)
  ---------------------------------------------------
  alpha Z        PSCENC =        75.25431677
  Ewald energy   TEWEN  =    136417.16767113
  -Hartree energ DENC   =   -180503.23675873
  -exchange      EXHF   =         0.00000000
  -V(xc)+E(xc)   XCENC  =     -1696.19293449
  PAW double counting   =     45998.84856248   -42477.89882169
  entropy T*S    EENTRO =         0.09816204
  eigenvalues    EBANDS =     -3076.79717530
  atomic energy  EATOM  =     45086.50549395
  Solvation  Ediel_sol  =         0.00000000
  ---------------------------------------------------
  free energy    TOTEN  =      -176.25148383 eV

  energy without entropy =     -176.34964587  energy(sigma->0) =     -176.27602434


--------------------------------------------------------------------------------------------------------




--------------------------------------- Iteration      1(  16)  ---------------------------------------


    POTLOK:  cpu time   12.9093: real time   12.9100
    SETDIJ:  cpu time    0.1172: real time    0.1172
    EDDIAG:  cpu time   65.1703: real time   65.1729
  RMM-DIIS:  cpu time  185.0662: real time  185.0710
    ORTHCH:  cpu time   13.0063: real time   13.0065
       DOS:  cpu time    0.0014: real time    0.0014
    CHARGE:  cpu time   24.7167: real time   24.7170
    MIXING:  cpu time    0.8064: real time    0.8064
    --------------------------------------------
      LOOP:  cpu time  301.7938: real time  301.8024

 eigenvalue-minimisations  :   715
 total energy-change (2. order) : 0.1259785E+01  (-0.9772908E-01)
 number of electron     559.9999881 magnetization 
 augmentation part      241.0157058 magnetization 

 Broyden mixing:
  rms(total) = 0.11843E+01    rms(broyden)= 0.11841E+01
  rms(prec ) = 0.13567E+01
  weight for this iteration     100.00

 eigenvalues of (default mixing * dielectric matrix)
  average eigenvalue GAMMA=   0.3013
  1.4526  0.8018  0.2052  0.1874  0.1874  0.1041  0.1041  0.0970  0.0763  0.0493
  0.0493

 Free energy of the ion-electron system (eV)
  ---------------------------------------------------
  alpha Z        PSCENC =        75.25431677
  Ewald energy   TEWEN  =    136417.16767113
  -Hartree energ DENC   =   -180533.30964553
  -exchange      EXHF   =         0.00000000
  -V(xc)+E(xc)   XCENC  =     -1695.76880713
  PAW double counting   =     46038.37333528   -42515.29455615
  entropy T*S    EENTRO =        -0.10639906
  eigenvalues    EBANDS =     -3047.81310766
  atomic energy  EATOM  =     45086.50549395
  Solvation  Ediel_sol  =         0.00000000
  ---------------------------------------------------
  free energy    TOTEN  =      -174.99169841 eV

  energy without entropy =     -174.88529935  energy(sigma->0) =     -174.96509865


--------------------------------------------------------------------------------------------------------




--------------------------------------- Iteration      1(  17)  ---------------------------------------


    POTLOK:  cpu time   12.4717: real time   12.4725
    SETDIJ:  cpu time    0.1178: real time    0.1178
    EDDIAG:  cpu time   65.2270: real time   65.2289
  RMM-DIIS:  cpu time  185.4304: real time  185.4335
    ORTHCH:  cpu time   12.9166: real time   12.9167
       DOS:  cpu time    0.0014: real time    0.0014
    CHARGE:  cpu time   24.4985: real time   24.4987
    MIXING:  cpu time    0.8342: real time    0.8342
    --------------------------------------------
      LOOP:  cpu time  301.4977: real time  301.5037

 eigenvalue-minimisations  :   715
 total energy-change (2. order) : 0.2606718E+00  (-0.6547854E-01)
 number of electron     559.9999843 magnetization 
 augmentation part      241.0771346 magnetization 

 Broyden mixing:
  rms(total) = 0.12716E+01    rms(broyden)= 0.12714E+01
  rms(prec ) = 0.14866E+01
  weight for this iteration     100.00

 eigenvalues of (default mixing * dielectric matrix)
  average eigenvalue GAMMA=   0.3062
  1.5531  0.8536  0.2571  0.2571  0.1804  0.1097  0.1097  0.0876  0.0876  0.0798
  0.0495  0.0495

 Free energy of the ion-electron system (eV)
  ---------------------------------------------------
  alpha Z        PSCENC =        75.25431677
  Ewald energy   TEWEN  =    136417.16767113
  -Hartree energ DENC   =   -180554.33712889
  -exchange      EXHF   =         0.00000000
  -V(xc)+E(xc)   XCENC  =     -1695.47528838
  PAW double counting   =     46064.17260891   -42539.51601447
  entropy T*S    EENTRO =        -0.06851414
  eigenvalues    EBANDS =     -3028.43417144
  atomic energy  EATOM  =     45086.50549395
  Solvation  Ediel_sol  =         0.00000000
  ---------------------------------------------------
  free energy    TOTEN  =      -174.73102656 eV

  energy without entropy =     -174.66251242  energy(sigma->0) =     -174.71389803


--------------------------------------------------------------------------------------------------------




--------------------------------------- Iteration      1(  18)  ---------------------------------------


    POTLOK:  cpu time   12.4330: real time   12.4337
    SETDIJ:  cpu time    0.1164: real time    0.1164
    EDDIAG:  cpu time   65.4646: real time   65.4656
  RMM-DIIS:  cpu time  185.2135: real time  185.2158
    ORTHCH:  cpu time   12.7786: real time   12.7786
       DOS:  cpu time    0.0015: real time    0.0015
    CHARGE:  cpu time   24.6674: real time   24.6674
    MIXING:  cpu time    0.8721: real time    0.8721
    --------------------------------------------
      LOOP:  cpu time  301.5470: real time  301.5511

 eigenvalue-minimisations  :   717
 total energy-change (2. order) :-0.4866438E-02  (-0.5287211E-01)
 number of electron     559.9999869 magnetization 
 augmentation part      241.1200871 magnetization 

 Broyden mixing:
  rms(total) = 0.12051E+01    rms(broyden)= 0.12049E+01
  rms(prec ) = 0.13877E+01
  weight for this iteration     100.00

 eigenvalues of (default mixing * dielectric matrix)
  average eigenvalue GAMMA=   0.3088
  1.6046  0.9542  0.3170  0.3170  0.1191  0.1191  0.1187  0.1187  0.0885  0.0885
  0.0699  0.0493  0.0493

 Free energy of the ion-electron system (eV)
  ---------------------------------------------------
  alpha Z        PSCENC =        75.25431677
  Ewald energy   TEWEN  =    136417.16767113
  -Hartree energ DENC   =   -180567.01824367
  -exchange      EXHF   =         0.00000000
  -V(xc)+E(xc)   XCENC  =     -1695.30006281
  PAW double counting   =     46076.48165998   -42550.84389932
  entropy T*S    EENTRO =        -0.01918347
  eigenvalues    EBANDS =     -3016.96364556
  atomic energy  EATOM  =     45086.50549395
  Solvation  Ediel_sol  =         0.00000000
  ---------------------------------------------------
  free energy    TOTEN  =      -174.73589300 eV

  energy without entropy =     -174.71670953  energy(sigma->0) =     -174.73109713


--------------------------------------------------------------------------------------------------------




--------------------------------------- Iteration      1(  19)  ---------------------------------------


    POTLOK:  cpu time   12.2793: real time   12.2801
    SETDIJ:  cpu time    0.1199: real time    0.1199
    EDDIAG:  cpu time   65.6592: real time   65.6601
  RMM-DIIS:  cpu time  185.4055: real time  185.4084
    ORTHCH:  cpu time   13.0347: real time   13.0347
       DOS:  cpu time    0.0014: real time    0.0014
    CHARGE:  cpu time   24.5477: real time   24.5479
    MIXING:  cpu time    0.8645: real time    0.8645
    --------------------------------------------
      LOOP:  cpu time  301.9123: real time  301.9170

 eigenvalue-minimisations  :   718
 total energy-change (2. order) : 0.6968433E-01  (-0.3490021E-01)
 number of electron     559.9999872 magnetization 
 augmentation part      241.0756262 magnetization 

 Broyden mixing:
  rms(total) = 0.11188E+01    rms(broyden)= 0.11186E+01
  rms(prec ) = 0.12981E+01
  weight for this iteration     100.00

 eigenvalues of (default mixing * dielectric matrix)
  average eigenvalue GAMMA=   0.3097
  1.5985  1.0921  0.3564  0.3564  0.1521  0.1521  0.1082  0.1082  0.0851  0.0851
  0.0832  0.0492  0.0492  0.0603

 Free energy of the ion-electron system (eV)
  ---------------------------------------------------
  alpha Z        PSCENC =        75.25431677
  Ewald energy   TEWEN  =    136417.16767113
  -Hartree energ DENC   =   -180582.51792158
  -exchange      EXHF   =         0.00000000
  -V(xc)+E(xc)   XCENC  =     -1695.16745302
  PAW double counting   =     46083.72904034   -42557.30527427
  entropy T*S    EENTRO =         0.01481289
  eigenvalues    EBANDS =     -3002.34689489
  atomic energy  EATOM  =     45086.50549395
  Solvation  Ediel_sol  =         0.00000000
  ---------------------------------------------------
  free energy    TOTEN  =      -174.66620868 eV

  energy without entropy =     -174.68102157  energy(sigma->0) =     -174.66991190


--------------------------------------------------------------------------------------------------------




--------------------------------------- Iteration      1(  20)  ---------------------------------------


    POTLOK:  cpu time   12.0938: real time   12.0945
    SETDIJ:  cpu time    0.1186: real time    0.1186
    EDDIAG:  cpu time   65.2524: real time   65.2528
  RMM-DIIS:  cpu time  185.8108: real time  185.8118
    ORTHCH:  cpu time   12.9134: real time   12.9134
       DOS:  cpu time    0.0015: real time    0.0015
    CHARGE:  cpu time   24.9944: real time   24.9943
    MIXING:  cpu time    0.9852: real time    0.9852
    --------------------------------------------
      LOOP:  cpu time  302.1702: real time  302.1722

 eigenvalue-minimisations  :   720
 total energy-change (2. order) : 0.1141882E+00  (-0.2460527E-01)
 number of electron     559.9999862 magnetization 
 augmentation part      241.1215321 magnetization 

 Broyden mixing:
  rms(total) = 0.10685E+01    rms(broyden)= 0.10683E+01
  rms(prec ) = 0.12607E+01
  weight for this iteration     100.00

 eigenvalues of (default mixing * dielectric matrix)
  average eigenvalue GAMMA=   0.3113
  1.7003  1.1078  0.3902  0.3902  0.1787  0.1787  0.1084  0.1084  0.0969  0.0969
  0.0815  0.0815  0.0496  0.0496  0.0516

 Free energy of the ion-electron system (eV)
  ---------------------------------------------------
  alpha Z        PSCENC =        75.25431677
  Ewald energy   TEWEN  =    136417.16767113
  -Hartree energ DENC   =   -180596.04777239
  -exchange      EXHF   =         0.00000000
  -V(xc)+E(xc)   XCENC  =     -1695.07553038
  PAW double counting   =     46085.03477910   -42558.04742215
  entropy T*S    EENTRO =         0.00380909
  eigenvalues    EBANDS =     -2989.34736562
  atomic energy  EATOM  =     45086.50549395
  Solvation  Ediel_sol  =         0.00000000
  ---------------------------------------------------
  free energy    TOTEN  =      -174.55202049 eV

  energy without entropy =     -174.55582958  energy(sigma->0) =     -174.55297276


--------------------------------------------------------------------------------------------------------




--------------------------------------- Iteration      1(  21)  ---------------------------------------


    POTLOK:  cpu time   12.8436: real time   12.8453
    SETDIJ:  cpu time    0.1173: real time    0.1173
    EDDIAG:  cpu time   64.8865: real time   64.8867
  RMM-DIIS:  cpu time  184.2735: real time  184.2753
    ORTHCH:  cpu time   13.1541: real time   13.1541
       DOS:  cpu time    0.0015: real time    0.0015
    CHARGE:  cpu time   24.8902: real time   24.8902
    MIXING:  cpu time    1.0880: real time    1.0880
    --------------------------------------------
      LOOP:  cpu time  301.2547: real time  301.2584

 eigenvalue-minimisations  :   719
 total energy-change (2. order) : 0.3135720E+00  (-0.1970196E-01)
 number of electron     559.9999868 magnetization 
 augmentation part      241.1925826 magnetization 

 Broyden mixing:
  rms(total) = 0.71172E+00    rms(broyden)= 0.71159E+00
  rms(prec ) = 0.80422E+00
  weight for this iteration     100.00

 eigenvalues of (default mixing * dielectric matrix)
  average eigenvalue GAMMA=   0.3130
  1.7920  1.1180  0.4215  0.4215  0.1954  0.1954  0.1490  0.1113  0.1113  0.0926
  0.0926  0.0787  0.0787  0.0507  0.0507  0.0484

 Free energy of the ion-electron system (eV)
  ---------------------------------------------------
  alpha Z        PSCENC =        75.25431677
  Ewald energy   TEWEN  =    136417.16767113
  -Hartree energ DENC   =   -180606.31018684
  -exchange      EXHF   =         0.00000000
  -V(xc)+E(xc)   XCENC  =     -1694.96707696
  PAW double counting   =     46087.40330038   -42559.83717891
  entropy T*S    EENTRO =        -0.07451330
  eigenvalues    EBANDS =     -2979.38027467
  atomic energy  EATOM  =     45086.50549395
  Solvation  Ediel_sol  =         0.00000000
  ---------------------------------------------------
  free energy    TOTEN  =      -174.23844846 eV

  energy without entropy =     -174.16393516  energy(sigma->0) =     -174.21982013


--------------------------------------------------------------------------------------------------------




--------------------------------------- Iteration      1(  22)  ---------------------------------------


    POTLOK:  cpu time   12.6489: real time   12.6514
    SETDIJ:  cpu time    0.1185: real time    0.1185
    EDDIAG:  cpu time   65.7266: real time   65.7273
  RMM-DIIS:  cpu time  184.4299: real time  184.4318
    ORTHCH:  cpu time   12.8236: real time   12.8235
       DOS:  cpu time    0.0015: real time    0.0015
    CHARGE:  cpu time   24.3555: real time   24.3554
    MIXING:  cpu time    1.0953: real time    1.0953
    --------------------------------------------
      LOOP:  cpu time  301.1997: real time  301.2047

 eigenvalue-minimisations  :   718
 total energy-change (2. order) : 0.1219314E+00  (-0.1540459E-01)
 number of electron     559.9999866 magnetization 
 augmentation part      241.1819662 magnetization 

 Broyden mixing:
  rms(total) = 0.70639E+00    rms(broyden)= 0.70628E+00
  rms(prec ) = 0.83090E+00
  weight for this iteration     100.00

 eigenvalues of (default mixing * dielectric matrix)
  average eigenvalue GAMMA=   0.3174
  1.9014  1.1234  0.4475  0.4475  0.3092  0.1730  0.1730  0.1118  0.1118  0.1093
  0.0949  0.0949  0.0743  0.0743  0.0504  0.0504  0.0487

 Free energy of the ion-electron system (eV)
  ---------------------------------------------------
  alpha Z        PSCENC =        75.25431677
  Ewald energy   TEWEN  =    136417.16767113
  -Hartree energ DENC   =   -180620.46062554
  -exchange      EXHF   =         0.00000000
  -V(xc)+E(xc)   XCENC  =     -1694.81794538
  PAW double counting   =     46091.03906147   -42562.80030407
  entropy T*S    EENTRO =        -0.07159390
  eigenvalues    EBANDS =     -2965.93259150
  atomic energy  EATOM  =     45086.50549395
  Solvation  Ediel_sol  =         0.00000000
  ---------------------------------------------------
  free energy    TOTEN  =      -174.11651707 eV

  energy without entropy =     -174.04492317  energy(sigma->0) =     -174.09861859


--------------------------------------------------------------------------------------------------------




--------------------------------------- Iteration      1(  23)  ---------------------------------------


    POTLOK:  cpu time   12.4625: real time   12.4648
    SETDIJ:  cpu time    0.1197: real time    0.1197
    EDDIAG:  cpu time   66.2361: real time   66.2363
  RMM-DIIS:  cpu time  184.0036: real time  184.0053
    ORTHCH:  cpu time   13.1828: real time   13.1828
       DOS:  cpu time    0.0015: real time    0.0015
    CHARGE:  cpu time   24.0673: real time   24.0673
    MIXING:  cpu time    1.1169: real time    1.1169
    --------------------------------------------
      LOOP:  cpu time  301.1904: real time  301.1945

 eigenvalue-minimisations  :   718
 total energy-change (2. order) : 0.4398440E-01  (-0.1632697E-01)
 number of electron     559.9999860 magnetization 
 augmentation part      241.1545190 magnetization 

 Broyden mixing:
  rms(total) = 0.66700E+00    rms(broyden)= 0.66686E+00
  rms(prec ) = 0.77791E+00
  weight for this iteration     100.00

 eigenvalues of (default mixing * dielectric matrix)
  average eigenvalue GAMMA=   0.3278
  2.0093  1.1376  0.7244  0.3621  0.3621  0.1871  0.1689  0.1689  0.1107  0.1107
[...]
 -0.006  -0.012   0.004   0.004   0.005  -0.006  -0.011   0.004
 -0.011  -0.020   0.006   0.007   0.009  -0.010  -0.019   0.006
 -0.015  -0.005   0.013   0.000   0.022  -0.014  -0.005   0.012
  0.000  -0.023  -0.006  -0.015  -0.000   0.000  -0.022  -0.006
 -0.022   0.000   0.009  -0.005  -0.016  -0.022   0.000   0.008
 -0.017  -0.006   0.015   0.000   0.027  -0.017  -0.006   0.015
  0.000  -0.027  -0.007  -0.018   0.000   0.000  -0.027  -0.007
 -0.027   0.000   0.010  -0.006  -0.019  -0.026   0.000   0.010
 total augmentation occupancy for first ion, spin component:           1
  1.537  -0.031   0.005   0.016   0.024   0.076  -0.008  -0.002   0.036  -0.010   0.091  -0.031   0.012   0.002   0.002  -0.019
 -0.031   1.402   0.029   0.070  -0.000  -0.007   0.071   0.011  -0.014  -0.008   0.216  -0.065   0.019   0.001   0.002  -0.006
  0.005   0.029   1.543   0.002   0.002  -0.002   0.013   0.073  -0.012   0.017  -0.053   0.018  -0.003  -0.007  -0.005   0.016
  0.016   0.070   0.002   1.338   0.044   0.033  -0.013  -0.012   0.091  -0.023  -0.083   0.022  -0.001  -0.009  -0.004   0.001
  0.024  -0.000   0.002   0.044   1.441  -0.010  -0.008   0.016  -0.022   0.067  -0.095   0.031  -0.002  -0.010  -0.010   0.026
  0.076  -0.007  -0.002   0.033  -0.010   0.217   0.019  -0.002  -0.045   0.004  -0.048   0.002   0.017  -0.010   0.034  -0.004
 -0.008   0.071   0.013  -0.013  -0.008   0.019   0.262  -0.023  -0.003   0.006  -0.109   0.007  -0.001   0.051  -0.010  -0.000
 -0.002   0.011   0.073  -0.012   0.016  -0.002  -0.023   0.215   0.014  -0.020   0.028  -0.001  -0.012   0.009  -0.018   0.003
  0.036  -0.014  -0.012   0.091  -0.022  -0.045  -0.003   0.014   0.260   0.007   0.043  -0.004  -0.009   0.036   0.004   0.000
 -0.010  -0.008   0.017  -0.023   0.067   0.004   0.006  -0.020   0.007   0.258   0.046  -0.003  -0.038   0.002   0.049   0.007
  0.091   0.216  -0.053  -0.083  -0.095  -0.048  -0.109   0.028   0.043   0.046   0.949  -0.141   0.084   0.014   0.064  -0.013
 -0.031  -0.065   0.018   0.022   0.031   0.002   0.007  -0.001  -0.004  -0.003  -0.141   0.023  -0.014  -0.003  -0.010   0.003
  0.012   0.019  -0.003  -0.001  -0.002   0.017  -0.001  -0.012  -0.009  -0.038   0.084  -0.014   0.029  -0.008  -0.004  -0.003
  0.002   0.001  -0.007  -0.009  -0.010  -0.010   0.051   0.009   0.036   0.002   0.014  -0.003  -0.008   0.036   0.004   0.000
  0.002   0.002  -0.005  -0.004  -0.010   0.034  -0.010  -0.018   0.004   0.049   0.064  -0.010  -0.004   0.004   0.035  -0.000
 -0.019  -0.006   0.016   0.001   0.026  -0.004  -0.000   0.003   0.000   0.007  -0.013   0.003  -0.003   0.000  -0.000   0.001
  0.001  -0.028  -0.007  -0.018   0.001   0.001  -0.008  -0.001  -0.006  -0.000  -0.003   0.001   0.000  -0.003  -0.000   0.000
 -0.028   0.001   0.012  -0.005  -0.019  -0.006   0.001   0.003  -0.001  -0.007  -0.008   0.001  -0.000  -0.000  -0.003   0.000


------------------------ aborting loop because EDIFF is reached ----------------------------------------


    CHARGE:  cpu time   24.8572: real time   24.8576
    FORLOC:  cpu time    6.7771: real time    6.7771
    FORNL :  cpu time   64.4901: real time   64.4906
    STRESS:  cpu time  193.8575: real time  193.8655
    FORCOR:  cpu time   21.6095: real time   21.6098
    FORHAR:  cpu time    9.3298: real time    9.3299
    MIXING:  cpu time    3.4188: real time    3.4188
    OFIELD:  cpu time    0.0000: real time    0.0000

  FORCE on cell =-STRESS in cart. coord.  units (eV):
  Direction    XX          YY          ZZ          XY          YZ          ZX
  --------------------------------------------------------------------------------------
  Alpha Z    75.25432    75.25432    75.25432
  Ewald   44839.50294 44745.77299 46831.78651  1003.45568  1528.98940  1571.44750
  Hartree 59667.28794 59579.52870 61549.38291   923.52711  1404.74632  1442.99309
  E(xc)   -2904.28254 -2904.32154 -2903.64715     0.47483     0.69594     0.72670
  Local  ************************************ -1919.32546 -2922.52620 -3002.86746
  n-local  -884.34216  -884.11835  -888.36627    -2.89598    -4.31611    -4.50654
  augment  4103.88274  4103.89139  4103.51345    -0.31835    -0.36930    -0.37051
  Kinetic  7804.82973  7805.13375  7798.89261    -4.64835    -6.76457    -6.99919
  Fock        0.00000     0.00000     0.00000     0.00000     0.00000     0.00000
  -------------------------------------------------------------------------------------
  Total    -113.53817  -113.52270  -113.44432     0.26948     0.45548     0.42359
  in kB      -6.73734    -6.73643    -6.73177     0.01599     0.02703     0.02514
  external pressure =       -6.74 kB  Pullay stress =        0.00 kB


 VOLUME and BASIS-vectors are now :
 -----------------------------------------------------------------------------
  energy-cutoff  :      400.00
  volume of cell :    27000.00
      direct lattice vectors                 reciprocal lattice vectors
    30.000000000  0.000000000  0.000000000     0.033333333  0.000000000  0.000000000
     0.000000000 30.000000000  0.000000000     0.000000000  0.033333333  0.000000000
     0.000000000  0.000000000 30.000000000     0.000000000  0.000000000  0.033333333

  length of vectors
    30.000000000 30.000000000 30.000000000     0.033333333  0.033333333  0.033333333


 FORCES acting on ions
    electron-ion (+dipol)            ewald-force                    non-local-force                 convergence-correction
 -----------------------------------------------------------------------------------------------
   0.395E+03 0.972E+03 0.418E+03   -.393E+03 -.969E+03 -.417E+03   -.149E+01 -.182E+01 -.224E+00   0.361E-02 0.196E-02 -.499E-02
   -.970E+03 -.390E+03 0.425E+03   0.967E+03 0.388E+03 -.425E+03   0.182E+01 0.149E+01 -.223E+00   -.338E-02 0.540E-03 0.134E-02
   -.392E+03 0.973E+03 0.419E+03   0.390E+03 -.970E+03 -.418E+03   0.149E+01 -.182E+01 -.227E+00   0.374E-03 0.464E-02 -.397E-02
   0.973E+03 -.392E+03 0.419E+03   -.970E+03 0.390E+03 -.418E+03   -.182E+01 0.149E+01 -.227E+00   -.160E-02 -.288E-02 0.345E-02
   0.164E+01 0.588E+03 0.965E+03   -.165E+01 -.587E+03 -.962E+03   0.413E-03 -.313E+00 -.234E+01   0.278E-02 -.154E-02 0.222E-02
   0.607E+01 0.595E+03 -.960E+03   -.607E+01 -.594E+03 0.956E+03   0.894E-03 -.314E+00 0.234E+01   -.108E-02 0.389E-02 0.381E-03
   0.196E+01 0.113E+04 0.263E+01   -.196E+01 -.113E+04 -.262E+01   -.370E-03 -.311E+01 -.620E-03   0.159E-02 0.293E-02 -.171E-02
   0.113E+04 0.190E+01 0.260E+01   -.113E+04 -.190E+01 -.260E+01   -.311E+01 -.285E-03 -.822E-03   0.736E-03 -.251E-03 0.426E-02
   -.113E+04 0.852E+01 0.125E+02   0.113E+04 -.852E+01 -.125E+02   0.311E+01 -.369E-02 -.640E-02   -.356E-02 0.175E-02 0.900E-03
   0.844E+01 -.114E+04 0.121E+02   -.844E+01 0.113E+04 -.121E+02   -.265E-02 0.311E+01 -.549E-02   0.137E-02 -.131E-02 0.503E-02
   -.577E+03 0.580E+03 0.814E+03   0.574E+03 -.578E+03 -.811E+03   0.156E+01 -.156E+01 -.220E+01   -.419E-02 -.161E-02 0.187E-02
   -.574E+03 0.592E+03 -.806E+03   0.572E+03 -.590E+03 0.803E+03   0.155E+01 -.156E+01 0.220E+01   -.498E-02 0.251E-02 0.893E-04
   0.580E+03 -.577E+03 0.814E+03   -.578E+03 0.574E+03 -.811E+03   -.156E+01 0.156E+01 -.220E+01   -.696E-03 -.180E-02 -.295E-02
   0.592E+03 -.575E+03 -.807E+03   -.590E+03 0.572E+03 0.803E+03   -.156E+01 0.155E+01 0.220E+01   0.770E-03 -.292E-02 -.230E-02
   0.579E+03 0.579E+03 0.813E+03   -.577E+03 -.577E+03 -.810E+03   -.156E+01 -.156E+01 -.220E+01   0.428E-02 -.134E-02 0.985E-03
   0.583E+03 0.583E+03 -.810E+03   -.580E+03 -.580E+03 0.806E+03   -.156E+01 -.156E+01 0.220E+01   0.304E-02 0.230E-02 0.796E-04
   -.576E+03 -.576E+03 0.817E+03   0.574E+03 0.574E+03 -.813E+03   0.156E+01 0.156E+01 -.220E+01   0.765E-03 -.168E-02 0.676E-03
   -.521E+03 -.525E+03 -.720E+03   0.519E+03 0.523E+03 0.717E+03   0.143E+01 0.141E+01 0.208E+01   -.842E-03 -.525E-02 -.234E-02
   0.397E+03 0.974E+03 -.413E+03   -.395E+03 -.971E+03 0.412E+03   -.149E+01 -.182E+01 0.225E+00   0.107E-02 0.412E-02 0.639E-02
   -.971E+03 -.372E+03 -.383E+03   0.968E+03 0.370E+03 0.382E+03   0.182E+01 0.152E+01 0.268E+00   -.516E-02 0.773E-03 0.139E-02
   -.318E+03 0.324E+03 0.458E+03   0.319E+03 -.325E+03 -.458E+03   -.366E+00 0.367E+00 0.521E+00   -.402E-03 -.233E-02 0.480E-03
   0.972E+03 0.395E+03 0.418E+03   -.969E+03 -.393E+03 -.417E+03   -.182E+01 -.149E+01 -.223E+00   -.879E-03 -.323E-03 0.171E-02
   -.390E+03 -.970E+03 0.425E+03   0.388E+03 0.967E+03 -.425E+03   0.149E+01 0.182E+01 -.223E+00   0.417E-02 -.446E-02 0.224E-02
   -.391E+03 0.976E+03 -.412E+03   0.389E+03 -.974E+03 0.411E+03   0.150E+01 -.181E+01 0.224E+00   0.301E-03 0.434E-02 0.283E-02
   0.976E+03 -.391E+03 -.412E+03   -.973E+03 0.389E+03 0.411E+03   -.181E+01 0.150E+01 0.224E+00   0.561E-03 -.231E-02 0.477E-03
   -.970E+03 0.398E+03 0.422E+03   0.967E+03 -.396E+03 -.421E+03   0.182E+01 -.149E+01 -.218E+00   -.497E-02 -.180E-02 0.113E-03
   0.398E+03 -.970E+03 0.421E+03   -.396E+03 0.967E+03 -.421E+03   -.149E+01 0.182E+01 -.218E+00   0.156E-02 -.248E-02 0.241E-02
   0.323E+03 0.323E+03 0.456E+03   -.324E+03 -.324E+03 -.457E+03   0.372E+00 0.372E+00 0.526E+00   0.498E-02 -.180E-02 -.825E-03
   0.327E+01 0.642E+03 0.452E+01   -.327E+01 -.643E+03 -.452E+01   0.144E-02 0.728E+00 0.116E-02   0.432E-02 0.411E-02 -.117E-02
   -.585E+03 0.276E+01 0.967E+03   0.584E+03 -.276E+01 -.964E+03   0.314E+00 0.130E-02 -.234E+01   -.155E-02 -.193E-02 0.258E-02
   -.575E+03 0.354E+02 -.944E+03   0.574E+03 -.355E+02 0.941E+03   0.327E+00 0.545E-01 0.236E+01   -.456E-02 0.170E-02 -.163E-02
   0.588E+03 0.160E+01 0.965E+03   -.587E+03 -.160E+01 -.962E+03   -.313E+00 0.816E-03 -.234E+01   0.116E-02 -.289E-02 0.117E-03
   0.595E+03 0.583E+01 -.960E+03   -.594E+03 -.583E+01 0.957E+03   -.314E+00 0.114E-02 0.234E+01   0.241E-02 -.121E-02 -.282E-02
   0.762E+03 0.762E+03 0.283E+01   -.760E+03 -.760E+03 -.283E+01   -.114E+01 -.114E+01 -.207E-02   0.279E-03 0.213E-02 0.123E-02
   -.755E+03 -.755E+03 0.211E+02   0.753E+03 0.753E+03 -.211E+02   0.114E+01 0.114E+01 -.484E-02   -.146E-02 -.480E-02 0.279E-02
   -.758E+03 0.766E+03 0.597E+01   0.756E+03 -.764E+03 -.597E+01   0.114E+01 -.114E+01 0.152E-02   -.267E-02 0.102E-02 -.154E-02
   0.766E+03 -.758E+03 0.581E+01   -.764E+03 0.756E+03 -.582E+01   -.114E+01 0.114E+01 0.207E-02   0.351E-03 -.397E-02 0.737E-02
   0.225E+01 0.221E+01 0.107E+04   -.225E+01 -.220E+01 -.107E+04   -.149E-02 -.122E-02 -.161E+01   0.221E-02 -.433E-02 0.265E-02
   0.164E+02 0.159E+02 -.106E+04   -.164E+02 -.159E+02 0.106E+04   -.695E-03 -.990E-03 0.161E+01   0.130E-02 -.196E-02 -.234E-02
   0.974E+03 0.397E+03 -.413E+03   -.971E+03 -.395E+03 0.412E+03   -.182E+01 -.149E+01 0.225E+00   0.374E-03 0.313E-02 0.206E-02
   -.372E+03 -.972E+03 -.384E+03   0.370E+03 0.969E+03 0.384E+03   0.152E+01 0.183E+01 0.263E+00   -.773E-03 -.537E-02 -.582E-03
   -.314E+03 0.332E+03 -.443E+03   0.315E+03 -.333E+03 0.444E+03   -.371E+00 0.357E+00 -.527E+00   -.258E-02 0.352E-02 0.242E-02
   0.325E+03 -.318E+03 0.458E+03   -.325E+03 0.319E+03 -.458E+03   0.367E+00 -.367E+00 0.521E+00   0.441E-02 -.492E-02 0.402E-02
   0.327E+03 0.327E+03 -.447E+03   -.327E+03 -.327E+03 0.448E+03   0.368E+00 0.368E+00 -.520E+00   0.272E-02 0.290E-02 0.585E-02
   -.970E+03 0.409E+03 -.404E+03   0.967E+03 -.407E+03 0.403E+03   0.182E+01 -.150E+01 0.222E+00   -.539E-02 0.268E-02 0.103E-02
   0.409E+03 -.971E+03 -.404E+03   -.406E+03 0.968E+03 0.404E+03   -.150E+01 0.182E+01 0.221E+00   0.507E-03 -.417E-02 0.118E-02
   -.317E+03 -.317E+03 0.461E+03   0.318E+03 0.318E+03 -.461E+03   -.367E+00 -.367E+00 0.522E+00   0.123E-02 -.331E-02 0.456E-02
   0.642E+03 0.316E+01 0.447E+01   -.643E+03 -.316E+01 -.447E+01   0.728E+00 0.977E-03 0.673E-03   -.169E-04 0.755E-03 0.537E-02
   -.635E+03 0.862E+01 0.127E+02   0.636E+03 -.861E+01 -.126E+02   -.728E+00 -.898E-02 -.118E-01   -.559E-02 0.130E-02 0.162E-02
   0.279E+01 -.585E+03 0.967E+03   -.280E+01 0.584E+03 -.963E+03   0.136E-02 0.313E+00 -.234E+01   0.373E-02 -.362E-02 -.227E-02
   0.348E+02 -.576E+03 -.945E+03   -.349E+02 0.575E+03 0.942E+03   0.478E-01 0.328E+00 0.236E+01   -.232E-03 -.529E-02 -.221E-02
   0.590E+01 0.575E+01 0.834E+01   -.592E+01 -.577E+01 -.837E+01   0.596E-02 0.613E-02 0.840E-02   0.345E-02 0.162E-02 0.303E-02
   0.332E+03 -.315E+03 -.443E+03   -.333E+03 0.315E+03 0.444E+03   0.357E+00 -.370E+00 -.527E+00   0.259E-02 -.217E-02 0.141E-02
   -.306E+03 -.306E+03 -.430E+03   0.306E+03 0.307E+03 0.431E+03   -.427E+00 -.432E+00 -.598E+00   -.775E-03 -.359E-02 0.557E-04
   0.869E+01 -.635E+03 0.124E+02   -.868E+01 0.636E+03 -.124E+02   -.929E-02 -.727E+00 -.119E-01   0.326E-02 -.661E-02 0.628E-02
   -.436E+02 -.415E+02 -.627E+02   0.295E+02 0.278E+02 0.418E+02   0.127E+02 0.124E+02 0.187E+02   -.866E-04 -.464E-03 -.296E-03
   -.284E+03 -.276E+03 -.409E+03   0.315E+03 0.307E+03 0.455E+03   -.300E+02 -.292E+02 -.443E+02   0.938E-04 -.242E-03 -.218E-03
 -----------------------------------------------------------------------------------------------
   0.174E+02 0.170E+02 0.256E+02   0.909E-12 -.853E-12 -.142E-11   -.174E+02 -.169E+02 -.257E+02   0.893E-02 -.423E-01 0.608E-01
 
 
 POSITION                                       TOTAL-FORCE (eV/Angst)
 -----------------------------------------------------------------------------------
     13.37281      9.84801     12.50759         0.702484      1.108458      0.292280
     20.15199     16.62719     12.50759        -1.108598     -0.703564      0.292361
     16.62719      9.84801     12.50759        -0.701474      1.107010      0.292347
      9.84801     16.62719     12.50759         1.107204     -0.701703      0.292480
     15.00000     11.47521     10.20639        -0.000378      0.414675      1.280533
     15.00000     11.47521     19.79360         0.000205      0.414734     -1.281232
     15.00000      8.28283     15.00000         0.000282      1.516546      0.000331
      8.28283     15.00000     15.00000         1.517295     -0.000097      0.000438
     21.71717     15.00000     15.00000        -1.514698      0.000787     -0.000449
     15.00000     21.71717     15.00000         0.000478     -1.515089     -0.001337
     18.35858     11.64142     10.25025        -0.755877      0.756481      1.072762
     18.35858     11.64142     19.74975        -0.755521      0.756444     -1.070676
     11.64142     18.35858     10.25025         0.756815     -0.756156      1.072596
     11.64142     18.35858     19.74975         0.755874     -0.756053     -1.070998
     11.64142     11.64142     10.25025         0.757374      0.757107      1.073723
     11.64142     11.64142     19.74975         0.756387      0.755962     -1.071616
     18.35858     18.35858     10.25025        -0.755665     -0.756068      1.072028
     18.35858     18.35858     19.74975        -0.498796     -0.526186     -0.629689
     13.37281      9.84801     17.49241         0.702832      1.107881     -0.293122
     20.15199     16.62719     17.49241        -1.100477     -0.724025     -0.304047
     16.73751     13.26249     12.54279         0.113391     -0.112874     -0.158834
      9.84801     13.37281     12.50759         1.108798      0.702026      0.292177
     16.62719     20.15199     12.50759        -0.703117     -1.108856      0.292326
     16.62719      9.84801     17.49241        -0.703893      1.107931     -0.293275
      9.84801     16.62719     17.49241         1.108309     -0.704519     -0.293295
     20.15199     13.37281     12.50759        -1.109090      0.702681      0.290901
     13.37281     20.15199     12.50759         0.703074     -1.109262      0.290804
     13.26249     13.26249     12.54279        -0.112815     -0.113102     -0.158732
     15.00000     11.52498     15.00000        -0.000116     -0.231327      0.000237
     18.52479     15.00000     10.20639        -0.414707     -0.000601      1.280160
     18.52479     15.00000     19.79360        -0.409240     -0.024196     -1.291905
     11.47521     15.00000     10.20640         0.414912     -0.000952      1.280231
     11.47521     15.00000     19.79360         0.414970     -0.000131     -1.281032
     11.49535     11.49535     15.00000         0.829607      0.829241      0.000534
     18.50465     18.50465     15.00000        -0.831474     -0.831869     -0.000906
     18.50465     11.49535     15.00000        -0.830449      0.830333      0.000163
     11.49535     18.50465     15.00000         0.830356     -0.830902     -0.000088
     15.00000     15.00000     10.04368         0.000650      0.000282      1.179120
     15.00000     15.00000     19.95633        -0.000929     -0.001276     -1.181954
      9.84801     13.37281     17.49241         1.108218      0.702586     -0.293216
     16.62719     20.15199     17.49241        -0.722586     -1.102061     -0.302665
     16.73751     13.26249     17.45721         0.112348     -0.109882      0.158583
     13.26249     16.73751     12.54279        -0.112373      0.112999     -0.158785
     13.26249     13.26249     17.45721        -0.111037     -0.111400      0.156991
     20.15199     13.37281     17.49241        -1.108355      0.703894     -0.291286
     13.37281     20.15199     17.49241         0.704915     -1.108779     -0.290767
     16.73751     16.73751     12.54279         0.111978      0.111620     -0.156249
     11.52498     15.00000     15.00000        -0.231067     -0.000534      0.000323
     18.47502     15.00000     15.00000         0.229313      0.003007      0.002770
     15.00000     18.52480     10.20639        -0.000216     -0.415085      1.280274
     15.00000     18.52480     19.79360        -0.022199     -0.409311     -1.291984
     15.00000     15.00000     15.00000        -0.008583     -0.009030     -0.011830
     13.26249     16.73751     17.45721        -0.109198      0.112120      0.158775
     16.73751     16.73751     17.45721         0.145043      0.147738      0.196397
     15.00000     18.47502     15.00000         0.003707      0.229119      0.003270
     19.73959     19.61136     22.00559        -1.449998     -1.385722     -2.204190
     20.29455     20.15131     22.82587         1.186108      1.168951      1.778244
 -----------------------------------------------------------------------------------
    total drift:                               -0.012794      0.007860     -0.001256


--------------------------------------------------------------------------------------------------------



  FREE ENERGIE OF THE ION-ELECTRON SYSTEM (eV)
  ---------------------------------------------------
  free  energy   TOTEN  =      -173.77303009 eV

  energy  without entropy=     -173.67182329  energy(sigma->0) =     -173.74772839
 


--------------------------------------------------------------------------------------------------------


    POTLOK:  cpu time   13.2822: real time   13.2843


--------------------------------------------------------------------------------------------------------


     LOOP+:  cpu time17641.4998: real time17642.1464
    4ORBIT:  cpu time    0.0000: real time    0.0000

 total amount of memory used by VASP MPI-rank0  5486941. kBytes
=======================================================================

   base      :      30000. kBytes
   nonlr-proj:      17126. kBytes
   fftplans  :     924480. kBytes
   grid      :    1872000. kBytes
   one-center:        886. kBytes
   wavefun   :    2642449. kBytes
 
  
  
 General timing and accounting informations for this job:
 ========================================================
  
                  Total CPU time used (sec):    17712.643
                            User time (sec):    16750.397
                          System time (sec):      962.246
                         Elapsed time (sec):    17713.329
  
                   Maximum memory used (kb):     7179228.
                   Average memory used (kb):           0.
  
                          Minor page faults:    821272446
                          Major page faults:            0
                 Voluntary context switches:          383
