  57  57   0   0
  0.4736842E+03  0.3000000E-08  0.3000000E-08  0.3000000E-08  0.5000000E-15
  1.000000000000000E-004
  CAR 
 6_Pd100_top_free_z(O)                   
      1.36503299    -30.43589812  301     -4.15117272      1.00000000
    -30.436  0.0000E+00  0.0000E+00
    -30.330  0.0000E+00  0.0000E+00
    -30.224  0.0000E+00  0.0000E+00
    -30.118  0.2890E-27  0.3064E-28
    -30.012  0.1326E-23  0.1406E-24
    -29.906  0.3416E-20  0.3622E-21
    -29.800  0.4927E-17  0.5227E-18
    -29.694  0.3966E-14  0.4209E-15
    -29.588  0.1776E-11  0.1887E-12
    -29.482  0.4386E-09  0.4668E-10
    -29.376  0.5920E-07  0.6322E-08
    -29.270  0.4306E-05  0.4627E-06
    -29.164  0.1646E-03  0.1791E-04
    -29.058  0.3156E-02  0.3525E-03
    -28.952  0.2705E-01  0.3220E-02
    -28.846  0.6226E-01  0.9819E-02
    -28.740 -0.2724E+00 -0.1906E-01
    -28.634 -0.7882E+00 -0.1026E+00
    -28.528  0.2575E+01  0.1704E+00
    -28.422  0.9224E+01  0.1148E+01
    -28.316  0.7799E+01  0.1975E+01
    -28.210  0.1063E+01  0.2088E+01
    -28.104 -0.7955E+00  0.2003E+01
    -27.998 -0.1113E+00  0.1991E+01
    -27.892  0.6242E-01  0.1998E+01
    -27.786  0.1676E-01  0.2000E+01
    -27.680  0.1549E-02  0.2000E+01
    -27.574  0.6681E-04  0.2000E+01
    -27.468  0.1469E-05  0.2000E+01
    -27.362  0.1710E-07  0.2000E+01
    -27.256  0.1078E-09  0.2000E+01
    -27.150  0.3729E-12  0.2000E+01
    -27.044  0.0000E+00  0.2000E+01
    -26.938  0.0000E+00  0.2000E+01
    -26.832  0.0000E+00  0.2000E+01
    -26.726  0.0000E+00  0.2000E+01
    -26.620  0.0000E+00  0.2000E+01
    -26.514  0.0000E+00  0.2000E+01
    -26.408  0.0000E+00  0.2000E+01
    -26.302  0.0000E+00  0.2000E+01
    -26.196  0.0000E+00  0.2000E+01
    -26.090  0.0000E+00  0.2000E+01
    -25.984  0.0000E+00  0.2000E+01
    -25.878  0.0000E+00  0.2000E+01
    -25.772  0.0000E+00  0.2000E+01
    -25.666  0.0000E+00  0.2000E+01
    -25.560  0.0000E+00  0.2000E+01
    -25.454  0.0000E+00  0.2000E+01
    -25.348  0.0000E+00  0.2000E+01
    -25.242  0.0000E+00  0.2000E+01
    -25.136  0.0000E+00  0.2000E+01
    -25.030  0.0000E+00  0.2000E+01
    -24.924  0.0000E+00  0.2000E+01
    -24.818  0.0000E+00  0.2000E+01
    -24.712  0.0000E+00  0.2000E+01
    -24.606  0.0000E+00  0.2000E+01
    -24.500  0.0000E+00  0.2000E+01
    -24.394  0.0000E+00  0.2000E+01
    -24.288  0.0000E+00  0.2000E+01
    -24.182  0.0000E+00  0.2000E+01
    -24.076  0.0000E+00  0.2000E+01
    -23.970  0.0000E+00  0.2000E+01
    -23.864  0.0000E+00  0.2000E+01
    -23.758  0.0000E+00  0.2000E+01
    -23.652  0.0000E+00  0.2000E+01
    -23.546  0.0000E+00  0.2000E+01
    -23.440  0.0000E+00  0.2000E+01
    -23.334  0.0000E+00  0.2000E+01
    -23.228  0.0000E+00  0.2000E+01
    -23.122  0.0000E+00  0.2000E+01
    -23.016  0.0000E+00  0.2000E+01
    -22.910  0.0000E+00  0.2000E+01
    -22.804  0.0000E+00  0.2000E+01
    -22.698  0.0000E+00  0.2000E+01
    -22.592  0.0000E+00  0.2000E+01
    -22.486  0.0000E+00  0.2000E+01
    -22.380  0.0000E+00  0.2000E+01
    -22.274  0.0000E+00  0.2000E+01
    -22.168  0.0000E+00  0.2000E+01
    -22.062  0.0000E+00  0.2000E+01
    -21.956  0.0000E+00  0.2000E+01
    -21.850  0.0000E+00  0.2000E+01
    -21.744  0.0000E+00  0.2000E+01
    -21.638  0.0000E+00  0.2000E+01
    -21.532  0.0000E+00  0.2000E+01
    -21.426  0.0000E+00  0.2000E+01
    -21.320  0.0000E+00  0.2000E+01
    -21.214  0.0000E+00  0.2000E+01
    -21.108  0.0000E+00  0.2000E+01
    -21.002  0.0000E+00  0.2000E+01
    -20.896  0.0000E+00  0.2000E+01
    -20.790  0.0000E+00  0.2000E+01
    -20.684  0.0000E+00  0.2000E+01
    -20.578  0.0000E+00  0.2000E+01
    -20.472  0.0000E+00  0.2000E+01
    -20.366  0.0000E+00  0.2000E+01
    -20.260  0.0000E+00  0.2000E+01
    -20.154  0.0000E+00  0.2000E+01
    -20.048  0.0000E+00  0.2000E+01
    -19.942  0.0000E+00  0.2000E+01
    -19.836  0.0000E+00  0.2000E+01
    -19.730  0.0000E+00  0.2000E+01
    -19.624  0.0000E+00  0.2000E+01
    -19.518  0.0000E+00  0.2000E+01
    -19.412  0.0000E+00  0.2000E+01
    -19.306  0.0000E+00  0.2000E+01
    -19.200  0.0000E+00  0.2000E+01
    -19.094  0.0000E+00  0.2000E+01
    -18.988  0.0000E+00  0.2000E+01
    -18.882  0.0000E+00  0.2000E+01
    -18.776  0.0000E+00  0.2000E+01
    -18.670  0.0000E+00  0.2000E+01
    -18.564  0.0000E+00  0.2000E+01
    -18.458  0.0000E+00  0.2000E+01
    -18.352  0.0000E+00  0.2000E+01
    -18.246  0.0000E+00  0.2000E+01
    -18.140  0.0000E+00  0.2000E+01
    -18.034  0.0000E+00  0.2000E+01
    -17.928  0.0000E+00  0.2000E+01
    -17.822  0.0000E+00  0.2000E+01
    -17.716  0.0000E+00  0.2000E+01
    -17.610  0.0000E+00  0.2000E+01
    -17.504  0.0000E+00  0.2000E+01
    -17.398  0.0000E+00  0.2000E+01
    -17.292  0.0000E+00  0.2000E+01
    -17.186  0.0000E+00  0.2000E+01
    -17.080  0.0000E+00  0.2000E+01
    -16.974  0.0000E+00  0.2000E+01
    -16.868  0.0000E+00  0.2000E+01
    -16.761  0.0000E+00  0.2000E+01
    -16.655  0.0000E+00  0.2000E+01
    -16.549  0.0000E+00  0.2000E+01
    -16.443  0.0000E+00  0.2000E+01
    -16.337  0.0000E+00  0.2000E+01
    -16.231  0.0000E+00  0.2000E+01
    -16.125  0.0000E+00  0.2000E+01
    -16.019  0.0000E+00  0.2000E+01
    -15.913  0.0000E+00  0.2000E+01
    -15.807  0.0000E+00  0.2000E+01
    -15.701  0.0000E+00  0.2000E+01
    -15.595  0.0000E+00  0.2000E+01
    -15.489  0.0000E+00  0.2000E+01
    -15.383  0.0000E+00  0.2000E+01
    -15.277  0.0000E+00  0.2000E+01
    -15.171  0.0000E+00  0.2000E+01
    -15.065  0.0000E+00  0.2000E+01
    -14.959  0.0000E+00  0.2000E+01
    -14.853  0.1884E-24  0.2000E+01
    -14.747  0.5566E-21  0.2000E+01
    -14.641  0.9218E-18  0.2000E+01
    -14.535  0.8527E-15  0.2000E+01
    -14.429  0.4396E-12  0.2000E+01
    -14.323  0.1250E-09  0.2000E+01
    -14.217  0.1950E-07  0.2000E+01
    -14.111  0.1646E-05  0.2000E+01
    -14.005  0.7354E-04  0.2000E+01
    -13.899  0.1672E-02  0.2000E+01
    -13.793  0.1768E-01  0.2002E+01
    -13.687  0.6312E-01  0.2009E+01
    -13.581 -0.1254E+00  0.1995E+01
    -13.475 -0.8044E+00  0.1910E+01
    -13.369  0.1200E+01  0.2037E+01
    -13.263  0.7973E+01  0.2882E+01
    -13.157  0.9104E+01  0.3848E+01
    -13.051  0.2399E+01  0.4102E+01
    -12.945 -0.8002E+00  0.4017E+01
    -12.839 -0.2532E+00  0.3990E+01
    -12.733  0.6315E-01  0.3997E+01
    -12.627  0.2583E-01  0.4000E+01
    -12.521  0.2939E-02  0.4000E+01
    -12.415  0.1502E-03  0.4000E+01
    -12.309  0.3858E-05  0.4000E+01
    -12.203  0.5286E-07  0.4000E+01
    -12.097  0.9258E-07  0.4000E+01
    -11.991  0.6309E-05  0.4000E+01
    -11.885  0.2262E-03  0.4000E+01
    -11.779  0.4039E-02  0.4000E+01
    -11.673  0.3163E-01  0.4004E+01
    -11.567  0.5772E-01  0.4010E+01
    -11.461 -0.3337E+00  0.3975E+01
    -11.355 -0.6680E+00  0.3904E+01
    -11.249  0.3209E+01  0.4244E+01
    -11.143  0.8928E+01  0.5190E+01
    -11.037  0.7226E+01  0.5956E+01
    -10.931  0.6719E+01  0.6669E+01
    -10.825  0.9179E+01  0.7642E+01
    -10.719  0.4210E+01  0.8088E+01
    -10.613 -0.4687E+00  0.8038E+01
    -10.507 -0.4377E+00  0.7992E+01
    -10.401  0.9302E-01  0.8002E+01
    -10.295  0.3408E-01  0.8005E+01
    -10.189 -0.6293E+00  0.7939E+01
    -10.083 -0.1515E-01  0.7937E+01
     -9.977  0.5896E+01  0.8562E+01
     -9.871  0.9967E+01  0.9619E+01
     -9.765  0.4478E+01  0.1009E+02
     -9.659 -0.4800E+00  0.1004E+02
     -9.553 -0.4833E+00  0.9991E+01
     -9.447  0.3682E-01  0.9995E+01
     -9.341  0.4063E-01  0.9999E+01
     -9.235  0.6183E-02  0.1000E+02
     -9.129  0.3949E-03  0.1000E+02
     -9.023  0.1239E-04  0.1000E+02
     -8.917  0.2022E-06  0.1000E+02
     -8.811  0.1770E-08  0.1000E+02
     -8.705  0.8437E-11  0.1000E+02
     -8.599  0.2304E-13  0.1000E+02
     -8.493  0.0000E+00  0.1000E+02
     -8.387  0.0000E+00  0.1000E+02
     -8.281  0.2296E-25  0.1000E+02
     -8.175  0.7847E-22  0.1000E+02
     -8.069  0.1504E-18  0.1000E+02
     -7.963  0.1612E-15  0.1000E+02
     -7.857  0.9617E-13  0.1000E+02
     -7.751  0.3184E-10  0.1000E+02
     -7.645  0.5785E-08  0.1000E+02
     -7.539  0.5709E-06  0.1000E+02
     -7.433  0.3003E-04  0.1000E+02
     -7.327  0.8139E-03  0.1000E+02
     -7.221  0.1059E-01  0.1000E+02
     -7.115  0.5327E-01  0.1001E+02
     -7.009 -0.1956E-01  0.1000E+02
     -6.903 -0.6699E+00  0.9934E+01
     -6.797  0.1416E+00  0.9949E+01
     -6.691  0.6294E+01  0.1062E+02
     -6.585  0.1009E+02  0.1169E+02
     -6.479  0.3900E+01  0.1210E+02
     -6.373 -0.2732E+01  0.1181E+02
     -6.267  0.2007E+01  0.1202E+02
     -6.161  0.2152E+02  0.1430E+02
     -6.055  0.3023E+02  0.1751E+02
     -5.949  0.2315E+02  0.1996E+02
     -5.843  0.3131E+02  0.2328E+02
     -5.737  0.5819E+02  0.2945E+02
     -5.631  0.1195E+03  0.4212E+02
     -5.525  0.2306E+03  0.6657E+02
     -5.419  0.2963E+03  0.9798E+02
     -5.313  0.2507E+03  0.1245E+03
     -5.207  0.2108E+03  0.1469E+03
     -5.101  0.2695E+03  0.1755E+03
     -4.995  0.3546E+03  0.2131E+03
     -4.889  0.3436E+03  0.2495E+03
     -4.783  0.2902E+03  0.2802E+03
     -4.677  0.3421E+03  0.3165E+03
     -4.571  0.4215E+03  0.3612E+03
     -4.465  0.4219E+03  0.4059E+03
     -4.359  0.4679E+03  0.4555E+03
     -4.253  0.5550E+03  0.5143E+03
     -4.147  0.4427E+03  0.5613E+03
     -4.041  0.1697E+03  0.5793E+03
     -3.935  0.2115E+02  0.5815E+03
     -3.829  0.2260E+02  0.5839E+03
     -3.723  0.2903E+02  0.5870E+03
     -3.617  0.1181E+02  0.5882E+03
     -3.511  0.1525E+02  0.5898E+03
     -3.405  0.2493E+02  0.5925E+03
     -3.299  0.1132E+02  0.5937E+03
     -3.193  0.6662E-01  0.5937E+03
     -3.087  0.2954E+02  0.5968E+03
     -2.981  0.6585E+02  0.6038E+03
     -2.875  0.4915E+02  0.6090E+03
     -2.769  0.1059E+02  0.6101E+03
     -2.663 -0.1185E+01  0.6100E+03
     -2.557  0.1551E+02  0.6116E+03
     -2.451  0.2740E+02  0.6146E+03
     -2.345  0.1575E+02  0.6162E+03
     -2.239  0.1243E+02  0.6175E+03
     -2.133  0.2906E+02  0.6206E+03
     -2.027  0.4221E+02  0.6251E+03
     -1.921  0.4236E+02  0.6296E+03
     -1.815  0.3421E+02  0.6332E+03
     -1.709  0.3245E+02  0.6367E+03
     -1.603  0.4131E+02  0.6410E+03
     -1.497  0.3782E+02  0.6450E+03
     -1.391  0.2306E+02  0.6475E+03
     -1.285  0.1327E+02  0.6489E+03
     -1.179  0.1281E+02  0.6502E+03
     -1.073  0.3085E+02  0.6535E+03
     -0.967  0.6098E+02  0.6600E+03
     -0.861  0.6307E+02  0.6667E+03
     -0.755  0.3139E+02  0.6700E+03
     -0.649  0.1053E+02  0.6711E+03
     -0.543  0.6826E+01  0.6718E+03
     -0.437  0.2192E+01  0.6721E+03
     -0.331 -0.5576E+00  0.6720E+03
     -0.225 -0.1883E+00  0.6720E+03
     -0.119  0.7310E-01  0.6720E+03
     -0.013  0.2771E-01  0.6720E+03
      0.093  0.3177E-02  0.6720E+03
      0.199  0.1650E-03  0.6720E+03
      0.305  0.4309E-05  0.6720E+03
      0.411  0.5922E-07  0.6720E+03
      0.517  0.4386E-09  0.6720E+03
      0.623  0.1776E-11  0.6720E+03
      0.729  0.4189E-14  0.6720E+03
      0.835  0.0000E+00  0.6720E+03
      0.941  0.0000E+00  0.6720E+03
      1.047  0.0000E+00  0.6720E+03
      1.153  0.0000E+00  0.6720E+03
      1.259  0.0000E+00  0.6720E+03
      1.365  0.0000E+00  0.6720E+03
