 vasp.5.4.4.18Apr17-6-g9f103f2a35 (build Sep 03 2018 23:53:05) complex          
  
 executed on             LinuxIFC date 2021.11.27  19:26:56
 running on    1 total cores
 distrk:  each k-point on    1 cores,    1 groups
 distr:  one band on NCORES_PER_BAND=   1 cores,    1 groups


--------------------------------------------------------------------------------------------------------


 INCAR:
 POTCAR:    PAW_PBE Pd 04Jan2005                  
 POTCAR:    PAW_PBE C 08Apr2002                   
 POTCAR:    PAW_PBE O 08Apr2002                   
 POTCAR:    PAW_PBE Pd 04Jan2005                  
   VRHFIN =Pd : s1 d9                                                           
   LEXCH  = PE                                                                  
   EATOM  =   809.7530 eV,   59.5152 Ry                                         
                                                                                
   TITEL  = PAW_PBE Pd 04Jan2005                                                
   LULTRA =        F    use ultrasoft PP ?                                      
   IUNSCR =        1    unscreen: 0-lin 1-nonlin 2-no                           
   RPACOR =    2.000    partial core radius                                     
   POMASS =  106.420; ZVAL   =   10.000    mass and valenz                      
   RCORE  =    2.600    outmost cutoff radius                                   
   RWIGS  =    2.710; RWIGS  =    1.434    wigner-seitz radius (au A)           
   ENMAX  =  250.925; ENMIN  =  188.194 eV                                      
   ICORE  =        3    local potential                                         
   LCOR   =        T    correct aug charges                                     
   LPAW   =        T    paw PP                                                  
   EAUG   =  416.230                                                            
   DEXC   =    0.000                                                            
   RMAX   =    2.653    core radius for proj-oper                               
   RAUG   =    1.300    factor for augmentation sphere                          
   RDEP   =    2.734    radius for radial grids                                 
   RDEPT  =    2.103    core radius for aug-charge                              
                                                                                
   Atomic configuration                                                         
   12 entries                                                                   
     n  l   j            E        occ.                                          
     1  0  0.50    -24164.6631   2.0000                                         
     2  0  0.50     -3530.9218   2.0000                                         
     2  1  1.50     -3165.6822   6.0000                                         
     3  0  0.50      -639.4577   2.0000                                         
     3  1  1.50      -519.4532   6.0000                                         
     3  2  2.50      -328.9757  10.0000                                         
     4  0  0.50       -88.7014   2.0000                                         
     4  1  1.50       -54.4540   6.0000                                         
     4  2  2.50        -6.6878   9.0000                                         
     5  0  0.50        -4.3543   1.0000                                         
     5  1  0.50        -1.3606   0.0000                                         
     4  3  2.50        -1.3606   0.0000                                         
   Description                                                                  
     l       E           TYP  RCUT    TYP  RCUT                                 
     2     -6.6878251     23  2.400                                             
     2     -8.0484077     23  2.400                                             
     0     -4.3542939     23  2.400                                             
     0      4.3406793     23  2.400                                             
     1     -4.0817478     23  2.600                                             
     1     15.8380318     23  2.600                                             
     3     -4.0817478     23  2.400                                             
  local pseudopotential read in
  partial core-charges read in
  partial kinetic energy density read in
  atomic valenz-charges read in
  non local Contribution for L=           2  read in
    real space projection operators read in
  non local Contribution for L=           2  read in
    real space projection operators read in
  non local Contribution for L=           0  read in
    real space projection operators read in
  non local Contribution for L=           0  read in
    real space projection operators read in
  non local Contribution for L=           1  read in
    real space projection operators read in
  non local Contribution for L=           1  read in
    real space projection operators read in
    PAW grid and wavefunctions read in
 
   number of l-projection  operators is LMAX  =           6
   number of lm-projection operators is LMMAX =          18
 
 POTCAR:    PAW_PBE C 08Apr2002                   
   VRHFIN =C: s2p2                                                              
   LEXCH  = PE                                                                  
   EATOM  =   147.1560 eV,   10.8157 Ry                                         
                                                                                
   TITEL  = PAW_PBE C 08Apr2002                                                 
   LULTRA =        F    use ultrasoft PP ?                                      
   IUNSCR =        1    unscreen: 0-lin 1-nonlin 2-no                           
   RPACOR =    1.200    partial core radius                                     
   POMASS =   12.011; ZVAL   =    4.000    mass and valenz                      
   RCORE  =    1.500    outmost cutoff radius                                   
   RWIGS  =    1.630; RWIGS  =    0.863    wigner-seitz radius (au A)           
   ENMAX  =  400.000; ENMIN  =  300.000 eV                                      
   ICORE  =        2    local potential                                         
   LCOR   =        T    correct aug charges                                     
   LPAW   =        T    paw PP                                                  
   EAUG   =  644.873                                                            
   DEXC   =    0.000                                                            
   RMAX   =    1.529    core radius for proj-oper                               
   RAUG   =    1.300    factor for augmentation sphere                          
   RDEP   =    1.501    radius for radial grids                                 
   RDEPT  =    1.300    core radius for aug-charge                              
                                                                                
   Atomic configuration                                                         
    4 entries                                                                   
     n  l   j            E        occ.                                          
     1  0  0.50      -273.3789   2.0000                                         
     2  0  0.50       -13.7508   2.0000                                         
     2  1  0.50        -5.2854   2.0000                                         
     3  2  1.50        -5.4423   0.0000                                         
   Description                                                                  
     l       E           TYP  RCUT    TYP  RCUT                                 
     0    -13.7508458     23  1.200                                             
     0     -8.2022199     23  1.200                                             
     1     -5.2854383     23  1.500                                             
     1     34.0145650     23  1.500                                             
     2     -5.4423304      7  1.500                                             
  local pseudopotential read in
  partial core-charges read in
  partial kinetic energy density read in
  atomic valenz-charges read in
  non local Contribution for L=           0  read in
    real space projection operators read in
  non local Contribution for L=           0  read in
    real space projection operators read in
  non local Contribution for L=           1  read in
    real space projection operators read in
  non local Contribution for L=           1  read in
    real space projection operators read in
    PAW grid and wavefunctions read in
 
   number of l-projection  operators is LMAX  =           4
   number of lm-projection operators is LMMAX =           8
 
 POTCAR:    PAW_PBE O 08Apr2002                   
   VRHFIN =O: s2p4                                                              
   LEXCH  = PE                                                                  
   EATOM  =   432.3788 eV,   31.7789 Ry                                         
                                                                                
   TITEL  = PAW_PBE O 08Apr2002                                                 
   LULTRA =        F    use ultrasoft PP ?                                      
   IUNSCR =        1    unscreen: 0-lin 1-nonlin 2-no                           
   RPACOR =    1.200    partial core radius                                     
   POMASS =   16.000; ZVAL   =    6.000    mass and valenz                      
   RCORE  =    1.520    outmost cutoff radius                                   
   RWIGS  =    1.550; RWIGS  =    0.820    wigner-seitz radius (au A)           
   ENMAX  =  400.000; ENMIN  =  300.000 eV                                      
   ICORE  =        2    local potential                                         
   LCOR   =        T    correct aug charges                                     
   LPAW   =        T    paw PP                                                  
   EAUG   =  605.392                                                            
   DEXC   =    0.000                                                            
   RMAX   =    1.553    core radius for proj-oper                               
   RAUG   =    1.300    factor for augmentation sphere                          
   RDEP   =    1.550    radius for radial grids                                 
   RDEPT  =    1.329    core radius for aug-charge                              
                                                                                
   Atomic configuration                                                         
    4 entries                                                                   
     n  l   j            E        occ.                                          
     1  0  0.50      -514.6923   2.0000                                         
     2  0  0.50       -23.9615   2.0000                                         
     2  1  0.50        -9.0305   4.0000                                         
     3  2  1.50        -9.5241   0.0000                                         
   Description                                                                  
     l       E           TYP  RCUT    TYP  RCUT                                 
     0    -23.9615318     23  1.200                                             
     0     -9.5240782     23  1.200                                             
     1     -9.0304911     23  1.520                                             
     1      8.1634956     23  1.520                                             
     2     -9.5240782      7  1.500                                             
  local pseudopotential read in
  partial core-charges read in
  partial kinetic energy density read in
  kinetic energy density of atom read in
  atomic valenz-charges read in
  non local Contribution for L=           0  read in
    real space projection operators read in
  non local Contribution for L=           0  read in
    real space projection operators read in
  non local Contribution for L=           1  read in
    real space projection operators read in
  non local Contribution for L=           1  read in
    real space projection operators read in
    PAW grid and wavefunctions read in
 
   number of l-projection  operators is LMAX  =           4
   number of lm-projection operators is LMMAX =           8
 
 Optimization of the real space projectors (new method)

 maximal supplied QI-value         = 14.36
 optimisation between [QCUT,QGAM] = [ 10.20, 20.39] = [ 29.12,116.47] Ry 
 Optimized for a Real-space Cutoff    1.51 Angstroem

   l    n(q)    QCUT    max X(q) W(low)/X(q) W(high)/X(q)  e(spline) 
   2      8    10.197    59.108    0.26E-03    0.14E-03    0.96E-07
   2      8    10.197    58.101    0.27E-03    0.14E-03    0.98E-07
   0      9    10.197   102.235    0.54E-04    0.60E-05    0.72E-07
   0      9    10.197    58.388    0.52E-04    0.60E-05    0.68E-07
   1      9    10.197    22.191    0.18E-03    0.25E-03    0.79E-07
   1      9    10.197    15.590    0.15E-03    0.21E-03    0.69E-07
 Optimization of the real space projectors (new method)

 maximal supplied QI-value         = 25.13
 optimisation between [QCUT,QGAM] = [ 10.05, 20.36] = [ 28.30,116.06] Ry 
 Optimized for a Real-space Cutoff    1.30 Angstroem

   l    n(q)    QCUT    max X(q) W(low)/X(q) W(high)/X(q)  e(spline) 
   0      8    10.053   115.676    0.49E-03    0.72E-03    0.18E-06
   0      8    10.053    87.132    0.49E-03    0.71E-03    0.18E-06
   1      7    10.053     4.429    0.32E-03    0.31E-03    0.18E-06
   1      7    10.053     2.733    0.23E-03    0.19E-03    0.20E-06
 Optimization of the real space projectors (new method)

 maximal supplied QI-value         = 24.76
 optimisation between [QCUT,QGAM] = [ 10.15, 20.30] = [ 28.85,115.39] Ry 
 Optimized for a Real-space Cutoff    1.38 Angstroem

   l    n(q)    QCUT    max X(q) W(low)/X(q) W(high)/X(q)  e(spline) 
   0      8    10.150    20.381    0.22E-03    0.32E-03    0.29E-06
   0      8    10.150    15.268    0.23E-03    0.35E-03    0.30E-06
   1      8    10.150     5.964    0.46E-03    0.53E-03    0.21E-06
   1      8    10.150     5.382    0.38E-03    0.45E-03    0.19E-06

 ----------------------------------------------------------------------------- 
|                                                                             |
|  ADVICE TO THIS USER RUNNING 'VASP/VAMP'   (HEAR YOUR MASTER'S VOICE ...):  |
|                                                                             |
|      You enforced a specific xc-type in the INCAR file,                     |
|      a different type was found on the POTCAR file                          |
|          I HOPE YOU KNOW, WHAT YOU ARE  DOING                               |
|                                                                             |
 ----------------------------------------------------------------------------- 

  PAW_PBE Pd 04Jan2005                  :
 energy of atom  1       EATOM= -809.7530
 kinetic energy error for atom=    0.0091 (will be added to EATOM!!)
  PAW_PBE C 08Apr2002                   :
 energy of atom  2       EATOM= -147.1560
 kinetic energy error for atom=    0.0288 (will be added to EATOM!!)
  PAW_PBE O 08Apr2002                   :
 energy of atom  3       EATOM= -432.3788
 kinetic energy error for atom=    0.1156 (will be added to EATOM!!)
 
 
 POSCAR: Pd55PES                                 
  positions in cartesian coordinates
  No initial velocities read in
 exchange correlation table for  LEXCH =        9
   RHO(1)=    0.500       N(1)  =     2000
   RHO(2)=  100.500       N(2)  =     4000
 


--------------------------------------------------------------------------------------------------------


 ion  position               nearest neighbor table
   1  0.446  0.328  0.417-   3 3.25   5 3.25   7 3.36  15 3.36  29 3.42  28 3.42
   2  0.672  0.554  0.417-  26 3.25  30 3.25  17 3.36   9 3.36  47 3.42  49 3.42
   3  0.554  0.328  0.417-   1 3.25   5 3.25   7 3.36  11 3.36  29 3.42  21 3.42
   4  0.328  0.554  0.417-  32 3.25  22 3.25  13 3.36   8 3.36  43 3.42  48 3.42
   5  0.500  0.383  0.340-   1 3.25   3 3.25  11 3.36  15 3.36  21 3.42  28 3.42
   6  0.500  0.383  0.660-  24 3.25  19 3.25  16 3.36  12 3.36  42 3.42  44 3.42
   7  0.500  0.276  0.500-  29 3.24   3 3.36   1 3.36  19 3.36  24 3.36
   8  0.276  0.500  0.500-  48 3.24  22 3.36  40 3.36   4 3.36  25 3.36
   9  0.724  0.500  0.500-  49 3.24  26 3.36  45 3.36   2 3.36  20 3.36
  10  0.500  0.724  0.500-  56 1.82  57 2.31  55 3.24  27 3.36  23 3.36  46 3.36  41 3.36
  11  0.612  0.388  0.342-  21 3.24   5 3.36   3 3.36  30 3.36  26 3.36
  12  0.612  0.388  0.658-  42 3.24  24 3.36  45 3.36   6 3.36  31 3.36
  13  0.388  0.612  0.342-  43 3.24  32 3.36  50 3.36   4 3.36  27 3.36
  14  0.388  0.612  0.658-  53 3.24  25 3.36  33 3.36  51 3.36  46 3.36
  15  0.388  0.388  0.342-  28 3.24   5 3.36   1 3.36  32 3.36  22 3.36
  16  0.388  0.388  0.658-  44 3.24  19 3.36  40 3.36   6 3.36  33 3.36
  17  0.612  0.612  0.342-  47 3.24  30 3.36  50 3.36   2 3.36  23 3.36
  18  0.612  0.612  0.658-  54 3.24  31 3.36  20 3.36  51 3.36  41 3.36
  19  0.446  0.328  0.583-   6 3.25  24 3.25  16 3.36   7 3.36  44 3.42  29 3.42
  20  0.672  0.554  0.583-  31 3.25  45 3.25  18 3.36   9 3.36  54 3.42  49 3.42
  21  0.558  0.442  0.418-  11 3.24   5 3.42   3 3.42  30 3.42  26 3.42
  22  0.328  0.446  0.417-   4 3.25  32 3.25   8 3.36  15 3.36  48 3.42  28 3.42
  23  0.554  0.672  0.417-  27 3.25  50 3.25  10 3.36  17 3.36  55 3.42  47 3.42
  24  0.554  0.328  0.583-   6 3.25  19 3.25  12 3.36   7 3.36  42 3.42  29 3.42
  25  0.328  0.554  0.583-  33 3.25  40 3.25  14 3.36   8 3.36  53 3.42  48 3.42
  26  0.672  0.446  0.417-   2 3.25  30 3.25   9 3.36  11 3.36  49 3.42  21 3.42
  27  0.446  0.672  0.417-  56 2.11  23 3.25  50 3.25  10 3.36  13 3.36  55 3.42  43 3.42
  28  0.442  0.442  0.418-  15 3.24   5 3.42   1 3.42  32 3.42  22 3.42
  29  0.500  0.384  0.500-   7 3.24   3 3.42   1 3.42  24 3.42  19 3.42
  30  0.617  0.500  0.340-   2 3.25  26 3.25  17 3.36  11 3.36  47 3.42  21 3.42
  31  0.617  0.500  0.660-  20 3.25  45 3.25  18 3.36  12 3.36  54 3.42  42 3.42
  32  0.383  0.500  0.340-   4 3.25  22 3.25  13 3.36  15 3.36  43 3.42  28 3.42
  33  0.383  0.500  0.660-  25 3.25  40 3.25  14 3.36  16 3.36  53 3.42  44 3.42
  34  0.383  0.383  0.500-
  35  0.617  0.617  0.500-
  36  0.617  0.383  0.500-
  37  0.383  0.617  0.500-
  38  0.500  0.500  0.335-
  39  0.500  0.500  0.665-
  40  0.328  0.446  0.583-  33 3.25  25 3.25  16 3.36   8 3.36  44 3.42  48 3.42
  41  0.554  0.672  0.583-  46 3.25  51 3.25  10 3.36  18 3.36  54 3.42  55 3.42
  42  0.558  0.442  0.582-  12 3.24   6 3.42  24 3.42  31 3.42  45 3.42
  43  0.442  0.558  0.418-  13 3.24   4 3.42  32 3.42  27 3.42  50 3.42
  44  0.442  0.442  0.582-  16 3.24   6 3.42  19 3.42  33 3.42  40 3.42
  45  0.672  0.446  0.583-  20 3.25  31 3.25   9 3.36  12 3.36  49 3.42  42 3.42
  46  0.446  0.672  0.583-  41 3.25  51 3.25  10 3.36  14 3.36  53 3.42  55 3.42
  47  0.558  0.558  0.418-  17 3.24   2 3.42  30 3.42  23 3.42  50 3.42
  48  0.384  0.500  0.500-   8 3.24   4 3.42  22 3.42  25 3.42  40 3.42
  49  0.616  0.500  0.500-   9 3.24   2 3.42  26 3.42  20 3.42  45 3.42
  50  0.500  0.617  0.340-  27 3.25  23 3.25  13 3.36  17 3.36  43 3.42  47 3.42
  51  0.500  0.617  0.660-  41 3.25  46 3.25  14 3.36  18 3.36  53 3.42  54 3.42
  52  0.500  0.500  0.500-
  53  0.442  0.558  0.582-  14 3.24  25 3.42  33 3.42  51 3.42  46 3.42
  54  0.558  0.558  0.582-  18 3.24  31 3.42  20 3.42  51 3.42  41 3.42
  55  0.500  0.616  0.500-  10 3.24  23 3.42  27 3.42  41 3.42  46 3.42
  56  0.448  0.719  0.469-  57 1.13  10 1.82  27 2.11
  57  0.439  0.755  0.464-  56 1.13  10 2.31
 
  LATTYP: Found a simple cubic cell.
 ALAT       =    30.0000000000
  
  Lattice vectors:
  
 A1 = (  30.0000000000,   0.0000000000,   0.0000000000)
 A2 = (   0.0000000000,  30.0000000000,   0.0000000000)
 A3 = (   0.0000000000,   0.0000000000,  30.0000000000)


Analysis of symmetry for initial positions (statically):
=====================================================================
 Subroutine PRICEL returns:
 Original cell was already a primitive cell.
 

 Routine SETGRP: Setting up the symmetry group for a 
 simple cubic supercell.


 Subroutine GETGRP returns: Found  1 space group operations
 (whereof  1 operations were pure point group operations)
 out of a pool of 48 trial point group operations.


The static configuration has the point symmetry C_1 .


Analysis of symmetry for dynamics (positions and initial velocities):
=====================================================================
 Subroutine PRICEL returns:
 Original cell was already a primitive cell.
 

 Routine SETGRP: Setting up the symmetry group for a 
 simple cubic supercell.


 Subroutine GETGRP returns: Found  1 space group operations
 (whereof  1 operations were pure point group operations)
 out of a pool of 48 trial point group operations.


The dynamic configuration has the point symmetry C_1 .


Analysis of constrained symmetry for selective dynamics:
=====================================================================
 Subroutine PRICEL returns:
 Original cell was already a primitive cell.
 

 Routine SETGRP: Setting up the symmetry group for a 
 simple cubic supercell.


 Subroutine GETGRP returns: Found  1 space group operations
 (whereof  1 operations were pure point group operations)
 out of a pool of 48 trial point group operations.


The constrained configuration has the point symmetry C_1 .


 Subroutine INISYM returns: Found  1 space group operations
 (whereof  1 operations are pure point group operations),
 and found     1 'primitive' translations

 
 
 KPOINTS: K-points                                

Automatic generation of k-mesh.
Space group operators:
 irot       det(A)        alpha          n_x          n_y          n_z        tau_x        tau_y        tau_z
    1     1.000000     0.000000     1.000000     0.000000     0.000000     0.000000     0.000000     0.000000
 
 Subroutine IBZKPT returns following result:
 ===========================================
 
 Found      1 irreducible k-points:
 
 Following reciprocal coordinates:
            Coordinates               Weight
  0.000000  0.000000  0.000000      1.000000
 
 Following cartesian coordinates:
            Coordinates               Weight
  0.000000  0.000000  0.000000      1.000000
 


--------------------------------------------------------------------------------------------------------




 Dimension of arrays:
   k-points           NKPTS =      1   k-points in BZ     NKDIM =      1   number of bands    NBANDS=    336
   number of dos      NEDOS =    301   number of ions     NIONS =     57
   non local maximal  LDIM  =      6   non local SUM 2l+1 LMDIM =     18
   total plane-waves  NPLWV = ******
   max r-space proj   IRMAX =   1847   max aug-charges    IRDMAX=   6262
   dimension x,y,z NGX =   150 NGY =  150 NGZ =  150
   dimension x,y,z NGXF=   300 NGYF=  300 NGZF=  300
   support grid    NGXF=   300 NGYF=  300 NGZF=  300
   ions per type =              55   1   1
   NGX,Y,Z   is equivalent  to a cutoff of   8.31,  8.31,  8.31 a.u.
   NGXF,Y,Z  is equivalent  to a cutoff of  16.62, 16.62, 16.62 a.u.

 SYSTEM =  6_Pd100_top_free_z(O)                   
 POSCAR =  Pd55PES                                 

 Startparameter for this run:
   NWRITE =      2    write-flag & timer
   PREC   = normal    normal or accurate (medium, high low for compatibility)
   ISTART =      0    job   : 0-new  1-cont  2-samecut
   ICHARG =      2    charge: 1-file 2-atom 10-const
   ISPIN  =      1    spin polarized calculation?
   LNONCOLLINEAR =      F non collinear calculations
   LSORBIT =      F    spin-orbit coupling
   INIWAV =      1    electr: 0-lowe 1-rand  2-diag
   LASPH  =      F    aspherical Exc in radial PAW
   METAGGA=      F    non-selfconsistent MetaGGA calc.

 Electronic Relaxation 1
   ENCUT  =  400.0 eV  29.40 Ry    5.42 a.u.  48.92 48.92 48.92*2*pi/ulx,y,z
   ENINI  =  400.0     initial cutoff
   ENAUG  =  644.9 eV  augmentation charge cutoff
   NELM   =    100;   NELMIN=  6; NELMDL= -5     # of ELM steps 
   EDIFF  = 0.1E-03   stopping-criterion for ELM
   LREAL  =      T    real-space projection
   NLSPLINE    = F    spline interpolate recip. space projectors
   LCOMPAT=      F    compatible to vasp.4.4
   GGA_COMPAT  = T    GGA compatible to vasp.4.4-vasp.4.6
   LMAXPAW     = -100 max onsite density
   LMAXMIX     =    2 max onsite mixed and CHGCAR
   VOSKOWN=      0    Vosko Wilk Nusair interpolation
   ROPT   =   -0.00050  -0.00050  -0.00050
 Ionic relaxation
   EDIFFG = -.5E-01   stopping-criterion for IOM
   NSW    =      0    number of steps for IOM
   NBLOCK =      1;   KBLOCK =      1    inner block; outer block 
   IBRION =     -1    ionic relax: 0-MD 1-quasi-New 2-CG
   NFREE  =      1    steps in history (QN), initial steepest desc. (CG)
   ISIF   =      2    stress and relaxation
   IWAVPR =     10    prediction:  0-non 1-charg 2-wave 3-comb
   ISYM   =      2    0-nonsym 1-usesym 2-fastsym
   LCORR  =      T    Harris-Foulkes like correction to forces

   POTIM  = 0.5000    time-step for ionic-motion
   TEIN   =    0.0    initial temperature
   TEBEG  =    0.0;   TEEND  =   0.0 temperature during run
   SMASS  =  -3.00    Nose mass-parameter (am)
   estimated Nose-frequenzy (Omega)   =  0.10E-29 period in steps =****** mass=  -0.206E-25a.u.
   SCALEE = 1.0000    scale energy and forces
   NPACO  =    256;   APACO  = 16.0  distance and # of slots for P.C.
   PSTRESS=    0.0 pullay stress

  Mass of Ions in am
   POMASS = 106.42 12.01 16.00
  Ionic Valenz
   ZVAL   =  10.00  4.00  6.00
  Atomic Wigner-Seitz radii
   RWIGS  =  -1.00 -1.00 -1.00
  virtual crystal weights 
   VCA    =   1.00  1.00  1.00
   NELECT =     560.0000    total number of electrons
   NUPDOWN=      -1.0000    fix difference up-down

 DOS related values:
   EMIN   =  10.00;   EMAX   =-10.00  energy-range for DOS
   EFERMI =   0.00
   ISMEAR =     2;   SIGMA  =   0.20  broadening in eV -4-tet -1-fermi 0-gaus

 Electronic relaxation 2 (details)
   IALGO  =     68    algorithm
   LDIAG  =      T    sub-space diagonalisation (order eigenvalues)
   LSUBROT=      F    optimize rotation matrix (better conditioning)
   TURBO    =      0    0=normal 1=particle mesh
   IRESTART =      0    0=no restart 2=restart with 2 vectors
   NREBOOT  =      0    no. of reboots
   NMIN     =      0    reboot dimension
   EREF     =   0.00    reference energy to select bands
   IMIX   =      4    mixing-type and parameters
     AMIX     =   0.40;   BMIX     =  1.00
     AMIX_MAG =   1.60;   BMIX_MAG =  1.00
     AMIN     =   0.10
     WC   =   100.;   INIMIX=   1;  MIXPRE=   1;  MAXMIX= -45

 Intra band minimization:
   WEIMIN = 0.0000     energy-eigenvalue tresh-hold
   EBREAK =  0.74E-07  absolut break condition
   DEPER  =   0.30     relativ break condition  

   TIME   =   0.40     timestep for ELM

  volume/ion in A,a.u.               =     473.68      3196.58
  Fermi-wavevector in a.u.,A,eV,Ry     =   0.449797  0.849992  2.752691  0.202317
  Thomas-Fermi vector in A             =   1.430086
 
 Write flags
   LWAVE        =      F    write WAVECAR
   LDOWNSAMPLE  =      F    k-point downsampling of WAVECAR
   LCHARG       =      F    write CHGCAR
   LVTOT        =      F    write LOCPOT, total local potential
   LVHAR        =      F    write LOCPOT, Hartree potential only
   LELF         =      F    write electronic localiz. function (ELF)
   LORBIT       =      0    0 simple, 1 ext, 2 COOP (PROOUT), +10 PAW based schemes


 Dipole corrections
   LMONO  =      F    monopole corrections only (constant potential shift)
   LDIPOL =      F    correct potential (dipole corrections)
   IDIPOL =      0    1-x, 2-y, 3-z, 4-all directions 
   EPSILON=  1.0000000 bulk dielectric constant

 Exchange correlation treatment:
   GGA     =    RP    GGA type
   LEXCH   =     9    internal setting for exchange type
   VOSKOWN=      0    Vosko Wilk Nusair interpolation
   LHFCALC =     F    Hartree Fock is set to
   LHFONE  =     F    Hartree Fock one center treatment
   AEXX    =    0.0000 exact exchange contribution

 Linear response parameters
   LEPSILON=     F    determine dielectric tensor
   LRPA    =     F    only Hartree local field effects (RPA)
   LNABLA  =     F    use nabla operator in PAW spheres
   LVEL    =     F    velocity operator in full k-point grid
   LINTERFAST=   F  fast interpolation
   KINTER  =     0    interpolate to denser k-point grid
   CSHIFT  =0.1000    complex shift for real part using Kramers Kronig
   OMEGAMAX=  -1.0    maximum frequency
   DEG_THRESHOLD= 0.2000000E-02 threshold for treating states as degnerate
   RTIME   =   -0.100 relaxation time in fs
  (WPLASMAI=    0.000 imaginary part of plasma frequency in eV, 0.658/RTIME)
   DFIELD  = 0.0000000 0.0000000 0.0000000 field for delta impulse in time
 
 Orbital magnetization related:
   ORBITALMAG=     F  switch on orbital magnetization
   LCHIMAG   =     F  perturbation theory with respect to B field
   DQ        =  0.001000  dq finite difference perturbation B field
   LLRAUG    =     F  two centre corrections for induced B field



--------------------------------------------------------------------------------------------------------


 Static calculation
 charge density and potential will be updated during run
 non-spin polarized calculation
 RMM-DIIS sequential band-by-band and
  variant of blocked Davidson during initial phase
 perform sub-space diagonalisation
    before iterative eigenvector-optimisation
 modified Broyden-mixing scheme, WC =      100.0
 initial mixing is a Kerker type mixing with AMIX =  0.4000 and BMIX =      1.0000
 Hartree-type preconditioning will be used
 using additional bands           56
 real space projection scheme for non local part
 use partial core corrections
 calculate Harris-corrections to forces 
   (improved forces if not selfconsistent)
 use gradient corrections 
 use of overlap-Matrix (Vanderbilt PP)
 Methfessel and Paxton  Order N= 2 SIGMA  =   0.20


--------------------------------------------------------------------------------------------------------


  energy-cutoff  :      400.00
  volume of cell :    27000.00
      direct lattice vectors                 reciprocal lattice vectors
    30.000000000  0.000000000  0.000000000     0.033333333  0.000000000  0.000000000
     0.000000000 30.000000000  0.000000000     0.000000000  0.033333333  0.000000000
     0.000000000  0.000000000 30.000000000     0.000000000  0.000000000  0.033333333

  length of vectors
    30.000000000 30.000000000 30.000000000     0.033333333  0.033333333  0.033333333


 
 k-points in units of 2pi/SCALE and weight: K-points                                
   0.00000000  0.00000000  0.00000000       1.000
 
 k-points in reciprocal lattice and weights: K-points                                
   0.00000000  0.00000000  0.00000000       1.000
 
 position of ions in fractional coordinates (direct lattice) 
   0.44576020  0.32826710  0.41691983
   0.67173288  0.55423978  0.41691983
   0.55423980  0.32826710  0.41691983
   0.32826712  0.55423978  0.41691983
   0.50000000  0.38250690  0.34021317
   0.50000000  0.38250690  0.65978680
   0.50000000  0.27609440  0.50000000
   0.27609443  0.49999998  0.50000000
   0.72390557  0.49999998  0.50000000
   0.50000000  0.72390555  0.50000000
   0.61195280  0.38804720  0.34167483
   0.61195280  0.38804720  0.65832513
   0.38804722  0.61195278  0.34167483
   0.38804722  0.61195278  0.65832513
   0.38804720  0.38804720  0.34167483
   0.38804720  0.38804720  0.65832513
   0.61195278  0.61195278  0.34167483
   0.61195278  0.61195278  0.65832513
   0.44576020  0.32826710  0.58308023
   0.67173288  0.55423978  0.58308023
   0.55791699  0.44208301  0.41809300
   0.32826705  0.44576024  0.41691983
   0.55423973  0.67173293  0.41691983
   0.55423980  0.32826710  0.58308023
   0.32826712  0.55423978  0.58308023
   0.67173295  0.44576024  0.41691983
   0.44576027  0.67173293  0.41691983
   0.44208301  0.44208301  0.41809300
   0.50000000  0.38416601  0.50000000
   0.61749315  0.50000005  0.34021317
   0.61749315  0.50000005  0.65978680
   0.38250685  0.50000005  0.34021317
   0.38250685  0.50000005  0.65978680
   0.38317830  0.38317830  0.50000000
   0.61682172  0.61682172  0.50000000
   0.61682170  0.38317830  0.50000000
   0.38317828  0.61682172  0.50000000
   0.50000000  0.50000000  0.33478917
   0.50000000  0.50000000  0.66521087
   0.32826705  0.44576024  0.58308023
   0.55423973  0.67173293  0.58308023
   0.55791699  0.44208301  0.58190703
   0.44208298  0.55791702  0.41809300
   0.44208301  0.44208301  0.58190703
   0.67173295  0.44576024  0.58308023
   0.44576027  0.67173293  0.58308023
   0.55791702  0.55791702  0.41809300
   0.38416599  0.50000002  0.50000000
   0.61583401  0.50000002  0.50000000
   0.50000000  0.61749319  0.34021317
   0.50000000  0.61749319  0.65978680
   0.50000000  0.50000000  0.50000000
   0.44208298  0.55791702  0.58190703
   0.55791702  0.55791702  0.58190703
   0.50000000  0.61583404  0.50000000
   0.44794840  0.71891380  0.46916260
   0.43933120  0.75515523  0.46405743
 
 position of ions in cartesian coordinates  (Angst):
  13.37280588  9.84801292 12.50759500
  20.15198637 16.62719342 12.50759500
  16.62719412  9.84801292 12.50759500
   9.84801363 16.62719342 12.50759500
  15.00000000 11.47520705 10.20639500
  15.00000000 11.47520705 19.79360400
  15.00000000  8.28283206 15.00000000
   8.28283277 14.99999929 15.00000000
  21.71716723 14.99999929 15.00000000
  15.00000000 21.71716652 14.99999999
  18.35858397 11.64141603 10.25024500
  18.35858397 11.64141603 19.74975399
  11.64141674 18.35858326 10.25024500
  11.64141674 18.35858326 19.74975400
  11.64141603 11.64141603 10.25024500
  11.64141603 11.64141603 19.74975400
  18.35858326 18.35858326 10.25024500
  18.35858326 18.35858326 19.74975400
  13.37280588  9.84801291 17.49240700
  20.15198638 16.62719341 17.49240700
  16.73750985 13.26249015 12.54279000
   9.84801151 13.37280729 12.50759500
  16.62719200 20.15198779 12.50759500
  16.62719412  9.84801292 17.49240700
   9.84801363 16.62719342 17.49240700
  20.15198849 13.37280729 12.50759500
  13.37280800 20.15198779 12.50759500
  13.26249015 13.26249015 12.54279000
  15.00000000 11.52498029 15.00000000
  18.52479437 15.00000140 10.20639500
  18.52479437 15.00000141 19.79360400
  11.47520562 15.00000141 10.20639501
  11.47520563 15.00000141 19.79360400
  11.49534898 11.49534898 15.00000000
  18.50465172 18.50465172 15.00000000
  18.50465102 11.49534898 15.00000000
  11.49534828 18.50465172 15.00000000
  15.00000000 15.00000000 10.04367500
  15.00000000 15.00000000 19.95632599
   9.84801151 13.37280729 17.49240700
  16.62719200 20.15198779 17.49240700
  16.73750985 13.26249015 17.45721100
  13.26248944 16.73751056 12.54279001
  13.26249015 13.26249015 17.45721100
  20.15198849 13.37280729 17.49240699
  13.37280800 20.15198779 17.49240700
  16.73751056 16.73751056 12.54279000
  11.52497959 15.00000071 15.00000000
  18.47502041 15.00000071 15.00000000
  14.99999999 18.52479579 10.20639500
  15.00000000 18.52479578 19.79360400
  15.00000000 15.00000000 15.00000000
  13.26248944 16.73751057 17.45721101
  16.73751056 16.73751057 17.45721100
  15.00000000 18.47502112 15.00000000
  13.43845200 21.56741400 14.07487800
  13.17993600 22.65465700 13.92172300
 


--------------------------------------------------------------------------------------------------------


 k-point  1 :   0.0000 0.0000 0.0000  plane waves:  490521

 maximum and minimum number of plane-waves per node :    490521   490521

 maximum number of plane-waves:    490521
 maximum index in each direction: 
   IXMAX=   48   IYMAX=   48   IZMAX=   48
   IXMIN=  -48   IYMIN=  -48   IZMIN=  -48


 serial   3D FFT for wavefunctions
 parallel 3D FFT for charge:
    minimum data exchange during FFTs selected (reduces bandwidth)


 total amount of memory used by VASP MPI-rank0  5486941. kBytes
=======================================================================

   base      :      30000. kBytes
   nonlr-proj:      17126. kBytes
   fftplans  :     924480. kBytes
   grid      :    1872000. kBytes
   one-center:        886. kBytes
   wavefun   :    2642449. kBytes
 
     INWAV:  cpu time    0.0001: real time    0.0006
 Broyden mixing: mesh for mixing (old mesh)
   NGX = 97   NGY = 97   NGZ = 97
  (NGX  =300   NGY  =300   NGZ  =300)
  gives a total of 912673 points

 initial charge density was supplied:
 charge density of overlapping atoms calculated
 number of electron     560.0000000 magnetization 
 keeping initial charge density in first step


--------------------------------------------------------------------------------------------------------


 Maximum index for non-local projection operator         1763
 Maximum index for augmentation-charges         5898 (set IRDMAX)


--------------------------------------------------------------------------------------------------------


 First call to EWALD:  gamma=   0.059
 Maximum number of real-space cells 3x 3x 3
 Maximum number of reciprocal cells 3x 3x 3

    FEWALD:  cpu time    0.0147: real time    0.0147


--------------------------------------- Iteration      1(   1)  ---------------------------------------


    POTLOK:  cpu time   14.0028: real time   14.0072
    SETDIJ:  cpu time    0.1171: real time    0.1171
     EDDAV:  cpu time  365.3229: real time  365.4145
       DOS:  cpu time    0.0013: real time    0.0013
    --------------------------------------------
      LOOP:  cpu time  379.4441: real time  379.5400

 eigenvalue-minimisations  :   688
 total energy-change (2. order) : 0.4397535E+04  (-0.1005571E+05)
 number of electron     560.0000000 magnetization 
 augmentation part      560.0000000 magnetization 

 Free energy of the ion-electron system (eV)
  ---------------------------------------------------
  alpha Z        PSCENC =        75.25431677
  Ewald energy   TEWEN  =    139026.97348456
  -Hartree energ DENC   =   -182377.13440115
  -exchange      EXHF   =         0.00000000
  -V(xc)+E(xc)   XCENC  =     -1701.84371882
  PAW double counting   =     44873.02882129   -41398.84523641
  entropy T*S    EENTRO =         0.00669957
  eigenvalues    EBANDS =       813.58979662
  atomic energy  EATOM  =     45086.50549395
  Solvation  Ediel_sol  =         0.00000000
  ---------------------------------------------------
  free energy    TOTEN  =      4397.53525638 eV

  energy without entropy =     4397.52855681  energy(sigma->0) =     4397.53358149


--------------------------------------------------------------------------------------------------------




--------------------------------------- Iteration      1(   2)  ---------------------------------------


     EDDAV:  cpu time  585.9672: real time  585.9957
       DOS:  cpu time    0.0013: real time    0.0013
    --------------------------------------------
      LOOP:  cpu time  585.9684: real time  585.9970

 eigenvalue-minimisations  :  1224
 total energy-change (2. order) :-0.2385543E+04  (-0.2147029E+04)
 number of electron     560.0000000 magnetization 
 augmentation part      560.0000000 magnetization 

 Free energy of the ion-electron system (eV)
  ---------------------------------------------------
  alpha Z        PSCENC =        75.25431677
  Ewald energy   TEWEN  =    139026.97348456
  -Hartree energ DENC   =   -182377.13440115
  -exchange      EXHF   =         0.00000000
  -V(xc)+E(xc)   XCENC  =     -1701.84371882
  PAW double counting   =     44873.02882129   -41398.84523641
  entropy T*S    EENTRO =        -0.01959809
  eigenvalues    EBANDS =     -1571.92707977
  atomic energy  EATOM  =     45086.50549395
  Solvation  Ediel_sol  =         0.00000000
  ---------------------------------------------------
  free energy    TOTEN  =      2011.99208233 eV

  energy without entropy =     2012.01168042  energy(sigma->0) =     2011.99698185


--------------------------------------------------------------------------------------------------------




--------------------------------------- Iteration      1(   3)  ---------------------------------------


     EDDAV:  cpu time  493.0196: real time  493.0418
       DOS:  cpu time    0.0011: real time    0.0011
    --------------------------------------------
      LOOP:  cpu time  493.0207: real time  493.0429

 eigenvalue-minimisations  :  1008
 total energy-change (2. order) :-0.1782482E+04  (-0.1676300E+04)
 number of electron     560.0000000 magnetization 
 augmentation part      560.0000000 magnetization 

 Free energy of the ion-electron system (eV)
  ---------------------------------------------------
  alpha Z        PSCENC =        75.25431677
  Ewald energy   TEWEN  =    139026.97348456
  -Hartree energ DENC   =   -182377.13440115
  -exchange      EXHF   =         0.00000000
  -V(xc)+E(xc)   XCENC  =     -1701.84371882
  PAW double counting   =     44873.02882129   -41398.84523641
  entropy T*S    EENTRO =        -0.01825590
  eigenvalues    EBANDS =     -3354.40994909
  atomic energy  EATOM  =     45086.50549395
  Solvation  Ediel_sol  =         0.00000000
  ---------------------------------------------------
  free energy    TOTEN  =       229.51055520 eV

  energy without entropy =      229.52881110  energy(sigma->0) =      229.51511918


--------------------------------------------------------------------------------------------------------




--------------------------------------- Iteration      1(   4)  ---------------------------------------


     EDDAV:  cpu time  415.8816: real time  415.8958
       DOS:  cpu time    0.0012: real time    0.0012
    --------------------------------------------
      LOOP:  cpu time  415.8828: real time  415.8970

 eigenvalue-minimisations  :   816
 total energy-change (2. order) :-0.3643155E+03  (-0.3058522E+03)
 number of electron     560.0000000 magnetization 
 augmentation part      560.0000000 magnetization 

 Free energy of the ion-electron system (eV)
  ---------------------------------------------------
  alpha Z        PSCENC =        75.25431677
  Ewald energy   TEWEN  =    139026.97348456
  -Hartree energ DENC   =   -182377.13440115
  -exchange      EXHF   =         0.00000000
  -V(xc)+E(xc)   XCENC  =     -1701.84371882
  PAW double counting   =     44873.02882129   -41398.84523641
  entropy T*S    EENTRO =        -0.01106935
  eigenvalues    EBANDS =     -3718.73261028
  atomic energy  EATOM  =     45086.50549395
  Solvation  Ediel_sol  =         0.00000000
  ---------------------------------------------------
  free energy    TOTEN  =      -134.80491943 eV

  energy without entropy =     -134.79385009  energy(sigma->0) =     -134.80215210


--------------------------------------------------------------------------------------------------------




--------------------------------------- Iteration      1(   5)  ---------------------------------------


     EDDAV:  cpu time  507.4472: real time  507.4816
       DOS:  cpu time    0.0014: real time    0.0014
    CHARGE:  cpu time   25.0387: real time   25.0384
    MIXING:  cpu time    0.4470: real time    0.4470
    --------------------------------------------
      LOOP:  cpu time  532.9344: real time  532.9685

 eigenvalue-minimisations  :  1040
 total energy-change (2. order) :-0.4562762E+02  (-0.3807340E+02)
 number of electron     559.9999831 magnetization 
 augmentation part      244.9071802 magnetization 

 Broyden mixing:
  rms(total) = 0.17179E+01    rms(broyden)= 0.17171E+01
  rms(prec ) = 0.18192E+01
  weight for this iteration     100.00

 Free energy of the ion-electron system (eV)
  ---------------------------------------------------
  alpha Z        PSCENC =        75.25431677
  Ewald energy   TEWEN  =    139026.97348456
  -Hartree energ DENC   =   -182377.13440115
  -exchange      EXHF   =         0.00000000
  -V(xc)+E(xc)   XCENC  =     -1701.84371882
  PAW double counting   =     44873.02882129   -41398.84523641
  entropy T*S    EENTRO =         0.54014344
  eigenvalues    EBANDS =     -3764.91144500
  atomic energy  EATOM  =     45086.50549395
  Solvation  Ediel_sol  =         0.00000000
  ---------------------------------------------------
  free energy    TOTEN  =      -180.43254137 eV

  energy without entropy =     -180.97268481  energy(sigma->0) =     -180.56757723


--------------------------------------------------------------------------------------------------------




--------------------------------------- Iteration      1(   6)  ---------------------------------------


    POTLOK:  cpu time   13.1920: real time   13.1928
    SETDIJ:  cpu time    0.1247: real time    0.1247
    EDDIAG:  cpu time   67.4073: real time   67.4070
  RMM-DIIS:  cpu time  185.0618: real time  185.0901
    ORTHCH:  cpu time   13.4575: real time   13.4610
       DOS:  cpu time    0.0014: real time    0.0014
    CHARGE:  cpu time   25.3222: real time   25.3247
    MIXING:  cpu time    0.4641: real time    0.4641
    --------------------------------------------
      LOOP:  cpu time  305.0311: real time  305.0659

 eigenvalue-minimisations  :   727
 total energy-change (2. order) :-0.3241262E-01  (-0.6570430E+01)
 number of electron     559.9999857 magnetization 
 augmentation part      240.5094724 magnetization 

 Broyden mixing:
  rms(total) = 0.23762E+01    rms(broyden)= 0.23759E+01
  rms(prec ) = 0.27298E+01
  weight for this iteration     100.00

 eigenvalues of (default mixing * dielectric matrix)
  average eigenvalue GAMMA=   0.3689
  0.3689

 Free energy of the ion-electron system (eV)
  ---------------------------------------------------
  alpha Z        PSCENC =        75.25431677
  Ewald energy   TEWEN  =    139026.97348456
  -Hartree energ DENC   =   -182778.34820916
  -exchange      EXHF   =         0.00000000
  -V(xc)+E(xc)   XCENC  =     -1695.43481183
  PAW double counting   =     45686.37824680   -42186.39108915
  entropy T*S    EENTRO =        -0.27778057
  eigenvalues    EBANDS =     -3395.12460537
  atomic energy  EATOM  =     45086.50549395
  Solvation  Ediel_sol  =         0.00000000
  ---------------------------------------------------
  free energy    TOTEN  =      -180.46495399 eV

  energy without entropy =     -180.18717343  energy(sigma->0) =     -180.39550885


--------------------------------------------------------------------------------------------------------




--------------------------------------- Iteration      1(   7)  ---------------------------------------


    POTLOK:  cpu time   13.0387: real time   13.0416
    SETDIJ:  cpu time    0.1239: real time    0.1239
    EDDIAG:  cpu time   67.6522: real time   67.6600
  RMM-DIIS:  cpu time  216.4034: real time  216.4290
    ORTHCH:  cpu time   13.3430: real time   13.3441
       DOS:  cpu time    0.0014: real time    0.0014
    CHARGE:  cpu time   24.6953: real time   24.6985
    MIXING:  cpu time    0.4732: real time    0.4732
    --------------------------------------------
      LOOP:  cpu time  335.7310: real time  335.7715

 eigenvalue-minimisations  :   844
 total energy-change (2. order) :-0.2001440E+01  (-0.2303170E+01)
 number of electron     559.9999836 magnetization 
 augmentation part      240.4729228 magnetization 

 Broyden mixing:
  rms(total) = 0.22557E+01    rms(broyden)= 0.22554E+01
  rms(prec ) = 0.26907E+01
  weight for this iteration     100.00

 eigenvalues of (default mixing * dielectric matrix)
  average eigenvalue GAMMA=   0.3714
  0.5706  0.1721

 Free energy of the ion-electron system (eV)
  ---------------------------------------------------
  alpha Z        PSCENC =        75.25431677
  Ewald energy   TEWEN  =    139026.97348456
  -Hartree energ DENC   =   -182876.97510958
  -exchange      EXHF   =         0.00000000
  -V(xc)+E(xc)   XCENC  =     -1695.74617250
  PAW double counting   =     45776.42579418   -42273.78653716
  entropy T*S    EENTRO =        -0.08417352
  eigenvalues    EBANDS =     -3301.03349108
  atomic energy  EATOM  =     45086.50549395
  Solvation  Ediel_sol  =         0.00000000
  ---------------------------------------------------
  free energy    TOTEN  =      -182.46639439 eV

  energy without entropy =     -182.38222086  energy(sigma->0) =     -182.44535100


--------------------------------------------------------------------------------------------------------




--------------------------------------- Iteration      1(   8)  ---------------------------------------


    POTLOK:  cpu time   12.8793: real time   12.8821
    SETDIJ:  cpu time    0.1188: real time    0.1188
    EDDIAG:  cpu time   66.4635: real time   66.4695
  RMM-DIIS:  cpu time  198.7994: real time  198.8019
    ORTHCH:  cpu time   13.6474: real time   13.6473
       DOS:  cpu time    0.0013: real time    0.0013
    CHARGE:  cpu time   25.0983: real time   25.0982
    MIXING:  cpu time    0.5014: real time    0.5014
    --------------------------------------------
      LOOP:  cpu time  317.5093: real time  317.5205

 eigenvalue-minimisations  :   776
 total energy-change (2. order) :-0.3874362E+01  (-0.9004477E+00)
 number of electron     559.9999840 magnetization 
 augmentation part      239.9021825 magnetization 

 Broyden mixing:
  rms(total) = 0.30519E+01    rms(broyden)= 0.30516E+01
  rms(prec ) = 0.36298E+01
  weight for this iteration     100.00

 eigenvalues of (default mixing * dielectric matrix)
  average eigenvalue GAMMA=   0.3377
  0.7170  0.1480  0.1480

 Free energy of the ion-electron system (eV)
  ---------------------------------------------------
  alpha Z        PSCENC =        75.25431677
  Ewald energy   TEWEN  =    139026.97348456
  -Hartree energ DENC   =   -182912.54540622
  -exchange      EXHF   =         0.00000000
  -V(xc)+E(xc)   XCENC  =     -1695.73380798
  PAW double counting   =     45868.51245429   -42363.01192872
  entropy T*S    EENTRO =        -0.14220030
  eigenvalues    EBANDS =     -3272.15316255
  atomic energy  EATOM  =     45086.50549395
  Solvation  Ediel_sol  =         0.00000000
  ---------------------------------------------------
  free energy    TOTEN  =      -186.34075620 eV

  energy without entropy =     -186.19855590  energy(sigma->0) =     -186.30520612


--------------------------------------------------------------------------------------------------------




--------------------------------------- Iteration      1(   9)  ---------------------------------------


    POTLOK:  cpu time   13.2152: real time   13.2174
    SETDIJ:  cpu time    0.1213: real time    0.1213
    EDDIAG:  cpu time   66.7315: real time   66.7321
  RMM-DIIS:  cpu time  188.0915: real time  188.0920
    ORTHCH:  cpu time   13.2046: real time   13.2047
       DOS:  cpu time    0.0014: real time    0.0014
    CHARGE:  cpu time   24.3535: real time   24.3537
    MIXING:  cpu time    0.5257: real time    0.5257
    --------------------------------------------
      LOOP:  cpu time  306.2447: real time  306.2483

 eigenvalue-minimisations  :   733
 total energy-change (2. order) : 0.2270482E+01  (-0.6166068E+00)
 number of electron     559.9999826 magnetization 
 augmentation part      240.8363478 magnetization 

 Broyden mixing:
  rms(total) = 0.29348E+01    rms(broyden)= 0.29345E+01
  rms(prec ) = 0.34460E+01
  weight for this iteration     100.00

 eigenvalues of (default mixing * dielectric matrix)
  average eigenvalue GAMMA=   0.3086
  0.8108  0.1599  0.1599  0.1037

 Free energy of the ion-electron system (eV)
  ---------------------------------------------------
  alpha Z        PSCENC =        75.25431677
  Ewald energy   TEWEN  =    139026.97348456
  -Hartree energ DENC   =   -182928.04062202
  -exchange      EXHF   =         0.00000000
  -V(xc)+E(xc)   XCENC  =     -1695.76233624
  PAW double counting   =     45933.73937165   -42426.39905980
  entropy T*S    EENTRO =        -0.07464965
  eigenvalues    EBANDS =     -3256.26627341
  atomic energy  EATOM  =     45086.50549395
  Solvation  Ediel_sol  =         0.00000000
  ---------------------------------------------------
  free energy    TOTEN  =      -184.07027419 eV

  energy without entropy =     -183.99562454  energy(sigma->0) =     -184.05161177


--------------------------------------------------------------------------------------------------------




--------------------------------------- Iteration      1(  10)  ---------------------------------------


    POTLOK:  cpu time   12.7109: real time   12.7122
    SETDIJ:  cpu time    0.1163: real time    0.1163
    EDDIAG:  cpu time   65.7357: real time   65.7387
  RMM-DIIS:  cpu time  188.8167: real time  188.8234
    ORTHCH:  cpu time   13.5485: real time   13.5488
       DOS:  cpu time    0.0015: real time    0.0015
    CHARGE:  cpu time   25.5499: real time   25.5518
    MIXING:  cpu time    0.5925: real time    0.5925
    --------------------------------------------
      LOOP:  cpu time  307.0721: real time  307.0852

 eigenvalue-minimisations  :   736
 total energy-change (2. order) : 0.2358514E+01  (-0.3695406E+00)
 number of electron     559.9999812 magnetization 
 augmentation part      241.2141506 magnetization 

 Broyden mixing:
  rms(total) = 0.22707E+01    rms(broyden)= 0.22704E+01
  rms(prec ) = 0.26917E+01
  weight for this iteration     100.00

 eigenvalues of (default mixing * dielectric matrix)
  average eigenvalue GAMMA=   0.2964
  0.9030  0.1916  0.1916  0.0979  0.0979

 Free energy of the ion-electron system (eV)
  ---------------------------------------------------
  alpha Z        PSCENC =        75.25431677
  Ewald energy   TEWEN  =    139026.97348456
  -Hartree energ DENC   =   -182952.43588892
  -exchange      EXHF   =         0.00000000
  -V(xc)+E(xc)   XCENC  =     -1695.68224972
  PAW double counting   =     45981.04208098   -42472.32993066
  entropy T*S    EENTRO =        -0.13310416
  eigenvalues    EBANDS =     -3230.90596293
  atomic energy  EATOM  =     45086.50549395
  Solvation  Ediel_sol  =         0.00000000
  ---------------------------------------------------
  free energy    TOTEN  =      -181.71176012 eV

  energy without entropy =     -181.57865596  energy(sigma->0) =     -181.67848408


--------------------------------------------------------------------------------------------------------




--------------------------------------- Iteration      1(  11)  ---------------------------------------


    POTLOK:  cpu time   13.3603: real time   13.3630
    SETDIJ:  cpu time    0.1245: real time    0.1245
    EDDIAG:  cpu time   68.5153: real time   68.5198
  RMM-DIIS:  cpu time  188.4505: real time  188.4873
    ORTHCH:  cpu time   13.5584: real time   13.5597
       DOS:  cpu time    0.0015: real time    0.0015
    CHARGE:  cpu time   25.6725: real time   25.6746
    MIXING:  cpu time    0.6056: real time    0.6056
    --------------------------------------------
      LOOP:  cpu time  310.2887: real time  310.3360

 eigenvalue-minimisations  :   732
 total energy-change (2. order) : 0.2711638E+01  (-0.2793665E+00)
 number of electron     559.9999835 magnetization 
 augmentation part      241.6581386 magnetization 

 Broyden mixing:
  rms(total) = 0.18428E+01    rms(broyden)= 0.18425E+01
  rms(prec ) = 0.21240E+01
  weight for this iteration     100.00

 eigenvalues of (default mixing * dielectric matrix)
  average eigenvalue GAMMA=   0.2881
  0.9963  0.2019  0.2019  0.1408  0.0938  0.0938

 Free energy of the ion-electron system (eV)
  ---------------------------------------------------
  alpha Z        PSCENC =        75.25431677
  Ewald energy   TEWEN  =    139026.97348456
  -Hartree energ DENC   =   -182974.72250787
  -exchange      EXHF   =         0.00000000
  -V(xc)+E(xc)   XCENC  =     -1695.51512663
  PAW double counting   =     46029.10812385   -42518.82274749
  entropy T*S    EENTRO =        -0.10844485
  eigenvalues    EBANDS =     -3207.67271414
  atomic energy  EATOM  =     45086.50549395
  Solvation  Ediel_sol  =         0.00000000
  ---------------------------------------------------
  free energy    TOTEN  =      -179.00012185 eV

  energy without entropy =     -178.89167700  energy(sigma->0) =     -178.97301063


--------------------------------------------------------------------------------------------------------




--------------------------------------- Iteration      1(  12)  ---------------------------------------


    POTLOK:  cpu time   13.1917: real time   13.1951
    SETDIJ:  cpu time    0.1228: real time    0.1228
    EDDIAG:  cpu time   67.9127: real time   67.9193
  RMM-DIIS:  cpu time  185.8539: real time  185.8642
    ORTHCH:  cpu time   13.5643: real time   13.5664
       DOS:  cpu time    0.0015: real time    0.0015
    CHARGE:  cpu time   25.3815: real time   25.3824
    MIXING:  cpu time    0.6415: real time    0.6416
    --------------------------------------------
      LOOP:  cpu time  306.6699: real time  306.6933

 eigenvalue-minimisations  :   720
 total energy-change (2. order) : 0.1329254E+01  (-0.2191082E+00)
 number of electron     559.9999851 magnetization 
 augmentation part      241.8535535 magnetization 

 Broyden mixing:
  rms(total) = 0.19589E+01    rms(broyden)= 0.19586E+01
  rms(prec ) = 0.23426E+01
  weight for this iteration     100.00

 eigenvalues of (default mixing * dielectric matrix)
  average eigenvalue GAMMA=   0.2802
  1.0615  0.2398  0.2398  0.1289  0.1112  0.1112  0.0693

 Free energy of the ion-electron system (eV)
  ---------------------------------------------------
  alpha Z        PSCENC =        75.25431677
  Ewald energy   TEWEN  =    139026.97348456
  -Hartree energ DENC   =   -182994.00769444
  -exchange      EXHF   =         0.00000000
  -V(xc)+E(xc)   XCENC  =     -1695.24415449
  PAW double counting   =     46076.03458301   -42563.99975516
  entropy T*S    EENTRO =         0.06330170
  eigenvalues    EBANDS =     -3189.25044392
  atomic energy  EATOM  =     45086.50549395
  Solvation  Ediel_sol  =         0.00000000
  ---------------------------------------------------
  free energy    TOTEN  =      -177.67086801 eV

  energy without entropy =     -177.73416971  energy(sigma->0) =     -177.68669344


--------------------------------------------------------------------------------------------------------




--------------------------------------- Iteration      1(  13)  ---------------------------------------


    POTLOK:  cpu time   13.1390: real time   13.1406
    SETDIJ:  cpu time    0.1219: real time    0.1219
    EDDIAG:  cpu time   67.6228: real time   67.6339
  RMM-DIIS:  cpu time  188.5847: real time  188.6008
    ORTHCH:  cpu time   13.4332: real time   13.4353
       DOS:  cpu time    0.0015: real time    0.0015
    CHARGE:  cpu time   25.3041: real time   25.3057
    MIXING:  cpu time    0.6780: real time    0.6780
    --------------------------------------------
      LOOP:  cpu time  308.8851: real time  308.9177

 eigenvalue-minimisations  :   729
 total energy-change (2. order) : 0.7023784E+00  (-0.1382405E+00)
 number of electron     559.9999843 magnetization 
 augmentation part      241.7415300 magnetization 

 Broyden mixing:
  rms(total) = 0.16250E+01    rms(broyden)= 0.16247E+01
  rms(prec ) = 0.19352E+01
  weight for this iteration     100.00

 eigenvalues of (default mixing * dielectric matrix)
  average eigenvalue GAMMA=   0.2871
  1.1712  0.3042  0.3042  0.1233  0.1233  0.1096  0.0941  0.0665

 Free energy of the ion-electron system (eV)
  ---------------------------------------------------
  alpha Z        PSCENC =        75.25431677
  Ewald energy   TEWEN  =    139026.97348456
  -Hartree energ DENC   =   -183019.12173773
  -exchange      EXHF   =         0.00000000
  -V(xc)+E(xc)   XCENC  =     -1694.97234845
  PAW double counting   =     46112.92569809   -42599.43701478
  entropy T*S    EENTRO =        -0.03510965
  eigenvalues    EBANDS =     -3165.06127238
  atomic energy  EATOM  =     45086.50549395
  Solvation  Ediel_sol  =         0.00000000
  ---------------------------------------------------
  free energy    TOTEN  =      -176.96848962 eV

  energy without entropy =     -176.93337996  energy(sigma->0) =     -176.95971220


--------------------------------------------------------------------------------------------------------




--------------------------------------- Iteration      1(  14)  ---------------------------------------


    POTLOK:  cpu time   13.3399: real time   13.3426
    SETDIJ:  cpu time    0.1204: real time    0.1204
    EDDIAG:  cpu time   68.4611: real time   68.4668
  RMM-DIIS:  cpu time  185.9997: real time  186.0177
    ORTHCH:  cpu time   13.7410: real time   13.7415
       DOS:  cpu time    0.0015: real time    0.0015
    CHARGE:  cpu time   25.8627: real time   25.8637
    MIXING:  cpu time    0.7261: real time    0.7261
    --------------------------------------------
      LOOP:  cpu time  308.2524: real time  308.2802

 eigenvalue-minimisations  :   719
 total energy-change (2. order) :-0.5473486E+00  (-0.1471279E+00)
 number of electron     559.9999819 magnetization 
 augmentation part      241.4375790 magnetization 

 Broyden mixing:
  rms(total) = 0.17460E+01    rms(broyden)= 0.17457E+01
  rms(prec ) = 0.21242E+01
  weight for this iteration     100.00

 eigenvalues of (default mixing * dielectric matrix)
  average eigenvalue GAMMA=   0.2909
  1.2895  0.3485  0.3485  0.1428  0.1428  0.1083  0.1083  0.0649  0.0649

 Free energy of the ion-electron system (eV)
  ---------------------------------------------------
  alpha Z        PSCENC =        75.25431677
  Ewald energy   TEWEN  =    139026.97348456
  -Hartree energ DENC   =   -183049.12710464
  -exchange      EXHF   =         0.00000000
  -V(xc)+E(xc)   XCENC  =     -1694.53375613
  PAW double counting   =     46165.63669822   -42649.90474762
  entropy T*S    EENTRO =        -0.08703812
  eigenvalues    EBANDS =     -3138.23318519
  atomic energy  EATOM  =     45086.50549395
  Solvation  Ediel_sol  =         0.00000000
  ---------------------------------------------------
  free energy    TOTEN  =      -177.51583819 eV

  energy without entropy =     -177.42880008  energy(sigma->0) =     -177.49407867


--------------------------------------------------------------------------------------------------------




--------------------------------------- Iteration      1(  15)  ---------------------------------------


    POTLOK:  cpu time   13.4374: real time   13.4419
    SETDIJ:  cpu time    0.1219: real time    0.1219
    EDDIAG:  cpu time   68.8699: real time   68.8738
  RMM-DIIS:  cpu time  187.1293: real time  187.1460
    ORTHCH:  cpu time   13.6125: real time   13.6131
       DOS:  cpu time    0.0014: real time    0.0014
    CHARGE:  cpu time   25.7915: real time   25.7944
    MIXING:  cpu time    0.7462: real time    0.7462
    --------------------------------------------
      LOOP:  cpu time  309.7100: real time  309.7385

 eigenvalue-minimisations  :   722
 total energy-change (2. order) : 0.2242299E-01  (-0.1211451E+00)
 number of electron     559.9999829 magnetization 
 augmentation part      241.3191221 magnetization 

 Broyden mixing:
  rms(total) = 0.19495E+01    rms(broyden)= 0.19492E+01
  rms(prec ) = 0.22892E+01
  weight for this iteration     100.00

 eigenvalues of (default mixing * dielectric matrix)
  average eigenvalue GAMMA=   0.2992
  1.4459  0.5026  0.2685  0.1801  0.1801  0.1070  0.1070  0.0724  0.0724  0.0563

 Free energy of the ion-electron system (eV)
  ---------------------------------------------------
  alpha Z        PSCENC =        75.25431677
  Ewald energy   TEWEN  =    139026.97348456
  -Hartree energ DENC   =   -183076.53695212
  -exchange      EXHF   =         0.00000000
  -V(xc)+E(xc)   XCENC  =     -1694.10639107
  PAW double counting   =     46214.30000821   -42696.45616990
  entropy T*S    EENTRO =        -0.01735036
  eigenvalues    EBANDS =     -3113.40985525
  atomic energy  EATOM  =     45086.50549395
  Solvation  Ediel_sol  =         0.00000000
  ---------------------------------------------------
  free energy    TOTEN  =      -177.49341521 eV

  energy without entropy =     -177.47606485  energy(sigma->0) =     -177.48907762


--------------------------------------------------------------------------------------------------------




--------------------------------------- Iteration      1(  16)  ---------------------------------------


    POTLOK:  cpu time   13.3469: real time   13.3502
    SETDIJ:  cpu time    0.1229: real time    0.1229
    EDDIAG:  cpu time   68.7293: real time   68.7385
  RMM-DIIS:  cpu time  182.5920: real time  182.6125
    ORTHCH:  cpu time   13.7189: real time   13.7211
       DOS:  cpu time    0.0015: real time    0.0015
    CHARGE:  cpu time   25.8115: real time   25.8141
    MIXING:  cpu time    0.8666: real time    0.8667
    --------------------------------------------
      LOOP:  cpu time  305.1898: real time  305.2276

 eigenvalue-minimisations  :   701
 total energy-change (2. order) : 0.7840686E+00  (-0.1291255E+00)
 number of electron     559.9999812 magnetization 
 augmentation part      241.1663741 magnetization 

 Broyden mixing:
  rms(total) = 0.16350E+01    rms(broyden)= 0.16347E+01
  rms(prec ) = 0.18822E+01
  weight for this iteration     100.00

 eigenvalues of (default mixing * dielectric matrix)
  average eigenvalue GAMMA=   0.2988
  1.5525  0.5859  0.2102  0.2102  0.2126  0.1102  0.1102  0.0886  0.0886  0.0591
  0.0591

 Free energy of the ion-electron system (eV)
  ---------------------------------------------------
  alpha Z        PSCENC =        75.25431677
  Ewald energy   TEWEN  =    139026.97348456
  -Hartree energ DENC   =   -183114.63033919
  -exchange      EXHF   =         0.00000000
  -V(xc)+E(xc)   XCENC  =     -1693.54827178
  PAW double counting   =     46275.26406233   -42754.80829057
  entropy T*S    EENTRO =        -0.00899197
  eigenvalues    EBANDS =     -3077.71081075
  atomic energy  EATOM  =     45086.50549395
  Solvation  Ediel_sol  =         0.00000000
  ---------------------------------------------------
  free energy    TOTEN  =      -176.70934666 eV

  energy without entropy =     -176.70035468  energy(sigma->0) =     -176.70709866


--------------------------------------------------------------------------------------------------------




--------------------------------------- Iteration      1(  17)  ---------------------------------------


    POTLOK:  cpu time   13.4781: real time   13.4823
    SETDIJ:  cpu time    0.1234: real time    0.1234
    EDDIAG:  cpu time   69.0620: real time   69.0691
  RMM-DIIS:  cpu time  181.4516: real time  181.4638
    ORTHCH:  cpu time   14.0592: real time   14.0598
       DOS:  cpu time    0.0014: real time    0.0014
    CHARGE:  cpu time   26.0619: real time   26.0720
    MIXING:  cpu time    0.9389: real time    0.9389
    --------------------------------------------
      LOOP:  cpu time  305.1765: real time  305.2106

 eigenvalue-minimisations  :   696
 total energy-change (2. order) : 0.6784409E+00  (-0.8424423E-01)
 number of electron     559.9999847 magnetization 
 augmentation part      241.1049708 magnetization 

 Broyden mixing:
  rms(total) = 0.11860E+01    rms(broyden)= 0.11856E+01
  rms(prec ) = 0.13857E+01
  weight for this iteration     100.00

 eigenvalues of (default mixing * dielectric matrix)
  average eigenvalue GAMMA=   0.3023
  1.6308  0.6584  0.2667  0.2667  0.1706  0.1168  0.1168  0.1038  0.1038  0.0689
  0.0689  0.0556

 Free energy of the ion-electron system (eV)
  ---------------------------------------------------
  alpha Z        PSCENC =        75.25431677
  Ewald energy   TEWEN  =    139026.97348456
  -Hartree energ DENC   =   -183133.29654789
  -exchange      EXHF   =         0.00000000
  -V(xc)+E(xc)   XCENC  =     -1693.28798020
  PAW double counting   =     46306.93286592   -42785.08316798
  entropy T*S    EENTRO =         0.05163621
  eigenvalues    EBANDS =     -3060.08100706
  atomic energy  EATOM  =     45086.50549395
  Solvation  Ediel_sol  =         0.00000000
  ---------------------------------------------------
  free energy    TOTEN  =      -176.03090572 eV

  energy without entropy =     -176.08254193  energy(sigma->0) =     -176.04381478


--------------------------------------------------------------------------------------------------------




--------------------------------------- Iteration      1(  18)  ---------------------------------------


    POTLOK:  cpu time   13.6460: real time   13.6524
    SETDIJ:  cpu time    0.1334: real time    0.1334
    EDDIAG:  cpu time   69.2334: real time   69.2449
  RMM-DIIS:  cpu time  183.3574: real time  183.3674
    ORTHCH:  cpu time   13.7698: real time   13.7700
       DOS:  cpu time    0.0016: real time    0.0016
    CHARGE:  cpu time   26.3508: real time   26.3513
    MIXING:  cpu time    0.9251: real time    0.9251
    --------------------------------------------
      LOOP:  cpu time  307.4174: real time  307.4460

 eigenvalue-minimisations  :   700
 total energy-change (2. order) : 0.5299928E+00  (-0.5433409E-01)
 number of electron     559.9999853 magnetization 
 augmentation part      241.1932140 magnetization 

 Broyden mixing:
  rms(total) = 0.94592E+00    rms(broyden)= 0.94566E+00
  rms(prec ) = 0.10693E+01
  weight for this iteration     100.00

 eigenvalues of (default mixing * dielectric matrix)
  average eigenvalue GAMMA=   0.3057
  1.6762  0.7277  0.3222  0.3222  0.1608  0.1608  0.1139  0.1139  0.0912  0.0912
  0.0697  0.0684  0.0554

 Free energy of the ion-electron system (eV)
  ---------------------------------------------------
  alpha Z        PSCENC =        75.25431677
  Ewald energy   TEWEN  =    139026.97348456
  -Hartree energ DENC   =   -183147.38868196
  -exchange      EXHF   =         0.00000000
  -V(xc)+E(xc)   XCENC  =     -1693.11429934
  PAW double counting   =     46325.51407059   -42802.75627821
  entropy T*S    EENTRO =         0.00397709
  eigenvalues    EBANDS =     -3046.49299642
  atomic energy  EATOM  =     45086.50549395
  Solvation  Ediel_sol  =         0.00000000
  ---------------------------------------------------
  free energy    TOTEN  =      -175.50091296 eV

  energy without entropy =     -175.50489005  energy(sigma->0) =     -175.50190723


--------------------------------------------------------------------------------------------------------




--------------------------------------- Iteration      1(  19)  ---------------------------------------


    POTLOK:  cpu time   13.6610: real time   13.6636
    SETDIJ:  cpu time    0.1291: real time    0.1291
    EDDIAG:  cpu time   70.4569: real time   70.4588
  RMM-DIIS:  cpu time  183.8233: real time  183.8411
    ORTHCH:  cpu time   13.5204: real time   13.5203
       DOS:  cpu time    0.0015: real time    0.0015
    CHARGE:  cpu time   26.2666: real time   26.2664
    MIXING:  cpu time    1.0201: real time    1.0201
    --------------------------------------------
      LOOP:  cpu time  308.8790: real time  308.9009

 eigenvalue-minimisations  :   704
 total energy-change (2. order) : 0.9639403E-01  (-0.3705346E-01)
 number of electron     559.9999835 magnetization 
 augmentation part      241.2375904 magnetization 

 Broyden mixing:
  rms(total) = 0.93672E+00    rms(broyden)= 0.93655E+00
  rms(prec ) = 0.11088E+01
  weight for this iteration     100.00

 eigenvalues of (default mixing * dielectric matrix)
  average eigenvalue GAMMA=   0.3246
  1.7965  0.8784  0.3903  0.3903  0.1951  0.1951  0.1143  0.1143  0.0977  0.0977
  0.0888  0.0659  0.0659  0.0544

 Free energy of the ion-electron system (eV)
  ---------------------------------------------------
  alpha Z        PSCENC =        75.25431677
  Ewald energy   TEWEN  =    139026.97348456
  -Hartree energ DENC   =   -183157.94418201
  -exchange      EXHF   =         0.00000000
  -V(xc)+E(xc)   XCENC  =     -1693.00451065
  PAW double counting   =     46334.33860159   -42810.90004365
  entropy T*S    EENTRO =         0.03729439
  eigenvalues    EBANDS =     -3036.66497390
  atomic energy  EATOM  =     45086.50549395
  Solvation  Ediel_sol  =         0.00000000
  ---------------------------------------------------
  free energy    TOTEN  =      -175.40451893 eV

  energy without entropy =     -175.44181332  energy(sigma->0) =     -175.41384253


--------------------------------------------------------------------------------------------------------




--------------------------------------- Iteration      1(  20)  ---------------------------------------


    POTLOK:  cpu time   13.6485: real time   13.6505
    SETDIJ:  cpu time    0.1267: real time    0.1267
    EDDIAG:  cpu time   70.7836: real time   70.7892
  RMM-DIIS:  cpu time  179.8099: real time  179.8162
    ORTHCH:  cpu time   13.5365: real time   13.5369
       DOS:  cpu time    0.0015: real time    0.0015
    CHARGE:  cpu time   26.1471: real time   26.1496
    MIXING:  cpu time    1.0978: real time    1.0978
    --------------------------------------------
      LOOP:  cpu time  305.1516: real time  305.1685

 eigenvalue-minimisations  :   699
 total energy-change (2. order) :-0.1072334E+00  (-0.3870249E-01)
 number of electron     559.9999845 magnetization 
 augmentation part      241.2007971 magnetization 

 Broyden mixing:
  rms(total) = 0.97400E+00    rms(broyden)= 0.97382E+00
  rms(prec ) = 0.11347E+01
  weight for this iteration     100.00

 eigenvalues of (default mixing * dielectric matrix)
  average eigenvalue GAMMA=   0.3301
  1.8925  1.0320  0.4006  0.4006  0.2108  0.2108  0.1148  0.1148  0.1097  0.0959
  0.0959  0.0862  0.0660  0.0660  0.0541

 Free energy of the ion-electron system (eV)
  ---------------------------------------------------
  alpha Z        PSCENC =        75.25431677
  Ewald energy   TEWEN  =    139026.97348456
  -Hartree energ DENC   =   -183182.46474968
  -exchange      EXHF   =         0.00000000
  -V(xc)+E(xc)   XCENC  =     -1692.72536534
  PAW double counting   =     46352.51835723   -42827.62106829
  entropy T*S    EENTRO =         0.01411989
  eigenvalues    EBANDS =     -3013.96634136
  atomic energy  EATOM  =     45086.50549395
  Solvation  Ediel_sol  =         0.00000000
  ---------------------------------------------------
  free energy    TOTEN  =      -175.51175228 eV

  energy without entropy =     -175.52587217  energy(sigma->0) =     -175.51528225


--------------------------------------------------------------------------------------------------------




--------------------------------------- Iteration      1(  21)  ---------------------------------------


    POTLOK:  cpu time   13.5528: real time   13.5539
    SETDIJ:  cpu time    0.1242: real time    0.1242
    EDDIAG:  cpu time   71.0630: real time   71.0733
  RMM-DIIS:  cpu time  184.6734: real time  184.6743
    ORTHCH:  cpu time   13.6196: real time   13.6256
       DOS:  cpu time    0.0015: real time    0.0015
    CHARGE:  cpu time   25.9936: real time   25.9965
    MIXING:  cpu time    1.1305: real time    1.1305
    --------------------------------------------
      LOOP:  cpu time  310.1588: real time  310.1800

 eigenvalue-minimisations  :   704
 total energy-change (2. order) : 0.2844764E+00  (-0.2791889E-01)
 number of electron     559.9999835 magnetization 
 augmentation part      241.1382275 magnetization 

 Broyden mixing:
  rms(total) = 0.64911E+00    rms(broyden)= 0.64888E+00
  rms(prec ) = 0.74945E+00
  weight for this iteration     100.00

 eigenvalues of (default mixing * dielectric matrix)
  average eigenvalue GAMMA=   0.3374
  2.0449  1.1301  0.4199  0.3051  0.3051  0.2040  0.2040  0.1148  0.1148  0.0999
  0.0999  0.0933  0.0739  0.0674  0.0674  0.0541

 Free energy of the ion-electron system (eV)
  ---------------------------------------------------
  alpha Z        PSCENC =        75.25431677
  Ewald energy   TEWEN  =    139026.97348456
  -Hartree energ DENC   =   -183206.38282744
  -exchange      EXHF   =         0.00000000
  -V(xc)+E(xc)   XCENC  =     -1692.47563869
  PAW double counting   =     46364.70979244   -42838.63066424
  entropy T*S    EENTRO =        -0.03434050
  eigenvalues    EBANDS =     -2991.14689277
  atomic energy  EATOM  =     45086.50549395
  Solvation  Ediel_sol  =         0.00000000
  ---------------------------------------------------
  free energy    TOTEN  =      -175.22727592 eV

  energy without entropy =     -175.19293542  energy(sigma->0) =     -175.21869079


--------------------------------------------------------------------------------------------------------




--------------------------------------- Iteration      1(  22)  ---------------------------------------


    POTLOK:  cpu time   13.5815: real time   13.5845
    SETDIJ:  cpu time    0.1330: real time    0.1330
    EDDIAG:  cpu time   69.8402: real time   69.8400
  RMM-DIIS:  cpu time  183.2567: real time  183.2661
    ORTHCH:  cpu time   13.5748: real time   13.5746
       DOS:  cpu time    0.0016: real time    0.0016
    CHARGE:  cpu time   25.8079: real time   25.8075
    MIXING:  cpu time    1.2515: real time    1.2515
    --------------------------------------------
      LOOP:  cpu time  307.4472: real time  307.4588

 eigenvalue-minimisations  :   696
 total energy-change (2. order) : 0.1278319E+00  (-0.2452719E-01)
 number of electron     559.9999839 magnetization 
 augmentation part      241.1941710 magnetization 

 Broyden mixing:
  rms(total) = 0.59180E+00    rms(broyden)= 0.59164E+00
  rms(prec ) = 0.68748E+00
  weight for this iteration     100.00

 eigenvalues of (default mixing * dielectric matrix)
  average eigenvalue GAMMA=   0.3512
  2.1448  1.1903  0.6481  0.3417  0.3417  0.1977  0.1977  0.1397  0.1138  0.1138
  0.0975  0.0975  0.0794  0.0794  0.0663  0.0663  0.0541

 Free energy of the ion-electron system (eV)
  ---------------------------------------------------
  alpha Z        PSCENC =        75.25431677
  Ewald energy   TEWEN  =    139026.97348456
  -Hartree energ DENC   =   -183222.85792033
  -exchange      EXHF   =         0.00000000
  -V(xc)+E(xc)   XCENC  =     -1692.22086775
  PAW double counting   =     46373.19797726   -42846.09155971
  entropy T*S    EENTRO =        -0.05260975
  eigenvalues    EBANDS =     -2975.80775906
  atomic energy  EATOM  =     45086.50549395
  Solvation  Ediel_sol  =         0.00000000
  ---------------------------------------------------
  free energy    TOTEN  =      -175.09944404 eV

  energy without entropy =     -175.04683429  energy(sigma->0) =     -175.08629160


--------------------------------------------------------------------------------------------------------




--------------------------------------- Iteration      1(  23)  ---------------------------------------


    POTLOK:  cpu time   13.6454: real time   13.6474
    SETDIJ:  cpu time    0.1234: real time    0.1234
    EDDIAG:  cpu time   70.7850: real time   70.7908
  RMM-DIIS:  cpu time  182.1877: real time  182.2009
    ORTHCH:  cpu time   13.5619: real time   13.5630
       DOS:  cpu time    0.0015: real time    0.0015
    CHARGE:  cpu time   25.7301: real time   25.7311
    MIXING:  cpu time    1.3815: real time    1.3816
    --------------------------------------------
      LOOP:  cpu time  307.4166: real time  307.4397

 eigenvalue-minimisations  :   694
 total energy-change (2. order) : 0.3342790E-02  (-0.1592768E-01)
 number of electron     559.9999839 magnetization 
 augmentation part      241.1194119 magnetization 

 Broyden mixing:
  rms(total) = 0.68425E+00    rms(broyden)= 0.68411E+00
  rms(prec ) = 0.79160E+00
  weight for this iteration     100.00

 eigenvalues of (default mixing * dielectric matrix)
  average eigenvalue GAMMA=   0.3550
[...]
 -0.006  -0.012   0.004   0.005   0.005  -0.006  -0.011   0.003
 -0.011  -0.020   0.006   0.008   0.008  -0.011  -0.019   0.006
 -0.014  -0.005   0.013   0.000   0.022  -0.014  -0.004   0.012
  0.000  -0.023  -0.006  -0.015  -0.000   0.000  -0.022  -0.005
 -0.022   0.000   0.009  -0.005  -0.015  -0.022   0.000   0.008
 -0.017  -0.006   0.015   0.000   0.027  -0.017  -0.006   0.015
  0.000  -0.028  -0.007  -0.018  -0.000   0.000  -0.027  -0.007
 -0.027   0.000   0.010  -0.006  -0.018  -0.026   0.000   0.010
 total augmentation occupancy for first ion, spin component:           1
  1.538  -0.030   0.006   0.017   0.027   0.076  -0.008  -0.002   0.035  -0.011   0.093  -0.031   0.012   0.002   0.002  -0.019
 -0.030   1.406   0.029   0.071   0.001  -0.007   0.070   0.011  -0.014  -0.008   0.215  -0.065   0.019   0.001   0.002  -0.006
  0.006   0.029   1.540  -0.001  -0.004  -0.002   0.012   0.074  -0.012   0.018  -0.049   0.017  -0.004  -0.006  -0.004   0.016
  0.017   0.071  -0.001   1.336   0.040   0.033  -0.014  -0.012   0.092  -0.022  -0.085   0.024  -0.002  -0.008  -0.003   0.001
  0.027   0.001  -0.004   0.040   1.436  -0.011  -0.009   0.017  -0.021   0.068  -0.086   0.028  -0.004  -0.008  -0.009   0.027
  0.076  -0.007  -0.002   0.033  -0.011   0.217   0.019  -0.002  -0.045   0.004  -0.048   0.002   0.017  -0.010   0.035  -0.004
 -0.008   0.070   0.012  -0.014  -0.009   0.019   0.263  -0.023  -0.003   0.006  -0.109   0.007  -0.001   0.052  -0.010  -0.000
 -0.002   0.011   0.074  -0.012   0.017  -0.002  -0.023   0.215   0.013  -0.020   0.027  -0.001  -0.012   0.009  -0.018   0.003
  0.035  -0.014  -0.012   0.092  -0.021  -0.045  -0.003   0.013   0.260   0.006   0.042  -0.003  -0.009   0.036   0.004   0.000
 -0.011  -0.008   0.018  -0.022   0.068   0.004   0.006  -0.020   0.006   0.258   0.045  -0.003  -0.038   0.002   0.049   0.007
  0.093   0.215  -0.049  -0.085  -0.086  -0.048  -0.109   0.027   0.042   0.045   0.949  -0.141   0.084   0.013   0.063  -0.012
 -0.031  -0.065   0.017   0.024   0.028   0.002   0.007  -0.001  -0.003  -0.003  -0.141   0.023  -0.014  -0.003  -0.010   0.003
  0.012   0.019  -0.004  -0.002  -0.004   0.017  -0.001  -0.012  -0.009  -0.038   0.084  -0.014   0.029  -0.008  -0.004  -0.003
  0.002   0.001  -0.006  -0.008  -0.008  -0.010   0.052   0.009   0.036   0.002   0.013  -0.003  -0.008   0.036   0.004   0.000
  0.002   0.002  -0.004  -0.003  -0.009   0.035  -0.010  -0.018   0.004   0.049   0.063  -0.010  -0.004   0.004   0.034  -0.000
 -0.019  -0.006   0.016   0.001   0.027  -0.004  -0.000   0.003   0.000   0.007  -0.012   0.003  -0.003   0.000  -0.000   0.001
  0.001  -0.028  -0.007  -0.018   0.001   0.001  -0.008  -0.001  -0.006  -0.000  -0.003   0.001   0.000  -0.003  -0.000   0.000
 -0.029   0.001   0.012  -0.005  -0.019  -0.006   0.001   0.003  -0.001  -0.007  -0.008   0.001  -0.000  -0.000  -0.003   0.000


------------------------ aborting loop because EDIFF is reached ----------------------------------------


    CHARGE:  cpu time   24.8346: real time   24.8342
    FORLOC:  cpu time    6.7461: real time    6.7460
    FORNL :  cpu time   66.4618: real time   66.4608
    STRESS:  cpu time  202.3392: real time  202.3379
    FORCOR:  cpu time   22.0774: real time   22.0810
    FORHAR:  cpu time    9.8649: real time    9.8648
    MIXING:  cpu time    3.7967: real time    3.7967
    OFIELD:  cpu time    0.0000: real time    0.0000

  FORCE on cell =-STRESS in cart. coord.  units (eV):
  Direction    XX          YY          ZZ          XY          YZ          ZX
  --------------------------------------------------------------------------------------
  Alpha Z    75.25432    75.25432    75.25432
  Ewald   44746.95752 49595.09481 44684.81522  -980.76816  -370.30436   361.45262
  Hartree 59588.94457 64230.27611 59562.00204  -898.36817  -383.25158   256.92754
  E(xc)   -2906.18986 -2905.59296 -2906.53561    -0.33646     0.43714     0.53572
  Local  ************************************  1873.45430   754.15300  -608.81110
  n-local  -877.03629  -888.72883  -879.17311     2.94658     3.89129     1.55258
  augment  4100.52575  4105.56595  4103.88802    -1.15049    -3.16450    -2.38780
  Kinetic  7810.46068  7804.68362  7816.30750     0.90596    -4.29757    -5.93917
  Fock        0.00000     0.00000     0.00000     0.00000     0.00000     0.00000
  -------------------------------------------------------------------------------------
  Total    -107.83291  -104.22243  -112.12463    -3.31645    -2.53659     3.33038
  in kB      -6.39879    -6.18455    -6.65346    -0.19680    -0.15052     0.19762
  external pressure =       -6.41 kB  Pullay stress =        0.00 kB


 VOLUME and BASIS-vectors are now :
 -----------------------------------------------------------------------------
  energy-cutoff  :      400.00
  volume of cell :    27000.00
      direct lattice vectors                 reciprocal lattice vectors
    30.000000000  0.000000000  0.000000000     0.033333333  0.000000000  0.000000000
     0.000000000 30.000000000  0.000000000     0.000000000  0.033333333  0.000000000
     0.000000000  0.000000000 30.000000000     0.000000000  0.000000000  0.033333333

  length of vectors
    30.000000000 30.000000000 30.000000000     0.033333333  0.033333333  0.033333333


 FORCES acting on ions
    electron-ion (+dipol)            ewald-force                    non-local-force                 convergence-correction
 -----------------------------------------------------------------------------------------------
   0.393E+03 0.975E+03 0.417E+03   -.391E+03 -.972E+03 -.416E+03   -.149E+01 -.184E+01 -.230E+00   -.136E-02 0.581E-02 0.196E-02
   -.982E+03 -.384E+03 0.418E+03   0.979E+03 0.381E+03 -.418E+03   0.182E+01 0.148E+01 -.232E+00   0.236E-02 -.389E-02 0.419E-02
   -.396E+03 0.974E+03 0.417E+03   0.394E+03 -.971E+03 -.416E+03   0.150E+01 -.185E+01 -.208E+00   -.477E-02 0.362E-02 0.191E-03
   0.986E+03 -.369E+03 0.422E+03   -.983E+03 0.366E+03 -.422E+03   -.184E+01 0.150E+01 -.236E+00   0.342E-02 -.956E-03 0.603E-02
   -.148E+01 0.593E+03 0.967E+03   0.149E+01 -.592E+03 -.963E+03   -.102E-01 -.298E+00 -.237E+01   -.333E-02 0.744E-03 0.609E-02
   -.119E+01 0.591E+03 -.967E+03   0.120E+01 -.590E+03 0.964E+03   -.572E-02 -.311E+00 0.236E+01   -.233E-02 0.485E-02 0.992E-04
   -.102E+01 0.113E+04 -.602E+00   0.100E+01 -.113E+04 0.598E+00   0.103E-01 -.311E+01 0.624E-02   -.301E-02 0.323E-02 -.574E-02
   0.114E+04 0.133E+02 -.197E+01   -.114E+04 -.133E+02 0.197E+01   -.311E+01 0.583E-02 -.209E-02   0.657E-02 0.433E-03 0.157E-02
   -.114E+04 0.620E+01 -.942E+00   0.113E+04 -.621E+01 0.949E+00   0.311E+01 0.310E-02 -.391E-02   0.112E-02 -.353E-02 -.153E-02
   -.279E+03 -.108E+04 -.164E+03   0.275E+03 0.108E+04 0.163E+03   0.600E+01 0.313E+01 0.319E+01   -.342E-02 -.122E-02 0.310E-03
   -.581E+03 0.583E+03 0.814E+03   0.579E+03 -.581E+03 -.811E+03   0.156E+01 -.156E+01 -.220E+01   -.314E-02 -.228E-02 0.327E-02
   -.580E+03 0.582E+03 -.815E+03   0.578E+03 -.579E+03 0.811E+03   0.156E+01 -.156E+01 0.220E+01   0.593E-03 0.187E-02 -.848E-03
   0.591E+03 -.547E+03 0.841E+03   -.588E+03 0.545E+03 -.838E+03   -.169E+01 0.160E+01 -.225E+01   -.505E-03 -.183E-02 0.459E-02
   0.584E+03 -.563E+03 -.833E+03   -.581E+03 0.561E+03 0.830E+03   -.158E+01 0.153E+01 0.220E+01   -.186E-02 -.238E-02 -.404E-02
   0.579E+03 0.585E+03 0.815E+03   -.577E+03 -.583E+03 -.812E+03   -.156E+01 -.155E+01 -.220E+01   0.150E-02 -.460E-03 0.491E-02
   0.579E+03 0.583E+03 -.815E+03   -.576E+03 -.581E+03 0.812E+03   -.156E+01 -.156E+01 0.220E+01   -.316E-02 0.312E-02 -.216E-02
   -.595E+03 -.564E+03 0.824E+03   0.592E+03 0.562E+03 -.821E+03   0.157E+01 0.150E+01 -.226E+01   -.144E-02 0.127E-02 0.550E-03
   -.588E+03 -.569E+03 -.823E+03   0.586E+03 0.567E+03 0.820E+03   0.155E+01 0.152E+01 0.219E+01   -.262E-02 0.169E-02 0.214E-02
   0.393E+03 0.974E+03 -.418E+03   -.391E+03 -.971E+03 0.417E+03   -.150E+01 -.184E+01 0.224E+00   -.422E-02 0.327E-02 -.631E-02
   -.980E+03 -.385E+03 -.421E+03   0.977E+03 0.383E+03 0.420E+03   0.181E+01 0.150E+01 0.226E+00   0.283E-02 -.544E-02 -.425E-02
   -.325E+03 0.332E+03 0.455E+03   0.326E+03 -.333E+03 -.455E+03   -.374E+00 0.398E+00 0.518E+00   -.713E-02 -.214E-02 0.384E-02
   0.975E+03 0.406E+03 0.418E+03   -.972E+03 -.403E+03 -.417E+03   -.182E+01 -.151E+01 -.229E+00   0.556E-02 -.112E-02 0.403E-02
   -.458E+03 -.932E+03 0.445E+03   0.456E+03 0.929E+03 -.444E+03   0.116E+01 0.193E+01 -.145E+00   -.373E-02 0.250E-03 0.659E-03
   -.396E+03 0.974E+03 -.418E+03   0.393E+03 -.971E+03 0.417E+03   0.151E+01 -.184E+01 0.202E+00   -.181E-02 0.244E-02 -.431E-02
   0.982E+03 -.375E+03 -.427E+03   -.979E+03 0.373E+03 0.427E+03   -.185E+01 0.149E+01 0.249E+00   0.105E-02 -.190E-02 -.517E-02
   -.976E+03 0.400E+03 0.417E+03   0.973E+03 -.398E+03 -.416E+03   0.182E+01 -.149E+01 -.231E+00   -.436E-03 -.132E-02 0.418E-02
   0.390E+03 -.790E+03 0.566E+03   -.388E+03 0.791E+03 -.562E+03   -.755E+00 -.975E+00 -.278E+01   -.347E-02 -.356E-02 0.381E-02
   0.320E+03 0.335E+03 0.455E+03   -.321E+03 -.336E+03 -.456E+03   0.372E+00 0.386E+00 0.524E+00   -.322E-03 -.178E-02 0.487E-02
   -.180E+01 0.646E+03 -.106E+01   0.179E+01 -.647E+03 0.106E+01   0.154E-01 0.704E+00 0.427E-02   -.515E-02 0.488E-02 -.744E-02
   -.593E+03 0.986E+01 0.969E+03   0.592E+03 -.988E+01 -.965E+03   0.300E+00 0.144E-01 -.234E+01   -.290E-02 -.440E-02 0.380E-02
   -.591E+03 0.716E+01 -.969E+03   0.590E+03 -.720E+01 0.966E+03   0.290E+00 0.227E-01 0.235E+01   -.338E-02 -.431E-02 -.749E-04
   0.590E+03 0.161E+02 0.972E+03   -.589E+03 -.161E+02 -.969E+03   -.322E+00 -.228E-02 -.235E+01   0.129E-02 -.337E-02 0.601E-02
   0.588E+03 0.108E+02 -.972E+03   -.588E+03 -.108E+02 0.969E+03   -.297E+00 0.463E-02 0.234E+01   -.148E-02 -.807E-03 -.417E-02
   0.761E+03 0.768E+03 -.105E+01   -.759E+03 -.766E+03 0.105E+01   -.115E+01 -.114E+01 0.273E-02   0.100E-02 0.384E-02 -.400E-02
   -.786E+03 -.741E+03 -.519E+01   0.784E+03 0.739E+03 0.521E+01   0.118E+01 0.113E+01 -.113E-01   -.195E-02 -.840E-03 -.237E-02
   -.763E+03 0.766E+03 -.795E+00   0.761E+03 -.764E+03 0.784E+00   0.114E+01 -.116E+01 0.123E-01   -.323E-02 0.400E-02 -.356E-02
   0.795E+03 -.690E+03 -.194E+02   -.793E+03 0.688E+03 0.195E+02   -.101E+01 0.127E+01 -.650E-01   -.194E-02 -.417E-02 -.272E-03
   -.395E+01 0.159E+02 0.108E+04   0.392E+01 -.158E+02 -.107E+04   0.308E-01 -.404E-01 -.162E+01   -.434E-02 -.375E-02 0.609E-02
   -.264E+01 0.105E+02 -.108E+04   0.263E+01 -.105E+02 0.107E+04   0.396E-02 0.759E-02 0.162E+01   -.343E-02 -.962E-03 -.754E-03
   0.974E+03 0.404E+03 -.420E+03   -.972E+03 -.401E+03 0.420E+03   -.182E+01 -.150E+01 0.224E+00   0.170E-02 0.236E-02 -.436E-02
   -.426E+03 -.951E+03 -.450E+03   0.424E+03 0.948E+03 0.449E+03   0.150E+01 0.178E+01 0.358E+00   -.453E-02 0.249E-02 -.704E-03
   -.325E+03 0.330E+03 -.457E+03   0.325E+03 -.331E+03 0.457E+03   -.370E+00 0.380E+00 -.534E+00   -.395E-02 0.209E-02 -.477E-02
   0.321E+03 -.278E+03 0.464E+03   -.321E+03 0.278E+03 -.465E+03   0.348E+00 -.391E+00 0.624E+00   -.304E-02 -.442E-02 0.606E-02
   0.320E+03 0.333E+03 -.458E+03   -.321E+03 -.333E+03 0.458E+03   0.366E+00 0.383E+00 -.525E+00   -.284E-02 0.269E-02 -.642E-02
   -.975E+03 0.400E+03 -.418E+03   0.972E+03 -.397E+03 0.418E+03   0.182E+01 -.150E+01 0.221E+00   0.134E-02 -.137E-02 -.453E-02
   0.392E+03 -.929E+03 -.490E+03   -.390E+03 0.925E+03 0.490E+03   -.145E+01 0.192E+01 -.314E-01   -.351E-02 -.127E-02 -.379E-02
   -.337E+03 -.294E+03 0.460E+03   0.338E+03 0.295E+03 -.460E+03   -.338E+00 -.411E+00 0.515E+00   -.713E-02 -.575E-02 0.336E-02
   0.643E+03 0.231E+02 -.333E+01   -.644E+03 -.230E+02 0.334E+01   0.730E+00 -.233E-01 -.789E-02   0.268E-03 -.408E-03 -.160E-02
   -.647E+03 0.129E+02 -.190E+01   0.648E+03 -.129E+02 0.191E+01   -.737E+00 0.117E-01 -.132E-02   -.187E-02 -.604E-02 -.304E-02
   -.142E+02 -.556E+03 0.995E+03   0.141E+02 0.555E+03 -.991E+03   0.984E-01 0.344E+00 -.246E+01   -.359E-02 -.188E-02 0.259E-02
   -.666E+01 -.571E+03 -.986E+03   0.661E+01 0.571E+03 0.982E+03   0.382E-01 0.292E+00 0.238E+01   -.354E-02 -.120E-02 -.262E-03
   -.569E+01 0.233E+02 -.338E+01   0.570E+01 -.233E+02 0.338E+01   0.521E-03 -.855E-02 0.516E-04   -.514E-02 -.513E-02 -.484E-02
   0.321E+03 -.292E+03 -.471E+03   -.321E+03 0.293E+03 0.471E+03   0.355E+00 -.367E+00 -.506E+00   -.541E-02 -.270E-02 -.521E-02
   -.333E+03 -.302E+03 -.465E+03   0.333E+03 0.302E+03 0.465E+03   -.313E+00 -.420E+00 -.465E+00   -.731E-02 -.509E-02 -.229E-02
   -.341E+02 -.565E+03 -.202E+02   0.344E+02 0.566E+03 0.204E+02   -.259E+00 -.265E+00 -.183E+00   -.831E-02 -.291E-02 -.194E-02
   0.184E+03 -.221E+03 0.286E+02   -.181E+03 0.198E+03 -.283E+02   -.186E+01 0.147E+02 -.184E+01   -.136E-02 -.134E-02 0.570E-03
   0.299E+03 -.823E+03 0.131E+03   -.317E+03 0.887E+03 -.142E+03   0.145E+02 -.555E+02 0.968E+01   -.116E-02 -.166E-02 0.583E-03
 -----------------------------------------------------------------------------------------------
   -.189E+02 0.431E+02 -.806E+01   0.136E-11 -.136E-11 -.210E-11   0.190E+02 -.431E+02 0.809E+01   -.112E+00 -.426E-01 -.144E-01
 
 
 POSITION                                       TOTAL-FORCE (eV/Angst)
 -----------------------------------------------------------------------------------
     13.37281      9.84801     12.50759         0.692585      1.116740      0.286628
     20.15199     16.62719     12.50759        -1.107237     -0.704952      0.294644
     16.62719      9.84801     12.50759        -0.694370      1.114551      0.280385
      9.84801     16.62719     12.50759         1.103606     -0.715590      0.292533
     15.00000     11.47521     10.20639         0.001060      0.405413      1.279292
     15.00000     11.47521     19.79360         0.001942      0.408775     -1.275459
     15.00000      8.28283     15.00000        -0.007017      1.512058     -0.004439
      8.28283     15.00000     15.00000         1.516556      0.000126      0.000229
     21.71717     15.00000     15.00000        -1.517857     -0.001183      0.001537
     15.00000     21.71717     15.00000         2.773880     -1.839803      1.914165
     18.35858     11.64142     10.25025        -0.755283      0.754994      1.071290
     18.35858     11.64142     19.74975        -0.753596      0.757959     -1.070275
     11.64142     18.35858     10.25025         0.746149     -0.780162      1.035285
     11.64142     18.35858     19.74975         0.759801     -0.752159     -1.070279
     11.64142     11.64142     10.25025         0.755762      0.753947      1.071282
     11.64142     11.64142     19.74975         0.753996      0.753791     -1.069700
     18.35858     18.35858     10.25025        -0.748243     -0.722553      1.093202
     18.35858     18.35858     19.74975        -0.742281     -0.745237     -1.066435
     13.37281      9.84801     17.49241         0.694129      1.112316     -0.288709
     20.15199     16.62719     17.49241        -1.108160     -0.708530     -0.294831
     16.73751     13.26249     12.54279         0.112063     -0.119020     -0.149227
      9.84801     13.37281     12.50759         1.105243      0.705596      0.297595
     16.62719     20.15199     12.50759        -0.614650     -1.194036      0.122146
     16.62719      9.84801     17.49241        -0.698446      1.112503     -0.278693
      9.84801     16.62719     17.49241         1.104054     -0.705248     -0.292093
     20.15199     13.37281     12.50759        -1.107384      0.700888      0.295117
     13.37281     20.15199     12.50759         0.577284     -0.647226      1.220896
     13.26249     13.26249     12.54279        -0.108411     -0.132216     -0.149271
     15.00000     11.52498     15.00000        -0.003160     -0.228302      0.000723
     18.52479     15.00000     10.20639        -0.412129     -0.008060      1.280955
     18.52479     15.00000     19.79360        -0.403870     -0.016103     -1.281120
     11.47521     15.00000     10.20640         0.414680      0.009545      1.272166
     11.47521     15.00000     19.79360         0.409271     -0.002755     -1.280245
     11.49535     11.49535     15.00000         0.826528      0.824213      0.002136
     18.50465     18.50465     15.00000        -0.826884     -0.838599      0.008365
     18.50465     11.49535     15.00000        -0.822970      0.833685     -0.003170
     11.49535     18.50465     15.00000         0.785714     -0.836484      0.006547
     15.00000     15.00000     10.04368        -0.007169      0.018062      1.183062
     15.00000     15.00000     19.95633        -0.004904     -0.000899     -1.184010
      9.84801     13.37281     17.49241         1.106327      0.702007     -0.297878
     16.62719     20.15199     17.49241        -0.664745     -1.179920     -0.181839
     16.73751     13.26249     17.45721         0.111284     -0.109601      0.151418
     13.26249     16.73751     12.54279        -0.106679      0.056680     -0.179891
     13.26249     13.26249     17.45721        -0.111572     -0.113766      0.141614
     20.15199     13.37281     17.49241        -1.104537      0.704040     -0.292475
     13.37281     20.15199     17.49241         0.690059     -1.175920     -0.161979
     16.73751     16.73751     12.54279         0.102331      0.110039     -0.157656
     11.52498     15.00000     15.00000        -0.226791      0.005255     -0.001010
     18.47502     15.00000     15.00000         0.229083      0.005449      0.001102
     15.00000     18.52480     10.20639        -0.005284     -0.455477      1.243816
     15.00000     18.52480     19.79360        -0.016907     -0.391321     -1.291913
     15.00000     15.00000     15.00000         0.003888      0.012971     -0.001454
     13.26249     16.73751     17.45721        -0.103616      0.105861      0.167538
     16.73751     16.73751     17.45721         0.104540      0.112292      0.142925
     15.00000     18.47502     15.00000         0.078769      0.058469      0.055846
     13.43845     21.56741     14.07488         0.683577     -8.002698     -1.540514
     13.17994     22.65466     13.92172        -3.460007      8.359597     -1.349874
 -----------------------------------------------------------------------------------
    total drift:                                0.005002      0.002907      0.014146


--------------------------------------------------------------------------------------------------------



  FREE ENERGIE OF THE ION-ELECTRON SYSTEM (eV)
  ---------------------------------------------------
  free  energy   TOTEN  =      -174.84982141 eV

  energy  without entropy=     -174.81048111  energy(sigma->0) =     -174.83998634
 


--------------------------------------------------------------------------------------------------------


    POTLOK:  cpu time   14.0927: real time   14.0943


--------------------------------------------------------------------------------------------------------


     LOOP+:  cpu time18291.4362: real time18292.5546
    4ORBIT:  cpu time    0.0000: real time    0.0000

 total amount of memory used by VASP MPI-rank0  5486941. kBytes
=======================================================================

   base      :      30000. kBytes
   nonlr-proj:      17126. kBytes
   fftplans  :     924480. kBytes
   grid      :    1872000. kBytes
   one-center:        886. kBytes
   wavefun   :    2642449. kBytes
 
  
  
 General timing and accounting informations for this job:
 ========================================================
  
                  Total CPU time used (sec):    18366.021
                            User time (sec):    17341.714
                          System time (sec):     1024.307
                         Elapsed time (sec):    18367.257
  
                   Maximum memory used (kb):     7179120.
                   Average memory used (kb):           0.
  
                          Minor page faults:    816752685
                          Major page faults:            0
                 Voluntary context switches:          628
