       N       E                     dE             d eps       ncg     rms          rms(c)
DAV:   1     0.437687035020E+04    0.43769E+04   -0.10052E+05   688   0.815E+02
DAV:   2     0.200743627906E+04   -0.23694E+04   -0.21324E+04  1224   0.105E+02
DAV:   3     0.233074690815E+03   -0.17744E+04   -0.16700E+04  1000   0.916E+01
DAV:   4    -0.133671862512E+03   -0.36675E+03   -0.31011E+03   824   0.434E+01
DAV:   5    -0.178464369360E+03   -0.44793E+02   -0.37166E+02  1024   0.144E+01    0.138E+01
RMM:   6    -0.177722295267E+03    0.74207E+00   -0.50495E+01   721   0.846E+00    0.203E+01
RMM:   7    -0.180217616382E+03   -0.24953E+01   -0.17673E+01   851   0.442E+00    0.195E+01
RMM:   8    -0.183759849209E+03   -0.35422E+01   -0.58641E+00   754   0.329E+00    0.272E+01
RMM:   9    -0.181191463989E+03    0.25684E+01   -0.44457E+00   732   0.295E+00    0.281E+01
RMM:  10    -0.178274023149E+03    0.29174E+01   -0.21763E+00   735   0.213E+00    0.187E+01
RMM:  11    -0.176605768970E+03    0.16683E+01   -0.16893E+00   723   0.194E+00    0.150E+01
RMM:  12    -0.176257572819E+03    0.34820E+00   -0.96911E-01   724   0.146E+00    0.175E+01
RMM:  13    -0.175361971884E+03    0.89560E+00   -0.77086E-01   724   0.131E+00    0.116E+01
RMM:  14    -0.175320862312E+03    0.41110E-01   -0.13012E+00   707   0.166E+00    0.148E+01
RMM:  15    -0.175774643238E+03   -0.45378E+00   -0.10854E+00   721   0.152E+00    0.191E+01
RMM:  16    -0.175233370831E+03    0.54127E+00   -0.74410E-01   721   0.128E+00    0.143E+01
RMM:  17    -0.174748052465E+03    0.48532E+00   -0.49145E-01   722   0.107E+00    0.129E+01
RMM:  18    -0.174579136976E+03    0.16892E+00   -0.32621E-01   716   0.883E-01    0.117E+01
RMM:  19    -0.174443911819E+03    0.13523E+00   -0.30905E-01   720   0.848E-01    0.914E+00
RMM:  20    -0.174243880939E+03    0.20003E+00   -0.28931E-01   718   0.832E-01    0.694E+00
RMM:  21    -0.174183330852E+03    0.60550E-01   -0.21173E-01   720   0.719E-01    0.667E+00
RMM:  22    -0.174107520483E+03    0.75810E-01   -0.19205E-01   714   0.675E-01    0.590E+00
RMM:  23    -0.174046999058E+03    0.60521E-01   -0.15552E-01   716   0.611E-01    0.635E+00
RMM:  24    -0.173920576768E+03    0.12642E+00   -0.92229E-02   718   0.487E-01    0.387E+00
RMM:  25    -0.173920999663E+03   -0.42289E-03   -0.67614E-02   714   0.402E-01    0.407E+00
RMM:  26    -0.173900356139E+03    0.20644E-01   -0.51955E-02   717   0.365E-01    0.404E+00
RMM:  27    -0.173846779687E+03    0.53576E-01   -0.39199E-02   714   0.328E-01    0.240E+00
RMM:  28    -0.173833359709E+03    0.13420E-01   -0.24546E-02   709   0.251E-01    0.190E+00
RMM:  29    -0.173825284411E+03    0.80753E-02   -0.19269E-02   707   0.220E-01    0.159E+00
RMM:  30    -0.173813663593E+03    0.11621E-01   -0.12765E-02   709   0.184E-01    0.117E+00
RMM:  31    -0.173810130912E+03    0.35327E-02   -0.92031E-03   701   0.156E-01    0.116E+00
RMM:  32    -0.173802633453E+03    0.74975E-02   -0.67283E-03   704   0.132E-01    0.850E-01
RMM:  33    -0.173800103733E+03    0.25297E-02   -0.32305E-03   708   0.956E-02    0.545E-01
RMM:  34    -0.173800536195E+03   -0.43246E-03   -0.26905E-03   696   0.817E-02    0.552E-01
RMM:  35    -0.173799705377E+03    0.83082E-03   -0.14791E-03   698   0.650E-02    0.262E-01
RMM:  36    -0.173802008177E+03   -0.23028E-02   -0.15416E-03   693   0.612E-02    0.402E-01
RMM:  37    -0.173805814327E+03   -0.38062E-02   -0.17397E-03   691   0.631E-02    0.307E-01
RMM:  38    -0.173807151526E+03   -0.13372E-02   -0.61212E-04   613   0.382E-02    0.223E-01
RMM:  39    -0.173810195305E+03   -0.30438E-02   -0.62633E-04   629   0.367E-02    0.298E-01
RMM:  40    -0.173813443752E+03   -0.32484E-02   -0.66303E-04   604   0.374E-02    0.198E-01
RMM:  41    -0.173815002496E+03   -0.15587E-02   -0.30475E-04   454   0.258E-02    0.166E-01
RMM:  42    -0.173817902139E+03   -0.28996E-02   -0.48198E-04   526   0.285E-02    0.164E-01
RMM:  43    -0.173819562792E+03   -0.16607E-02   -0.28312E-04   446   0.228E-02    0.155E-01
RMM:  44    -0.173820990923E+03   -0.14281E-02   -0.17650E-04   428   0.175E-02    0.126E-01
RMM:  45    -0.173822573119E+03   -0.15822E-02   -0.16243E-04   422   0.167E-02    0.764E-02
RMM:  46    -0.173823239294E+03   -0.66618E-03   -0.77964E-05   420   0.116E-02    0.659E-02
RMM:  47    -0.173825039298E+03   -0.18000E-02   -0.11715E-04   411   0.128E-02    0.572E-02
RMM:  48    -0.173825529886E+03   -0.49059E-03   -0.57220E-05   414   0.901E-03    0.345E-02
RMM:  49    -0.173826171209E+03   -0.64132E-03   -0.37570E-05   405   0.729E-03    0.364E-02
RMM:  50    -0.173826726040E+03   -0.55483E-03   -0.24045E-05   347   0.595E-03    0.337E-02
RMM:  51    -0.173826922013E+03   -0.19597E-03   -0.95227E-06   248   0.475E-03    0.252E-02
RMM:  52    -0.173827640129E+03   -0.71812E-03   -0.17479E-05   322   0.525E-03    0.188E-02
RMM:  53    -0.173827889919E+03   -0.24979E-03   -0.48343E-06   172   0.399E-03    0.168E-02
RMM:  54    -0.173828302367E+03   -0.41245E-03   -0.15683E-05   264   0.464E-03    0.142E-02
RMM:  55    -0.173828450749E+03   -0.14838E-03   -0.33925E-06   138   0.359E-03    0.770E-03
RMM:  56    -0.173828680738E+03   -0.22999E-03   -0.95259E-06   197   0.413E-03    0.110E-02
RMM:  57    -0.173828805970E+03   -0.12523E-03   -0.56315E-06   156   0.374E-03    0.448E-03
RMM:  58    -0.173828958872E+03   -0.15290E-03   -0.11869E-05   201   0.404E-03    0.736E-03
RMM:  59    -0.173829050321E+03   -0.91449E-04   -0.40744E-06   132   0.347E-03
   1 F= -.17382905E+03 E0= -.17380388E+03  d E =-.100677E+00
