 vasp.5.4.4.18Apr17-6-g9f103f2a35 (build Sep 03 2018 23:53:05) complex          
  
 executed on             LinuxIFC date 2021.12.01  23:38:23
 running on    1 total cores
 distrk:  each k-point on    1 cores,    1 groups
 distr:  one band on NCORES_PER_BAND=   1 cores,    1 groups


--------------------------------------------------------------------------------------------------------


 INCAR:
 POTCAR:    PAW_PBE Pd 04Jan2005                  
 POTCAR:    PAW_PBE C 08Apr2002                   
 POTCAR:    PAW_PBE O 08Apr2002                   
 POTCAR:    PAW_PBE Pd 04Jan2005                  
   VRHFIN =Pd : s1 d9                                                           
   LEXCH  = PE                                                                  
   EATOM  =   809.7530 eV,   59.5152 Ry                                         
                                                                                
   TITEL  = PAW_PBE Pd 04Jan2005                                                
   LULTRA =        F    use ultrasoft PP ?                                      
   IUNSCR =        1    unscreen: 0-lin 1-nonlin 2-no                           
   RPACOR =    2.000    partial core radius                                     
   POMASS =  106.420; ZVAL   =   10.000    mass and valenz                      
   RCORE  =    2.600    outmost cutoff radius                                   
   RWIGS  =    2.710; RWIGS  =    1.434    wigner-seitz radius (au A)           
   ENMAX  =  250.925; ENMIN  =  188.194 eV                                      
   ICORE  =        3    local potential                                         
   LCOR   =        T    correct aug charges                                     
   LPAW   =        T    paw PP                                                  
   EAUG   =  416.230                                                            
   DEXC   =    0.000                                                            
   RMAX   =    2.653    core radius for proj-oper                               
   RAUG   =    1.300    factor for augmentation sphere                          
   RDEP   =    2.734    radius for radial grids                                 
   RDEPT  =    2.103    core radius for aug-charge                              
                                                                                
   Atomic configuration                                                         
   12 entries                                                                   
     n  l   j            E        occ.                                          
     1  0  0.50    -24164.6631   2.0000                                         
     2  0  0.50     -3530.9218   2.0000                                         
     2  1  1.50     -3165.6822   6.0000                                         
     3  0  0.50      -639.4577   2.0000                                         
     3  1  1.50      -519.4532   6.0000                                         
     3  2  2.50      -328.9757  10.0000                                         
     4  0  0.50       -88.7014   2.0000                                         
     4  1  1.50       -54.4540   6.0000                                         
     4  2  2.50        -6.6878   9.0000                                         
     5  0  0.50        -4.3543   1.0000                                         
     5  1  0.50        -1.3606   0.0000                                         
     4  3  2.50        -1.3606   0.0000                                         
   Description                                                                  
     l       E           TYP  RCUT    TYP  RCUT                                 
     2     -6.6878251     23  2.400                                             
     2     -8.0484077     23  2.400                                             
     0     -4.3542939     23  2.400                                             
     0      4.3406793     23  2.400                                             
     1     -4.0817478     23  2.600                                             
     1     15.8380318     23  2.600                                             
     3     -4.0817478     23  2.400                                             
  local pseudopotential read in
  partial core-charges read in
  partial kinetic energy density read in
  atomic valenz-charges read in
  non local Contribution for L=           2  read in
    real space projection operators read in
  non local Contribution for L=           2  read in
    real space projection operators read in
  non local Contribution for L=           0  read in
    real space projection operators read in
  non local Contribution for L=           0  read in
    real space projection operators read in
  non local Contribution for L=           1  read in
    real space projection operators read in
  non local Contribution for L=           1  read in
    real space projection operators read in
    PAW grid and wavefunctions read in
 
   number of l-projection  operators is LMAX  =           6
   number of lm-projection operators is LMMAX =          18
 
 POTCAR:    PAW_PBE C 08Apr2002                   
   VRHFIN =C: s2p2                                                              
   LEXCH  = PE                                                                  
   EATOM  =   147.1560 eV,   10.8157 Ry                                         
                                                                                
   TITEL  = PAW_PBE C 08Apr2002                                                 
   LULTRA =        F    use ultrasoft PP ?                                      
   IUNSCR =        1    unscreen: 0-lin 1-nonlin 2-no                           
   RPACOR =    1.200    partial core radius                                     
   POMASS =   12.011; ZVAL   =    4.000    mass and valenz                      
   RCORE  =    1.500    outmost cutoff radius                                   
   RWIGS  =    1.630; RWIGS  =    0.863    wigner-seitz radius (au A)           
   ENMAX  =  400.000; ENMIN  =  300.000 eV                                      
   ICORE  =        2    local potential                                         
   LCOR   =        T    correct aug charges                                     
   LPAW   =        T    paw PP                                                  
   EAUG   =  644.873                                                            
   DEXC   =    0.000                                                            
   RMAX   =    1.529    core radius for proj-oper                               
   RAUG   =    1.300    factor for augmentation sphere                          
   RDEP   =    1.501    radius for radial grids                                 
   RDEPT  =    1.300    core radius for aug-charge                              
                                                                                
   Atomic configuration                                                         
    4 entries                                                                   
     n  l   j            E        occ.                                          
     1  0  0.50      -273.3789   2.0000                                         
     2  0  0.50       -13.7508   2.0000                                         
     2  1  0.50        -5.2854   2.0000                                         
     3  2  1.50        -5.4423   0.0000                                         
   Description                                                                  
     l       E           TYP  RCUT    TYP  RCUT                                 
     0    -13.7508458     23  1.200                                             
     0     -8.2022199     23  1.200                                             
     1     -5.2854383     23  1.500                                             
     1     34.0145650     23  1.500                                             
     2     -5.4423304      7  1.500                                             
  local pseudopotential read in
  partial core-charges read in
  partial kinetic energy density read in
  atomic valenz-charges read in
  non local Contribution for L=           0  read in
    real space projection operators read in
  non local Contribution for L=           0  read in
    real space projection operators read in
  non local Contribution for L=           1  read in
    real space projection operators read in
  non local Contribution for L=           1  read in
    real space projection operators read in
    PAW grid and wavefunctions read in
 
   number of l-projection  operators is LMAX  =           4
   number of lm-projection operators is LMMAX =           8
 
 POTCAR:    PAW_PBE O 08Apr2002                   
   VRHFIN =O: s2p4                                                              
   LEXCH  = PE                                                                  
   EATOM  =   432.3788 eV,   31.7789 Ry                                         
                                                                                
   TITEL  = PAW_PBE O 08Apr2002                                                 
   LULTRA =        F    use ultrasoft PP ?                                      
   IUNSCR =        1    unscreen: 0-lin 1-nonlin 2-no                           
   RPACOR =    1.200    partial core radius                                     
   POMASS =   16.000; ZVAL   =    6.000    mass and valenz                      
   RCORE  =    1.520    outmost cutoff radius                                   
   RWIGS  =    1.550; RWIGS  =    0.820    wigner-seitz radius (au A)           
   ENMAX  =  400.000; ENMIN  =  300.000 eV                                      
   ICORE  =        2    local potential                                         
   LCOR   =        T    correct aug charges                                     
   LPAW   =        T    paw PP                                                  
   EAUG   =  605.392                                                            
   DEXC   =    0.000                                                            
   RMAX   =    1.553    core radius for proj-oper                               
   RAUG   =    1.300    factor for augmentation sphere                          
   RDEP   =    1.550    radius for radial grids                                 
   RDEPT  =    1.329    core radius for aug-charge                              
                                                                                
   Atomic configuration                                                         
    4 entries                                                                   
     n  l   j            E        occ.                                          
     1  0  0.50      -514.6923   2.0000                                         
     2  0  0.50       -23.9615   2.0000                                         
     2  1  0.50        -9.0305   4.0000                                         
     3  2  1.50        -9.5241   0.0000                                         
   Description                                                                  
     l       E           TYP  RCUT    TYP  RCUT                                 
     0    -23.9615318     23  1.200                                             
     0     -9.5240782     23  1.200                                             
     1     -9.0304911     23  1.520                                             
     1      8.1634956     23  1.520                                             
     2     -9.5240782      7  1.500                                             
  local pseudopotential read in
  partial core-charges read in
  partial kinetic energy density read in
  kinetic energy density of atom read in
  atomic valenz-charges read in
  non local Contribution for L=           0  read in
    real space projection operators read in
  non local Contribution for L=           0  read in
    real space projection operators read in
  non local Contribution for L=           1  read in
    real space projection operators read in
  non local Contribution for L=           1  read in
    real space projection operators read in
    PAW grid and wavefunctions read in
 
   number of l-projection  operators is LMAX  =           4
   number of lm-projection operators is LMMAX =           8
 
 Optimization of the real space projectors (new method)

 maximal supplied QI-value         = 14.36
 optimisation between [QCUT,QGAM] = [ 10.20, 20.39] = [ 29.12,116.47] Ry 
 Optimized for a Real-space Cutoff    1.51 Angstroem

   l    n(q)    QCUT    max X(q) W(low)/X(q) W(high)/X(q)  e(spline) 
   2      8    10.197    59.108    0.26E-03    0.14E-03    0.96E-07
   2      8    10.197    58.101    0.27E-03    0.14E-03    0.98E-07
   0      9    10.197   102.235    0.54E-04    0.60E-05    0.72E-07
   0      9    10.197    58.388    0.52E-04    0.60E-05    0.68E-07
   1      9    10.197    22.191    0.18E-03    0.25E-03    0.79E-07
   1      9    10.197    15.590    0.15E-03    0.21E-03    0.69E-07
 Optimization of the real space projectors (new method)

 maximal supplied QI-value         = 25.13
 optimisation between [QCUT,QGAM] = [ 10.05, 20.36] = [ 28.30,116.06] Ry 
 Optimized for a Real-space Cutoff    1.30 Angstroem

   l    n(q)    QCUT    max X(q) W(low)/X(q) W(high)/X(q)  e(spline) 
   0      8    10.053   115.676    0.49E-03    0.72E-03    0.18E-06
   0      8    10.053    87.132    0.49E-03    0.71E-03    0.18E-06
   1      7    10.053     4.429    0.32E-03    0.31E-03    0.18E-06
   1      7    10.053     2.733    0.23E-03    0.19E-03    0.20E-06
 Optimization of the real space projectors (new method)

 maximal supplied QI-value         = 24.76
 optimisation between [QCUT,QGAM] = [ 10.15, 20.30] = [ 28.85,115.39] Ry 
 Optimized for a Real-space Cutoff    1.38 Angstroem

   l    n(q)    QCUT    max X(q) W(low)/X(q) W(high)/X(q)  e(spline) 
   0      8    10.150    20.381    0.22E-03    0.32E-03    0.29E-06
   0      8    10.150    15.268    0.23E-03    0.35E-03    0.30E-06
   1      8    10.150     5.964    0.46E-03    0.53E-03    0.21E-06
   1      8    10.150     5.382    0.38E-03    0.45E-03    0.19E-06

 ----------------------------------------------------------------------------- 
|                                                                             |
|  ADVICE TO THIS USER RUNNING 'VASP/VAMP'   (HEAR YOUR MASTER'S VOICE ...):  |
|                                                                             |
|      You enforced a specific xc-type in the INCAR file,                     |
|      a different type was found on the POTCAR file                          |
|          I HOPE YOU KNOW, WHAT YOU ARE  DOING                               |
|                                                                             |
 ----------------------------------------------------------------------------- 

  PAW_PBE Pd 04Jan2005                  :
 energy of atom  1       EATOM= -809.7530
 kinetic energy error for atom=    0.0091 (will be added to EATOM!!)
  PAW_PBE C 08Apr2002                   :
 energy of atom  2       EATOM= -147.1560
 kinetic energy error for atom=    0.0288 (will be added to EATOM!!)
  PAW_PBE O 08Apr2002                   :
 energy of atom  3       EATOM= -432.3788
 kinetic energy error for atom=    0.1156 (will be added to EATOM!!)
 
 
 POSCAR: Pd55PES                                 
  positions in cartesian coordinates
  No initial velocities read in
 exchange correlation table for  LEXCH =        9
   RHO(1)=    0.500       N(1)  =     2000
   RHO(2)=  100.500       N(2)  =     4000
 


--------------------------------------------------------------------------------------------------------


 ion  position               nearest neighbor table
   1  0.446  0.328  0.417-   3 3.25   5 3.25   7 3.36  15 3.36  29 3.42  28 3.42
   2  0.672  0.554  0.417-  26 3.25  30 3.25  17 3.36   9 3.36  47 3.42  49 3.42
   3  0.554  0.328  0.417-   1 3.25   5 3.25   7 3.36  11 3.36  29 3.42  21 3.42
   4  0.328  0.554  0.417-  32 3.25  22 3.25  13 3.36   8 3.36  43 3.42  48 3.42
   5  0.500  0.383  0.340-   1 3.25   3 3.25  11 3.36  15 3.36  21 3.42  28 3.42
   6  0.500  0.383  0.660-  24 3.25  19 3.25  16 3.36  12 3.36  42 3.42  44 3.42
   7  0.500  0.276  0.500-  29 3.24   3 3.36   1 3.36  19 3.36  24 3.36
   8  0.276  0.500  0.500-  56 2.10  57 2.60  48 3.24  22 3.36  40 3.36   4 3.36  25 3.36
   9  0.724  0.500  0.500-  49 3.24  26 3.36  45 3.36   2 3.36  20 3.36
  10  0.500  0.724  0.500-  55 3.24  27 3.36  23 3.36  46 3.36  41 3.36
  11  0.612  0.388  0.342-  21 3.24   5 3.36   3 3.36  30 3.36  26 3.36
  12  0.612  0.388  0.658-  42 3.24  24 3.36  45 3.36   6 3.36  31 3.36
  13  0.388  0.612  0.342-  43 3.24  32 3.36  50 3.36   4 3.36  27 3.36
  14  0.388  0.612  0.658-  53 3.24  25 3.36  33 3.36  51 3.36  46 3.36
  15  0.388  0.388  0.342-  28 3.24   5 3.36   1 3.36  32 3.36  22 3.36
  16  0.388  0.388  0.658-  44 3.24  19 3.36  40 3.36   6 3.36  33 3.36
  17  0.612  0.612  0.342-  47 3.24  30 3.36  50 3.36   2 3.36  23 3.36
  18  0.612  0.612  0.658-  54 3.24  31 3.36  20 3.36  51 3.36  41 3.36
  19  0.446  0.328  0.583-   6 3.25  24 3.25  16 3.36   7 3.36  44 3.42  29 3.42
  20  0.672  0.554  0.583-  31 3.25  45 3.25  18 3.36   9 3.36  54 3.42  49 3.42
  21  0.558  0.442  0.418-  11 3.24   5 3.42   3 3.42  30 3.42  26 3.42
  22  0.328  0.446  0.417-   4 3.25  32 3.25   8 3.36  15 3.36  48 3.42  28 3.42
  23  0.554  0.672  0.417-  27 3.25  50 3.25  10 3.36  17 3.36  55 3.42  47 3.42
  24  0.554  0.328  0.583-   6 3.25  19 3.25  12 3.36   7 3.36  42 3.42  29 3.42
  25  0.328  0.554  0.583-  33 3.25  40 3.25  14 3.36   8 3.36  53 3.42  48 3.42
  26  0.672  0.446  0.417-   2 3.25  30 3.25   9 3.36  11 3.36  49 3.42  21 3.42
  27  0.446  0.672  0.417-  23 3.25  50 3.25  10 3.36  13 3.36  55 3.42  43 3.42
  28  0.442  0.442  0.418-  15 3.24   5 3.42   1 3.42  32 3.42  22 3.42
  29  0.500  0.384  0.500-   7 3.24   3 3.42   1 3.42  24 3.42  19 3.42
  30  0.617  0.500  0.340-   2 3.25  26 3.25  17 3.36  11 3.36  47 3.42  21 3.42
  31  0.617  0.500  0.660-  20 3.25  45 3.25  18 3.36  12 3.36  54 3.42  42 3.42
  32  0.383  0.500  0.340-   4 3.25  22 3.25  13 3.36  15 3.36  43 3.42  28 3.42
  33  0.383  0.500  0.660-  25 3.25  40 3.25  14 3.36  16 3.36  53 3.42  44 3.42
  34  0.383  0.383  0.500-
  35  0.617  0.617  0.500-
  36  0.617  0.383  0.500-
  37  0.383  0.617  0.500-
  38  0.500  0.500  0.335-
  39  0.500  0.500  0.665-
  40  0.328  0.446  0.583-  56 1.76  57 2.61  33 3.25  25 3.25  16 3.36   8 3.36  44 3.42  48 3.42

  41  0.554  0.672  0.583-  46 3.25  51 3.25  10 3.36  18 3.36  54 3.42  55 3.42
  42  0.558  0.442  0.582-  12 3.24   6 3.42  24 3.42  31 3.42  45 3.42
  43  0.442  0.558  0.418-  13 3.24   4 3.42  32 3.42  27 3.42  50 3.42
  44  0.442  0.442  0.582-  16 3.24   6 3.42  19 3.42  33 3.42  40 3.42
  45  0.672  0.446  0.583-  20 3.25  31 3.25   9 3.36  12 3.36  49 3.42  42 3.42
  46  0.446  0.672  0.583-  41 3.25  51 3.25  10 3.36  14 3.36  53 3.42  55 3.42
  47  0.558  0.558  0.418-  17 3.24   2 3.42  30 3.42  23 3.42  50 3.42
  48  0.384  0.500  0.500-   8 3.24   4 3.42  22 3.42  25 3.42  40 3.42
  49  0.616  0.500  0.500-   9 3.24   2 3.42  26 3.42  20 3.42  45 3.42
  50  0.500  0.617  0.340-  27 3.25  23 3.25  13 3.36  17 3.36  43 3.42  47 3.42
  51  0.500  0.617  0.660-  41 3.25  46 3.25  14 3.36  18 3.36  53 3.42  54 3.42
  52  0.500  0.500  0.500-
  53  0.442  0.558  0.582-  14 3.24  25 3.42  33 3.42  51 3.42  46 3.42
  54  0.558  0.558  0.582-  18 3.24  31 3.42  20 3.42  51 3.42  41 3.42
  55  0.500  0.616  0.500-  10 3.24  23 3.42  27 3.42  41 3.42  46 3.42
  56  0.282  0.449  0.547-  57 1.13  40 1.76   8 2.10
  57  0.246  0.440  0.555-  56 1.13   8 2.60  40 2.61
 
  LATTYP: Found a simple cubic cell.
 ALAT       =    30.0000000000
  
  Lattice vectors:
  
 A1 = (  30.0000000000,   0.0000000000,   0.0000000000)
 A2 = (   0.0000000000,  30.0000000000,   0.0000000000)
 A3 = (   0.0000000000,   0.0000000000,  30.0000000000)


Analysis of symmetry for initial positions (statically):
=====================================================================
 Subroutine PRICEL returns:
 Original cell was already a primitive cell.
 

 Routine SETGRP: Setting up the symmetry group for a 
 simple cubic supercell.


 Subroutine GETGRP returns: Found  1 space group operations
 (whereof  1 operations were pure point group operations)
 out of a pool of 48 trial point group operations.


The static configuration has the point symmetry C_1 .


Analysis of symmetry for dynamics (positions and initial velocities):
=====================================================================
 Subroutine PRICEL returns:
 Original cell was already a primitive cell.
 

 Routine SETGRP: Setting up the symmetry group for a 
 simple cubic supercell.


 Subroutine GETGRP returns: Found  1 space group operations
 (whereof  1 operations were pure point group operations)
 out of a pool of 48 trial point group operations.


The dynamic configuration has the point symmetry C_1 .


Analysis of constrained symmetry for selective dynamics:
=====================================================================
 Subroutine PRICEL returns:
 Original cell was already a primitive cell.
 

 Routine SETGRP: Setting up the symmetry group for a 
 simple cubic supercell.


 Subroutine GETGRP returns: Found  1 space group operations
 (whereof  1 operations were pure point group operations)
 out of a pool of 48 trial point group operations.


The constrained configuration has the point symmetry C_1 .


 Subroutine INISYM returns: Found  1 space group operations
 (whereof  1 operations are pure point group operations),
 and found     1 'primitive' translations

 
 
 KPOINTS: K-points                                

Automatic generation of k-mesh.
Space group operators:
 irot       det(A)        alpha          n_x          n_y          n_z        tau_x        tau_y        tau_z
    1     1.000000     0.000000     1.000000     0.000000     0.000000     0.000000     0.000000     0.000000
 
 Subroutine IBZKPT returns following result:
 ===========================================
 
 Found      1 irreducible k-points:
 
 Following reciprocal coordinates:
            Coordinates               Weight
  0.000000  0.000000  0.000000      1.000000
 
 Following cartesian coordinates:
            Coordinates               Weight
  0.000000  0.000000  0.000000      1.000000
 


--------------------------------------------------------------------------------------------------------




 Dimension of arrays:
   k-points           NKPTS =      1   k-points in BZ     NKDIM =      1   number of bands    NBANDS=    336
   number of dos      NEDOS =    301   number of ions     NIONS =     57
   non local maximal  LDIM  =      6   non local SUM 2l+1 LMDIM =     18
   total plane-waves  NPLWV = ******
   max r-space proj   IRMAX =   1847   max aug-charges    IRDMAX=   6262
   dimension x,y,z NGX =   150 NGY =  150 NGZ =  150
   dimension x,y,z NGXF=   300 NGYF=  300 NGZF=  300
   support grid    NGXF=   300 NGYF=  300 NGZF=  300
   ions per type =              55   1   1
   NGX,Y,Z   is equivalent  to a cutoff of   8.31,  8.31,  8.31 a.u.
   NGXF,Y,Z  is equivalent  to a cutoff of  16.62, 16.62, 16.62 a.u.

 SYSTEM =  6_Pd100_top_free_z(O)                   
 POSCAR =  Pd55PES                                 

 Startparameter for this run:
   NWRITE =      2    write-flag & timer
   PREC   = normal    normal or accurate (medium, high low for compatibility)
   ISTART =      0    job   : 0-new  1-cont  2-samecut
   ICHARG =      2    charge: 1-file 2-atom 10-const
   ISPIN  =      1    spin polarized calculation?
   LNONCOLLINEAR =      F non collinear calculations
   LSORBIT =      F    spin-orbit coupling
   INIWAV =      1    electr: 0-lowe 1-rand  2-diag
   LASPH  =      F    aspherical Exc in radial PAW
   METAGGA=      F    non-selfconsistent MetaGGA calc.

 Electronic Relaxation 1
   ENCUT  =  400.0 eV  29.40 Ry    5.42 a.u.  48.92 48.92 48.92*2*pi/ulx,y,z
   ENINI  =  400.0     initial cutoff
   ENAUG  =  644.9 eV  augmentation charge cutoff
   NELM   =    100;   NELMIN=  6; NELMDL= -5     # of ELM steps 
   EDIFF  = 0.1E-03   stopping-criterion for ELM
   LREAL  =      T    real-space projection
   NLSPLINE    = F    spline interpolate recip. space projectors
   LCOMPAT=      F    compatible to vasp.4.4
   GGA_COMPAT  = T    GGA compatible to vasp.4.4-vasp.4.6
   LMAXPAW     = -100 max onsite density
   LMAXMIX     =    2 max onsite mixed and CHGCAR
   VOSKOWN=      0    Vosko Wilk Nusair interpolation
   ROPT   =   -0.00050  -0.00050  -0.00050
 Ionic relaxation
   EDIFFG = -.5E-01   stopping-criterion for IOM
   NSW    =      0    number of steps for IOM
   NBLOCK =      1;   KBLOCK =      1    inner block; outer block 
   IBRION =     -1    ionic relax: 0-MD 1-quasi-New 2-CG
   NFREE  =      1    steps in history (QN), initial steepest desc. (CG)
   ISIF   =      2    stress and relaxation
   IWAVPR =     10    prediction:  0-non 1-charg 2-wave 3-comb
   ISYM   =      2    0-nonsym 1-usesym 2-fastsym
   LCORR  =      T    Harris-Foulkes like correction to forces

   POTIM  = 0.5000    time-step for ionic-motion
   TEIN   =    0.0    initial temperature
   TEBEG  =    0.0;   TEEND  =   0.0 temperature during run
   SMASS  =  -3.00    Nose mass-parameter (am)
   estimated Nose-frequenzy (Omega)   =  0.10E-29 period in steps =****** mass=  -0.206E-25a.u.
   SCALEE = 1.0000    scale energy and forces
   NPACO  =    256;   APACO  = 16.0  distance and # of slots for P.C.
   PSTRESS=    0.0 pullay stress

  Mass of Ions in am
   POMASS = 106.42 12.01 16.00
  Ionic Valenz
   ZVAL   =  10.00  4.00  6.00
  Atomic Wigner-Seitz radii
   RWIGS  =  -1.00 -1.00 -1.00
  virtual crystal weights 
   VCA    =   1.00  1.00  1.00
   NELECT =     560.0000    total number of electrons
   NUPDOWN=      -1.0000    fix difference up-down

 DOS related values:
   EMIN   =  10.00;   EMAX   =-10.00  energy-range for DOS
   EFERMI =   0.00
   ISMEAR =     2;   SIGMA  =   0.20  broadening in eV -4-tet -1-fermi 0-gaus

 Electronic relaxation 2 (details)
   IALGO  =     68    algorithm
   LDIAG  =      T    sub-space diagonalisation (order eigenvalues)
   LSUBROT=      F    optimize rotation matrix (better conditioning)
   TURBO    =      0    0=normal 1=particle mesh
   IRESTART =      0    0=no restart 2=restart with 2 vectors
   NREBOOT  =      0    no. of reboots
   NMIN     =      0    reboot dimension
   EREF     =   0.00    reference energy to select bands
   IMIX   =      4    mixing-type and parameters
     AMIX     =   0.40;   BMIX     =  1.00
     AMIX_MAG =   1.60;   BMIX_MAG =  1.00
     AMIN     =   0.10
     WC   =   100.;   INIMIX=   1;  MIXPRE=   1;  MAXMIX= -45

 Intra band minimization:
   WEIMIN = 0.0000     energy-eigenvalue tresh-hold
   EBREAK =  0.74E-07  absolut break condition
   DEPER  =   0.30     relativ break condition  

   TIME   =   0.40     timestep for ELM

  volume/ion in A,a.u.               =     473.68      3196.58
  Fermi-wavevector in a.u.,A,eV,Ry     =   0.449797  0.849992  2.752691  0.202317
  Thomas-Fermi vector in A             =   1.430086
 
 Write flags
   LWAVE        =      F    write WAVECAR
   LDOWNSAMPLE  =      F    k-point downsampling of WAVECAR
   LCHARG       =      F    write CHGCAR
   LVTOT        =      F    write LOCPOT, total local potential
   LVHAR        =      F    write LOCPOT, Hartree potential only
   LELF         =      F    write electronic localiz. function (ELF)
   LORBIT       =      0    0 simple, 1 ext, 2 COOP (PROOUT), +10 PAW based schemes


 Dipole corrections
   LMONO  =      F    monopole corrections only (constant potential shift)
   LDIPOL =      F    correct potential (dipole corrections)
   IDIPOL =      0    1-x, 2-y, 3-z, 4-all directions 
   EPSILON=  1.0000000 bulk dielectric constant

 Exchange correlation treatment:
   GGA     =    RP    GGA type
   LEXCH   =     9    internal setting for exchange type
   VOSKOWN=      0    Vosko Wilk Nusair interpolation
   LHFCALC =     F    Hartree Fock is set to
   LHFONE  =     F    Hartree Fock one center treatment
   AEXX    =    0.0000 exact exchange contribution

 Linear response parameters
   LEPSILON=     F    determine dielectric tensor
   LRPA    =     F    only Hartree local field effects (RPA)
   LNABLA  =     F    use nabla operator in PAW spheres
   LVEL    =     F    velocity operator in full k-point grid
   LINTERFAST=   F  fast interpolation
   KINTER  =     0    interpolate to denser k-point grid
   CSHIFT  =0.1000    complex shift for real part using Kramers Kronig
   OMEGAMAX=  -1.0    maximum frequency
   DEG_THRESHOLD= 0.2000000E-02 threshold for treating states as degnerate
   RTIME   =   -0.100 relaxation time in fs
  (WPLASMAI=    0.000 imaginary part of plasma frequency in eV, 0.658/RTIME)
   DFIELD  = 0.0000000 0.0000000 0.0000000 field for delta impulse in time
 
 Orbital magnetization related:
   ORBITALMAG=     F  switch on orbital magnetization
   LCHIMAG   =     F  perturbation theory with respect to B field
   DQ        =  0.001000  dq finite difference perturbation B field
   LLRAUG    =     F  two centre corrections for induced B field



--------------------------------------------------------------------------------------------------------


 Static calculation
 charge density and potential will be updated during run
 non-spin polarized calculation
 RMM-DIIS sequential band-by-band and
  variant of blocked Davidson during initial phase
 perform sub-space diagonalisation
    before iterative eigenvector-optimisation
 modified Broyden-mixing scheme, WC =      100.0
 initial mixing is a Kerker type mixing with AMIX =  0.4000 and BMIX =      1.0000
 Hartree-type preconditioning will be used
 using additional bands           56
 real space projection scheme for non local part
 use partial core corrections
 calculate Harris-corrections to forces 
   (improved forces if not selfconsistent)
 use gradient corrections 
 use of overlap-Matrix (Vanderbilt PP)
 Methfessel and Paxton  Order N= 2 SIGMA  =   0.20


--------------------------------------------------------------------------------------------------------


  energy-cutoff  :      400.00
  volume of cell :    27000.00
      direct lattice vectors                 reciprocal lattice vectors
    30.000000000  0.000000000  0.000000000     0.033333333  0.000000000  0.000000000
     0.000000000 30.000000000  0.000000000     0.000000000  0.033333333  0.000000000
     0.000000000  0.000000000 30.000000000     0.000000000  0.000000000  0.033333333

  length of vectors
    30.000000000 30.000000000 30.000000000     0.033333333  0.033333333  0.033333333


 
 k-points in units of 2pi/SCALE and weight: K-points                                
   0.00000000  0.00000000  0.00000000       1.000
 
 k-points in reciprocal lattice and weights: K-points                                
   0.00000000  0.00000000  0.00000000       1.000
 
 position of ions in fractional coordinates (direct lattice) 
   0.44576020  0.32826710  0.41691983
   0.67173288  0.55423978  0.41691983
   0.55423980  0.32826710  0.41691983
   0.32826712  0.55423978  0.41691983
   0.50000000  0.38250690  0.34021317
   0.50000000  0.38250690  0.65978680
   0.50000000  0.27609440  0.50000000
   0.27609443  0.49999998  0.50000000
   0.72390557  0.49999998  0.50000000
   0.50000000  0.72390555  0.50000000
   0.61195280  0.38804720  0.34167483
   0.61195280  0.38804720  0.65832513
   0.38804722  0.61195278  0.34167483
   0.38804722  0.61195278  0.65832513
   0.38804720  0.38804720  0.34167483
   0.38804720  0.38804720  0.65832513
   0.61195278  0.61195278  0.34167483
   0.61195278  0.61195278  0.65832513
   0.44576020  0.32826710  0.58308023
   0.67173288  0.55423978  0.58308023
   0.55791699  0.44208301  0.41809300
   0.32826705  0.44576024  0.41691983
   0.55423973  0.67173293  0.41691983
   0.55423980  0.32826710  0.58308023
   0.32826712  0.55423978  0.58308023
   0.67173295  0.44576024  0.41691983
   0.44576027  0.67173293  0.41691983
   0.44208301  0.44208301  0.41809300
   0.50000000  0.38416601  0.50000000
   0.61749315  0.50000005  0.34021317
   0.61749315  0.50000005  0.65978680
   0.38250685  0.50000005  0.34021317
   0.38250685  0.50000005  0.65978680
   0.38317830  0.38317830  0.50000000
   0.61682172  0.61682172  0.50000000
   0.61682170  0.38317830  0.50000000
   0.38317828  0.61682172  0.50000000
   0.50000000  0.50000000  0.33478917
   0.50000000  0.50000000  0.66521087
   0.32826705  0.44576024  0.58308023
   0.55423973  0.67173293  0.58308023
   0.55791699  0.44208301  0.58190703
   0.44208298  0.55791702  0.41809300
   0.44208301  0.44208301  0.58190703
   0.67173295  0.44576024  0.58308023
   0.44576027  0.67173293  0.58308023
   0.55791702  0.55791702  0.41809300
   0.38416599  0.50000002  0.50000000
   0.61583401  0.50000002  0.50000000
   0.50000000  0.61749319  0.34021317
   0.50000000  0.61749319  0.65978680
   0.50000000  0.50000000  0.50000000
   0.44208298  0.55791702  0.58190703
   0.55791702  0.55791702  0.58190703
   0.50000000  0.61583404  0.50000000
   0.28204510  0.44863537  0.54718567
   0.24623407  0.44019593  0.55493850
 
 position of ions in cartesian coordinates  (Angst):
  13.37280588  9.84801292 12.50759500
  20.15198637 16.62719342 12.50759500
  16.62719412  9.84801292 12.50759500
   9.84801363 16.62719342 12.50759500
  15.00000000 11.47520705 10.20639500
  15.00000000 11.47520705 19.79360400
  15.00000000  8.28283206 15.00000000
   8.28283277 14.99999929 15.00000000
  21.71716723 14.99999929 15.00000000
  15.00000000 21.71716652 14.99999999
  18.35858397 11.64141603 10.25024500
  18.35858397 11.64141603 19.74975399
  11.64141674 18.35858326 10.25024500
  11.64141674 18.35858326 19.74975400
  11.64141603 11.64141603 10.25024500
  11.64141603 11.64141603 19.74975400
  18.35858326 18.35858326 10.25024500
  18.35858326 18.35858326 19.74975400
  13.37280588  9.84801291 17.49240700
  20.15198638 16.62719341 17.49240700
  16.73750985 13.26249015 12.54279000
   9.84801151 13.37280729 12.50759500
  16.62719200 20.15198779 12.50759500
  16.62719412  9.84801292 17.49240700
   9.84801363 16.62719342 17.49240700
  20.15198849 13.37280729 12.50759500
  13.37280800 20.15198779 12.50759500
  13.26249015 13.26249015 12.54279000
  15.00000000 11.52498029 15.00000000
  18.52479437 15.00000140 10.20639500
  18.52479437 15.00000141 19.79360400
  11.47520562 15.00000141 10.20639501
  11.47520563 15.00000141 19.79360400
  11.49534898 11.49534898 15.00000000
  18.50465172 18.50465172 15.00000000
  18.50465102 11.49534898 15.00000000
  11.49534828 18.50465172 15.00000000
  15.00000000 15.00000000 10.04367500
  15.00000000 15.00000000 19.95632599
   9.84801151 13.37280729 17.49240700
  16.62719200 20.15198779 17.49240700
  16.73750985 13.26249015 17.45721100
  13.26248944 16.73751056 12.54279001
  13.26249015 13.26249015 17.45721100
  20.15198849 13.37280729 17.49240699
  13.37280800 20.15198779 17.49240700
  16.73751056 16.73751056 12.54279000
  11.52497959 15.00000071 15.00000000
  18.47502041 15.00000071 15.00000000
  14.99999999 18.52479579 10.20639500
  15.00000000 18.52479578 19.79360400
  15.00000000 15.00000000 15.00000000
  13.26248944 16.73751057 17.45721101
  16.73751056 16.73751057 17.45721100
  15.00000000 18.47502112 15.00000000
   8.46135300 13.45906100 16.41557000
   7.38702200 13.20587800 16.64815500
 


--------------------------------------------------------------------------------------------------------


 k-point  1 :   0.0000 0.0000 0.0000  plane waves:  490521

 maximum and minimum number of plane-waves per node :    490521   490521

 maximum number of plane-waves:    490521
 maximum index in each direction: 
   IXMAX=   48   IYMAX=   48   IZMAX=   48
   IXMIN=  -48   IYMIN=  -48   IZMIN=  -48


 serial   3D FFT for wavefunctions
 parallel 3D FFT for charge:
    minimum data exchange during FFTs selected (reduces bandwidth)


 total amount of memory used by VASP MPI-rank0  5486941. kBytes
=======================================================================

   base      :      30000. kBytes
   nonlr-proj:      17126. kBytes
   fftplans  :     924480. kBytes
   grid      :    1872000. kBytes
   one-center:        886. kBytes
   wavefun   :    2642449. kBytes
 
     INWAV:  cpu time    0.0001: real time    0.0005
 Broyden mixing: mesh for mixing (old mesh)
   NGX = 97   NGY = 97   NGZ = 97
  (NGX  =300   NGY  =300   NGZ  =300)
  gives a total of 912673 points

 initial charge density was supplied:
 charge density of overlapping atoms calculated
 number of electron     560.0000000 magnetization 
 keeping initial charge density in first step


--------------------------------------------------------------------------------------------------------


 Maximum index for non-local projection operator         1763
 Maximum index for augmentation-charges         5898 (set IRDMAX)


--------------------------------------------------------------------------------------------------------


 First call to EWALD:  gamma=   0.059
 Maximum number of real-space cells 3x 3x 3
 Maximum number of reciprocal cells 3x 3x 3

    FEWALD:  cpu time    0.0130: real time    0.0130


--------------------------------------- Iteration      1(   1)  ---------------------------------------


    POTLOK:  cpu time   13.1619: real time   13.1648
    SETDIJ:  cpu time    0.0992: real time    0.0992
     EDDAV:  cpu time  343.3145: real time  343.3758
       DOS:  cpu time    0.0011: real time    0.0011
    --------------------------------------------
      LOOP:  cpu time  356.5767: real time  356.6409

 eigenvalue-minimisations  :   688
 total energy-change (2. order) : 0.4400154E+04  (-0.1005470E+05)
 number of electron     560.0000000 magnetization 
 augmentation part      560.0000000 magnetization 

 Free energy of the ion-electron system (eV)
  ---------------------------------------------------
  alpha Z        PSCENC =        75.25431677
  Ewald energy   TEWEN  =    138977.15446173
  -Hartree energ DENC   =   -182325.84008052
  -exchange      EXHF   =         0.00000000
  -V(xc)+E(xc)   XCENC  =     -1701.78157233
  PAW double counting   =     44873.02882129   -41398.84523641
  entropy T*S    EENTRO =         0.00799655
  eigenvalues    EBANDS =       814.67009649
  atomic energy  EATOM  =     45086.50549395
  Solvation  Ediel_sol  =         0.00000000
  ---------------------------------------------------
  free energy    TOTEN  =      4400.15429752 eV

  energy without entropy =     4400.14630096  energy(sigma->0) =     4400.15229838


--------------------------------------------------------------------------------------------------------




--------------------------------------- Iteration      1(   2)  ---------------------------------------


     EDDAV:  cpu time  578.9522: real time  578.9587
       DOS:  cpu time    0.0011: real time    0.0011
    --------------------------------------------
      LOOP:  cpu time  578.9534: real time  578.9598

 eigenvalue-minimisations  :  1224
 total energy-change (2. order) :-0.2385901E+04  (-0.2146925E+04)
 number of electron     560.0000000 magnetization 
 augmentation part      560.0000000 magnetization 

 Free energy of the ion-electron system (eV)
  ---------------------------------------------------
  alpha Z        PSCENC =        75.25431677
  Ewald energy   TEWEN  =    138977.15446173
  -Hartree energ DENC   =   -182325.84008052
  -exchange      EXHF   =         0.00000000
  -V(xc)+E(xc)   XCENC  =     -1701.78157233
  PAW double counting   =     44873.02882129   -41398.84523641
  entropy T*S    EENTRO =         0.02215777
  eigenvalues    EBANDS =     -1571.24505511
  atomic energy  EATOM  =     45086.50549395
  Solvation  Ediel_sol  =         0.00000000
  ---------------------------------------------------
  free energy    TOTEN  =      2014.25330714 eV

  energy without entropy =     2014.23114937  energy(sigma->0) =     2014.24776770


--------------------------------------------------------------------------------------------------------




--------------------------------------- Iteration      1(   3)  ---------------------------------------


     EDDAV:  cpu time  483.9689: real time  483.9819
       DOS:  cpu time    0.0010: real time    0.0010
    --------------------------------------------
      LOOP:  cpu time  483.9699: real time  483.9829

 eigenvalue-minimisations  :   984
 total energy-change (2. order) :-0.1779449E+04  (-0.1672217E+04)
 number of electron     560.0000000 magnetization 
 augmentation part      560.0000000 magnetization 

 Free energy of the ion-electron system (eV)
  ---------------------------------------------------
  alpha Z        PSCENC =        75.25431677
  Ewald energy   TEWEN  =    138977.15446173
  -Hartree energ DENC   =   -182325.84008052
  -exchange      EXHF   =         0.00000000
  -V(xc)+E(xc)   XCENC  =     -1701.78157233
  PAW double counting   =     44873.02882129   -41398.84523641
  entropy T*S    EENTRO =         0.00877281
  eigenvalues    EBANDS =     -3350.68051267
  atomic energy  EATOM  =     45086.50549395
  Solvation  Ediel_sol  =         0.00000000
  ---------------------------------------------------
  free energy    TOTEN  =       234.80446462 eV

  energy without entropy =      234.79569181  energy(sigma->0) =      234.80227141


--------------------------------------------------------------------------------------------------------




--------------------------------------- Iteration      1(   4)  ---------------------------------------


     EDDAV:  cpu time  418.0230: real time  418.0260
       DOS:  cpu time    0.0010: real time    0.0010
    --------------------------------------------
      LOOP:  cpu time  418.0240: real time  418.0270

 eigenvalue-minimisations  :   832
 total energy-change (2. order) :-0.3703183E+03  (-0.3161331E+03)
 number of electron     560.0000000 magnetization 
 augmentation part      560.0000000 magnetization 

 Free energy of the ion-electron system (eV)
  ---------------------------------------------------
  alpha Z        PSCENC =        75.25431677
  Ewald energy   TEWEN  =    138977.15446173
  -Hartree energ DENC   =   -182325.84008052
  -exchange      EXHF   =         0.00000000
  -V(xc)+E(xc)   XCENC  =     -1701.78157233
  PAW double counting   =     44873.02882129   -41398.84523641
  entropy T*S    EENTRO =        -0.04845965
  eigenvalues    EBANDS =     -3720.94157086
  atomic energy  EATOM  =     45086.50549395
  Solvation  Ediel_sol  =         0.00000000
  ---------------------------------------------------
  free energy    TOTEN  =      -135.51382603 eV

  energy without entropy =     -135.46536639  energy(sigma->0) =     -135.50171112


--------------------------------------------------------------------------------------------------------




--------------------------------------- Iteration      1(   5)  ---------------------------------------


     EDDAV:  cpu time  516.4326: real time  516.4333
       DOS:  cpu time    0.0013: real time    0.0013
    CHARGE:  cpu time   25.4087: real time   25.4083
    MIXING:  cpu time    0.4111: real time    0.4111
    --------------------------------------------
      LOOP:  cpu time  542.2538: real time  542.2540

 eigenvalue-minimisations  :  1040
 total energy-change (2. order) :-0.4551676E+02  (-0.3798524E+02)
 number of electron     559.9999873 magnetization 
 augmentation part      244.9356064 magnetization 

 Broyden mixing:
  rms(total) = 0.17983E+01    rms(broyden)= 0.17975E+01
  rms(prec ) = 0.18975E+01
  weight for this iteration     100.00

 Free energy of the ion-electron system (eV)
  ---------------------------------------------------
  alpha Z        PSCENC =        75.25431677
  Ewald energy   TEWEN  =    138977.15446173
  -Hartree energ DENC   =   -182325.84008052
  -exchange      EXHF   =         0.00000000
  -V(xc)+E(xc)   XCENC  =     -1701.78157233
  PAW double counting   =     44873.02882129   -41398.84523641
  entropy T*S    EENTRO =         0.50681689
  eigenvalues    EBANDS =     -3767.01360422
  atomic energy  EATOM  =     45086.50549395
  Solvation  Ediel_sol  =         0.00000000
  ---------------------------------------------------
  free energy    TOTEN  =      -181.03058285 eV

  energy without entropy =     -181.53739974  energy(sigma->0) =     -181.15728707


--------------------------------------------------------------------------------------------------------




--------------------------------------- Iteration      1(   6)  ---------------------------------------


    POTLOK:  cpu time   13.0975: real time   13.0978
    SETDIJ:  cpu time    0.1112: real time    0.1112
    EDDIAG:  cpu time   64.4987: real time   64.4982
  RMM-DIIS:  cpu time  195.1664: real time  195.1663
    ORTHCH:  cpu time   12.8885: real time   12.8883
       DOS:  cpu time    0.0012: real time    0.0012
    CHARGE:  cpu time   25.1327: real time   25.1323
    MIXING:  cpu time    0.4585: real time    0.4585
    --------------------------------------------
      LOOP:  cpu time  311.3548: real time  311.3539

 eigenvalue-minimisations  :   727
 total energy-change (2. order) : 0.1571788E+01  (-0.6311838E+01)
 number of electron     559.9999911 magnetization 
 augmentation part      240.6818282 magnetization 

 Broyden mixing:
  rms(total) = 0.21278E+01    rms(broyden)= 0.21275E+01
  rms(prec ) = 0.24096E+01
  weight for this iteration     100.00

 eigenvalues of (default mixing * dielectric matrix)
  average eigenvalue GAMMA=   0.4313
  0.4313

 Free energy of the ion-electron system (eV)
  ---------------------------------------------------
  alpha Z        PSCENC =        75.25431677
  Ewald energy   TEWEN  =    138977.15446173
  -Hartree energ DENC   =   -182736.50797470
  -exchange      EXHF   =         0.00000000
  -V(xc)+E(xc)   XCENC  =     -1695.30138412
  PAW double counting   =     45697.05933557   -42197.05451555
  entropy T*S    EENTRO =        -0.14990477
  eigenvalues    EBANDS =     -3386.41862337
  atomic energy  EATOM  =     45086.50549395
  Solvation  Ediel_sol  =         0.00000000
  ---------------------------------------------------
  free energy    TOTEN  =      -179.45879448 eV

  energy without entropy =     -179.30888971  energy(sigma->0) =     -179.42131829


--------------------------------------------------------------------------------------------------------




--------------------------------------- Iteration      1(   7)  ---------------------------------------


    POTLOK:  cpu time   13.2049: real time   13.2056
    SETDIJ:  cpu time    0.1051: real time    0.1051
    EDDIAG:  cpu time   64.2780: real time   64.2774
  RMM-DIIS:  cpu time  222.3129: real time  222.3142
    ORTHCH:  cpu time   12.4704: real time   12.4703
       DOS:  cpu time    0.0013: real time    0.0013
    CHARGE:  cpu time   25.2090: real time   25.2087
    MIXING:  cpu time    0.4523: real time    0.4523
    --------------------------------------------
      LOOP:  cpu time  338.0340: real time  338.0350

 eigenvalue-minimisations  :   831
 total energy-change (2. order) :-0.3837552E+01  (-0.2198097E+01)
 number of electron     559.9999863 magnetization 
 augmentation part      240.1284232 magnetization 

 Broyden mixing:
  rms(total) = 0.22315E+01    rms(broyden)= 0.22312E+01
  rms(prec ) = 0.26323E+01
  weight for this iteration     100.00

 eigenvalues of (default mixing * dielectric matrix)
  average eigenvalue GAMMA=   0.4330
  0.6750  0.1910

 Free energy of the ion-electron system (eV)
  ---------------------------------------------------
  alpha Z        PSCENC =        75.25431677
  Ewald energy   TEWEN  =    138977.15446173
  -Hartree energ DENC   =   -182841.68783834
  -exchange      EXHF   =         0.00000000
  -V(xc)+E(xc)   XCENC  =     -1695.54476291
  PAW double counting   =     45811.57580170   -42308.20785500
  entropy T*S    EENTRO =        -0.13708479
  eigenvalues    EBANDS =     -3288.20887950
  atomic energy  EATOM  =     45086.50549395
  Solvation  Ediel_sol  =         0.00000000
  ---------------------------------------------------
  free energy    TOTEN  =      -183.29634639 eV

  energy without entropy =     -183.15926160  energy(sigma->0) =     -183.26207519


--------------------------------------------------------------------------------------------------------




--------------------------------------- Iteration      1(   8)  ---------------------------------------


    POTLOK:  cpu time   13.1423: real time   13.1429
    SETDIJ:  cpu time    0.1085: real time    0.1085
    EDDIAG:  cpu time   66.4132: real time   66.4125
  RMM-DIIS:  cpu time  201.2321: real time  201.2375
    ORTHCH:  cpu time   12.8946: real time   12.8944
       DOS:  cpu time    0.0012: real time    0.0012
    CHARGE:  cpu time   25.6699: real time   25.6696
    MIXING:  cpu time    0.4953: real time    0.4953
    --------------------------------------------
      LOOP:  cpu time  319.9570: real time  319.9619

 eigenvalue-minimisations  :   747
 total energy-change (2. order) :-0.3940219E+01  (-0.9664502E+00)
 number of electron     559.9999844 magnetization 
 augmentation part      240.0907584 magnetization 

 Broyden mixing:
  rms(total) = 0.33506E+01    rms(broyden)= 0.33503E+01
  rms(prec ) = 0.40014E+01
  weight for this iteration     100.00

 eigenvalues of (default mixing * dielectric matrix)
  average eigenvalue GAMMA=   0.3687
  0.7923  0.1930  0.1209

 Free energy of the ion-electron system (eV)
  ---------------------------------------------------
  alpha Z        PSCENC =        75.25431677
  Ewald energy   TEWEN  =    138977.15446173
  -Hartree energ DENC   =   -182866.77739620
  -exchange      EXHF   =         0.00000000
  -V(xc)+E(xc)   XCENC  =     -1695.54575259
  PAW double counting   =     45918.35079867   -42411.90439249
  entropy T*S    EENTRO =        -0.05797280
  eigenvalues    EBANDS =     -3270.21612257
  atomic energy  EATOM  =     45086.50549395
  Solvation  Ediel_sol  =         0.00000000
  ---------------------------------------------------
  free energy    TOTEN  =      -187.23656553 eV

  energy without entropy =     -187.17859273  energy(sigma->0) =     -187.22207233


--------------------------------------------------------------------------------------------------------




--------------------------------------- Iteration      1(   9)  ---------------------------------------


    POTLOK:  cpu time   13.2069: real time   13.2075
    SETDIJ:  cpu time    0.1077: real time    0.1077
    EDDIAG:  cpu time   66.7687: real time   66.7712
  RMM-DIIS:  cpu time  201.2093: real time  201.2082
    ORTHCH:  cpu time   12.2436: real time   12.2434
       DOS:  cpu time    0.0012: real time    0.0012
    CHARGE:  cpu time   24.9079: real time   24.9075
    MIXING:  cpu time    0.5619: real time    0.5619
    --------------------------------------------
      LOOP:  cpu time  319.0073: real time  319.0087

 eigenvalue-minimisations  :   741
 total energy-change (2. order) : 0.3201501E+01  (-0.6085213E+00)
 number of electron     559.9999854 magnetization 
 augmentation part      241.0720011 magnetization 

 Broyden mixing:
  rms(total) = 0.28983E+01    rms(broyden)= 0.28980E+01
  rms(prec ) = 0.33319E+01
  weight for this iteration     100.00

 eigenvalues of (default mixing * dielectric matrix)
  average eigenvalue GAMMA=   0.3314
  0.8840  0.1726  0.1631  0.1059

 Free energy of the ion-electron system (eV)
  ---------------------------------------------------
  alpha Z        PSCENC =        75.25431677
  Ewald energy   TEWEN  =    138977.15446173
  -Hartree energ DENC   =   -182877.04318187
  -exchange      EXHF   =         0.00000000
  -V(xc)+E(xc)   XCENC  =     -1695.52980565
  PAW double counting   =     45977.15928497   -42469.15947365
  entropy T*S    EENTRO =        -0.05983741
  eigenvalues    EBANDS =     -3258.31632366
  atomic energy  EATOM  =     45086.50549395
  Solvation  Ediel_sol  =         0.00000000
  ---------------------------------------------------
  free energy    TOTEN  =      -184.03506482 eV

  energy without entropy =     -183.97522742  energy(sigma->0) =     -184.02010547


--------------------------------------------------------------------------------------------------------




--------------------------------------- Iteration      1(  10)  ---------------------------------------


    POTLOK:  cpu time   13.0988: real time   13.1016
    SETDIJ:  cpu time    0.1072: real time    0.1072
    EDDIAG:  cpu time   66.0947: real time   66.0948
  RMM-DIIS:  cpu time  197.8159: real time  197.8182
    ORTHCH:  cpu time   12.3140: real time   12.3139
       DOS:  cpu time    0.0012: real time    0.0012
    CHARGE:  cpu time   24.5582: real time   24.5578
    MIXING:  cpu time    0.5315: real time    0.5315
    --------------------------------------------
      LOOP:  cpu time  314.5216: real time  314.5264

 eigenvalue-minimisations  :   727
 total energy-change (2. order) : 0.2971758E+01  (-0.4396407E+00)
 number of electron     559.9999874 magnetization 
 augmentation part      241.4698434 magnetization 

 Broyden mixing:
  rms(total) = 0.23686E+01    rms(broyden)= 0.23683E+01
  rms(prec ) = 0.27707E+01
  weight for this iteration     100.00

 eigenvalues of (default mixing * dielectric matrix)
  average eigenvalue GAMMA=   0.3054
  0.9478  0.1840  0.1840  0.1057  0.1057

 Free energy of the ion-electron system (eV)
  ---------------------------------------------------
  alpha Z        PSCENC =        75.25431677
  Ewald energy   TEWEN  =    138977.15446173
  -Hartree energ DENC   =   -182905.47643149
  -exchange      EXHF   =         0.00000000
  -V(xc)+E(xc)   XCENC  =     -1695.41017438
  PAW double counting   =     46029.64474768   -42520.16386448
  entropy T*S    EENTRO =         0.01109237
  eigenvalues    EBANDS =     -3228.58294864
  atomic energy  EATOM  =     45086.50549395
  Solvation  Ediel_sol  =         0.00000000
  ---------------------------------------------------
  free energy    TOTEN  =      -181.06330649 eV

  energy without entropy =     -181.07439886  energy(sigma->0) =     -181.06607958


--------------------------------------------------------------------------------------------------------




--------------------------------------- Iteration      1(  11)  ---------------------------------------


    POTLOK:  cpu time   13.0637: real time   13.0674
    SETDIJ:  cpu time    0.1075: real time    0.1075
    EDDIAG:  cpu time   67.1225: real time   67.1227
  RMM-DIIS:  cpu time  198.7390: real time  198.7442
    ORTHCH:  cpu time   12.4716: real time   12.4714
       DOS:  cpu time    0.0012: real time    0.0012
    CHARGE:  cpu time   25.1206: real time   25.1202
    MIXING:  cpu time    0.6288: real time    0.6288
    --------------------------------------------
      LOOP:  cpu time  317.2549: real time  317.2634

 eigenvalue-minimisations  :   734
 total energy-change (2. order) : 0.1348198E+01  (-0.2569338E+00)
 number of electron     559.9999866 magnetization 
 augmentation part      241.5150638 magnetization 

 Broyden mixing:
  rms(total) = 0.20192E+01    rms(broyden)= 0.20189E+01
  rms(prec ) = 0.24303E+01
  weight for this iteration     100.00

 eigenvalues of (default mixing * dielectric matrix)
  average eigenvalue GAMMA=   0.2956
  1.0107  0.2313  0.2313  0.1139  0.1139  0.0721

 Free energy of the ion-electron system (eV)
  ---------------------------------------------------
  alpha Z        PSCENC =        75.25431677
  Ewald energy   TEWEN  =    138977.15446173
  -Hartree energ DENC   =   -182928.53748465
  -exchange      EXHF   =         0.00000000
  -V(xc)+E(xc)   XCENC  =     -1695.25475059
  PAW double counting   =     46068.72993074   -42557.96377701
  entropy T*S    EENTRO =        -0.00052540
  eigenvalues    EBANDS =     -3205.60277443
  atomic energy  EATOM  =     45086.50549395
  Solvation  Ediel_sol  =         0.00000000
  ---------------------------------------------------
  free energy    TOTEN  =      -179.71510890 eV

  energy without entropy =     -179.71458349  energy(sigma->0) =     -179.71497755


--------------------------------------------------------------------------------------------------------




--------------------------------------- Iteration      1(  12)  ---------------------------------------


    POTLOK:  cpu time   12.9408: real time   12.9438
    SETDIJ:  cpu time    0.1075: real time    0.1075
    EDDIAG:  cpu time   66.9897: real time   66.9891
  RMM-DIIS:  cpu time  195.5209: real time  195.5204
    ORTHCH:  cpu time   12.3670: real time   12.3668
       DOS:  cpu time    0.0014: real time    0.0014
    CHARGE:  cpu time   24.6384: real time   24.6382
    MIXING:  cpu time    0.6050: real time    0.6050
    --------------------------------------------
      LOOP:  cpu time  313.1707: real time  313.1722

 eigenvalue-minimisations  :   725
 total energy-change (2. order) : 0.1422873E+01  (-0.2041214E+00)
 number of electron     559.9999884 magnetization 
 augmentation part      241.6123963 magnetization 

 Broyden mixing:
  rms(total) = 0.17426E+01    rms(broyden)= 0.17422E+01
  rms(prec ) = 0.20272E+01
  weight for this iteration     100.00

 eigenvalues of (default mixing * dielectric matrix)
  average eigenvalue GAMMA=   0.2951
  1.1023  0.2797  0.2797  0.1230  0.1230  0.0862  0.0719

 Free energy of the ion-electron system (eV)
  ---------------------------------------------------
  alpha Z        PSCENC =        75.25431677
  Ewald energy   TEWEN  =    138977.15446173
  -Hartree energ DENC   =   -182950.24271225
  -exchange      EXHF   =         0.00000000
  -V(xc)+E(xc)   XCENC  =     -1695.04776711
  PAW double counting   =     46108.13773531   -42596.00761661
  entropy T*S    EENTRO =        -0.08272107
  eigenvalues    EBANDS =     -3183.96342645
  atomic energy  EATOM  =     45086.50549395
  Solvation  Ediel_sol  =         0.00000000
  ---------------------------------------------------
  free energy    TOTEN  =      -178.29223573 eV

  energy without entropy =     -178.20951466  energy(sigma->0) =     -178.27155546


--------------------------------------------------------------------------------------------------------




--------------------------------------- Iteration      1(  13)  ---------------------------------------


    POTLOK:  cpu time   12.9786: real time   12.9821
    SETDIJ:  cpu time    0.1078: real time    0.1078
    EDDIAG:  cpu time   66.9822: real time   66.9824
  RMM-DIIS:  cpu time  191.1217: real time  191.1220
    ORTHCH:  cpu time   12.5249: real time   12.5249
       DOS:  cpu time    0.0013: real time    0.0013
    CHARGE:  cpu time   25.1988: real time   25.1986
    MIXING:  cpu time    0.6714: real time    0.6714
    --------------------------------------------
      LOOP:  cpu time  309.5869: real time  309.5905

 eigenvalue-minimisations  :   710
 total energy-change (2. order) : 0.1175973E+01  (-0.2047572E+00)
 number of electron     559.9999871 magnetization 
 augmentation part      241.6793564 magnetization 

 Broyden mixing:
  rms(total) = 0.13156E+01    rms(broyden)= 0.13152E+01
  rms(prec ) = 0.15313E+01
  weight for this iteration     100.00

 eigenvalues of (default mixing * dielectric matrix)
  average eigenvalue GAMMA=   0.3099
  1.2680  0.3293  0.3293  0.1313  0.1313  0.1269  0.0979  0.0652

 Free energy of the ion-electron system (eV)
  ---------------------------------------------------
  alpha Z        PSCENC =        75.25431677
  Ewald energy   TEWEN  =    138977.15446173
  -Hartree energ DENC   =   -182975.72299148
  -exchange      EXHF   =         0.00000000
  -V(xc)+E(xc)   XCENC  =     -1694.73028141
  PAW double counting   =     46156.95688627   -42643.00959711
  entropy T*S    EENTRO =        -0.06760736
  eigenvalues    EBANDS =     -3159.45694445
  atomic energy  EATOM  =     45086.50549395
  Solvation  Ediel_sol  =         0.00000000
  ---------------------------------------------------
  free energy    TOTEN  =      -177.11626309 eV

  energy without entropy =     -177.04865573  energy(sigma->0) =     -177.09936125


--------------------------------------------------------------------------------------------------------




--------------------------------------- Iteration      1(  14)  ---------------------------------------


    POTLOK:  cpu time   13.2545: real time   13.2577
    SETDIJ:  cpu time    0.1112: real time    0.1112
    EDDIAG:  cpu time   66.8953: real time   66.8965
  RMM-DIIS:  cpu time  194.5824: real time  194.5839
    ORTHCH:  cpu time   12.4616: real time   12.4631
       DOS:  cpu time    0.0013: real time    0.0013
    CHARGE:  cpu time   25.0246: real time   25.0244
    MIXING:  cpu time    0.7233: real time    0.7233
    --------------------------------------------
      LOOP:  cpu time  313.0542: real time  313.0613

 eigenvalue-minimisations  :   722
 total energy-change (2. order) :-0.5830690E+00  (-0.1834752E+00)
 number of electron     559.9999867 magnetization 
 augmentation part      241.5148021 magnetization 

 Broyden mixing:
  rms(total) = 0.18202E+01    rms(broyden)= 0.18200E+01
  rms(prec ) = 0.22037E+01
  weight for this iteration     100.00

 eigenvalues of (default mixing * dielectric matrix)
  average eigenvalue GAMMA=   0.3170
  1.4141  0.4331  0.3131  0.1597  0.1597  0.1159  0.1159  0.0774  0.0638

 Free energy of the ion-electron system (eV)
  ---------------------------------------------------
  alpha Z        PSCENC =        75.25431677
  Ewald energy   TEWEN  =    138977.15446173
  -Hartree energ DENC   =   -183004.87017525
  -exchange      EXHF   =         0.00000000
  -V(xc)+E(xc)   XCENC  =     -1694.21501581
  PAW double counting   =     46222.55853781   -42705.98824183
  entropy T*S    EENTRO =        -0.06662683
  eigenvalues    EBANDS =     -3134.03208268
  atomic energy  EATOM  =     45086.50549395
  Solvation  Ediel_sol  =         0.00000000
  ---------------------------------------------------
  free energy    TOTEN  =      -177.69933213 eV

  energy without entropy =     -177.63270530  energy(sigma->0) =     -177.68267542


--------------------------------------------------------------------------------------------------------




--------------------------------------- Iteration      1(  15)  ---------------------------------------


    POTLOK:  cpu time   12.8237: real time   12.8270
    SETDIJ:  cpu time    0.1056: real time    0.1056
    EDDIAG:  cpu time   66.6724: real time   66.6716
  RMM-DIIS:  cpu time  194.0972: real time  194.1011
    ORTHCH:  cpu time   12.3719: real time   12.3717
       DOS:  cpu time    0.0013: real time    0.0013
    CHARGE:  cpu time   25.5050: real time   25.5045
    MIXING:  cpu time    0.7881: real time    0.7881
    --------------------------------------------
      LOOP:  cpu time  312.3652: real time  312.3708

 eigenvalue-minimisations  :   721
 total energy-change (2. order) : 0.1795943E+00  (-0.1259868E+00)
 number of electron     559.9999875 magnetization 
 augmentation part      241.2415757 magnetization 

 Broyden mixing:
  rms(total) = 0.21406E+01    rms(broyden)= 0.21403E+01
  rms(prec ) = 0.25869E+01
  weight for this iteration     100.00

 eigenvalues of (default mixing * dielectric matrix)
  average eigenvalue GAMMA=   0.3075
  1.4818  0.5260  0.2374  0.2374  0.1496  0.1175  0.1175  0.0792  0.0642  0.0642

 Free energy of the ion-electron system (eV)
  ---------------------------------------------------
  alpha Z        PSCENC =        75.25431677
  Ewald energy   TEWEN  =    138977.15446173
  -Hartree energ DENC   =   -183046.25882238
  -exchange      EXHF   =         0.00000000
  -V(xc)+E(xc)   XCENC  =     -1693.68539865
  PAW double counting   =     46286.61187972   -42767.42778662
  entropy T*S    EENTRO =         0.16030700
  eigenvalues    EBANDS =     -3095.83418935
  atomic energy  EATOM  =     45086.50549395
  Solvation  Ediel_sol  =         0.00000000
  ---------------------------------------------------
  free energy    TOTEN  =      -177.51973782 eV

  energy without entropy =     -177.68004482  energy(sigma->0) =     -177.55981457


--------------------------------------------------------------------------------------------------------




--------------------------------------- Iteration      1(  16)  ---------------------------------------


    POTLOK:  cpu time   13.1972: real time   13.1995
    SETDIJ:  cpu time    0.1097: real time    0.1097
    EDDIAG:  cpu time   67.3186: real time   67.3182
  RMM-DIIS:  cpu time  191.6996: real time  191.7097
    ORTHCH:  cpu time   12.5007: real time   12.5006
       DOS:  cpu time    0.0013: real time    0.0013
    CHARGE:  cpu time   25.2345: real time   25.2343
    MIXING:  cpu time    0.7987: real time    0.7988
    --------------------------------------------
      LOOP:  cpu time  310.8604: real time  310.8721

 eigenvalue-minimisations  :   717
 total energy-change (2. order) : 0.1300279E+01  (-0.8152693E-01)
 number of electron     559.9999889 magnetization 
 augmentation part      241.2661825 magnetization 

 Broyden mixing:
  rms(total) = 0.11158E+01    rms(broyden)= 0.11154E+01
  rms(prec ) = 0.12780E+01
  weight for this iteration     100.00

 eigenvalues of (default mixing * dielectric matrix)
  average eigenvalue GAMMA=   0.3142
  1.5792  0.6156  0.2807  0.2807  0.1330  0.1330  0.1186  0.1186  0.0777  0.0594
  0.0594

 Free energy of the ion-electron system (eV)
  ---------------------------------------------------
  alpha Z        PSCENC =        75.25431677
  Ewald energy   TEWEN  =    138977.15446173
  -Hartree energ DENC   =   -183063.54335550
  -exchange      EXHF   =         0.00000000
  -V(xc)+E(xc)   XCENC  =     -1693.43641117
  PAW double counting   =     46314.71839603   -42794.34104714
  entropy T*S    EENTRO =         0.08266483
  eigenvalues    EBANDS =     -3078.61397814
  atomic energy  EATOM  =     45086.50549395
  Solvation  Ediel_sol  =         0.00000000
  ---------------------------------------------------
  free energy    TOTEN  =      -176.21945864 eV

  energy without entropy =     -176.30212347  energy(sigma->0) =     -176.24012485


--------------------------------------------------------------------------------------------------------




--------------------------------------- Iteration      1(  17)  ---------------------------------------


    POTLOK:  cpu time   12.7736: real time   12.7786
    SETDIJ:  cpu time    0.1096: real time    0.1096
    EDDIAG:  cpu time   66.8771: real time   66.8787
  RMM-DIIS:  cpu time  185.4097: real time  185.4185
    ORTHCH:  cpu time   12.3749: real time   12.3765
       DOS:  cpu time    0.0012: real time    0.0012
    CHARGE:  cpu time   23.9706: real time   23.9701
    MIXING:  cpu time    0.8448: real time    0.8448
    --------------------------------------------
      LOOP:  cpu time  302.3615: real time  302.3779

 eigenvalue-minimisations  :   697
 total energy-change (2. order) : 0.2817124E+00  (-0.6628345E-01)
 number of electron     559.9999876 magnetization 
 augmentation part      241.3007075 magnetization 

 Broyden mixing:
  rms(total) = 0.12344E+01    rms(broyden)= 0.12342E+01
  rms(prec ) = 0.14648E+01
  weight for this iteration     100.00

 eigenvalues of (default mixing * dielectric matrix)
  average eigenvalue GAMMA=   0.3174
  1.6316  0.7214  0.3301  0.3301  0.1427  0.1427  0.1069  0.1069  0.0893  0.0893
  0.0612  0.0560

 Free energy of the ion-electron system (eV)
  ---------------------------------------------------
  alpha Z        PSCENC =        75.25431677
  Ewald energy   TEWEN  =    138977.15446173
  -Hartree energ DENC   =   -183081.54045930
  -exchange      EXHF   =         0.00000000
  -V(xc)+E(xc)   XCENC  =     -1693.15051228
  PAW double counting   =     46343.42207524   -42821.68527100
  entropy T*S    EENTRO =         0.06402184
  eigenvalues    EBANDS =     -3061.96187316
  atomic energy  EATOM  =     45086.50549395
  Solvation  Ediel_sol  =         0.00000000
  ---------------------------------------------------
  free energy    TOTEN  =      -175.93774621 eV

  energy without entropy =     -176.00176805  energy(sigma->0) =     -175.95375167


--------------------------------------------------------------------------------------------------------




--------------------------------------- Iteration      1(  18)  ---------------------------------------


    POTLOK:  cpu time   12.3596: real time   12.3619
    SETDIJ:  cpu time    0.1093: real time    0.1093
    EDDIAG:  cpu time   64.1773: real time   64.1773
  RMM-DIIS:  cpu time  187.9346: real time  187.9391
    ORTHCH:  cpu time   12.5173: real time   12.5171
       DOS:  cpu time    0.0013: real time    0.0013
    CHARGE:  cpu time   25.0681: real time   25.0695
    MIXING:  cpu time    0.8803: real time    0.8803
    --------------------------------------------
      LOOP:  cpu time  303.0478: real time  303.0558

 eigenvalue-minimisations  :   706
 total energy-change (2. order) : 0.3564751E-01  (-0.4485416E-01)
 number of electron     559.9999887 magnetization 
 augmentation part      241.1143714 magnetization 

 Broyden mixing:
  rms(total) = 0.99002E+00    rms(broyden)= 0.98979E+00
  rms(prec ) = 0.11776E+01
  weight for this iteration     100.00

 eigenvalues of (default mixing * dielectric matrix)
  average eigenvalue GAMMA=   0.3301
  1.7155  0.8684  0.3888  0.3888  0.1489  0.1489  0.1146  0.1146  0.1199  0.0841
  0.0841  0.0634  0.0513

 Free energy of the ion-electron system (eV)
  ---------------------------------------------------
  alpha Z        PSCENC =        75.25431677
  Ewald energy   TEWEN  =    138977.15446173
  -Hartree energ DENC   =   -183103.05463274
  -exchange      EXHF   =         0.00000000
  -V(xc)+E(xc)   XCENC  =     -1692.92704523
  PAW double counting   =     46364.33525489   -42841.40096525
  entropy T*S    EENTRO =        -0.02788284
  eigenvalues    EBANDS =     -3041.74109999
  atomic energy  EATOM  =     45086.50549395
  Solvation  Ediel_sol  =         0.00000000
  ---------------------------------------------------
  free energy    TOTEN  =      -175.90209870 eV

  energy without entropy =     -175.87421586  energy(sigma->0) =     -175.89512799


--------------------------------------------------------------------------------------------------------




--------------------------------------- Iteration      1(  19)  ---------------------------------------


    POTLOK:  cpu time   12.8171: real time   12.8194
    SETDIJ:  cpu time    0.1060: real time    0.1060
    EDDIAG:  cpu time   66.7993: real time   66.8004
  RMM-DIIS:  cpu time  186.9685: real time  186.9692
    ORTHCH:  cpu time   12.6206: real time   12.6204
       DOS:  cpu time    0.0014: real time    0.0014
    CHARGE:  cpu time   25.2216: real time   25.2214
    MIXING:  cpu time    1.0391: real time    1.0391
    --------------------------------------------
      LOOP:  cpu time  305.5735: real time  305.5772

 eigenvalue-minimisations  :   702
 total energy-change (2. order) : 0.1053117E-01  (-0.4106325E-01)
 number of electron     559.9999880 magnetization 
 augmentation part      241.0801596 magnetization 

 Broyden mixing:
  rms(total) = 0.10507E+01    rms(broyden)= 0.10504E+01
  rms(prec ) = 0.12093E+01
  weight for this iteration     100.00

 eigenvalues of (default mixing * dielectric matrix)
  average eigenvalue GAMMA=   0.3347
  1.7922  1.0326  0.4034  0.4034  0.1736  0.1467  0.1467  0.1108  0.1108  0.0959
  0.0886  0.0652  0.0652  0.0511

 Free energy of the ion-electron system (eV)
  ---------------------------------------------------
  alpha Z        PSCENC =        75.25431677
  Ewald energy   TEWEN  =    138977.15446173
  -Hartree energ DENC   =   -183124.02370501
  -exchange      EXHF   =         0.00000000
  -V(xc)+E(xc)   XCENC  =     -1692.65499805
  PAW double counting   =     46383.44423103   -42859.17928262
  entropy T*S    EENTRO =         0.03252534
  eigenvalues    EBANDS =     -3022.42461066
  atomic energy  EATOM  =     45086.50549395
  Solvation  Ediel_sol  =         0.00000000
  ---------------------------------------------------
  free energy    TOTEN  =      -175.89156753 eV

  energy without entropy =     -175.92409287  energy(sigma->0) =     -175.89969887


--------------------------------------------------------------------------------------------------------




--------------------------------------- Iteration      1(  20)  ---------------------------------------


    POTLOK:  cpu time   12.9501: real time   12.9528
    SETDIJ:  cpu time    0.1097: real time    0.1097
    EDDIAG:  cpu time   66.6541: real time   66.6543
  RMM-DIIS:  cpu time  186.9787: real time  186.9787
    ORTHCH:  cpu time   12.6564: real time   12.6563
       DOS:  cpu time    0.0013: real time    0.0013
    CHARGE:  cpu time   24.9227: real time   24.9225
    MIXING:  cpu time    1.0210: real time    1.0210
    --------------------------------------------
      LOOP:  cpu time  305.2939: real time  305.2964

 eigenvalue-minimisations  :   701
 total energy-change (2. order) : 0.3571137E+00  (-0.3210528E-01)
 number of electron     559.9999887 magnetization 
 augmentation part      241.0830245 magnetization 

 Broyden mixing:
  rms(total) = 0.64906E+00    rms(broyden)= 0.64887E+00
  rms(prec ) = 0.74473E+00
  weight for this iteration     100.00

 eigenvalues of (default mixing * dielectric matrix)
  average eigenvalue GAMMA=   0.3394
  1.9160  1.0711  0.3982  0.3982  0.3001  0.1523  0.1523  0.1099  0.1099  0.1095
  0.1095  0.0827  0.0652  0.0652  0.0506

 Free energy of the ion-electron system (eV)
  ---------------------------------------------------
  alpha Z        PSCENC =        75.25431677
  Ewald energy   TEWEN  =    138977.15446173
  -Hartree energ DENC   =   -183144.61359351
  -exchange      EXHF   =         0.00000000
  -V(xc)+E(xc)   XCENC  =     -1692.41898857
  PAW double counting   =     46397.10540669   -42871.77928050
  entropy T*S    EENTRO =         0.00221415
  eigenvalues    EBANDS =     -3002.74448453
  atomic energy  EATOM  =     45086.50549395
  Solvation  Ediel_sol  =         0.00000000
  ---------------------------------------------------
  free energy    TOTEN  =      -175.53445382 eV

  energy without entropy =     -175.53666797  energy(sigma->0) =     -175.53500736


--------------------------------------------------------------------------------------------------------




--------------------------------------- Iteration      1(  21)  ---------------------------------------


    POTLOK:  cpu time   12.8588: real time   12.8593
    SETDIJ:  cpu time    0.1089: real time    0.1089
    EDDIAG:  cpu time   65.6202: real time   65.6197
  RMM-DIIS:  cpu time  185.2747: real time  185.2730
    ORTHCH:  cpu time   12.5959: real time   12.5957
       DOS:  cpu time    0.0014: real time    0.0014
    CHARGE:  cpu time   24.7145: real time   24.7140
    MIXING:  cpu time    1.1314: real time    1.1314
    --------------------------------------------
      LOOP:  cpu time  302.3058: real time  302.3034

 eigenvalue-minimisations  :   697
 total energy-change (2. order) : 0.2756655E-01  (-0.2304501E-01)
 number of electron     559.9999880 magnetization 
 augmentation part      241.1348939 magnetization 

 Broyden mixing:
  rms(total) = 0.82795E+00    rms(broyden)= 0.82781E+00
  rms(prec ) = 0.96833E+00
  weight for this iteration     100.00

 eigenvalues of (default mixing * dielectric matrix)
  average eigenvalue GAMMA=   0.3402
  1.9749  1.1167  0.4818  0.3806  0.3806  0.1540  0.1540  0.1123  0.1123  0.1159
  0.1159  0.0826  0.0826  0.0638  0.0638  0.0507

 Free energy of the ion-electron system (eV)
  ---------------------------------------------------
  alpha Z        PSCENC =        75.25431677
  Ewald energy   TEWEN  =    138977.15446173
  -Hartree energ DENC   =   -183157.32629568
  -exchange      EXHF   =         0.00000000
  -V(xc)+E(xc)   XCENC  =     -1692.22184301
  PAW double counting   =     46405.64286327   -42879.47038785
  entropy T*S    EENTRO =        -0.00279284
  eigenvalues    EBANDS =     -2991.04270361
  atomic energy  EATOM  =     45086.50549395
  Solvation  Ediel_sol  =         0.00000000
  ---------------------------------------------------
  free energy    TOTEN  =      -175.50688727 eV

  energy without entropy =     -175.50409442  energy(sigma->0) =     -175.50618906


--------------------------------------------------------------------------------------------------------




--------------------------------------- Iteration      1(  22)  ---------------------------------------


    POTLOK:  cpu time   12.9020: real time   12.9026
    SETDIJ:  cpu time    0.1105: real time    0.1105
    EDDIAG:  cpu time   66.0374: real time   66.0371
  RMM-DIIS:  cpu time  185.7803: real time  185.7789
    ORTHCH:  cpu time   12.4379: real time   12.4377
       DOS:  cpu time    0.0014: real time    0.0013
    CHARGE:  cpu time   24.9535: real time   24.9531
    MIXING:  cpu time    1.1592: real time    1.1592
    --------------------------------------------
      LOOP:  cpu time  303.3822: real time  303.3805

 eigenvalue-minimisations  :   699
 total energy-change (2. order) : 0.1217531E+00  (-0.1601638E-01)
 number of electron     559.9999878 magnetization 
 augmentation part      241.0781723 magnetization 

 Broyden mixing:
  rms(total) = 0.61721E+00    rms(broyden)= 0.61704E+00
  rms(prec ) = 0.71660E+00
  weight for this iteration     100.00

 eigenvalues of (default mixing * dielectric matrix)
  average eigenvalue GAMMA=   0.3569
  2.1254  1.2337  0.6732  0.3849  0.3849  0.1924  0.1468  0.1468  0.1110  0.1110
  0.1125  0.1125  0.0866  0.0703  0.0505  0.0623  0.0623

 Free energy of the ion-electron system (eV)
  ---------------------------------------------------
  alpha Z        PSCENC =        75.25431677
  Ewald energy   TEWEN  =    138977.15446173
  -Hartree energ DENC   =   -183169.87286004
  -exchange      EXHF   =         0.00000000
  -V(xc)+E(xc)   XCENC  =     -1692.08323546
  PAW double counting   =     46409.32007026   -42882.61679588
  entropy T*S    EENTRO =         0.01338068
  eigenvalues    EBANDS =     -2979.05996616
  atomic energy  EATOM  =     45086.50549395
  Solvation  Ediel_sol  =         0.00000000
  ---------------------------------------------------
  free energy    TOTEN  =      -175.38513415 eV

  energy without entropy =     -175.39851483  energy(sigma->0) =     -175.38847932


--------------------------------------------------------------------------------------------------------




--------------------------------------- Iteration      1(  23)  ---------------------------------------


    POTLOK:  cpu time   13.0717: real time   13.0749
    SETDIJ:  cpu time    0.1095: real time    0.1095
    EDDIAG:  cpu time   66.7299: real time   66.7296
  RMM-DIIS:  cpu time  181.6321: real time  181.6311
    ORTHCH:  cpu time   12.8171: real time   12.8169
       DOS:  cpu time    0.0013: real time    0.0013
    CHARGE:  cpu time   25.5422: real time   25.5417
    MIXING:  cpu time    1.2572: real time    1.2572
    --------------------------------------------
      LOOP:  cpu time  301.1610: real time  301.1622

 eigenvalue-minimisations  :   693
 total energy-change (2. order) : 0.5950928E-01  (-0.1832405E-01)
 number of electron     559.9999885 magnetization 
 augmentation part      241.0902780 magnetization 

 Broyden mixing:
  rms(total) = 0.54502E+00    rms(broyden)= 0.54487E+00
  rms(prec ) = 0.63151E+00
  weight for this iteration     100.00

 eigenvalues of (default mixing * dielectric matrix)
  average eigenvalue GAMMA=   0.3618
[...]
 -0.006  -0.012   0.003   0.004   0.005  -0.006  -0.012   0.003
 -0.010  -0.020   0.005   0.007   0.009  -0.010  -0.020   0.005
 -0.015  -0.005   0.013   0.000   0.022  -0.014  -0.005   0.012
  0.000  -0.023  -0.006  -0.015  -0.000   0.000  -0.022  -0.006
 -0.022   0.000   0.009  -0.005  -0.016  -0.021   0.000   0.008
 -0.017  -0.006   0.015   0.000   0.027  -0.017  -0.006   0.015
  0.000  -0.027  -0.008  -0.018   0.000   0.000  -0.027  -0.007
 -0.027   0.000   0.010  -0.006  -0.019  -0.026   0.000   0.010
 total augmentation occupancy for first ion, spin component:           1
  1.532  -0.026   0.004   0.021   0.022   0.078  -0.009  -0.001   0.036  -0.010   0.088  -0.029   0.012   0.000   0.003  -0.019
 -0.026   1.394   0.028   0.067   0.006  -0.008   0.074   0.011  -0.014  -0.009   0.211  -0.065   0.020   0.003   0.001  -0.007
  0.004   0.028   1.542  -0.002   0.003  -0.002   0.012   0.074  -0.012   0.017  -0.048   0.015  -0.003  -0.006  -0.004   0.016
  0.021   0.067  -0.002   1.340   0.043   0.034  -0.013  -0.012   0.091  -0.023  -0.079   0.022  -0.001  -0.009  -0.004   0.001
  0.022   0.006   0.003   0.043   1.437  -0.010  -0.010   0.016  -0.022   0.068  -0.093   0.030  -0.002  -0.010  -0.009   0.027
  0.078  -0.008  -0.002   0.034  -0.010   0.217   0.019  -0.002  -0.045   0.004  -0.049   0.002   0.017  -0.010   0.035  -0.004
 -0.009   0.074   0.012  -0.013  -0.010   0.019   0.262  -0.023  -0.004   0.006  -0.107   0.007  -0.001   0.051  -0.010  -0.001
 -0.001   0.011   0.074  -0.012   0.016  -0.002  -0.023   0.216   0.013  -0.020   0.028  -0.001  -0.012   0.009  -0.018   0.003
  0.036  -0.014  -0.012   0.091  -0.022  -0.045  -0.004   0.013   0.262   0.007   0.042  -0.003  -0.009   0.036   0.005   0.000
 -0.010  -0.009   0.017  -0.023   0.068   0.004   0.006  -0.020   0.007   0.258   0.046  -0.003  -0.038   0.002   0.049   0.007
  0.088   0.211  -0.048  -0.079  -0.093  -0.049  -0.107   0.028   0.042   0.046   0.946  -0.140   0.084   0.015   0.063  -0.012
 -0.029  -0.065   0.015   0.022   0.030   0.002   0.007  -0.001  -0.003  -0.003  -0.140   0.023  -0.014  -0.003  -0.010   0.003
  0.012   0.020  -0.003  -0.001  -0.002   0.017  -0.001  -0.012  -0.009  -0.038   0.084  -0.014   0.029  -0.008  -0.004  -0.003
  0.000   0.003  -0.006  -0.009  -0.010  -0.010   0.051   0.009   0.036   0.002   0.015  -0.003  -0.008   0.036   0.005   0.000
  0.003   0.001  -0.004  -0.004  -0.009   0.035  -0.010  -0.018   0.005   0.049   0.063  -0.010  -0.004   0.005   0.035  -0.000
 -0.019  -0.007   0.016   0.001   0.027  -0.004  -0.001   0.003   0.000   0.007  -0.012   0.003  -0.003   0.000  -0.000   0.001
  0.001  -0.028  -0.007  -0.018   0.001   0.001  -0.008  -0.002  -0.006   0.000  -0.003   0.001   0.000  -0.003  -0.000   0.000
 -0.029   0.001   0.012  -0.006  -0.019  -0.006   0.001   0.003  -0.001  -0.007  -0.008   0.001  -0.000  -0.000  -0.003   0.000


------------------------ aborting loop because EDIFF is reached ----------------------------------------


    CHARGE:  cpu time   25.8010: real time   25.8034
    FORLOC:  cpu time    6.3012: real time    6.3023
    FORNL :  cpu time   66.6595: real time   66.6689
    STRESS:  cpu time  196.8324: real time  196.8444
    FORCOR:  cpu time   21.3182: real time   21.3215
    FORHAR:  cpu time    9.4827: real time    9.4829
    MIXING:  cpu time    4.6755: real time    4.6765
    OFIELD:  cpu time    0.0000: real time    0.0000

  FORCE on cell =-STRESS in cart. coord.  units (eV):
  Direction    XX          YY          ZZ          XY          YZ          ZX
  --------------------------------------------------------------------------------------
  Alpha Z    75.25432    75.25432    75.25432
  Ewald   49604.78323 44584.67657 44787.58882   929.36522  -426.04412  -563.48649
  Hartree 64183.18389 59498.55639 59644.13951   858.29019  -332.93326  -595.02412
  E(xc)   -2905.55222 -2906.59752 -2906.64396     0.28757    -0.64609     0.31691
  Local  ************************************ -1782.02644   751.34754  1162.74179
  n-local  -881.47425  -879.98774  -878.11107    -2.17262     0.26856     7.39893
  augment  4101.99915  4103.95600  4103.56985     0.66416     1.72351    -4.80696
  Kinetic  7798.33468  7817.69658  7815.59066    -1.84671     5.87413    -6.10796
  Fock        0.00000     0.00000     0.00000     0.00000     0.00000     0.00000
  -------------------------------------------------------------------------------------
  Total     -99.42325  -112.94138  -110.50121     2.56139    -0.40972     1.03209
  in kB      -5.89977    -6.70193    -6.55713     0.15199    -0.02431     0.06124
  external pressure =       -6.39 kB  Pullay stress =        0.00 kB


 VOLUME and BASIS-vectors are now :
 -----------------------------------------------------------------------------
  energy-cutoff  :      400.00
  volume of cell :    27000.00
      direct lattice vectors                 reciprocal lattice vectors
    30.000000000  0.000000000  0.000000000     0.033333333  0.000000000  0.000000000
     0.000000000 30.000000000  0.000000000     0.000000000  0.033333333  0.000000000
     0.000000000  0.000000000 30.000000000     0.000000000  0.000000000  0.033333333

  length of vectors
    30.000000000 30.000000000 30.000000000     0.033333333  0.033333333  0.033333333


 FORCES acting on ions
    electron-ion (+dipol)            ewald-force                    non-local-force                 convergence-correction
 -----------------------------------------------------------------------------------------------
   0.377E+03 0.981E+03 0.428E+03   -.375E+03 -.978E+03 -.427E+03   -.149E+01 -.185E+01 -.249E+00   -.343E-02 0.733E-03 0.429E-02
   -.974E+03 -.395E+03 0.418E+03   0.971E+03 0.393E+03 -.417E+03   0.184E+01 0.151E+01 -.201E+00   -.238E-02 0.392E-02 0.379E-03
   -.403E+03 0.974E+03 0.420E+03   0.401E+03 -.971E+03 -.420E+03   0.150E+01 -.182E+01 -.221E+00   -.380E-02 -.981E-03 0.325E-02
   0.955E+03 -.420E+03 0.448E+03   -.952E+03 0.418E+03 -.447E+03   -.182E+01 0.151E+01 -.288E+00   0.229E-03 0.918E-04 0.748E-02
   -.959E+01 0.588E+03 0.972E+03   0.961E+01 -.587E+03 -.968E+03   -.448E-02 -.295E+00 -.234E+01   -.357E-02 -.269E-03 0.240E-02
   -.178E+02 0.590E+03 -.972E+03   0.178E+02 -.590E+03 0.968E+03   -.236E-02 -.327E+00 0.236E+01   -.304E-02 -.125E-02 -.190E-02
   -.130E+02 0.114E+04 0.293E+01   0.130E+02 -.114E+04 -.294E+01   -.718E-02 -.311E+01 0.337E-02   -.331E-02 0.135E-02 0.349E-02
   0.110E+04 -.187E+03 0.171E+03   -.109E+04 0.184E+03 -.169E+03   -.300E+01 0.252E+01 -.202E+01   0.332E-02 0.386E-03 0.580E-02
   -.113E+04 -.100E+01 0.919E+00   0.113E+04 0.983E+00 -.904E+00   0.312E+01 0.102E-01 -.101E-01   0.156E-02 0.248E-02 0.801E-03
   -.613E+01 -.114E+04 0.143E+01   0.614E+01 0.113E+04 -.144E+01   -.443E-02 0.311E+01 0.774E-02   0.429E-03 -.354E-02 0.229E-02
   -.583E+03 0.579E+03 0.816E+03   0.580E+03 -.576E+03 -.812E+03   0.156E+01 -.156E+01 -.220E+01   0.993E-03 0.345E-03 -.502E-03
   -.585E+03 0.579E+03 -.815E+03   0.583E+03 -.577E+03 0.811E+03   0.156E+01 -.156E+01 0.220E+01   -.245E-02 -.177E-02 0.218E-02
   0.570E+03 -.587E+03 0.823E+03   -.568E+03 0.584E+03 -.820E+03   -.152E+01 0.154E+01 -.218E+01   -.609E-03 0.280E-02 0.158E-02
   0.563E+03 -.597E+03 -.824E+03   -.561E+03 0.594E+03 0.821E+03   -.151E+01 0.157E+01 0.227E+01   -.158E-04 -.251E-02 -.351E-02
   0.566E+03 0.583E+03 0.831E+03   -.563E+03 -.580E+03 -.828E+03   -.154E+01 -.158E+01 -.220E+01   -.159E-02 -.316E-02 0.242E-02
   0.541E+03 0.594E+03 -.843E+03   -.539E+03 -.592E+03 0.840E+03   -.160E+01 -.175E+01 0.233E+01   -.753E-04 0.148E-02 -.241E-02
   -.582E+03 -.580E+03 0.815E+03   0.579E+03 0.578E+03 -.811E+03   0.156E+01 0.156E+01 -.220E+01   0.550E-03 0.224E-02 0.123E-02
   -.583E+03 -.581E+03 -.814E+03   0.581E+03 0.579E+03 0.811E+03   0.156E+01 0.156E+01 0.221E+01   -.238E-02 0.113E-02 -.139E-02
   0.367E+03 0.987E+03 -.420E+03   -.365E+03 -.984E+03 0.420E+03   -.149E+01 -.184E+01 0.234E+00   -.449E-03 0.503E-03 -.179E-02
   -.975E+03 -.396E+03 -.416E+03   0.972E+03 0.394E+03 0.416E+03   0.185E+01 0.150E+01 0.211E+00   -.283E-02 0.625E-02 0.198E-02
   -.332E+03 0.320E+03 0.458E+03   0.332E+03 -.321E+03 -.459E+03   -.385E+00 0.365E+00 0.525E+00   -.414E-02 0.130E-02 0.194E-02
   0.940E+03 0.393E+03 0.478E+03   -.937E+03 -.391E+03 -.478E+03   -.190E+01 -.148E+01 -.519E-01   0.193E-02 -.387E-02 0.441E-02
   -.399E+03 -.975E+03 0.419E+03   0.397E+03 0.972E+03 -.418E+03   0.151E+01 0.182E+01 -.220E+00   0.160E-02 -.178E-03 0.490E-02
   -.406E+03 0.975E+03 -.417E+03   0.404E+03 -.973E+03 0.417E+03   0.151E+01 -.182E+01 0.228E+00   -.539E-02 -.229E-02 0.200E-03
   0.927E+03 -.468E+03 -.437E+03   -.924E+03 0.466E+03 0.437E+03   -.193E+01 0.113E+01 0.113E+00   0.327E-02 0.291E-04 0.678E-03
   -.974E+03 0.394E+03 0.418E+03   0.971E+03 -.391E+03 -.418E+03   0.184E+01 -.150E+01 -.222E+00   -.580E-03 -.116E-02 -.266E-02
   0.386E+03 -.980E+03 0.421E+03   -.384E+03 0.977E+03 -.421E+03   -.150E+01 0.181E+01 -.224E+00   0.501E-03 0.302E-03 0.599E-02
   0.296E+03 0.321E+03 0.471E+03   -.297E+03 -.321E+03 -.471E+03   0.370E+00 0.356E+00 0.496E+00   -.127E-02 -.235E-02 0.620E-02
   -.223E+02 0.643E+03 0.497E+01   0.223E+02 -.644E+03 -.498E+01   0.283E-01 0.723E+00 0.883E-02   -.627E-02 -.130E-02 0.229E-02
   -.591E+03 -.111E+01 0.967E+03   0.590E+03 0.111E+01 -.964E+03   0.314E+00 -.392E-02 -.236E+01   -.460E-03 0.180E-03 -.134E-03
   -.593E+03 -.155E+01 -.966E+03   0.592E+03 0.155E+01 0.963E+03   0.291E+00 -.906E-02 0.237E+01   -.212E-02 0.318E-02 0.212E-02
   0.574E+03 -.549E+01 0.984E+03   -.573E+03 0.544E+01 -.980E+03   -.284E+00 0.361E-01 -.239E+01   0.882E-04 -.454E-02 0.220E-02
   0.549E+03 -.174E+02 -.997E+03   -.548E+03 0.173E+02 0.994E+03   -.371E+00 0.110E+00 0.247E+01   -.123E-02 0.223E-02 -.348E-02
   0.697E+03 0.792E+03 0.269E+02   -.695E+03 -.790E+03 -.269E+02   -.129E+01 -.102E+01 0.709E-01   0.177E-02 0.570E-03 0.217E-02
   -.765E+03 -.763E+03 0.121E+01   0.763E+03 0.761E+03 -.119E+01   0.116E+01 0.114E+01 -.157E-01   -.291E-02 0.409E-02 0.260E-02
   -.768E+03 0.761E+03 0.159E+01   0.766E+03 -.759E+03 -.159E+01   0.114E+01 -.115E+01 -.175E-02   -.402E-02 -.259E-02 0.564E-03
   0.741E+03 -.785E+03 0.769E+01   -.739E+03 0.783E+03 -.772E+01   -.115E+01 0.117E+01 0.146E-01   0.636E-03 -.139E-02 0.670E-02
   -.935E+01 -.234E+01 0.108E+04   0.937E+01 0.234E+01 -.107E+04   -.179E-01 0.131E-02 -.162E+01   0.102E-02 -.121E-02 0.274E-02
   -.176E+02 -.433E+01 -.108E+04   0.176E+02 0.429E+01 0.107E+04   0.491E-01 0.301E-01 0.163E+01   -.368E-02 0.252E-02 -.933E-03
   0.699E+03 0.394E+03 -.575E+03   -.701E+03 -.392E+03 0.570E+03   0.589E+01 -.104E+01 0.591E+01   0.249E-02 0.348E-02 0.205E-03
   -.401E+03 -.976E+03 -.417E+03   0.398E+03 0.973E+03 0.416E+03   0.149E+01 0.182E+01 0.232E+00   -.958E-03 -.245E-02 -.505E-03
   -.336E+03 0.320E+03 -.454E+03   0.336E+03 -.321E+03 0.455E+03   -.388E+00 0.373E+00 -.521E+00   -.635E-02 -.200E-03 0.165E-02
   0.303E+03 -.331E+03 0.465E+03   -.304E+03 0.332E+03 -.466E+03   0.419E+00 -.313E+00 0.457E+00   0.117E-02 -.624E-03 0.921E-02
   0.274E+03 0.321E+03 -.460E+03   -.275E+03 -.322E+03 0.461E+03   0.429E+00 0.370E+00 -.663E+00   -.399E-02 0.663E-03 -.952E-03
   -.975E+03 0.393E+03 -.416E+03   0.972E+03 -.391E+03 0.416E+03   0.184E+01 -.150E+01 0.228E+00   -.836E-03 0.891E-03 0.408E-02
   0.383E+03 -.983E+03 -.417E+03   -.381E+03 0.980E+03 0.417E+03   -.147E+01 0.182E+01 0.228E+00   -.675E-03 -.390E-02 0.440E-03
   -.330E+03 -.324E+03 0.457E+03   0.330E+03 0.325E+03 -.458E+03   -.379E+00 -.369E+00 0.537E+00   -.132E-02 0.246E-02 0.467E-02
   0.572E+03 -.308E+02 0.282E+02   -.572E+03 0.310E+02 -.285E+02   0.316E+00 -.213E+00 0.217E+00   0.795E-03 0.612E-03 0.624E-02
   -.646E+03 -.177E+01 0.161E+01   0.647E+03 0.175E+01 -.161E+01   -.705E+00 0.137E-01 -.403E-02   -.523E-02 0.527E-02 0.399E-03
   -.656E+01 -.591E+03 0.969E+03   0.660E+01 0.590E+03 -.966E+03   -.197E-01 0.290E+00 -.235E+01   0.229E-02 0.189E-02 0.284E-02
   -.107E+02 -.594E+03 -.969E+03   0.107E+02 0.593E+03 0.965E+03   -.649E-02 0.309E+00 0.234E+01   -.197E-02 0.250E-03 -.219E-02
   -.227E+02 -.550E+01 0.506E+01   0.227E+02 0.550E+01 -.506E+01   0.247E-01 0.357E-02 -.271E-02   -.535E-02 0.107E-02 0.155E-02
   0.293E+03 -.338E+03 -.457E+03   -.293E+03 0.339E+03 0.458E+03   0.406E+00 -.347E+00 -.527E+00   -.426E-02 0.130E-02 0.364E-04
   -.333E+03 -.326E+03 -.454E+03   0.333E+03 0.326E+03 0.454E+03   -.400E+00 -.373E+00 -.516E+00   -.324E-02 0.527E-02 0.354E-03
   -.127E+02 -.647E+03 0.287E+01   0.127E+02 0.648E+03 -.288E+01   -.116E-01 -.735E+00 0.383E-02   -.503E-03 0.664E-04 0.391E-02
   0.274E+03 0.131E+03 -.565E+01   -.256E+03 -.127E+03 -.128E+00   -.134E+02 -.197E+01 0.255E+01   0.158E-02 0.835E-03 0.742E-03
   0.819E+03 0.263E+03 -.181E+03   -.882E+03 -.279E+03 0.196E+03   0.554E+02 0.131E+02 -.130E+02   0.247E-02 0.856E-03 0.615E-03
 -----------------------------------------------------------------------------------------------
   -.493E+02 -.137E+02 0.625E+01   0.682E-12 -.136E-11 -.108E-11   0.493E+02 0.136E+02 -.636E+01   -.680E-01 0.215E-01 0.999E-01
 
 
 POSITION                                       TOTAL-FORCE (eV/Angst)
 -----------------------------------------------------------------------------------
     13.37281      9.84801     12.50759         0.706194      1.103435      0.291018
     20.15199     16.62719     12.50759        -1.112092     -0.699420      0.278993
     16.62719      9.84801     12.50759        -0.702068      1.106299      0.296205
      9.84801     16.62719     12.50759         1.180155     -0.667997      0.171528
     15.00000     11.47521     10.20639         0.003370      0.409400      1.279738
     15.00000     11.47521     19.79360        -0.006183      0.417157     -1.274484
     15.00000      8.28283     15.00000        -0.000047      1.517208     -0.000904
      8.28283     15.00000     15.00000         1.689829     -0.335608      0.146996
     21.71717     15.00000     15.00000        -1.511201     -0.006315      0.006580
     15.00000     21.71717     15.00000         0.000779     -1.517739     -0.003424
     18.35858     11.64142     10.25025        -0.754000      0.753344      1.069104
     18.35858     11.64142     19.74975        -0.753896      0.755938     -1.072154
     11.64142     18.35858     10.25025         0.749779     -0.740832      1.065283
     11.64142     18.35858     19.74975         0.723980     -0.757192     -1.099884
     11.64142     11.64142     10.25025         0.753298      0.760522      1.070852
     11.64142     11.64142     19.74975         0.777686      0.751656     -1.030600
     18.35858     18.35858     10.25025        -0.759251     -0.753164      1.069804
     18.35858     18.35858     19.74975        -0.754546     -0.755652     -1.072140
     13.37281      9.84801     17.49241         0.717225      1.105033     -0.293946
     20.15199     16.62719     17.49241        -1.114747     -0.694315     -0.281012
     16.73751     13.26249     12.54279         0.110958     -0.110686     -0.141254
      9.84801     13.37281     12.50759         1.158248      0.701433      0.179431
     16.62719     20.15199     12.50759        -0.704814     -1.103603      0.292278
     16.62719      9.84801     17.49241        -0.707152      1.105374     -0.296664
      9.84801     16.62719     17.49241         1.166980     -0.601516     -0.147770
     20.15199     13.37281     12.50759        -1.112559      0.694811      0.287803
     13.37281     20.15199     12.50759         0.708816     -1.109040      0.294117
     13.26249     13.26249     12.54279        -0.107796     -0.103040     -0.167573
     15.00000     11.52498     15.00000        -0.001708     -0.229068      0.001286
     18.52479     15.00000     10.20639        -0.409638      0.001230      1.274891
     18.52479     15.00000     19.79360        -0.403950      0.000296     -1.282305
     11.47521     15.00000     10.20640         0.387938     -0.013737      1.295435
     11.47521     15.00000     19.79360         0.491853      0.012070     -1.212169
     11.49535     11.49535     15.00000         0.852483      0.776951     -0.014713
     18.50465     18.50465     15.00000        -0.833663     -0.823168      0.003886
     18.50465     11.49535     15.00000        -0.825017      0.827293     -0.002156
     11.49535     18.50465     15.00000         0.844707     -0.817377     -0.009031
     15.00000     15.00000     10.04368         0.002820     -0.003593      1.183116
     15.00000     15.00000     19.95633        -0.017977     -0.003526     -1.180556
      9.84801     13.37281     17.49241         4.287202      0.470097      1.503868
     16.62719     20.15199     17.49241        -0.700957     -1.107981     -0.295646
     16.73751     13.26249     17.45721         0.136077     -0.108538      0.153244
     13.26249     16.73751     12.54279        -0.113322      0.104911     -0.144385
     13.26249     13.26249     17.45721        -0.041766     -0.105530      0.176911
     20.15199     13.37281     17.49241        -1.115163      0.693803     -0.286264
     13.37281     20.15199     17.49241         0.703852     -1.108496     -0.294153
     16.73751     16.73751     12.54279         0.106388      0.111664     -0.152103
     11.52498     15.00000     15.00000        -0.086676      0.056707     -0.062452
     18.47502     15.00000     15.00000         0.227289     -0.003014     -0.000079
     15.00000     18.52480     10.20639         0.015624     -0.402978      1.279977
     15.00000     18.52480     19.79360         0.003703     -0.414459     -1.281021
     15.00000     15.00000     15.00000        -0.021363      0.005863      0.003374
     13.26249     16.73751     17.45721        -0.107815      0.102414      0.160750
     16.73751     16.73751     17.45721         0.120696      0.112252      0.148665
     15.00000     18.47502     15.00000        -0.003896      0.230202     -0.002225
      8.46135     13.45906     16.41557         4.217704      2.866183     -3.223686
      7.38702     13.20588     16.64815        -8.062369     -2.455956      1.339619
 -----------------------------------------------------------------------------------
    total drift:                                0.007335     -0.004270     -0.001807


--------------------------------------------------------------------------------------------------------



  FREE ENERGIE OF THE ION-ELECTRON SYSTEM (eV)
  ---------------------------------------------------
  free  energy   TOTEN  =      -175.14449321 eV

  energy  without entropy=     -175.09668392  energy(sigma->0) =     -175.13254089
 


--------------------------------------------------------------------------------------------------------


    POTLOK:  cpu time   14.1046: real time   14.1048


--------------------------------------------------------------------------------------------------------


     LOOP+:  cpu time17803.1188: real time17803.7298
    4ORBIT:  cpu time    0.0000: real time    0.0000

 total amount of memory used by VASP MPI-rank0  5486941. kBytes
=======================================================================

   base      :      30000. kBytes
   nonlr-proj:      17126. kBytes
   fftplans  :     924480. kBytes
   grid      :    1872000. kBytes
   one-center:        886. kBytes
   wavefun   :    2642449. kBytes
 
  
  
 General timing and accounting informations for this job:
 ========================================================
  
                  Total CPU time used (sec):    17871.295
                            User time (sec):    16917.813
                          System time (sec):      953.483
                         Elapsed time (sec):    17871.962
  
                   Maximum memory used (kb):     7178820.
                   Average memory used (kb):           0.
  
                          Minor page faults:    802777909
                          Major page faults:            0
                 Voluntary context switches:          492
