  57  57   0   0
  0.4736842E+03  0.3000000E-08  0.3000000E-08  0.3000000E-08  0.5000000E-15
  1.000000000000000E-004
  CAR 
 6_Pd100_top_free_z(O)                   
      1.35318136    -31.23641647  301     -4.13115733      1.00000000
    -31.236  0.0000E+00  0.0000E+00
    -31.128  0.0000E+00  0.0000E+00
    -31.019  0.0000E+00  0.0000E+00
    -30.911  0.5387E-27  0.5852E-28
    -30.802  0.2894E-23  0.3144E-24
    -30.693  0.8479E-20  0.9214E-21
    -30.585  0.1350E-16  0.1468E-17
    -30.476  0.1165E-13  0.1267E-14
    -30.367  0.5424E-11  0.5905E-12
    -30.259  0.1349E-08  0.1472E-09
    -30.150  0.1775E-06  0.1943E-07
    -30.041  0.1214E-04  0.1338E-05
    -29.933  0.4184E-03  0.4679E-04
    -29.824  0.6821E-02  0.7878E-03
    -29.716  0.4403E-01  0.5571E-02
    -29.607  0.1911E-01  0.7647E-02
    -29.498 -0.5737E+00 -0.5468E-01
    -29.390 -0.1549E+00 -0.7151E-01
    -29.281  0.5682E+01  0.5457E+00
    -29.172  0.9945E+01  0.1626E+01
    -29.064  0.4328E+01  0.2096E+01
    -28.955 -0.5468E+00  0.2037E+01
    -28.847 -0.4269E+00  0.1990E+01
    -28.738  0.4865E-01  0.1996E+01
    -28.629  0.3442E-01  0.1999E+01
    -28.521  0.4401E-02  0.2000E+01
    -28.412  0.2344E-03  0.2000E+01
    -28.303  0.5999E-05  0.2000E+01
    -28.195  0.7792E-07  0.2000E+01
    -28.086  0.5281E-09  0.2000E+01
    -27.977  0.1897E-11  0.2000E+01
    -27.869  0.4088E-14  0.2000E+01
    -27.760  0.0000E+00  0.2000E+01
    -27.652  0.0000E+00  0.2000E+01
    -27.543  0.0000E+00  0.2000E+01
    -27.434  0.0000E+00  0.2000E+01
    -27.326  0.0000E+00  0.2000E+01
    -27.217  0.0000E+00  0.2000E+01
    -27.108  0.0000E+00  0.2000E+01
    -27.000  0.0000E+00  0.2000E+01
    -26.891  0.0000E+00  0.2000E+01
    -26.783  0.0000E+00  0.2000E+01
    -26.674  0.0000E+00  0.2000E+01
    -26.565  0.0000E+00  0.2000E+01
    -26.457  0.0000E+00  0.2000E+01
    -26.348  0.0000E+00  0.2000E+01
    -26.239  0.0000E+00  0.2000E+01
    -26.131  0.0000E+00  0.2000E+01
    -26.022  0.0000E+00  0.2000E+01
    -25.913  0.0000E+00  0.2000E+01
    -25.805  0.0000E+00  0.2000E+01
    -25.696  0.0000E+00  0.2000E+01
    -25.588  0.0000E+00  0.2000E+01
    -25.479  0.0000E+00  0.2000E+01
    -25.370  0.0000E+00  0.2000E+01
    -25.262  0.0000E+00  0.2000E+01
    -25.153  0.0000E+00  0.2000E+01
    -25.044  0.0000E+00  0.2000E+01
    -24.936  0.0000E+00  0.2000E+01
    -24.827  0.0000E+00  0.2000E+01
    -24.718  0.0000E+00  0.2000E+01
    -24.610  0.0000E+00  0.2000E+01
    -24.501  0.0000E+00  0.2000E+01
    -24.393  0.0000E+00  0.2000E+01
    -24.284  0.0000E+00  0.2000E+01
    -24.175  0.0000E+00  0.2000E+01
    -24.067  0.0000E+00  0.2000E+01
    -23.958  0.0000E+00  0.2000E+01
    -23.849  0.0000E+00  0.2000E+01
    -23.741  0.0000E+00  0.2000E+01
    -23.632  0.0000E+00  0.2000E+01
    -23.524  0.0000E+00  0.2000E+01
    -23.415  0.0000E+00  0.2000E+01
    -23.306  0.0000E+00  0.2000E+01
    -23.198  0.0000E+00  0.2000E+01
    -23.089  0.0000E+00  0.2000E+01
    -22.980  0.0000E+00  0.2000E+01
    -22.872  0.0000E+00  0.2000E+01
    -22.763  0.0000E+00  0.2000E+01
    -22.654  0.0000E+00  0.2000E+01
    -22.546  0.0000E+00  0.2000E+01
    -22.437  0.0000E+00  0.2000E+01
    -22.329  0.0000E+00  0.2000E+01
    -22.220  0.0000E+00  0.2000E+01
    -22.111  0.0000E+00  0.2000E+01
    -22.003  0.0000E+00  0.2000E+01
    -21.894  0.0000E+00  0.2000E+01
    -21.785  0.0000E+00  0.2000E+01
    -21.677  0.0000E+00  0.2000E+01
    -21.568  0.0000E+00  0.2000E+01
    -21.460  0.0000E+00  0.2000E+01
    -21.351  0.0000E+00  0.2000E+01
    -21.242  0.0000E+00  0.2000E+01
    -21.134  0.0000E+00  0.2000E+01
    -21.025  0.0000E+00  0.2000E+01
    -20.916  0.0000E+00  0.2000E+01
    -20.808  0.0000E+00  0.2000E+01
    -20.699  0.0000E+00  0.2000E+01
    -20.590  0.0000E+00  0.2000E+01
    -20.482  0.0000E+00  0.2000E+01
    -20.373  0.0000E+00  0.2000E+01
    -20.265  0.0000E+00  0.2000E+01
    -20.156  0.0000E+00  0.2000E+01
    -20.047  0.0000E+00  0.2000E+01
    -19.939  0.0000E+00  0.2000E+01
    -19.830  0.0000E+00  0.2000E+01
    -19.721  0.0000E+00  0.2000E+01
    -19.613  0.0000E+00  0.2000E+01
    -19.504  0.0000E+00  0.2000E+01
    -19.396  0.0000E+00  0.2000E+01
    -19.287  0.0000E+00  0.2000E+01
    -19.178  0.0000E+00  0.2000E+01
    -19.070  0.0000E+00  0.2000E+01
    -18.961  0.0000E+00  0.2000E+01
    -18.852  0.0000E+00  0.2000E+01
    -18.744  0.0000E+00  0.2000E+01
    -18.635  0.0000E+00  0.2000E+01
    -18.526  0.0000E+00  0.2000E+01
    -18.418  0.0000E+00  0.2000E+01
    -18.309  0.0000E+00  0.2000E+01
    -18.201  0.0000E+00  0.2000E+01
    -18.092  0.0000E+00  0.2000E+01
    -17.983  0.0000E+00  0.2000E+01
    -17.875  0.0000E+00  0.2000E+01
    -17.766  0.0000E+00  0.2000E+01
    -17.657  0.0000E+00  0.2000E+01
    -17.549  0.0000E+00  0.2000E+01
    -17.440  0.0000E+00  0.2000E+01
    -17.332  0.0000E+00  0.2000E+01
    -17.223  0.0000E+00  0.2000E+01
    -17.114  0.0000E+00  0.2000E+01
    -17.006  0.0000E+00  0.2000E+01
    -16.897  0.0000E+00  0.2000E+01
    -16.788  0.0000E+00  0.2000E+01
    -16.680  0.0000E+00  0.2000E+01
    -16.571  0.0000E+00  0.2000E+01
    -16.462  0.0000E+00  0.2000E+01
    -16.354  0.0000E+00  0.2000E+01
    -16.245  0.0000E+00  0.2000E+01
    -16.137  0.0000E+00  0.2000E+01
    -16.028  0.0000E+00  0.2000E+01
    -15.919  0.0000E+00  0.2000E+01
    -15.811  0.0000E+00  0.2000E+01
    -15.702  0.0000E+00  0.2000E+01
    -15.593  0.0000E+00  0.2000E+01
    -15.485  0.0000E+00  0.2000E+01
    -15.376  0.6714E-25  0.2000E+01
    -15.268  0.2580E-21  0.2000E+01
    -15.159  0.5398E-18  0.2000E+01
    -15.050  0.6128E-15  0.2000E+01
    -14.942  0.3767E-12  0.2000E+01
    -14.833  0.1240E-09  0.2000E+01
    -14.724  0.2171E-07  0.2000E+01
    -14.616  0.1995E-05  0.2000E+01
    -14.507  0.9387E-04  0.2000E+01
    -14.398  0.2164E-02  0.2000E+01
    -14.290  0.2197E-01  0.2003E+01
    -14.181  0.6385E-01  0.2010E+01
    -14.073 -0.2240E+00  0.1985E+01
    -13.964 -0.7996E+00  0.1898E+01
    -13.855  0.2434E+01  0.2163E+01
    -13.747  0.9206E+01  0.3163E+01
    -13.638  0.7622E+01  0.3991E+01
    -13.529  0.8402E+00  0.4082E+01
    -13.421 -0.7593E+00  0.4000E+01
    -13.312 -0.6718E-01  0.3992E+01
    -13.204  0.5778E-01  0.3999E+01
    -13.095  0.1249E-01  0.4000E+01
    -12.986  0.9566E-03  0.4000E+01
    -12.878  0.3365E-04  0.4000E+01
    -12.769  0.5891E-06  0.4000E+01
    -12.660  0.5344E-08  0.4000E+01
    -12.552  0.4170E-08  0.4000E+01
    -12.443  0.5168E-06  0.4000E+01
    -12.334  0.3343E-04  0.4000E+01
    -12.226  0.1086E-02  0.4000E+01
    -12.117  0.1656E-01  0.4002E+01
    -12.009  0.9709E-01  0.4012E+01
    -11.900 -0.3224E-02  0.4012E+01
    -11.791 -0.1277E+01  0.3873E+01
    -11.683  0.1961E+00  0.3895E+01
    -11.574  0.1261E+02  0.5264E+01
    -11.465  0.1962E+02  0.7395E+01
    -11.357  0.7435E+01  0.8203E+01
    -11.248 -0.1326E+01  0.8059E+01
    -11.139 -0.7208E+00  0.7980E+01
    -11.031  0.1129E+00  0.7993E+01
    -10.922  0.6053E-01  0.7999E+01
    -10.814  0.7122E-02  0.8000E+01
    -10.705  0.3559E-03  0.8000E+01
    -10.596  0.8602E-05  0.8000E+01
    -10.488  0.1568E-06  0.8000E+01
    -10.379  0.4165E-05  0.8000E+01
    -10.270  0.1733E-03  0.8000E+01
    -10.162  0.3489E-02  0.8000E+01
    -10.053  0.2989E-01  0.8004E+01
     -9.945  0.5703E-01  0.8010E+01
     -9.836 -0.3543E+00  0.7971E+01
     -9.727 -0.6724E+00  0.7898E+01
     -9.619  0.3662E+01  0.8296E+01
     -9.510  0.9792E+01  0.9360E+01
     -9.401  0.6360E+01  0.1005E+02
     -9.293  0.1234E+00  0.1006E+02
     -9.184 -0.6444E+00  0.9994E+01
     -9.075 -0.3729E-02  0.9994E+01
     -8.967  0.4896E-01  0.9999E+01
     -8.858  0.8424E-02  0.1000E+02
     -8.750  0.5559E-03  0.1000E+02
     -8.641  0.1720E-04  0.1000E+02
     -8.532  0.2671E-06  0.1000E+02
     -8.424  0.2152E-08  0.1000E+02
     -8.315  0.9161E-11  0.1000E+02
     -8.206  0.2044E-13  0.1000E+02
     -8.098  0.3192E-20  0.1000E+02
     -7.989  0.5493E-17  0.1000E+02
     -7.881  0.5122E-14  0.1000E+02
     -7.772  0.2580E-11  0.1000E+02
     -7.663  0.6950E-09  0.1000E+02
     -7.555  0.9918E-07  0.1000E+02
     -7.446  0.7378E-05  0.1000E+02
     -7.337  0.2781E-03  0.1000E+02
     -7.229  0.5013E-02  0.1000E+02
     -7.120  0.3715E-01  0.1000E+02
     -7.011  0.4199E-01  0.1001E+02
     -6.903 -0.4695E+00  0.9958E+01
     -6.794 -0.4519E+00  0.9909E+01
     -6.686  0.4744E+01  0.1042E+02
     -6.577  0.1013E+02  0.1152E+02
     -6.468  0.5289E+01  0.1210E+02
     -6.360 -0.2153E+01  0.1187E+02
     -6.251 -0.5163E-01  0.1186E+02
     -6.142  0.1906E+02  0.1393E+02
     -6.034  0.2780E+02  0.1695E+02
     -5.925  0.1052E+02  0.1809E+02
     -5.817  0.1595E+02  0.1983E+02
     -5.708  0.5338E+02  0.2563E+02
     -5.599  0.1276E+03  0.3949E+02
     -5.491  0.2525E+03  0.6692E+02
     -5.382  0.3097E+03  0.1006E+03
     -5.273  0.2418E+03  0.1268E+03
     -5.165  0.2072E+03  0.1494E+03
     -5.056  0.2869E+03  0.1805E+03
     -4.947  0.3664E+03  0.2203E+03
     -4.839  0.3289E+03  0.2560E+03
     -4.730  0.2895E+03  0.2875E+03
     -4.622  0.3736E+03  0.3281E+03
     -4.513  0.4339E+03  0.3752E+03
     -4.404  0.4260E+03  0.4215E+03
     -4.296  0.5090E+03  0.4768E+03
     -4.187  0.5539E+03  0.5369E+03
     -4.078  0.3354E+03  0.5734E+03
     -3.970  0.7111E+02  0.5811E+03
     -3.861  0.8679E+01  0.5820E+03
     -3.753  0.3442E+02  0.5858E+03
     -3.644  0.1956E+02  0.5879E+03
     -3.535  0.9824E+01  0.5890E+03
     -3.427  0.2668E+02  0.5919E+03
     -3.318  0.1886E+02  0.5939E+03
     -3.209 -0.2598E+01  0.5936E+03
     -3.101  0.1285E+02  0.5950E+03
     -2.992  0.5785E+02  0.6013E+03
     -2.883  0.6255E+02  0.6081E+03
     -2.775  0.2041E+02  0.6103E+03
     -2.666 -0.3741E+01  0.6099E+03
     -2.558  0.1179E+02  0.6112E+03
     -2.449  0.3083E+02  0.6146E+03
     -2.340  0.2114E+02  0.6169E+03
     -2.232  0.7476E+01  0.6177E+03
     -2.123  0.1925E+02  0.6198E+03
     -2.014  0.4244E+02  0.6244E+03
     -1.906  0.4520E+02  0.6293E+03
     -1.797  0.3882E+02  0.6335E+03
     -1.689  0.4191E+02  0.6380E+03
     -1.580  0.4651E+02  0.6431E+03
     -1.471  0.3932E+02  0.6474E+03
     -1.363  0.2093E+02  0.6496E+03
     -1.254  0.1411E+02  0.6512E+03
     -1.145  0.2271E+02  0.6536E+03
     -1.037  0.2905E+02  0.6568E+03
     -0.928  0.4874E+02  0.6621E+03
     -0.819  0.5167E+02  0.6677E+03
     -0.711  0.2572E+02  0.6705E+03
     -0.602  0.1035E+02  0.6716E+03
     -0.494  0.3984E+01  0.6721E+03
     -0.385 -0.2431E+00  0.6720E+03
     -0.276 -0.4025E+00  0.6720E+03
     -0.168  0.6421E-01  0.6720E+03
     -0.059  0.4857E-01  0.6720E+03
      0.050  0.7036E-02  0.6720E+03
      0.158  0.4235E-03  0.6720E+03
      0.267  0.1220E-04  0.6720E+03
      0.375  0.1779E-06  0.6720E+03
      0.484  0.1351E-08  0.6720E+03
      0.593  0.5427E-11  0.6720E+03
      0.701  0.1226E-13  0.6720E+03
      0.810  0.0000E+00  0.6720E+03
      0.919  0.0000E+00  0.6720E+03
      1.027  0.0000E+00  0.6720E+03
      1.136  0.0000E+00  0.6720E+03
      1.245  0.0000E+00  0.6720E+03
      1.353  0.0000E+00  0.6720E+03
