<?xml version="1.0" encoding="ISO-8859-1"?>
<modeling>
 <generator>
  <i name="program" type="string">vasp </i>
  <i name="version" type="string">5.4.4.18Apr17-6-g9f103f2a35  </i>
  <i name="subversion" type="string">(build Sep 03 2018 23:53:05) complex            parallel </i>
  <i name="platform" type="string">LinuxIFC </i>
  <i name="date" type="string">2021 11 27 </i>
  <i name="time" type="string">03:17:13 </i>
 </generator>
 <incar>
  <i type="string" name="SYSTEM"> 6_Pd100_top_free_z(O)</i>
  <i type="int" name="ISTART">     0</i>
  <i type="string" name="PREC">normal   			! encut=max(enmax), ngx,y,z</i>
  <i type="string" name="ALGO"> Fast     			! Mix RMM-DIIS and Dav</i>
  <i type="logical" name="ADDGRID"> F  </i>
  <i type="int" name="ISPIN">     1</i>
  <i type="int" name="ICHARG">     2</i>
  <i type="int" name="NELM">   100</i>
  <i type="int" name="NELMIN">     6</i>
  <i type="int" name="IBRION">     2</i>
  <i name="EDIFF">      0.00010000</i>
  <i name="EDIFFG">     -0.05000000</i>
  <i type="int" name="NSW">     0</i>
  <i type="int" name="ISIF">     2</i>
  <i type="int" name="ISYM">     2</i>
  <i name="ENCUT">    400.00000000</i>
  <i type="string" name="LREAL"> Auto     			! Auto or A projection done</i>
  <i type="int" name="ISMEAR">     2</i>
  <i name="SIGMA">      0.20000000</i>
  <i type="logical" name="LWAVE"> F  </i>
  <i type="logical" name="LCHARG"> F  </i>
  <v type="int" name="KPOINT_BSE">    -1     0     0     0</v>
  <i type="int" name="MAXMEM"> 10000</i>
  <i type="int" name="NELM">   100</i>
  <i type="string" name="GGA"> RP         			! Revised PBE</i>
 </incar>
 <structure name="primitive_cell" >
  <crystal>
   <varray name="basis" >
    <v>      30.00000000       0.00000000       0.00000000 </v>
    <v>       0.00000000      30.00000000       0.00000000 </v>
    <v>       0.00000000       0.00000000      30.00000000 </v>
   </varray>
   <i name="volume">  27000.00000000 </i>
   <varray name="rec_basis" >
    <v>       0.03333333       0.00000000       0.00000000 </v>
    <v>       0.00000000       0.03333333       0.00000000 </v>
    <v>       0.00000000       0.00000000       0.03333333 </v>
   </varray>
  </crystal>
  <varray name="positions" >
   <v>       0.44576020       0.32826710       0.41691983 </v>
   <v>      -0.44576020       0.32826710       0.41691983 </v>
   <v>      -0.50000000       0.38250690       0.34021317 </v>
   <v>      -0.50000000       0.27609440      -0.50000000 </v>
   <v>       0.38804720       0.38804720       0.34167483 </v>
   <v>      -0.50000000       0.38416601      -0.50000000 </v>
   <v>       0.44208300       0.44208300       0.41809300 </v>
   <v>       0.38317830       0.38317830      -0.50000000 </v>
   <v>      -0.44208300       0.44208300       0.41809300 </v>
   <v>       0.44576020       0.32826710      -0.41691977 </v>
   <v>       0.32826705       0.44576024       0.41691983 </v>
   <v>      -0.38804720       0.38804720       0.34167483 </v>
   <v>      -0.38317830       0.38317830      -0.50000000 </v>
   <v>      -0.50000000      -0.50000000       0.33478917 </v>
   <v>      -0.50000000      -0.50000000      -0.50000000 </v>
   <v>      -0.44576020       0.32826710      -0.41691977 </v>
   <v>       0.38250685      -0.49999995       0.34021317 </v>
   <v>       0.44208300       0.44208300      -0.41809297 </v>
   <v>       0.38416599      -0.49999998      -0.50000000 </v>
   <v>      -0.44208300       0.44208300      -0.41809297 </v>
   <v>       0.44208298      -0.44208298       0.41809300 </v>
   <v>       0.32826705       0.44576024      -0.41691977 </v>
   <v>      -0.50000000       0.38250690      -0.34021320 </v>
   <v>       0.32826712      -0.44576022       0.41691983 </v>
   <v>      -0.38250685      -0.49999995       0.34021317 </v>
   <v>      -0.32826705       0.44576024       0.41691983 </v>
   <v>       0.27609443       0.49999998      -0.50000000 </v>
   <v>       0.38804720       0.38804720      -0.34167487 </v>
   <v>      -0.38416599      -0.49999998      -0.50000000 </v>
   <v>      -0.44208298      -0.44208298       0.41809300 </v>
   <v>      -0.44735370      -0.43711120       0.34759120 </v>
   <v>       0.44208298      -0.44208298      -0.41809297 </v>
   <v>      -0.43591647      -0.42344883       0.31448093 </v>
   <v>      -0.38804720       0.38804720      -0.34167487 </v>
   <v>       0.38804722      -0.38804722       0.34167483 </v>
   <v>       0.38250685      -0.49999995      -0.34021320 </v>
   <v>       0.32826712      -0.44576022      -0.41691977 </v>
   <v>      -0.32826705       0.44576024      -0.41691977 </v>
   <v>       0.50000000      -0.38250681       0.34021317 </v>
   <v>      -0.50000000      -0.38416596      -0.50000000 </v>
   <v>      -0.44208298      -0.44208298      -0.41809297 </v>
   <v>      -0.50000000      -0.50000000      -0.33478913 </v>
   <v>       0.38317828      -0.38317828      -0.50000000 </v>
   <v>      -0.32826712      -0.44576022       0.41691983 </v>
   <v>      -0.27609443       0.49999998      -0.50000000 </v>
   <v>      -0.38804722      -0.38804722       0.34167483 </v>
   <v>      -0.38250685      -0.49999995      -0.34021320 </v>
   <v>       0.44576027      -0.32826707       0.41691983 </v>
   <v>      -0.38317828      -0.38317828      -0.50000000 </v>
   <v>      -0.32826712      -0.44576022      -0.41691977 </v>
   <v>      -0.44576027      -0.32826707       0.41691983 </v>
   <v>       0.38804722      -0.38804722      -0.34167487 </v>
   <v>      -0.50000000      -0.38250681      -0.34021320 </v>
   <v>       0.44576027      -0.32826707      -0.41691977 </v>
   <v>      -0.44576027      -0.32826707      -0.41691977 </v>
   <v>      -0.50000000      -0.27609445       0.50000000 </v>
   <v>      -0.38804722      -0.38804722      -0.34167487 </v>
  </varray>
 </structure>
 <varray name="primitive_index" >
  <v type="int" >        1 </v>
  <v type="int" >        3 </v>
  <v type="int" >        5 </v>
  <v type="int" >        7 </v>
  <v type="int" >       15 </v>
  <v type="int" >       29 </v>
  <v type="int" >       28 </v>
  <v type="int" >       34 </v>
  <v type="int" >       21 </v>
  <v type="int" >       19 </v>
  <v type="int" >       22 </v>
  <v type="int" >       11 </v>
  <v type="int" >       36 </v>
  <v type="int" >       38 </v>
  <v type="int" >       52 </v>
  <v type="int" >       24 </v>
  <v type="int" >       32 </v>
  <v type="int" >       44 </v>
  <v type="int" >       48 </v>
  <v type="int" >       42 </v>
  <v type="int" >       43 </v>
  <v type="int" >       40 </v>
  <v type="int" >        6 </v>
  <v type="int" >        4 </v>
  <v type="int" >       30 </v>
  <v type="int" >       26 </v>
  <v type="int" >        8 </v>
  <v type="int" >       16 </v>
  <v type="int" >       49 </v>
  <v type="int" >       47 </v>
  <v type="int" >       56 </v>
  <v type="int" >       53 </v>
  <v type="int" >       57 </v>
  <v type="int" >       12 </v>
  <v type="int" >       13 </v>
  <v type="int" >       33 </v>
  <v type="int" >       25 </v>
  <v type="int" >       45 </v>
  <v type="int" >       50 </v>
  <v type="int" >       55 </v>
  <v type="int" >       54 </v>
  <v type="int" >       39 </v>
  <v type="int" >       37 </v>
  <v type="int" >        2 </v>
  <v type="int" >        9 </v>
  <v type="int" >       17 </v>
  <v type="int" >       31 </v>
  <v type="int" >       27 </v>
  <v type="int" >       35 </v>
  <v type="int" >       20 </v>
  <v type="int" >       23 </v>
  <v type="int" >       14 </v>
  <v type="int" >       51 </v>
  <v type="int" >       46 </v>
  <v type="int" >       41 </v>
  <v type="int" >       10 </v>
  <v type="int" >       18 </v>
 </varray>
 <kpoints>
  <generation param="Monkhorst-Pack">
   <v type="int" name="divisions">       1        1        1 </v>
   <v name="usershift">      0.00000000       0.00000000       0.00000000 </v>
   <v name="genvec1">      1.00000000       0.00000000       0.00000000 </v>
   <v name="genvec2">      0.00000000       1.00000000       0.00000000 </v>
   <v name="genvec3">      0.00000000       0.00000000       1.00000000 </v>
   <v name="shift">      0.00000000       0.00000000       0.00000000 </v>
  </generation>
  <varray name="kpointlist" >
   <v>       0.00000000       0.00000000       0.00000000 </v>
  </varray>
  <varray name="weights" >
   <v>       1.00000000 </v>
  </varray>
 </kpoints>
 <parameters>
  <separator name="general" >
   <i type="string" name="SYSTEM">6_Pd100_top_free_z(O)</i>
   <i type="logical" name="LCOMPAT"> F  </i>
  </separator>
  <separator name="electronic" >
   <i type="string" name="PREC">normal</i>
   <i name="ENMAX">    400.00000000</i>
   <i name="ENAUG">    644.87300000</i>
   <i name="EDIFF">      0.00010000</i>
   <i type="int" name="IALGO">    68</i>
   <i type="int" name="IWAVPR">    10</i>
   <i type="int" name="NBANDS">   336</i>
   <i name="NELECT">    560.00000000</i>
   <i type="int" name="TURBO">     0</i>
   <i type="int" name="IRESTART">     0</i>
   <i type="int" name="NREBOOT">     0</i>
   <i type="int" name="NMIN">     0</i>
   <i name="EREF">      0.00000000</i>
   <separator name="electronic smearing" >
    <i type="int" name="ISMEAR">     2</i>
    <i name="SIGMA">      0.20000000</i>
    <i name="KSPACING">      0.50000000</i>
    <i type="logical" name="KGAMMA"> T  </i>
   </separator>
   <separator name="electronic projectors" >
    <i type="logical" name="LREAL"> T  </i>
    <v name="ROPT">     -0.00050000     -0.00050000     -0.00050000</v>
    <i type="int" name="LMAXPAW">  -100</i>
    <i type="int" name="LMAXMIX">     2</i>
    <i type="logical" name="NLSPLINE"> F  </i>
   </separator>
   <separator name="electronic startup" >
    <i type="int" name="ISTART">     0</i>
    <i type="int" name="ICHARG">     2</i>
    <i type="int" name="INIWAV">     1</i>
   </separator>
   <separator name="electronic spin" >
    <i type="int" name="ISPIN">     1</i>
    <i type="logical" name="LNONCOLLINEAR"> F  </i>
    <v name="MAGMOM">      1.00000000      1.00000000      1.00000000      1.00000000      1.00000000      1.00000000      1.00000000      1.00000000      1.00000000      1.00000000      1.00000000      1.00000000      1.00000000      1.00000000      1.00000000      1.00000000      1.00000000      1.00000000      1.00000000      1.00000000
      1.00000000      1.00000000      1.00000000      1.00000000      1.00000000      1.00000000      1.00000000      1.00000000      1.00000000      1.00000000      1.00000000      1.00000000      1.00000000      1.00000000      1.00000000      1.00000000      1.00000000      1.00000000      1.00000000      1.00000000
      1.00000000      1.00000000      1.00000000      1.00000000      1.00000000      1.00000000      1.00000000      1.00000000      1.00000000      1.00000000      1.00000000      1.00000000      1.00000000      1.00000000      1.00000000      1.00000000      1.00000000</v>
    <i name="NUPDOWN">     -1.00000000</i>
    <i type="logical" name="LSORBIT"> F  </i>
    <v name="SAXIS">      0.00000000      0.00000000      1.00000000</v>
    <i type="logical" name="LSPIRAL"> F  </i>
    <v name="QSPIRAL">      0.00000000      0.00000000      0.00000000</v>
    <i type="logical" name="LZEROZ"> F  </i>
   </separator>
   <separator name="electronic exchange-correlation" >
    <i type="logical" name="LASPH"> F  </i>
    <i type="logical" name="LMETAGGA"> F  </i>
   </separator>
   <separator name="electronic convergence" >
    <i type="int" name="NELM">   100</i>
    <i type="int" name="NELMDL">    -5</i>
    <i type="int" name="NELMIN">     6</i>
    <i name="ENINI">    400.00000000</i>
    <separator name="electronic convergence detail" >
     <i type="logical" name="LDIAG"> T  </i>
     <i type="logical" name="LSUBROT"> F  </i>
     <i name="WEIMIN">      0.00000000</i>
     <i name="EBREAK">      0.00000007</i>
     <i name="DEPER">      0.30000000</i>
     <i type="int" name="NRMM">     4</i>
     <i name="TIME">      0.40000000</i>
    </separator>
   </separator>
   <separator name="electronic mixer" >
    <i name="AMIX">      0.40000000</i>
    <i name="BMIX">      1.00000000</i>
    <i name="AMIN">      0.10000000</i>
    <i name="AMIX_MAG">      1.60000000</i>
    <i name="BMIX_MAG">      1.00000000</i>
    <separator name="electronic mixer details" >
     <i type="int" name="IMIX">     4</i>
     <i type="logical" name="MIXFIRST"> F  </i>
     <i type="int" name="MAXMIX">   -45</i>
     <i name="WC">    100.00000000</i>
     <i type="int" name="INIMIX">     1</i>
     <i type="int" name="MIXPRE">     1</i>
     <i type="int" name="MREMOVE">     5</i>
    </separator>
   </separator>
   <separator name="electronic dipolcorrection" >
    <i type="logical" name="LDIPOL"> F  </i>
    <i type="logical" name="LMONO"> F  </i>
    <i type="int" name="IDIPOL">     0</i>
    <i name="EPSILON">      1.00000000</i>
    <v name="DIPOL">   -100.00000000   -100.00000000   -100.00000000</v>
    <i name="EFIELD">      0.00000000</i>
   </separator>
  </separator>
  <separator name="grids" >
   <i type="int" name="NGX">   150</i>
   <i type="int" name="NGY">   150</i>
   <i type="int" name="NGZ">   150</i>
   <i type="int" name="NGXF">   300</i>
   <i type="int" name="NGYF">   300</i>
   <i type="int" name="NGZF">   300</i>
   <i type="logical" name="ADDGRID"> F  </i>
  </separator>
  <separator name="ionic" >
   <i type="int" name="NSW">     0</i>
   <i type="int" name="IBRION">    -1</i>
   <i type="int" name="MDALGO">     0</i>
   <i type="int" name="ISIF">     2</i>
   <i name="PSTRESS">      0.00000000</i>
   <i name="EDIFFG">     -0.05000000</i>
   <i type="int" name="NFREE">     1</i>
   <i name="POTIM">      0.50000000</i>
   <i name="SMASS">     -3.00000000</i>
   <i name="SCALEE">      1.00000000</i>
  </separator>
  <separator name="ionic md" >
   <i name="TEBEG">      0.00010000</i>
   <i name="TEEND">      0.00010000</i>
   <i type="int" name="NBLOCK">     1</i>
   <i type="int" name="KBLOCK">     1</i>
   <i type="int" name="NPACO">   256</i>
   <i name="APACO">     16.00000000</i>
  </separator>
  <separator name="symmetry" >
   <i type="int" name="ISYM">     2</i>
   <i name="SYMPREC">      0.00001000</i>
  </separator>
  <separator name="dos" >
   <i type="int" name="LORBIT">     0</i>
   <v name="RWIGS">     -1.00000000     -1.00000000     -1.00000000</v>
   <i type="int" name="NEDOS">   301</i>
   <i name="EMIN">     10.00000000</i>
   <i name="EMAX">    -10.00000000</i>
   <i name="EFERMI">      0.00000000</i>
  </separator>
  <separator name="writing" >
   <i type="int" name="NWRITE">     2</i>
   <i type="logical" name="LWAVE"> F  </i>
   <i type="logical" name="LDOWNSAMPLE"> F  </i>
   <i type="logical" name="LCHARG"> F  </i>
   <i type="logical" name="LPARD"> F  </i>
   <i type="logical" name="LVTOT"> F  </i>
   <i type="logical" name="LVHAR"> F  </i>
   <i type="logical" name="LELF"> F  </i>
   <i type="logical" name="LOPTICS"> F  </i>
   <v name="STM">      0.00000000      0.00000000      0.00000000      0.00000000      0.00000000      0.00000000      0.00000000</v>
  </separator>
  <separator name="performance" >
   <i type="int" name="NPAR">     1</i>
   <i type="int" name="NSIM">     4</i>
   <i type="int" name="NBLK">    -1</i>
   <i type="logical" name="LPLANE"> T  </i>
   <i type="logical" name="LSCALAPACK"> T  </i>
   <i type="logical" name="LSCAAWARE"> F  </i>
   <i type="logical" name="LSCALU"> F  </i>
   <i type="logical" name="LASYNC"> F  </i>
   <i type="logical" name="LORBITALREAL"> F  </i>
  </separator>
  <separator name="miscellaneous" >
   <i type="int" name="IDIOT">     3</i>
   <i type="int" name="ISPECIAL">     0</i>
   <i type="logical" name="LMUSIC"> F  </i>
   <v name="POMASS">    106.42000000     12.01100000     16.00000000</v>
   <v name="DARWINR">      0.00000000      0.00000000      0.00000000</v>
   <v name="DARWINV">      1.00000000      1.00000000      1.00000000</v>
   <i type="logical" name="LCORR"> T  </i>
  </separator>
  <i type="logical" name="GGA_COMPAT"> T  </i>
  <i type="logical" name="LBERRY"> F  </i>
  <i type="int" name="ICORELEVEL">     0</i>
  <i type="logical" name="LDAU"> F  </i>
  <i type="int" name="I_CONSTRAINED_M">     0</i>
  <separator name="electronic exchange-correlation" >
   <i type="string" name="GGA">RP</i>
   <i type="int" name="VOSKOWN">     0</i>
   <i type="logical" name="LHFCALC"> F  </i>
   <i type="string" name="PRECFOCK"></i>
   <i type="logical" name="LSYMGRAD"> F  </i>
   <i type="logical" name="LHFONE"> F  </i>
   <i type="logical" name="LRHFCALC"> F  </i>
   <i type="logical" name="LTHOMAS"> F  </i>
   <i type="logical" name="LMODELHF"> F  </i>
   <i name="ENCUT4O">     -1.00000000</i>
   <i type="int" name="EXXOEP">     0</i>
   <i type="int" name="FOURORBIT">     0</i>
   <i name="AEXX">      0.00000000</i>
   <i name="HFALPHA">      0.00000000</i>
   <i name="MCALPHA">      0.00000000</i>
   <i name="ALDAX">      1.00000000</i>
   <i name="AGGAX">      1.00000000</i>
   <i name="ALDAC">      1.00000000</i>
   <i name="AGGAC">      1.00000000</i>
   <i type="int" name="NKREDX">     1</i>
   <i type="int" name="NKREDY">     1</i>
   <i type="int" name="NKREDZ">     1</i>
   <i type="logical" name="SHIFTRED"> F  </i>
   <i type="logical" name="ODDONLY"> F  </i>
   <i type="logical" name="EVENONLY"> F  </i>
   <i type="int" name="LMAXFOCK">     0</i>
   <i type="int" name="NMAXFOCKAE">     0</i>
   <i type="logical" name="LFOCKAEDFT"> F  </i>
   <i name="HFSCREEN">      0.00000000</i>
   <i name="HFSCREENC">      0.00000000</i>
   <i type="int" name="NBANDSGWLOW">     0</i>
  </separator>
  <separator name="vdW DFT" >
   <i type="logical" name="LUSE_VDW"> F  </i>
   <i name="Zab_VDW">     -0.84910000</i>
   <i name="PARAM1">      0.12340000</i>
   <i name="PARAM2">      1.00000000</i>
   <i name="PARAM3">      0.00000000</i>
  </separator>
  <separator name="model GW" >
   <i type="int" name="MODEL_GW">     0</i>
   <i name="MODEL_EPS0">    284.21052632</i>
   <i name="MODEL_ALPHA">      1.00000000</i>
  </separator>
  <separator name="linear response parameters" >
   <i type="logical" name="LEPSILON"> F  </i>
   <i type="logical" name="LRPA"> F  </i>
   <i type="logical" name="LNABLA"> F  </i>
   <i type="logical" name="LVEL"> F  </i>
   <i type="int" name="KINTER">     0</i>
   <i name="CSHIFT">      0.10000000</i>
   <i name="OMEGAMAX">     -1.00000000</i>
   <i name="DEG_THRESHOLD">      0.00200000</i>
   <i name="RTIME">     -0.10000000</i>
   <i name="WPLASMAI">      0.00000000</i>
   <v name="DFIELD">      0.00000000      0.00000000      0.00000000</v>
   <v name="WPLASMA">      0.00000000      0.00000000      0.00000000      0.00000000      0.00000000      0.00000000      0.00000000      0.00000000      0.00000000</v>
  </separator>
  <separator name="orbital magnetization" >
   <i type="logical" name="NUCIND"> F  </i>
   <v name="MAGPOS">      0.00000000      0.00000000      0.00000000</v>
   <i type="logical" name="LNICSALL"> T  </i>
   <i type="logical" name="ORBITALMAG"> F  </i>
   <i type="logical" name="LMAGBLOCH"> F  </i>
   <i type="logical" name="LCHIMAG"> F  </i>
   <i type="logical" name="LGAUGE"> T  </i>
   <i type="int" name="MAGATOM">     0</i>
   <v name="MAGDIPOL">      0.00000000      0.00000000      0.00000000</v>
   <v name="AVECCONST">      0.00000000      0.00000000      0.00000000</v>
  </separator>
  <separator name="response functions" >
   <i type="logical" name="LADDER"> F  </i>
   <i type="logical" name="LRPAFORCE"> F  </i>
   <i type="logical" name="LFXC"> F  </i>
   <i type="logical" name="LHARTREE"> T  </i>
   <i type="int" name="IBSE">     0</i>
   <v type="int" name="KPOINT">    -1     0     0     0</v>
   <i type="logical" name="LTCTE"> F  </i>
   <i type="logical" name="LTETE"> F  </i>
   <i type="logical" name="LTRIPLET"> F  </i>
   <i type="logical" name="LFXCEPS"> F  </i>
   <i type="logical" name="LFXHEG"> F  </i>
   <i type="int" name="NATURALO">     2</i>
   <i type="logical" name="L2ORDER"> F  </i>
   <i type="logical" name="LMP2LT"> F  </i>
   <i type="logical" name="LUSEW"> F  </i>
   <i name="ENCUTGW">     -2.00000000</i>
   <i name="ENCUTGWSOFT">     -2.00000000</i>
   <i name="ENCUTLF">     -1.00000000</i>
   <i type="int" name="LMAXMP2">    -1</i>
   <i name="SCISSOR">      0.00000000</i>
   <i type="int" name="NOMEGA">     0</i>
   <i type="int" name="NOMEGAR">     0</i>
   <i type="int" name="NBANDSGW">    -1</i>
   <i type="int" name="NBANDSO">    -1</i>
   <i type="int" name="NBANDSV">    -1</i>
   <i type="int" name="NELM">   100</i>
   <i type="int" name="NELMHF">     1</i>
   <i type="int" name="DIM">     3</i>
   <i type="int" name="ANTIRES">     0</i>
   <i name="OMEGAMAX">    -30.00000000</i>
   <i name="OMEGAMIN">    -30.00000000</i>
   <i name="OMEGATL">   -200.00000000</i>
   <i type="int" name="OMEGAGRID">   140</i>
   <i name="CSHIFT">     -0.10000000</i>
   <i type="logical" name="SELFENERGY"> F  </i>
   <i type="logical" name="LSPECTRAL"> F  </i>
   <i type="logical" name="LSPECTRALGW"> F  </i>
   <i type="logical" name="LSINGLES"> F  </i>
   <i type="logical" name="LFERMIGW"> F  </i>
   <i type="logical" name="ODDONLYGW"> F  </i>
   <i type="logical" name="EVENONLYGW"> F  </i>
   <i type="int" name="NKREDLFX">     1</i>
   <i type="int" name="NKREDLFY">     1</i>
   <i type="int" name="NKREDLFZ">     1</i>
   <i type="int" name="MAXMEM"> 10000</i>
   <i type="int" name="TELESCOPE">     0</i>
   <i type="int" name="TAUPAR">     1</i>
   <i type="int" name="OMEGAPAR">    -1</i>
   <i name="LAMBDA">      1.00000000</i>
  </separator>
  <separator name="External order field" >
   <i name="OFIELD_KAPPA">      0.00000000</i>
   <v name="OFIELD_K">      0.00000000      0.00000000      0.00000000</v>
   <i name="OFIELD_Q6_NEAR">      0.00000000</i>
   <i name="OFIELD_Q6_FAR">      0.00000000</i>
   <i name="OFIELD_A">      0.00000000</i>
  </separator>
 </parameters>
 <atominfo>
  <atoms>      57 </atoms>
  <types>       3 </types>
  <array name="atoms" >
   <dimension dim="1">ion</dimension>
   <field type="string">element</field>
   <field type="int">atomtype</field>
   <set>
    <rc><c>Pd</c><c>   1</c></rc>
    <rc><c>Pd</c><c>   1</c></rc>
    <rc><c>Pd</c><c>   1</c></rc>
    <rc><c>Pd</c><c>   1</c></rc>
    <rc><c>Pd</c><c>   1</c></rc>
    <rc><c>Pd</c><c>   1</c></rc>
    <rc><c>Pd</c><c>   1</c></rc>
    <rc><c>Pd</c><c>   1</c></rc>
    <rc><c>Pd</c><c>   1</c></rc>
    <rc><c>Pd</c><c>   1</c></rc>
    <rc><c>Pd</c><c>   1</c></rc>
    <rc><c>Pd</c><c>   1</c></rc>
    <rc><c>Pd</c><c>   1</c></rc>
    <rc><c>Pd</c><c>   1</c></rc>
    <rc><c>Pd</c><c>   1</c></rc>
    <rc><c>Pd</c><c>   1</c></rc>
    <rc><c>Pd</c><c>   1</c></rc>
    <rc><c>Pd</c><c>   1</c></rc>
    <rc><c>Pd</c><c>   1</c></rc>
    <rc><c>Pd</c><c>   1</c></rc>
    <rc><c>Pd</c><c>   1</c></rc>
    <rc><c>Pd</c><c>   1</c></rc>
    <rc><c>Pd</c><c>   1</c></rc>
    <rc><c>Pd</c><c>   1</c></rc>
    <rc><c>Pd</c><c>   1</c></rc>
    <rc><c>Pd</c><c>   1</c></rc>
    <rc><c>Pd</c><c>   1</c></rc>
    <rc><c>Pd</c><c>   1</c></rc>
    <rc><c>Pd</c><c>   1</c></rc>
    <rc><c>Pd</c><c>   1</c></rc>
    <rc><c>Pd</c><c>   1</c></rc>
    <rc><c>Pd</c><c>   1</c></rc>
    <rc><c>Pd</c><c>   1</c></rc>
    <rc><c>Pd</c><c>   1</c></rc>
    <rc><c>Pd</c><c>   1</c></rc>
    <rc><c>Pd</c><c>   1</c></rc>
    <rc><c>Pd</c><c>   1</c></rc>
    <rc><c>Pd</c><c>   1</c></rc>
    <rc><c>Pd</c><c>   1</c></rc>
    <rc><c>Pd</c><c>   1</c></rc>
    <rc><c>Pd</c><c>   1</c></rc>
    <rc><c>Pd</c><c>   1</c></rc>
    <rc><c>Pd</c><c>   1</c></rc>
    <rc><c>Pd</c><c>   1</c></rc>
    <rc><c>Pd</c><c>   1</c></rc>
    <rc><c>Pd</c><c>   1</c></rc>
    <rc><c>Pd</c><c>   1</c></rc>
    <rc><c>Pd</c><c>   1</c></rc>
    <rc><c>Pd</c><c>   1</c></rc>
    <rc><c>Pd</c><c>   1</c></rc>
    <rc><c>Pd</c><c>   1</c></rc>
    <rc><c>Pd</c><c>   1</c></rc>
    <rc><c>Pd</c><c>   1</c></rc>
    <rc><c>Pd</c><c>   1</c></rc>
    <rc><c>Pd</c><c>   1</c></rc>
    <rc><c>C </c><c>   2</c></rc>
    <rc><c>O </c><c>   3</c></rc>
   </set>
  </array>
  <array name="atomtypes" >
   <dimension dim="1">type</dimension>
   <field type="int">atomspertype</field>
   <field type="string">element</field>
   <field>mass</field>
   <field>valence</field>
   <field type="string">pseudopotential</field>
   <set>
    <rc><c>  55</c><c>Pd</c><c>    106.42000000</c><c>     10.00000000</c><c>  PAW_PBE Pd 04Jan2005                  </c></rc>
    <rc><c>   1</c><c>C </c><c>     12.01100000</c><c>      4.00000000</c><c>  PAW_PBE C 08Apr2002                   </c></rc>
    <rc><c>   1</c><c>O </c><c>     16.00000000</c><c>      6.00000000</c><c>  PAW_PBE O 08Apr2002                   </c></rc>
   </set>
  </array>
 </atominfo>
 <structure name="initialpos" >
  <crystal>
   <varray name="basis" >
    <v>      30.00000000       0.00000000       0.00000000 </v>
    <v>       0.00000000      30.00000000       0.00000000 </v>
    <v>       0.00000000       0.00000000      30.00000000 </v>
   </varray>
   <i name="volume">  27000.00000000 </i>
   <varray name="rec_basis" >
    <v>       0.03333333       0.00000000       0.00000000 </v>
    <v>       0.00000000       0.03333333       0.00000000 </v>
    <v>       0.00000000       0.00000000       0.03333333 </v>
   </varray>
  </crystal>
  <varray name="positions" >
   <v>       0.44576020       0.32826710       0.41691983 </v>
   <v>       0.67173288       0.55423978       0.41691983 </v>
   <v>       0.55423980       0.32826710       0.41691983 </v>
   <v>       0.32826712       0.55423978       0.41691983 </v>
   <v>       0.50000000       0.38250690       0.34021317 </v>
   <v>       0.50000000       0.38250690       0.65978680 </v>
   <v>       0.50000000       0.27609440       0.50000000 </v>
   <v>       0.27609443       0.49999998       0.50000000 </v>
   <v>       0.72390557       0.49999998       0.50000000 </v>
   <v>       0.50000000       0.72390555       0.50000000 </v>
   <v>       0.61195280       0.38804720       0.34167483 </v>
   <v>       0.61195280       0.38804720       0.65832513 </v>
   <v>       0.38804722       0.61195278       0.34167483 </v>
   <v>       0.38804722       0.61195278       0.65832513 </v>
   <v>       0.38804720       0.38804720       0.34167483 </v>
   <v>       0.38804720       0.38804720       0.65832513 </v>
   <v>       0.61195278       0.61195278       0.34167483 </v>
   <v>       0.61195278       0.61195278       0.65832513 </v>
   <v>       0.44576020       0.32826710       0.58308023 </v>
   <v>       0.67173288       0.55423978       0.58308023 </v>
   <v>       0.55791699       0.44208301       0.41809300 </v>
   <v>       0.32826705       0.44576024       0.41691983 </v>
   <v>       0.55423973       0.67173293       0.41691983 </v>
   <v>       0.55423980       0.32826710       0.58308023 </v>
   <v>       0.32826712       0.55423978       0.58308023 </v>
   <v>       0.67173295       0.44576024       0.41691983 </v>
   <v>       0.44576027       0.67173293       0.41691983 </v>
   <v>       0.44208301       0.44208301       0.41809300 </v>
   <v>       0.50000000       0.38416601       0.50000000 </v>
   <v>       0.61749315       0.50000005       0.34021317 </v>
   <v>       0.61749315       0.50000005       0.65978680 </v>
   <v>       0.38250685       0.50000005       0.34021317 </v>
   <v>       0.38250685       0.50000005       0.65978680 </v>
   <v>       0.38317830       0.38317830       0.50000000 </v>
   <v>       0.61682172       0.61682172       0.50000000 </v>
   <v>       0.61682170       0.38317830       0.50000000 </v>
   <v>       0.38317828       0.61682172       0.50000000 </v>
   <v>       0.50000000       0.50000000       0.33478917 </v>
   <v>       0.50000000       0.50000000       0.66521087 </v>
   <v>       0.32826705       0.44576024       0.58308023 </v>
   <v>       0.55423973       0.67173293       0.58308023 </v>
   <v>       0.55791699       0.44208301       0.58190703 </v>
   <v>       0.44208298       0.55791702       0.41809300 </v>
   <v>       0.44208301       0.44208301       0.58190703 </v>
   <v>       0.67173295       0.44576024       0.58308023 </v>
   <v>       0.44576027       0.67173293       0.58308023 </v>
   <v>       0.55791702       0.55791702       0.41809300 </v>
   <v>       0.38416599       0.50000002       0.50000000 </v>
   <v>       0.61583401       0.50000002       0.50000000 </v>
   <v>       0.50000000       0.61749319       0.34021317 </v>
   <v>       0.50000000       0.61749319       0.65978680 </v>
   <v>       0.50000000       0.50000000       0.50000000 </v>
   <v>       0.44208298       0.55791702       0.58190703 </v>
   <v>       0.55791702       0.55791702       0.58190703 </v>
   <v>       0.50000000       0.61583404       0.50000000 </v>
   <v>       0.55264630       0.56288880       0.34759120 </v>
   <v>       0.56408353       0.57655117       0.31448093 </v>
  </varray>
  <varray name="selective"  type="logical" >
   <v type="logical" >  F  F  F </v>
   <v type="logical" >  F  F  F </v>
   <v type="logical" >  F  F  F </v>
   <v type="logical" >  F  F  F </v>
   <v type="logical" >  F  F  F </v>
   <v type="logical" >  F  F  F </v>
   <v type="logical" >  F  F  F </v>
   <v type="logical" >  F  F  F </v>
   <v type="logical" >  F  F  F </v>
   <v type="logical" >  F  F  F </v>
   <v type="logical" >  F  F  F </v>
   <v type="logical" >  F  F  F </v>
   <v type="logical" >  F  F  F </v>
   <v type="logical" >  F  F  F </v>
   <v type="logical" >  F  F  F </v>
   <v type="logical" >  F  F  F </v>
   <v type="logical" >  F  F  F </v>
   <v type="logical" >  F  F  F </v>
   <v type="logical" >  F  F  F </v>
   <v type="logical" >  F  F  F </v>
   <v type="logical" >  F  F  F </v>
   <v type="logical" >  F  F  F </v>
   <v type="logical" >  F  F  F </v>
   <v type="logical" >  F  F  F </v>
   <v type="logical" >  F  F  F </v>
   <v type="logical" >  F  F  F </v>
   <v type="logical" >  F  F  F </v>
   <v type="logical" >  F  F  F </v>
   <v type="logical" >  F  F  F </v>
   <v type="logical" >  F  F  F </v>
   <v type="logical" >  F  F  F </v>
   <v type="logical" >  F  F  F </v>
   <v type="logical" >  F  F  F </v>
   <v type="logical" >  F  F  F </v>
   <v type="logical" >  F  F  F </v>
   <v type="logical" >  F  F  F </v>
   <v type="logical" >  F  F  F </v>
   <v type="logical" >  F  F  F </v>
   <v type="logical" >  F  F  F </v>
   <v type="logical" >  F  F  F </v>
   <v type="logical" >  F  F  F </v>
   <v type="logical" >  F  F  F </v>
   <v type="logical" >  F  F  F </v>
   <v type="logical" >  F  F  F </v>
   <v type="logical" >  F  F  F </v>
   <v type="logical" >  F  F  F </v>
   <v type="logical" >  F  F  F </v>
   <v type="logical" >  F  F  F </v>
   <v type="logical" >  F  F  F </v>
   <v type="logical" >  F  F  F </v>
   <v type="logical" >  F  F  F </v>
   <v type="logical" >  F  F  F </v>
   <v type="logical" >  F  F  F </v>
   <v type="logical" >  F  F  F </v>
   <v type="logical" >  F  F  F </v>
   <v type="logical" >  F  F  F </v>
   <v type="logical" >  F  F  F </v>
  </varray>
  <nose>
   <v>      -3.00000000       0.00000000       0.00010000       0.00010000 </v>
  </nose>
 </structure>
 <calculation>
  <scstep>
   <time name="dav">  448.56  448.68</time>
   <time name="total">  463.72  463.84</time>
   <energy>
    <i name="alphaZ">     75.25431677 </i>
    <i name="ewald"> 140804.62901040 </i>
    <i name="hartreedc">-184150.83968588 </i>
    <i name="XCdc">  -1700.80245799 </i>
    <i name="pawpsdc">  44873.02882129 </i>
    <i name="pawaedc"> -41398.84523641 </i>
    <i name="eentropy">      0.02460134 </i>
    <i name="bandstr">    814.37535430 </i>
    <i name="atom">  45086.50549395 </i>
    <i name="e_fr_energy">   4403.33021776 </i>
    <i name="e_wo_entrp">   4403.30561642 </i>
    <i name="e_0_energy">   4403.32406742 </i>
   </energy>
  </scstep>
  <scstep>
   <time name="dav">  695.13  695.18</time>
   <time name="total">  695.13  695.18</time>
   <energy>
    <i name="e_fr_energy">   2032.73456609 </i>
    <i name="e_wo_entrp">   2032.76609726 </i>
    <i name="e_0_energy">   2032.74244888 </i>
   </energy>
  </scstep>
  <scstep>
   <time name="dav">  595.06  595.11</time>
   <time name="total">  595.06  595.11</time>
   <energy>
    <i name="e_fr_energy">    248.47336694 </i>
    <i name="e_wo_entrp">    248.45934688 </i>
    <i name="e_0_energy">    248.46986193 </i>
   </energy>
  </scstep>
  <scstep>
   <time name="dav">  490.81  490.85</time>
   <time name="total">  490.81  490.85</time>
   <energy>
    <i name="e_fr_energy">   -131.86519032 </i>
    <i name="e_wo_entrp">   -131.86481639 </i>
    <i name="e_0_energy">   -131.86509684 </i>
   </energy>
  </scstep>
  <scstep>
   <time name="dav">  624.60  624.67</time>
   <time name="total">  650.91  650.98</time>
   <energy>
    <i name="e_fr_energy">   -179.23844832 </i>
    <i name="e_wo_entrp">   -179.72322650 </i>
    <i name="e_0_energy">   -179.35964287 </i>
   </energy>
  </scstep>
  <scstep>
   <time name="diag">   81.53   81.54</time>
   <time name="diis">  192.35  192.38</time>
   <time name="orth">   22.01   22.01</time>
   <time name="total">  336.22  336.26</time>
   <energy>
    <i name="e_fr_energy">   -180.69292813 </i>
    <i name="e_wo_entrp">   -180.49019342 </i>
    <i name="e_0_energy">   -180.64224445 </i>
   </energy>
  </scstep>
  <scstep>
   <time name="diag">   81.83   81.84</time>
   <time name="diis">  230.58  230.61</time>
   <time name="orth">   22.58   22.58</time>
   <time name="total">  377.17  377.22</time>
   <energy>
    <i name="e_fr_energy">   -182.74006307 </i>
    <i name="e_wo_entrp">   -182.67988856 </i>
    <i name="e_0_energy">   -182.72501944 </i>
   </energy>
  </scstep>
  <scstep>
   <time name="diag">   87.78   87.79</time>
   <time name="diis">  240.50  240.53</time>
   <time name="orth">   23.26   23.26</time>
   <time name="total">  396.04  396.08</time>
   <energy>
    <i name="e_fr_energy">   -182.74497843 </i>
    <i name="e_wo_entrp">   -182.68363745 </i>
    <i name="e_0_energy">   -182.72964318 </i>
   </energy>
  </scstep>
  <scstep>
   <time name="diag">   89.79   89.80</time>
   <time name="diis">  195.11  195.13</time>
   <time name="orth">   21.73   21.74</time>
   <time name="total">  348.16  348.20</time>
   <energy>
    <i name="e_fr_energy">   -181.61561815 </i>
    <i name="e_wo_entrp">   -181.46386253 </i>
    <i name="e_0_energy">   -181.57767924 </i>
   </energy>
  </scstep>
  <scstep>
   <time name="diag">   79.24   79.25</time>
   <time name="diis">  194.73  194.75</time>
   <time name="orth">   21.91   21.91</time>
   <time name="total">  335.75  335.78</time>
   <energy>
    <i name="e_fr_energy">   -179.77977459 </i>
    <i name="e_wo_entrp">   -179.72207856 </i>
    <i name="e_0_energy">   -179.76535059 </i>
   </energy>
  </scstep>
  <scstep>
   <time name="diag">   82.17   82.18</time>
   <time name="diis">  194.63  194.65</time>
   <time name="orth">   22.00   22.01</time>
   <time name="total">  339.22  339.26</time>
   <energy>
    <i name="e_fr_energy">   -178.73499302 </i>
    <i name="e_wo_entrp">   -178.78747888 </i>
    <i name="e_0_energy">   -178.74811448 </i>
   </energy>
  </scstep>
  <scstep>
   <time name="diag">   82.41   82.42</time>
   <time name="diis">  194.17  194.18</time>
   <time name="orth">   21.91   21.91</time>
   <time name="total">  338.84  338.88</time>
   <energy>
    <i name="e_fr_energy">   -177.81771238 </i>
    <i name="e_wo_entrp">   -177.79551455 </i>
    <i name="e_0_energy">   -177.81216292 </i>
   </energy>
  </scstep>
  <scstep>
   <time name="diag">   82.68   82.69</time>
   <time name="diis">  209.66  209.68</time>
   <time name="orth">   22.78   22.78</time>
   <time name="total">  357.52  357.55</time>
   <energy>
    <i name="e_fr_energy">   -176.55930114 </i>
    <i name="e_wo_entrp">   -176.60495175 </i>
    <i name="e_0_energy">   -176.57071379 </i>
   </energy>
  </scstep>
  <scstep>
   <time name="diag">   86.69   86.70</time>
   <time name="diis">  215.00  215.02</time>
   <time name="orth">   22.66   22.66</time>
   <time name="total">  368.26  368.30</time>
   <energy>
    <i name="e_fr_energy">   -176.99409058 </i>
    <i name="e_wo_entrp">   -176.95877791 </i>
    <i name="e_0_energy">   -176.98526241 </i>
   </energy>
  </scstep>
  <scstep>
   <time name="diag">   89.68   89.69</time>
   <time name="diis">  182.54  182.56</time>
   <time name="orth">   21.62   21.62</time>
   <time name="total">  334.16  334.19</time>
   <energy>
    <i name="e_fr_energy">   -176.02208481 </i>
    <i name="e_wo_entrp">   -176.05973228 </i>
    <i name="e_0_energy">   -176.03149668 </i>
   </energy>
  </scstep>
  <scstep>
   <time name="diag">   80.57   80.58</time>
   <time name="diis">  187.22  187.23</time>
   <time name="orth">   21.88   21.88</time>
   <time name="total">  329.70  329.72</time>
   <energy>
    <i name="e_fr_energy">   -175.30401832 </i>
    <i name="e_wo_entrp">   -175.29580416 </i>
    <i name="e_0_energy">   -175.30196478 </i>
   </energy>
  </scstep>
  <scstep>
   <time name="diag">   82.18   82.19</time>
   <time name="diis">  187.39  187.40</time>
   <time name="orth">   21.88   21.88</time>
   <time name="total">  331.92  331.95</time>
   <energy>
    <i name="e_fr_energy">   -174.75182371 </i>
    <i name="e_wo_entrp">   -174.77010033 </i>
    <i name="e_0_energy">   -174.75639286 </i>
   </energy>
  </scstep>
  <scstep>
   <time name="diag">   81.87   81.88</time>
   <time name="diis">  187.62  187.64</time>
   <time name="orth">   21.86   21.86</time>
   <time name="total">  331.81  331.84</time>
   <energy>
    <i name="e_fr_energy">   -174.80924185 </i>
    <i name="e_wo_entrp">   -174.86100593 </i>
    <i name="e_0_energy">   -174.82218287 </i>
   </energy>
  </scstep>
  <scstep>
   <time name="diag">   82.11   82.12</time>
   <time name="diis">  185.92  185.94</time>
   <time name="orth">   21.88   21.88</time>
   <time name="total">  330.82  330.85</time>
   <energy>
    <i name="e_fr_energy">   -174.77011258 </i>
    <i name="e_wo_entrp">   -174.80234140 </i>
    <i name="e_0_energy">   -174.77816979 </i>
   </energy>
  </scstep>
  <scstep>
   <time name="diag">   84.72   84.73</time>
   <time name="diis">  200.95  200.97</time>
   <time name="orth">   22.55   22.55</time>
   <time name="total">  350.97  351.00</time>
   <energy>
    <i name="e_fr_energy">   -174.51634350 </i>
    <i name="e_wo_entrp">   -174.55139246 </i>
    <i name="e_0_energy">   -174.52510574 </i>
   </energy>
  </scstep>
  <scstep>
   <time name="diag">   86.77   86.78</time>
   <time name="diis">  200.69  200.71</time>
   <time name="orth">   23.90   23.90</time>
   <time name="total">  359.42  359.46</time>
   <energy>
    <i name="e_fr_energy">   -174.43205259 </i>
    <i name="e_wo_entrp">   -174.45997841 </i>
    <i name="e_0_energy">   -174.43903404 </i>
   </energy>
  </scstep>
  <scstep>
   <time name="diag">   91.48   91.49</time>
   <time name="diis">  192.90  192.92</time>
   <time name="orth">   21.60   21.60</time>
   <time name="total">  349.75  349.79</time>
   <energy>
    <i name="e_fr_energy">   -174.39691790 </i>
    <i name="e_wo_entrp">   -174.38860534 </i>
    <i name="e_0_energy">   -174.39483976 </i>
   </energy>
  </scstep>
  <scstep>
   <time name="diag">   79.33   79.33</time>
   <time name="diis">  183.97  183.99</time>
   <time name="orth">   21.88   21.88</time>
   <time name="total">  325.83  325.86</time>
   <energy>
    <i name="e_fr_energy">   -174.27752605 </i>
    <i name="e_wo_entrp">   -174.27890525 </i>
    <i name="e_0_energy">   -174.27787085 </i>
   </energy>
  </scstep>
  <scstep>
   <time name="diag">   82.13   82.14</time>
   <time name="diis">  185.57  185.59</time>
   <time name="orth">   21.91   21.92</time>
   <time name="total">  330.35  330.38</time>
   <energy>
    <i name="e_fr_energy">   -174.20081948 </i>
    <i name="e_wo_entrp">   -174.18376781 </i>
    <i name="e_0_energy">   -174.19655657 </i>
   </energy>
  </scstep>
  <scstep>
   <time name="diag">   82.26   82.26</time>
   <time name="diis">  184.87  184.89</time>
   <time name="orth">   21.87   21.87</time>
   <time name="total">  329.83  329.86</time>
   <energy>
    <i name="e_fr_energy">   -174.17559375 </i>
    <i name="e_wo_entrp">   -174.17557869 </i>
    <i name="e_0_energy">   -174.17558999 </i>
   </energy>
  </scstep>
  <scstep>
   <time name="diag">   82.72   82.73</time>
   <time name="diis">  183.47  183.48</time>
   <time name="orth">   21.85   21.85</time>
   <time name="total">  328.96  328.99</time>
   <energy>
    <i name="e_fr_energy">   -174.11026347 </i>
    <i name="e_wo_entrp">   -174.10069011 </i>
    <i name="e_0_energy">   -174.10787013 </i>
   </energy>
  </scstep>
  <scstep>
   <time name="diag">   81.60   81.60</time>
   <time name="diis">  182.15  182.17</time>
   <time name="orth">   21.87   21.87</time>
   <time name="total">  326.63  326.66</time>
   <energy>
    <i name="e_fr_energy">   -174.09454763 </i>
    <i name="e_wo_entrp">   -174.08869028 </i>
    <i name="e_0_energy">   -174.09308329 </i>
   </energy>
  </scstep>
  <scstep>
   <time name="diag">   81.33   81.34</time>
   <time name="diis">  181.74  181.75</time>
   <time name="orth">   22.14   22.14</time>
   <time name="total">  327.78  327.81</time>
   <energy>
    <i name="e_fr_energy">   -174.07355977 </i>
    <i name="e_wo_entrp">   -174.07602518 </i>
    <i name="e_0_energy">   -174.07417612 </i>
   </energy>
  </scstep>
  <scstep>
   <time name="diag">   84.05   84.06</time>
   <time name="diis">  194.07  194.09</time>
   <time name="orth">   22.76   22.76</time>
   <time name="total">  344.38  344.42</time>
   <energy>
    <i name="e_fr_energy">   -174.05063396 </i>
    <i name="e_wo_entrp">   -174.05444272 </i>
    <i name="e_0_energy">   -174.05158615 </i>
   </energy>
  </scstep>
  <scstep>
   <time name="diag">   86.45   86.46</time>
   <time name="diis">  197.14  197.17</time>
   <time name="orth">   23.22   23.22</time>
   <time name="total">  351.49  351.54</time>
   <energy>
    <i name="e_fr_energy">   -174.04677236 </i>
    <i name="e_wo_entrp">   -174.04799873 </i>
    <i name="e_0_energy">   -174.04707896 </i>
   </energy>
  </scstep>
  <scstep>
   <time name="diag">   94.31   94.32</time>
   <time name="diis">  203.38  203.42</time>
   <time name="orth">   22.27   22.27</time>
   <time name="total">  366.55  366.62</time>
   <energy>
    <i name="e_fr_energy">   -174.03390174 </i>
    <i name="e_wo_entrp">   -174.02940650 </i>
    <i name="e_0_energy">   -174.03277793 </i>
   </energy>
  </scstep>
  <scstep>
   <time name="diag">   88.42   88.43</time>
   <time name="diis">  181.22  181.23</time>
   <time name="orth">   21.62   21.62</time>
   <time name="total">  332.81  332.85</time>
   <energy>
    <i name="e_fr_energy">   -174.03071685 </i>
    <i name="e_wo_entrp">   -174.02681157 </i>
    <i name="e_0_energy">   -174.02974053 </i>
   </energy>
  </scstep>
  <scstep>
   <time name="diag">   79.43   79.44</time>
   <time name="diis">  180.25  180.26</time>
   <time name="orth">   21.69   21.69</time>
   <time name="total">  321.77  321.79</time>
   <energy>
    <i name="e_fr_energy">   -174.02750208 </i>
    <i name="e_wo_entrp">   -174.02414854 </i>
    <i name="e_0_energy">   -174.02666370 </i>
   </energy>
  </scstep>
  <scstep>
   <time name="diag">   79.81   79.81</time>
   <time name="diis">  181.18  181.19</time>
   <time name="orth">   21.66   21.67</time>
   <time name="total">  323.34  323.37</time>
   <energy>
    <i name="e_fr_energy">   -174.02411167 </i>
    <i name="e_wo_entrp">   -174.01901746 </i>
    <i name="e_0_energy">   -174.02283812 </i>
   </energy>
  </scstep>
  <scstep>
   <time name="diag">   81.37   81.38</time>
   <time name="diis">  180.56  180.58</time>
   <time name="orth">   21.68   21.68</time>
   <time name="total">  324.42  324.46</time>
   <energy>
    <i name="e_fr_energy">   -174.02420050 </i>
    <i name="e_wo_entrp">   -174.01998841 </i>
    <i name="e_0_energy">   -174.02314748 </i>
   </energy>
  </scstep>
  <scstep>
   <time name="diag">   81.00   81.00</time>
   <time name="diis">  181.94  181.96</time>
   <time name="orth">   21.85   21.85</time>
   <time name="total">  326.13  326.16</time>
   <energy>
    <i name="e_fr_energy">   -174.02554411 </i>
    <i name="e_wo_entrp">   -174.02391718 </i>
    <i name="e_0_energy">   -174.02513738 </i>
   </energy>
  </scstep>
  <scstep>
   <time name="diag">   80.88   80.88</time>
   <time name="diis">  182.09  182.10</time>
   <time name="orth">   21.85   21.85</time>
   <time name="total">  325.97  326.00</time>
   <energy>
    <i name="e_fr_energy">   -174.02758658 </i>
    <i name="e_wo_entrp">   -174.02679067 </i>
    <i name="e_0_energy">   -174.02738760 </i>
   </energy>
  </scstep>
  <scstep>
   <time name="diag">   81.31   81.32</time>
   <time name="diis">  180.53  180.55</time>
   <time name="orth">   21.66   21.66</time>
   <time name="total">  324.62  324.65</time>
   <energy>
    <i name="e_fr_energy">   -174.02875922 </i>
    <i name="e_wo_entrp">   -174.02745025 </i>
    <i name="e_0_energy">   -174.02843198 </i>
   </energy>
  </scstep>
  <scstep>
   <time name="diag">   79.77   79.78</time>
   <time name="diis">  175.58  175.60</time>
   <time name="orth">   21.96   21.97</time>
   <time name="total">  319.89  319.94</time>
   <energy>
    <i name="e_fr_energy">   -174.03070967 </i>
    <i name="e_wo_entrp">   -174.02804682 </i>
    <i name="e_0_energy">   -174.03004395 </i>
   </energy>
  </scstep>
  <scstep>
   <time name="diag">   83.16   83.18</time>
   <time name="diis">  168.88  168.91</time>
   <time name="orth">   21.78   21.78</time>
   <time name="total">  316.04  316.08</time>
   <energy>
    <i name="e_fr_energy">   -174.03345471 </i>
    <i name="e_wo_entrp">   -174.03095312 </i>
    <i name="e_0_energy">   -174.03282931 </i>
   </energy>
  </scstep>
  <scstep>
   <time name="diag">   82.34   82.35</time>
   <time name="diis">  158.55  158.56</time>
   <time name="orth">   22.08   22.08</time>
   <time name="total">  306.34  306.37</time>
   <energy>
    <i name="e_fr_energy">   -174.03567778 </i>
    <i name="e_wo_entrp">   -174.03225260 </i>
    <i name="e_0_energy">   -174.03482149 </i>
   </energy>
  </scstep>
  <scstep>
   <time name="diag">   82.22   82.22</time>
   <time name="diis">  133.36  133.38</time>
   <time name="orth">   22.81   22.81</time>
   <time name="total">  283.53  283.56</time>
   <energy>
    <i name="e_fr_energy">   -174.03748045 </i>
    <i name="e_wo_entrp">   -174.03431538 </i>
    <i name="e_0_energy">   -174.03668918 </i>
   </energy>
  </scstep>
  <scstep>
   <time name="diag">   98.27   98.29</time>
   <time name="diis">  221.60  221.64</time>
   <time name="orth">   23.94   23.94</time>
   <time name="total">  388.44  388.51</time>
   <energy>
    <i name="e_fr_energy">   -174.03922131 </i>
    <i name="e_wo_entrp">   -174.03613482 </i>
    <i name="e_0_energy">   -174.03844969 </i>
   </energy>
  </scstep>
  <scstep>
   <time name="diag">   88.52   88.53</time>
   <time name="diis">  141.02  141.03</time>
   <time name="orth">   22.41   22.41</time>
   <time name="total">  295.20  295.23</time>
   <energy>
    <i name="e_fr_energy">   -174.04110055 </i>
    <i name="e_wo_entrp">   -174.03788911 </i>
    <i name="e_0_energy">   -174.04029769 </i>
   </energy>
  </scstep>
  <scstep>
   <time name="diag">   87.77   87.77</time>
   <time name="diis">  150.28  150.30</time>
   <time name="orth">   22.32   22.32</time>
   <time name="total">  303.76  303.79</time>
   <energy>
    <i name="e_fr_energy">   -174.04342553 </i>
    <i name="e_wo_entrp">   -174.04155143 </i>
    <i name="e_0_energy">   -174.04295701 </i>
   </energy>
  </scstep>
  <scstep>
   <time name="diag">   85.76   85.77</time>
   <time name="diis">  133.03  133.04</time>
   <time name="orth">   23.36   23.36</time>
   <time name="total">  290.56  290.58</time>
   <energy>
    <i name="e_fr_energy">   -174.04491685 </i>
    <i name="e_wo_entrp">   -174.04223623 </i>
    <i name="e_0_energy">   -174.04424669 </i>
   </energy>
  </scstep>
  <scstep>
   <time name="diag">   82.46   82.46</time>
   <time name="diis">  125.63  125.63</time>
   <time name="orth">   23.41   23.41</time>
   <time name="total">  278.87  278.89</time>
   <energy>
    <i name="e_fr_energy">   -174.04652435 </i>
    <i name="e_wo_entrp">   -174.04417428 </i>
    <i name="e_0_energy">   -174.04593683 </i>
   </energy>
  </scstep>
  <scstep>
   <time name="diag">   88.23   88.23</time>
   <time name="diis">  122.44  122.45</time>
   <time name="orth">   22.03   22.03</time>
   <time name="total">  277.70  277.71</time>
   <energy>
    <i name="e_fr_energy">   -174.04754895 </i>
    <i name="e_wo_entrp">   -174.04519392 </i>
    <i name="e_0_energy">   -174.04696019 </i>
   </energy>
  </scstep>
  <scstep>
   <time name="diag">   82.74   82.75</time>
   <time name="diis">  125.92  125.92</time>
   <time name="orth">   23.30   23.30</time>
   <time name="total">  280.45  280.47</time>
   <energy>
    <i name="e_fr_energy">   -174.04848396 </i>
    <i name="e_wo_entrp">   -174.04611203 </i>
    <i name="e_0_energy">   -174.04789098 </i>
   </energy>
  </scstep>
  <scstep>
   <time name="diag">   88.52   88.52</time>
   <time name="diis">  125.52  125.53</time>
   <time name="orth">   22.25   22.25</time>
   <time name="total">  281.27  281.29</time>
   <energy>
    <i name="e_fr_energy">   -174.04915173 </i>
    <i name="e_wo_entrp">   -174.04664737 </i>
    <i name="e_0_energy">   -174.04852564 </i>
   </energy>
  </scstep>
  <scstep>
   <time name="diag">   82.51   82.51</time>
   <time name="diis">  114.58  114.58</time>
   <time name="orth">   22.23   22.23</time>
   <time name="total">  263.51  263.53</time>
   <energy>
    <i name="e_fr_energy">   -174.04974410 </i>
    <i name="e_wo_entrp">   -174.04740887 </i>
    <i name="e_0_energy">   -174.04916029 </i>
   </energy>
  </scstep>
  <scstep>
   <time name="diag">   83.07   83.08</time>
   <time name="diis">  125.81  125.82</time>
   <time name="orth">   23.03   23.03</time>
   <time name="total">  279.62  279.64</time>
   <energy>
    <i name="e_fr_energy">   -174.05031285 </i>
    <i name="e_wo_entrp">   -174.04784603 </i>
    <i name="e_0_energy">   -174.04969615 </i>
   </energy>
  </scstep>
  <scstep>
   <time name="diag">   88.99   88.99</time>
   <time name="diis">  117.22  117.23</time>
   <time name="orth">   22.23   22.23</time>
   <time name="total">  272.39  272.40</time>
   <energy>
    <i name="e_fr_energy">   -174.05090882 </i>
    <i name="e_wo_entrp">   -174.04854538 </i>
    <i name="e_0_energy">   -174.05031796 </i>
   </energy>
  </scstep>
  <scstep>
   <time name="diag">   81.71   81.71</time>
   <time name="diis">   94.88   94.89</time>
   <time name="orth">   22.16   22.16</time>
   <time name="total">  243.04  243.06</time>
   <energy>
    <i name="e_fr_energy">   -174.05133538 </i>
    <i name="e_wo_entrp">   -174.04895301 </i>
    <i name="e_0_energy">   -174.05073979 </i>
   </energy>
  </scstep>
  <scstep>
   <time name="diag">   82.51   82.51</time>
   <time name="diis">   95.96   95.97</time>
   <time name="orth">   22.24   22.24</time>
   <time name="total">  245.33  245.34</time>
   <energy>
    <i name="e_fr_energy">   -174.05180124 </i>
    <i name="e_wo_entrp">   -174.04942121 </i>
    <i name="e_0_energy">   -174.05120623 </i>
   </energy>
  </scstep>
  <scstep>
   <time name="diag">   83.04   83.04</time>
   <time name="diis">   91.54   91.55</time>
   <time name="orth">   23.27   23.27</time>
   <time name="total">  245.88  245.89</time>
   <energy>
    <i name="e_fr_energy">   -174.05202329 </i>
    <i name="e_wo_entrp">   -174.04963567 </i>
    <i name="e_0_energy">   -174.05142639 </i>
   </energy>
  </scstep>
  <scstep>
   <time name="diag">   87.64   87.65</time>
   <time name="diis">  102.97  102.98</time>
   <time name="orth">   23.42   23.42</time>
   <time name="total">  263.60  263.62</time>
   <energy>
    <i name="e_fr_energy">   -174.05237919 </i>
    <i name="e_wo_entrp">   -174.04999826 </i>
    <i name="e_0_energy">   -174.05178396 </i>
   </energy>
  </scstep>
  <scstep>
   <time name="diag">   89.82   89.82</time>
   <time name="diis">   88.94   88.94</time>
   <time name="orth">   21.95   21.95</time>
   <time name="total">  245.48  245.49</time>
   <energy>
    <i name="e_fr_energy">   -174.05257479 </i>
    <i name="e_wo_entrp">   -174.05019459 </i>
    <i name="e_0_energy">   -174.05197974 </i>
   </energy>
  </scstep>
  <scstep>
   <time name="diag">   82.30   82.30</time>
   <time name="diis">   85.59   85.59</time>
   <time name="orth">   22.22   22.22</time>
   <time name="total">  234.51  234.52</time>
   <energy>
    <i name="e_fr_energy">   -174.05272903 </i>
    <i name="e_wo_entrp">   -174.05027676 </i>
    <i name="e_0_energy">   -174.05211596 </i>
   </energy>
  </scstep>
  <scstep>
   <time name="diag">   82.91   82.91</time>
   <time name="diis">   83.79   83.80</time>
   <time name="orth">   22.22   22.22</time>
   <time name="total">  233.52  233.54</time>
   <energy>
    <i name="e_fr_energy">   -174.05285138 </i>
    <i name="e_wo_entrp">   -174.05042756 </i>
    <i name="e_0_energy">   -174.05224543 </i>
   </energy>
  </scstep>
  <scstep>
   <time name="diag">   82.59   82.59</time>
   <time name="diis">   72.08   72.08</time>
   <time name="orth">   22.35   22.35</time>
   <time name="total">  191.26  191.27</time>
   <energy>
    <i name="alphaZ">     75.25431677 </i>
    <i name="ewald"> 140804.62901040 </i>
    <i name="hartreedc">-185168.47262278 </i>
    <i name="XCdc">  -1690.18530045 </i>
    <i name="pawpsdc">  46302.37628686 </i>
    <i name="pawaedc"> -42772.85851279 </i>
    <i name="eentropy">     -0.00238923 </i>
    <i name="bandstr">  -2811.29913071 </i>
    <i name="atom">  45086.50549395 </i>
    <i name="e_fr_energy">   -174.05284797 </i>
    <i name="e_wo_entrp">   -174.05045874 </i>
    <i name="e_0_energy">   -174.05225066 </i>
   </energy>
  </scstep>
  <structure>
   <crystal>
    <varray name="basis" >
     <v>      30.00000000       0.00000000       0.00000000 </v>
     <v>       0.00000000      30.00000000       0.00000000 </v>
     <v>       0.00000000       0.00000000      30.00000000 </v>
    </varray>
    <i name="volume">  27000.00000000 </i>
    <varray name="rec_basis" >
     <v>       0.03333333       0.00000000       0.00000000 </v>
     <v>       0.00000000       0.03333333       0.00000000 </v>
     <v>       0.00000000       0.00000000       0.03333333 </v>
    </varray>
   </crystal>
   <varray name="positions" >
    <v>       0.44576020       0.32826710       0.41691983 </v>
    <v>       0.67173288       0.55423978       0.41691983 </v>
    <v>       0.55423980       0.32826710       0.41691983 </v>
    <v>       0.32826712       0.55423978       0.41691983 </v>
    <v>       0.50000000       0.38250690       0.34021317 </v>
    <v>       0.50000000       0.38250690       0.65978680 </v>
    <v>       0.50000000       0.27609440       0.50000000 </v>
    <v>       0.27609443       0.49999998       0.50000000 </v>
    <v>       0.72390557       0.49999998       0.50000000 </v>
    <v>       0.50000000       0.72390555       0.50000000 </v>
    <v>       0.61195280       0.38804720       0.34167483 </v>
    <v>       0.61195280       0.38804720       0.65832513 </v>
    <v>       0.38804722       0.61195278       0.34167483 </v>
    <v>       0.38804722       0.61195278       0.65832513 </v>
    <v>       0.38804720       0.38804720       0.34167483 </v>
    <v>       0.38804720       0.38804720       0.65832513 </v>
    <v>       0.61195278       0.61195278       0.34167483 </v>
    <v>       0.61195278       0.61195278       0.65832513 </v>
    <v>       0.44576020       0.32826710       0.58308023 </v>
    <v>       0.67173288       0.55423978       0.58308023 </v>
    <v>       0.55791699       0.44208301       0.41809300 </v>
    <v>       0.32826705       0.44576024       0.41691983 </v>
    <v>       0.55423973       0.67173293       0.41691983 </v>
    <v>       0.55423980       0.32826710       0.58308023 </v>
    <v>       0.32826712       0.55423978       0.58308023 </v>
    <v>       0.67173295       0.44576024       0.41691983 </v>
    <v>       0.44576027       0.67173293       0.41691983 </v>
    <v>       0.44208301       0.44208301       0.41809300 </v>
    <v>       0.50000000       0.38416601       0.50000000 </v>
    <v>       0.61749315       0.50000005       0.34021317 </v>
    <v>       0.61749315       0.50000005       0.65978680 </v>
    <v>       0.38250685       0.50000005       0.34021317 </v>
    <v>       0.38250685       0.50000005       0.65978680 </v>
    <v>       0.38317830       0.38317830       0.50000000 </v>
    <v>       0.61682172       0.61682172       0.50000000 </v>
    <v>       0.61682170       0.38317830       0.50000000 </v>
    <v>       0.38317828       0.61682172       0.50000000 </v>
    <v>       0.50000000       0.50000000       0.33478917 </v>
    <v>       0.50000000       0.50000000       0.66521087 </v>
    <v>       0.32826705       0.44576024       0.58308023 </v>
    <v>       0.55423973       0.67173293       0.58308023 </v>
    <v>       0.55791699       0.44208301       0.58190703 </v>
    <v>       0.44208298       0.55791702       0.41809300 </v>
    <v>       0.44208301       0.44208301       0.58190703 </v>
    <v>       0.67173295       0.44576024       0.58308023 </v>
    <v>       0.44576027       0.67173293       0.58308023 </v>
    <v>       0.55791702       0.55791702       0.41809300 </v>
    <v>       0.38416599       0.50000002       0.50000000 </v>
    <v>       0.61583401       0.50000002       0.50000000 </v>
    <v>       0.50000000       0.61749319       0.34021317 </v>
    <v>       0.50000000       0.61749319       0.65978680 </v>
    <v>       0.50000000       0.50000000       0.50000000 </v>
    <v>       0.44208298       0.55791702       0.58190703 </v>
    <v>       0.55791702       0.55791702       0.58190703 </v>
    <v>       0.50000000       0.61583404       0.50000000 </v>
    <v>       0.55264630       0.56288880       0.34759120 </v>
    <v>       0.56408353       0.57655117       0.31448093 </v>
   </varray>
  </structure>
  <varray name="forces" >
   <v>       0.69864106       1.11815575       0.28547638 </v>
   <v>      -0.97321367      -0.80598932       0.41103174 </v>
   <v>      -0.69411802       1.10889662       0.29370846 </v>
   <v>       1.11146557      -0.69201037       0.29254321 </v>
   <v>      -0.01244486       0.36726087       1.29233686 </v>
   <v>       0.01200439       0.41226125      -1.27986284 </v>
   <v>       0.00429125       1.51381215      -0.00147859 </v>
   <v>       1.51348473       0.00404436      -0.00262771 </v>
   <v>      -1.50593333       0.01444019      -0.01571667 </v>
   <v>       0.02161112      -1.51644352      -0.02033340 </v>
   <v>      -0.74833370       0.74081186       1.07072329 </v>
   <v>      -0.75176745       0.75819266      -1.07141795 </v>
   <v>       0.70798560      -0.74488952       1.07415148 </v>
   <v>       0.75723012      -0.75334076      -1.07161475 </v>
   <v>       0.75984823       0.76026237       1.07000751 </v>
   <v>       0.75159828       0.75273388      -1.07756625 </v>
   <v>       1.81170217       1.15888089       1.75022249 </v>
   <v>      -0.75623289      -0.75648788      -1.07000883 </v>
   <v>       0.69855449       1.10530739      -0.29426282 </v>
   <v>      -1.11433060      -0.70138559      -0.29556718 </v>
   <v>       0.10782067      -0.19015998      -0.10154733 </v>
   <v>       1.11560383       0.69992060       0.28335179 </v>
   <v>      -0.79181684      -0.93166081       0.45400614 </v>
   <v>      -0.70000724       1.10608635      -0.29111631 </v>
   <v>       1.10648265      -0.70014979      -0.28998715 </v>
   <v>      -1.09491814       0.67495390       0.31490553 </v>
   <v>       0.66561350      -1.09840291       0.30296929 </v>
   <v>      -0.12599067      -0.12739783      -0.13899617 </v>
   <v>      -0.00288168      -0.22460807       0.00072516 </v>
   <v>      -0.35924955      -0.21978499       1.37027561 </v>
   <v>      -0.41986257      -0.00098746      -1.27500331 </v>
   <v>       0.36353497      -0.01645487       1.29689034 </v>
   <v>       0.41337367       0.01247617      -1.27984078 </v>
   <v>       0.82828657       0.82633095       0.00492592 </v>
   <v>      -0.84031221      -0.84980317       0.03202201 </v>
   <v>      -0.82993804       0.83059849      -0.00786296 </v>
   <v>       0.83336777      -0.83025275      -0.01143835 </v>
   <v>       0.46939279       0.50494298       1.33733324 </v>
   <v>       0.00824451       0.00838360      -1.17555431 </v>
   <v>       1.10519538       0.69933177      -0.29468019 </v>
   <v>      -0.70211115      -1.11184045      -0.29452977 </v>
   <v>       0.10586782      -0.10554125       0.15492623 </v>
   <v>      -0.22139982       0.10056021      -0.07309454 </v>
   <v>      -0.11799767      -0.11744315       0.15918798 </v>
   <v>      -1.10256306       0.68703975      -0.27079242 </v>
   <v>       0.69040500      -1.10400453      -0.27779777 </v>
   <v>       0.05940292       0.13434240      -1.34810254 </v>
   <v>      -0.22669724      -0.00324956       0.00404801 </v>
   <v>       0.23138187       0.00277617       0.00577278 </v>
   <v>      -0.46881714      -0.37519320       1.57316284 </v>
   <v>      -0.00005949      -0.42043994      -1.27665864 </v>
   <v>      -0.00807863      -0.01175848       0.04397672 </v>
   <v>      -0.10772615       0.10427822       0.15876783 </v>
   <v>       0.11070106       0.11049550       0.14954807 </v>
   <v>      -0.00632068       0.23922333       0.01829465 </v>
   <v>      -4.65702354      -4.70101264      10.17499564 </v>
   <v>       2.27705399       2.55389211     -10.77282766 </v>
  </varray>
  <varray name="stress" >
   <v>      -6.34347703       0.15195176      -0.18549521 </v>
   <v>       0.15195173      -6.47544707      -0.18738557 </v>
   <v>      -0.18549521      -0.18738555      -6.20793197 </v>
  </varray>
  <energy>
   <i name="e_fr_energy">   -174.05284797 </i>
   <i name="e_wo_entrp">   -174.05225066 </i>
   <i name="e_0_energy">     -0.00238923 </i>
  </energy>
  <time name="totalsc">20855.4620857.48</time>
  <eigenvalues>
   <array>
    <dimension dim="1">band</dimension>
    <dimension dim="2">kpoint</dimension>
    <dimension dim="3">spin</dimension>
    <field>eigene</field>
    <field>occ</field>
    <set>
     <set comment="spin 1">
      <set comment="kpoint 1">
       <r>  -29.6740    1.0000 </r>
       <r>  -14.5216    1.0000 </r>
       <r>  -12.8264    1.0000 </r>
       <r>  -12.5066    1.0000 </r>
       <r>  -10.7827    1.0000 </r>
       <r>   -6.6584    1.0000 </r>
       <r>   -6.5806    1.0000 </r>
       <r>   -6.3203    1.0000 </r>
       <r>   -6.1107    1.0000 </r>
       <r>   -6.0916    1.0000 </r>
       <r>   -6.0846    1.0000 </r>
       <r>   -5.8269    1.0000 </r>
       <r>   -5.8107    1.0000 </r>
       <r>   -5.7806    1.0000 </r>
       <r>   -5.7644    1.0000 </r>
       <r>   -5.7055    1.0000 </r>
       <r>   -5.6797    1.0000 </r>
       <r>   -5.6561    1.0000 </r>
       <r>   -5.6499    1.0000 </r>
       <r>   -5.6386    1.0000 </r>
       <r>   -5.6110    1.0000 </r>
       <r>   -5.6006    1.0000 </r>
       <r>   -5.5912    1.0000 </r>
       <r>   -5.5825    1.0000 </r>
       <r>   -5.5747    1.0000 </r>
       <r>   -5.5533    1.0000 </r>
       <r>   -5.5429    1.0000 </r>
       <r>   -5.5309    1.0000 </r>
       <r>   -5.5255    1.0000 </r>
       <r>   -5.5133    1.0000 </r>
       <r>   -5.5037    1.0000 </r>
       <r>   -5.4991    1.0000 </r>
       <r>   -5.4913    1.0000 </r>
       <r>   -5.4766    1.0000 </r>
       <r>   -5.4762    1.0000 </r>
       <r>   -5.4742    1.0000 </r>
       <r>   -5.4739    1.0000 </r>
       <r>   -5.4688    1.0000 </r>
       <r>   -5.4548    1.0000 </r>
       <r>   -5.4479    1.0000 </r>
       <r>   -5.4343    1.0000 </r>
       <r>   -5.4318    1.0000 </r>
       <r>   -5.4300    1.0000 </r>
       <r>   -5.4286    1.0000 </r>
       <r>   -5.4232    1.0000 </r>
       <r>   -5.4204    1.0000 </r>
       <r>   -5.4094    1.0000 </r>
       <r>   -5.3984    1.0000 </r>
       <r>   -5.3966    1.0000 </r>
       <r>   -5.3888    1.0000 </r>
       <r>   -5.3829    1.0000 </r>
       <r>   -5.3776    1.0000 </r>
       <r>   -5.3718    1.0000 </r>
       <r>   -5.3663    1.0000 </r>
       <r>   -5.3611    1.0000 </r>
       <r>   -5.3591    1.0000 </r>
       <r>   -5.3526    1.0000 </r>
       <r>   -5.3189    1.0000 </r>
       <r>   -5.3147    1.0000 </r>
       <r>   -5.3031    1.0000 </r>
       <r>   -5.3010    1.0000 </r>
       <r>   -5.2906    1.0000 </r>
       <r>   -5.2795    1.0000 </r>
       <r>   -5.2771    1.0000 </r>
       <r>   -5.2729    1.0000 </r>
       <r>   -5.2660    1.0000 </r>
       <r>   -5.2608    1.0000 </r>
       <r>   -5.2514    1.0000 </r>
       <r>   -5.2433    1.0000 </r>
       <r>   -5.2200    1.0000 </r>
       <r>   -5.2126    1.0000 </r>
       <r>   -5.2023    1.0000 </r>
       <r>   -5.1981    1.0000 </r>
       <r>   -5.1891    1.0000 </r>
       <r>   -5.1717    1.0000 </r>
       <r>   -5.1620    1.0000 </r>
       <r>   -5.1557    1.0000 </r>
       <r>   -5.1448    1.0000 </r>
       <r>   -5.1377    1.0000 </r>
       <r>   -5.1362    1.0000 </r>
       <r>   -5.1305    1.0000 </r>
       <r>   -5.1226    1.0000 </r>
       <r>   -5.1088    1.0000 </r>
       <r>   -5.0993    1.0000 </r>
       <r>   -5.0891    1.0000 </r>
       <r>   -5.0812    1.0000 </r>
       <r>   -5.0789    1.0000 </r>
       <r>   -5.0752    1.0000 </r>
       <r>   -5.0620    1.0000 </r>
       <r>   -5.0554    1.0000 </r>
       <r>   -5.0503    1.0000 </r>
       <r>   -5.0377    1.0000 </r>
       <r>   -5.0364    1.0000 </r>
       <r>   -5.0237    1.0000 </r>
       <r>   -5.0207    1.0000 </r>
       <r>   -5.0161    1.0000 </r>
       <r>   -5.0095    1.0000 </r>
       <r>   -5.0079    1.0000 </r>
       <r>   -4.9933    1.0000 </r>
       <r>   -4.9915    1.0000 </r>
       <r>   -4.9884    1.0000 </r>
       <r>   -4.9838    1.0000 </r>
       <r>   -4.9760    1.0000 </r>
       <r>   -4.9725    1.0000 </r>
       <r>   -4.9647    1.0000 </r>
       <r>   -4.9605    1.0000 </r>
       <r>   -4.9553    1.0000 </r>
       <r>   -4.9538    1.0000 </r>
       <r>   -4.9494    1.0000 </r>
       <r>   -4.9427    1.0000 </r>
       <r>   -4.9422    1.0000 </r>
       <r>   -4.9386    1.0000 </r>
       <r>   -4.9323    1.0000 </r>
       <r>   -4.9257    1.0000 </r>
       <r>   -4.9216    1.0000 </r>
       <r>   -4.9116    1.0000 </r>
       <r>   -4.9077    1.0000 </r>
       <r>   -4.9037    1.0000 </r>
       <r>   -4.9001    1.0000 </r>
       <r>   -4.8928    1.0000 </r>
       <r>   -4.8899    1.0000 </r>
       <r>   -4.8826    1.0000 </r>
       <r>   -4.8745    1.0000 </r>
       <r>   -4.8708    1.0000 </r>
       <r>   -4.8634    1.0000 </r>
       <r>   -4.8605    1.0000 </r>
       <r>   -4.8519    1.0000 </r>
       <r>   -4.8463    1.0000 </r>
       <r>   -4.8410    1.0000 </r>
       <r>   -4.8308    1.0000 </r>
       <r>   -4.8217    1.0000 </r>
       <r>   -4.8186    1.0000 </r>
       <r>   -4.8154    1.0000 </r>
       <r>   -4.8064    1.0000 </r>
       <r>   -4.7983    1.0000 </r>
       <r>   -4.7940    1.0000 </r>
       <r>   -4.7872    1.0000 </r>
       <r>   -4.7863    1.0000 </r>
       <r>   -4.7810    1.0000 </r>
       <r>   -4.7731    0.9999 </r>
       <r>   -4.7633    0.9999 </r>
       <r>   -4.7572    0.9999 </r>
       <r>   -4.7480    0.9999 </r>
       <r>   -4.7318    0.9998 </r>
       <r>   -4.7255    0.9998 </r>
       <r>   -4.7180    0.9998 </r>
       <r>   -4.7130    0.9998 </r>
       <r>   -4.7036    0.9997 </r>
       <r>   -4.6904    0.9996 </r>
       <r>   -4.6838    0.9995 </r>
       <r>   -4.6776    0.9994 </r>
       <r>   -4.6716    0.9994 </r>
       <r>   -4.6675    0.9993 </r>
       <r>   -4.6606    0.9992 </r>
       <r>   -4.6538    0.9991 </r>
       <r>   -4.6478    0.9990 </r>
       <r>   -4.6455    0.9990 </r>
       <r>   -4.6323    0.9987 </r>
       <r>   -4.6323    0.9987 </r>
       <r>   -4.6293    0.9986 </r>
       <r>   -4.6249    0.9985 </r>
       <r>   -4.6213    0.9984 </r>
       <r>   -4.6163    0.9983 </r>
       <r>   -4.6139    0.9982 </r>
       <r>   -4.6101    0.9981 </r>
       <r>   -4.6075    0.9980 </r>
       <r>   -4.6061    0.9980 </r>
       <r>   -4.6036    0.9979 </r>
       <r>   -4.5973    0.9977 </r>
       <r>   -4.5932    0.9975 </r>
       <r>   -4.5897    0.9974 </r>
       <r>   -4.5811    0.9971 </r>
       <r>   -4.5740    0.9968 </r>
       <r>   -4.5704    0.9967 </r>
       <r>   -4.5654    0.9965 </r>
       <r>   -4.5624    0.9964 </r>
       <r>   -4.5545    0.9961 </r>
       <r>   -4.5511    0.9960 </r>
       <r>   -4.5488    0.9959 </r>
       <r>   -4.5460    0.9958 </r>
       <r>   -4.5417    0.9957 </r>
       <r>   -4.5360    0.9955 </r>
       <r>   -4.5324    0.9954 </r>
       <r>   -4.5230    0.9952 </r>
       <r>   -4.5193    0.9951 </r>
       <r>   -4.5150    0.9951 </r>
       <r>   -4.5125    0.9951 </r>
       <r>   -4.5086    0.9951 </r>
       <r>   -4.5069    0.9951 </r>
       <r>   -4.5022    0.9951 </r>
       <r>   -4.4820    0.9958 </r>
       <r>   -4.4794    0.9959 </r>
       <r>   -4.4749    0.9962 </r>
       <r>   -4.4732    0.9964 </r>
       <r>   -4.4693    0.9967 </r>
       <r>   -4.4610    0.9976 </r>
       <r>   -4.4539    0.9986 </r>
       <r>   -4.4500    0.9992 </r>
       <r>   -4.4431    1.0004 </r>
       <r>   -4.4390    1.0013 </r>
       <r>   -4.4349    1.0022 </r>
       <r>   -4.4318    1.0029 </r>
       <r>   -4.4246    1.0047 </r>
       <r>   -4.4189    1.0064 </r>
       <r>   -4.4168    1.0070 </r>
       <r>   -4.4137    1.0080 </r>
       <r>   -4.4134    1.0081 </r>
       <r>   -4.4068    1.0104 </r>
       <r>   -4.4025    1.0119 </r>
       <r>   -4.4003    1.0128 </r>
       <r>   -4.3946    1.0150 </r>
       <r>   -4.3889    1.0174 </r>
       <r>   -4.3852    1.0190 </r>
       <r>   -4.3772    1.0226 </r>
       <r>   -4.3708    1.0256 </r>
       <r>   -4.3667    1.0275 </r>
       <r>   -4.3605    1.0305 </r>
       <r>   -4.3578    1.0318 </r>
       <r>   -4.3531    1.0341 </r>
       <r>   -4.3481    1.0364 </r>
       <r>   -4.3358    1.0419 </r>
       <r>   -4.3318    1.0436 </r>
       <r>   -4.3277    1.0452 </r>
       <r>   -4.3222    1.0471 </r>
       <r>   -4.3120    1.0499 </r>
       <r>   -4.3035    1.0513 </r>
       <r>   -4.3015    1.0515 </r>
       <r>   -4.2989    1.0516 </r>
       <r>   -4.2951    1.0516 </r>
       <r>   -4.2936    1.0515 </r>
       <r>   -4.2899    1.0512 </r>
       <r>   -4.2888    1.0510 </r>
       <r>   -4.2873    1.0508 </r>
       <r>   -4.2838    1.0500 </r>
       <r>   -4.2821    1.0496 </r>
       <r>   -4.2812    1.0493 </r>
       <r>   -4.2770    1.0478 </r>
       <r>   -4.2732    1.0460 </r>
       <r>   -4.2722    1.0455 </r>
       <r>   -4.2680    1.0431 </r>
       <r>   -4.2651    1.0411 </r>
       <r>   -4.2602    1.0372 </r>
       <r>   -4.2574    1.0348 </r>
       <r>   -4.2544    1.0318 </r>
       <r>   -4.2490    1.0257 </r>
       <r>   -4.2466    1.0228 </r>
       <r>   -4.2440    1.0193 </r>
       <r>   -4.2398    1.0133 </r>
       <r>   -4.2358    1.0069 </r>
       <r>   -4.2348    1.0051 </r>
       <r>   -4.2299    0.9965 </r>
       <r>   -4.2266    0.9902 </r>
       <r>   -4.2219    0.9803 </r>
       <r>   -4.2170    0.9693 </r>
       <r>   -4.2147    0.9637 </r>
       <r>   -4.2088    0.9485 </r>
       <r>   -4.2073    0.9445 </r>
       <r>   -4.2050    0.9381 </r>
       <r>   -4.2043    0.9360 </r>
       <r>   -4.1999    0.9232 </r>
       <r>   -4.1990    0.9206 </r>
       <r>   -4.1973    0.9153 </r>
       <r>   -4.1954    0.9092 </r>
       <r>   -4.1937    0.9038 </r>
       <r>   -4.1909    0.8943 </r>
       <r>   -4.1859    0.8770 </r>
       <r>   -4.1835    0.8683 </r>
       <r>   -4.1788    0.8510 </r>
       <r>   -4.1746    0.8346 </r>
       <r>   -4.1738    0.8314 </r>
       <r>   -4.1714    0.8218 </r>
       <r>   -4.1654    0.7970 </r>
       <r>   -4.1570    0.7602 </r>
       <r>   -4.1534    0.7436 </r>
       <r>   -4.1401    0.6802 </r>
       <r>   -4.1384    0.6717 </r>
       <r>   -4.1329    0.6444 </r>
       <r>   -4.1323    0.6411 </r>
       <r>   -4.1264    0.6108 </r>
       <r>   -4.1248    0.6026 </r>
       <r>   -4.1142    0.5476 </r>
       <r>   -4.1136    0.5440 </r>
       <r>   -4.1008    0.4765 </r>
       <r>   -4.0906    0.4231 </r>
       <r>   -4.0825    0.3809 </r>
       <r>   -4.0744    0.3399 </r>
       <r>   -4.0739    0.3376 </r>
       <r>   -4.0686    0.3113 </r>
       <r>   -3.9382   -0.0456 </r>
       <r>   -3.8945   -0.0489 </r>
       <r>   -3.8636   -0.0370 </r>
       <r>   -3.7817   -0.0036 </r>
       <r>   -3.7727   -0.0015 </r>
       <r>   -3.5832    0.0015 </r>
       <r>   -3.4436    0.0001 </r>
       <r>   -3.4397    0.0001 </r>
       <r>   -3.1875    0.0000 </r>
       <r>   -3.0332    0.0000 </r>
       <r>   -3.0253    0.0000 </r>
       <r>   -3.0216    0.0000 </r>
       <r>   -2.9789    0.0000 </r>
       <r>   -2.9728    0.0000 </r>
       <r>   -2.9466    0.0000 </r>
       <r>   -2.8642    0.0000 </r>
       <r>   -2.7332    0.0000 </r>
       <r>   -2.4923    0.0000 </r>
       <r>   -2.4770    0.0000 </r>
       <r>   -2.4124    0.0000 </r>
       <r>   -2.3213    0.0000 </r>
       <r>   -2.1630    0.0000 </r>
       <r>   -2.0788    0.0000 </r>
       <r>   -2.0122    0.0000 </r>
       <r>   -1.9380    0.0000 </r>
       <r>   -1.9073    0.0000 </r>
       <r>   -1.8683    0.0000 </r>
       <r>   -1.8253    0.0000 </r>
       <r>   -1.8022    0.0000 </r>
       <r>   -1.7546    0.0000 </r>
       <r>   -1.6718    0.0000 </r>
       <r>   -1.6289    0.0000 </r>
       <r>   -1.5696    0.0000 </r>
       <r>   -1.4931    0.0000 </r>
       <r>   -1.4010    0.0000 </r>
       <r>   -1.3874    0.0000 </r>
       <r>   -1.2993    0.0000 </r>
       <r>   -1.1901    0.0000 </r>
       <r>   -1.1735    0.0000 </r>
       <r>   -1.0498    0.0000 </r>
       <r>   -0.9493    0.0000 </r>
       <r>   -0.9463    0.0000 </r>
       <r>   -0.8985    0.0000 </r>
       <r>   -0.8927    0.0000 </r>
       <r>   -0.8571    0.0000 </r>
       <r>   -0.7972    0.0000 </r>
       <r>   -0.7721    0.0000 </r>
       <r>   -0.7082    0.0000 </r>
      </set>
     </set>
    </set>
   </array>
  </eigenvalues>
  <separator name="orbital magnetization" >
   <v name="MAGDIPOLOUT">      0.00000000      0.00000000      0.00000000</v>
  </separator>
  <dos>
   <i name="efermi">     -4.10523418 </i>
   <total>
    <array>
     <dimension dim="1">gridpoints</dimension>
     <dimension dim="2">spin</dimension>
     <field>energy</field>
     <field>total</field>
     <field>integrated</field>
     <set>
      <set comment="spin 1">
       <r>   -31.6740     0.0000     0.0000 </r>
       <r>   -31.5641     0.0000     0.0000 </r>
       <r>   -31.4542     0.0000     0.0000 </r>
       <r>   -31.3443     0.0000     0.0000 </r>
       <r>   -31.2344     0.0000     0.0000 </r>
       <r>   -31.1245     0.0000     0.0000 </r>
       <r>   -31.0146     0.0000     0.0000 </r>
       <r>   -30.9048     0.0000     0.0000 </r>
       <r>   -30.7949     0.0000     0.0000 </r>
       <r>   -30.6850     0.0000     0.0000 </r>
       <r>   -30.5751     0.0000     0.0000 </r>
       <r>   -30.4652     0.0000     0.0000 </r>
       <r>   -30.3553     0.0006     0.0001 </r>
       <r>   -30.2454     0.0096     0.0011 </r>
       <r>   -30.1356     0.0524     0.0069 </r>
       <r>   -30.0257    -0.0288     0.0037 </r>
       <r>   -29.9158    -0.7058    -0.0738 </r>
       <r>   -29.8059     0.5059    -0.0182 </r>
       <r>   -29.6960     7.1633     0.7689 </r>
       <r>   -29.5861     9.4133     1.8033 </r>
       <r>   -29.4762     2.7244     2.1027 </r>
       <r>   -29.3663    -0.7832     2.0166 </r>
       <r>   -29.2565    -0.2386     1.9904 </r>
       <r>   -29.1466     0.0635     1.9974 </r>
       <r>   -29.0367     0.0219     1.9998 </r>
       <r>   -28.9268     0.0021     2.0000 </r>
       <r>   -28.8169     0.0001     2.0000 </r>
       <r>   -28.7070     0.0000     2.0000 </r>
       <r>   -28.5971     0.0000     2.0000 </r>
       <r>   -28.4873     0.0000     2.0000 </r>
       <r>   -28.3774     0.0000     2.0000 </r>
       <r>   -28.2675     0.0000     2.0000 </r>
       <r>   -28.1576     0.0000     2.0000 </r>
       <r>   -28.0477     0.0000     2.0000 </r>
       <r>   -27.9378     0.0000     2.0000 </r>
       <r>   -27.8279     0.0000     2.0000 </r>
       <r>   -27.7181     0.0000     2.0000 </r>
       <r>   -27.6082     0.0000     2.0000 </r>
       <r>   -27.4983     0.0000     2.0000 </r>
       <r>   -27.3884     0.0000     2.0000 </r>
       <r>   -27.2785     0.0000     2.0000 </r>
       <r>   -27.1686     0.0000     2.0000 </r>
       <r>   -27.0587     0.0000     2.0000 </r>
       <r>   -26.9489     0.0000     2.0000 </r>
       <r>   -26.8390     0.0000     2.0000 </r>
       <r>   -26.7291     0.0000     2.0000 </r>
       <r>   -26.6192     0.0000     2.0000 </r>
       <r>   -26.5093     0.0000     2.0000 </r>
       <r>   -26.3994     0.0000     2.0000 </r>
       <r>   -26.2895     0.0000     2.0000 </r>
       <r>   -26.1797     0.0000     2.0000 </r>
       <r>   -26.0698     0.0000     2.0000 </r>
       <r>   -25.9599     0.0000     2.0000 </r>
       <r>   -25.8500     0.0000     2.0000 </r>
       <r>   -25.7401     0.0000     2.0000 </r>
       <r>   -25.6302     0.0000     2.0000 </r>
       <r>   -25.5203     0.0000     2.0000 </r>
       <r>   -25.4105     0.0000     2.0000 </r>
       <r>   -25.3006     0.0000     2.0000 </r>
       <r>   -25.1907     0.0000     2.0000 </r>
       <r>   -25.0808     0.0000     2.0000 </r>
       <r>   -24.9709     0.0000     2.0000 </r>
       <r>   -24.8610     0.0000     2.0000 </r>
       <r>   -24.7511     0.0000     2.0000 </r>
       <r>   -24.6413     0.0000     2.0000 </r>
       <r>   -24.5314     0.0000     2.0000 </r>
       <r>   -24.4215     0.0000     2.0000 </r>
       <r>   -24.3116     0.0000     2.0000 </r>
       <r>   -24.2017     0.0000     2.0000 </r>
       <r>   -24.0918     0.0000     2.0000 </r>
       <r>   -23.9819     0.0000     2.0000 </r>
       <r>   -23.8721     0.0000     2.0000 </r>
       <r>   -23.7622     0.0000     2.0000 </r>
       <r>   -23.6523     0.0000     2.0000 </r>
       <r>   -23.5424     0.0000     2.0000 </r>
       <r>   -23.4325     0.0000     2.0000 </r>
       <r>   -23.3226     0.0000     2.0000 </r>
       <r>   -23.2127     0.0000     2.0000 </r>
       <r>   -23.1029     0.0000     2.0000 </r>
       <r>   -22.9930     0.0000     2.0000 </r>
       <r>   -22.8831     0.0000     2.0000 </r>
       <r>   -22.7732     0.0000     2.0000 </r>
       <r>   -22.6633     0.0000     2.0000 </r>
       <r>   -22.5534     0.0000     2.0000 </r>
       <r>   -22.4435     0.0000     2.0000 </r>
       <r>   -22.3336     0.0000     2.0000 </r>
       <r>   -22.2238     0.0000     2.0000 </r>
       <r>   -22.1139     0.0000     2.0000 </r>
       <r>   -22.0040     0.0000     2.0000 </r>
       <r>   -21.8941     0.0000     2.0000 </r>
       <r>   -21.7842     0.0000     2.0000 </r>
       <r>   -21.6743     0.0000     2.0000 </r>
       <r>   -21.5644     0.0000     2.0000 </r>
       <r>   -21.4546     0.0000     2.0000 </r>
       <r>   -21.3447     0.0000     2.0000 </r>
       <r>   -21.2348     0.0000     2.0000 </r>
       <r>   -21.1249     0.0000     2.0000 </r>
       <r>   -21.0150     0.0000     2.0000 </r>
       <r>   -20.9051     0.0000     2.0000 </r>
       <r>   -20.7952     0.0000     2.0000 </r>
       <r>   -20.6854     0.0000     2.0000 </r>
       <r>   -20.5755     0.0000     2.0000 </r>
       <r>   -20.4656     0.0000     2.0000 </r>
       <r>   -20.3557     0.0000     2.0000 </r>
       <r>   -20.2458     0.0000     2.0000 </r>
       <r>   -20.1359     0.0000     2.0000 </r>
       <r>   -20.0260     0.0000     2.0000 </r>
       <r>   -19.9162     0.0000     2.0000 </r>
       <r>   -19.8063     0.0000     2.0000 </r>
       <r>   -19.6964     0.0000     2.0000 </r>
       <r>   -19.5865     0.0000     2.0000 </r>
       <r>   -19.4766     0.0000     2.0000 </r>
       <r>   -19.3667     0.0000     2.0000 </r>
       <r>   -19.2568     0.0000     2.0000 </r>
       <r>   -19.1470     0.0000     2.0000 </r>
       <r>   -19.0371     0.0000     2.0000 </r>
       <r>   -18.9272     0.0000     2.0000 </r>
       <r>   -18.8173     0.0000     2.0000 </r>
       <r>   -18.7074     0.0000     2.0000 </r>
       <r>   -18.5975     0.0000     2.0000 </r>
       <r>   -18.4876     0.0000     2.0000 </r>
       <r>   -18.3778     0.0000     2.0000 </r>
       <r>   -18.2679     0.0000     2.0000 </r>
       <r>   -18.1580     0.0000     2.0000 </r>
       <r>   -18.0481     0.0000     2.0000 </r>
       <r>   -17.9382     0.0000     2.0000 </r>
       <r>   -17.8283     0.0000     2.0000 </r>
       <r>   -17.7184     0.0000     2.0000 </r>
       <r>   -17.6086     0.0000     2.0000 </r>
       <r>   -17.4987     0.0000     2.0000 </r>
       <r>   -17.3888     0.0000     2.0000 </r>
       <r>   -17.2789     0.0000     2.0000 </r>
       <r>   -17.1690     0.0000     2.0000 </r>
       <r>   -17.0591     0.0000     2.0000 </r>
       <r>   -16.9492     0.0000     2.0000 </r>
       <r>   -16.8394     0.0000     2.0000 </r>
       <r>   -16.7295     0.0000     2.0000 </r>
       <r>   -16.6196     0.0000     2.0000 </r>
       <r>   -16.5097     0.0000     2.0000 </r>
       <r>   -16.3998     0.0000     2.0000 </r>
       <r>   -16.2899     0.0000     2.0000 </r>
       <r>   -16.1800     0.0000     2.0000 </r>
       <r>   -16.0702     0.0000     2.0000 </r>
       <r>   -15.9603     0.0000     2.0000 </r>
       <r>   -15.8504     0.0000     2.0000 </r>
       <r>   -15.7405     0.0000     2.0000 </r>
       <r>   -15.6306     0.0000     2.0000 </r>
       <r>   -15.5207     0.0000     2.0000 </r>
       <r>   -15.4108     0.0000     2.0000 </r>
       <r>   -15.3009     0.0000     2.0000 </r>
       <r>   -15.1911     0.0009     2.0001 </r>
       <r>   -15.0812     0.0121     2.0014 </r>
       <r>   -14.9713     0.0576     2.0078 </r>
       <r>   -14.8614    -0.0716     1.9999 </r>
       <r>   -14.7515    -0.7671     1.9156 </r>
       <r>   -14.6416     0.9964     2.0251 </r>
       <r>   -14.5317     7.8942     2.8926 </r>
       <r>   -14.4219     8.9484     3.8759 </r>
       <r>   -14.3120     2.0255     4.0984 </r>
       <r>   -14.2021    -0.8100     4.0094 </r>
       <r>   -14.0922    -0.1685     3.9909 </r>
       <r>   -13.9823     0.0633     3.9979 </r>
       <r>   -13.8724     0.0178     3.9998 </r>
       <r>   -13.7625     0.0015     4.0000 </r>
       <r>   -13.6527     0.0001     4.0000 </r>
       <r>   -13.5428     0.0002     4.0000 </r>
       <r>   -13.4329     0.0044     4.0005 </r>
       <r>   -13.3230     0.0351     4.0044 </r>
       <r>   -13.2131     0.0456     4.0094 </r>
       <r>   -13.1032    -0.4503     3.9599 </r>
       <r>   -12.9933    -0.4179     3.9140 </r>
       <r>   -12.8835     4.7987     4.4413 </r>
       <r>   -12.7736     9.4490     5.4796 </r>
       <r>   -12.6637     4.8091     6.0080 </r>
       <r>   -12.5538     5.0805     6.5663 </r>
       <r>   -12.4439     9.4617     7.6060 </r>
       <r>   -12.3340     4.4183     8.0915 </r>
       <r>   -12.2241    -0.5123     8.0352 </r>
       <r>   -12.1143    -0.4088     7.9903 </r>
       <r>   -12.0044     0.0515     7.9960 </r>
       <r>   -11.8945     0.0324     7.9996 </r>
       <r>   -11.7846     0.0039     8.0000 </r>
       <r>   -11.6747     0.0002     8.0000 </r>
       <r>   -11.5648     0.0000     8.0000 </r>
       <r>   -11.4549     0.0008     8.0001 </r>
       <r>   -11.3451     0.0115     8.0014 </r>
       <r>   -11.2352     0.0564     8.0076 </r>
       <r>   -11.1253    -0.0607     8.0009 </r>
       <r>   -11.0154    -0.7546     7.9180 </r>
       <r>   -10.9055     0.8737     8.0140 </r>
       <r>   -10.7956     7.7289     8.8633 </r>
       <r>   -10.6857     9.0686     9.8598 </r>
       <r>   -10.5759     2.1837    10.0998 </r>
       <r>   -10.4660    -0.8077    10.0110 </r>
       <r>   -10.3561    -0.1841     9.9908 </r>
       <r>   -10.2462     0.0636     9.9978 </r>
       <r>   -10.1363     0.0187     9.9998 </r>
       <r>   -10.0264     0.0017    10.0000 </r>
       <r>    -9.9165     0.0001    10.0000 </r>
       <r>    -9.8067     0.0000    10.0000 </r>
       <r>    -9.6968     0.0000    10.0000 </r>
       <r>    -9.5869     0.0000    10.0000 </r>
       <r>    -9.4770     0.0000    10.0000 </r>
       <r>    -9.3671     0.0000    10.0000 </r>
       <r>    -9.2572     0.0000    10.0000 </r>
       <r>    -9.1473     0.0000    10.0000 </r>
       <r>    -9.0375     0.0000    10.0000 </r>
       <r>    -8.9276     0.0000    10.0000 </r>
       <r>    -8.8177     0.0000    10.0000 </r>
       <r>    -8.7078     0.0000    10.0000 </r>
       <r>    -8.5979     0.0000    10.0000 </r>
       <r>    -8.4880     0.0000    10.0000 </r>
       <r>    -8.3781     0.0000    10.0000 </r>
       <r>    -8.2682     0.0000    10.0000 </r>
       <r>    -8.1584     0.0000    10.0000 </r>
       <r>    -8.0485     0.0000    10.0000 </r>
       <r>    -7.9386     0.0000    10.0000 </r>
       <r>    -7.8287     0.0000    10.0000 </r>
       <r>    -7.7188     0.0000    10.0000 </r>
       <r>    -7.6089     0.0000    10.0000 </r>
       <r>    -7.4990     0.0000    10.0000 </r>
       <r>    -7.3892     0.0002    10.0000 </r>
       <r>    -7.2793     0.0035    10.0004 </r>
       <r>    -7.1694     0.0351    10.0043 </r>
       <r>    -7.0595     0.1019    10.0155 </r>
       <r>    -6.9496    -0.3299     9.9792 </r>
       <r>    -6.8397    -1.2261     9.8445 </r>
       <r>    -6.7298     3.7888    10.2608 </r>
       <r>    -6.6200    15.6163    11.9768 </r>
       <r>    -6.5101    15.3695    13.6657 </r>
       <r>    -6.4002     6.2768    14.3554 </r>
       <r>    -6.2903     6.3334    15.0514 </r>
       <r>    -6.1804    15.4068    16.7444 </r>
       <r>    -6.0705    27.4397    19.7596 </r>
       <r>    -5.9606    18.4815    21.7905 </r>
       <r>    -5.8508    15.4927    23.4929 </r>
       <r>    -5.7409    44.8155    28.4175 </r>
       <r>    -5.6310    95.4355    38.9045 </r>
       <r>    -5.5211   189.4152    59.7186 </r>
       <r>    -5.4112   282.2778    90.7369 </r>
       <r>    -5.3013   277.3288   121.2115 </r>
       <r>    -5.1914   225.0663   145.9431 </r>
       <r>    -5.0816   242.7784   172.6210 </r>
       <r>    -4.9717   326.7096   208.5218 </r>
       <r>    -4.8618   358.7203   247.9401 </r>
       <r>    -4.7519   311.2157   282.1383 </r>
       <r>    -4.6420   325.7637   317.9352 </r>
       <r>    -4.5321   395.3501   361.3786 </r>
       <r>    -4.4222   409.0832   406.3311 </r>
       <r>    -4.3124   463.6363   457.2782 </r>
       <r>    -4.2025   550.5759   517.7788 </r>
       <r>    -4.0926   417.5827   563.6652 </r>
       <r>    -3.9827   139.2158   578.9631 </r>
       <r>    -3.8728    18.9132   581.0414 </r>
       <r>    -3.7629    25.7812   583.8744 </r>
       <r>    -3.6530    20.8012   586.1602 </r>
       <r>    -3.5432    14.8122   587.7878 </r>
       <r>    -3.4333    21.9262   590.1972 </r>
       <r>    -3.3234    15.4050   591.8900 </r>
       <r>    -3.2135     4.5174   592.3864 </r>
       <r>    -3.1036    18.6981   594.4410 </r>
       <r>    -2.9937    52.3967   600.1987 </r>
       <r>    -2.8838    54.5314   606.1909 </r>
       <r>    -2.7740    24.0584   608.8346 </r>
       <r>    -2.6641     6.5575   609.5552 </r>
       <r>    -2.5542     9.6989   610.6210 </r>
       <r>    -2.4443    26.2321   613.5035 </r>
       <r>    -2.3344    27.9982   616.5801 </r>
       <r>    -2.2245    15.6728   618.3023 </r>
       <r>    -2.1146    15.8665   620.0458 </r>
       <r>    -2.0048    27.4429   623.0614 </r>
       <r>    -1.8949    42.3861   627.7191 </r>
       <r>    -1.7850    48.8801   633.0903 </r>
       <r>    -1.6751    39.8585   637.4702 </r>
       <r>    -1.5652    31.3250   640.9124 </r>
       <r>    -1.4553    29.6863   644.1745 </r>
       <r>    -1.3454    30.4900   647.5249 </r>
       <r>    -1.2355    28.0655   650.6089 </r>
       <r>    -1.1257    23.2109   653.1594 </r>
       <r>    -1.0158    25.9262   656.0084 </r>
       <r>    -0.9059    47.3349   661.2098 </r>
       <r>    -0.7960    57.1212   667.4866 </r>
       <r>    -0.6861    35.0946   671.3430 </r>
       <r>    -0.5762     8.2199   672.2463 </r>
       <r>    -0.4663    -1.7323   672.0559 </r>
       <r>    -0.3565    -0.7974   671.9683 </r>
       <r>    -0.2466     0.1771   671.9878 </r>
       <r>    -0.1367     0.0973   671.9985 </r>
       <r>    -0.0268     0.0132   671.9999 </r>
       <r>     0.0831     0.0008   672.0000 </r>
       <r>     0.1930     0.0000   672.0000 </r>
       <r>     0.3029     0.0000   672.0000 </r>
       <r>     0.4127     0.0000   672.0000 </r>
       <r>     0.5226     0.0000   672.0000 </r>
       <r>     0.6325     0.0000   672.0000 </r>
       <r>     0.7424     0.0000   672.0000 </r>
       <r>     0.8523     0.0000   672.0000 </r>
       <r>     0.9622     0.0000   672.0000 </r>
       <r>     1.0721     0.0000   672.0000 </r>
       <r>     1.1819     0.0000   672.0000 </r>
       <r>     1.2918     0.0000   672.0000 </r>
      </set>
     </set>
    </array>
   </total>
  </dos>
 </calculation>
 <structure name="finalpos" >
  <crystal>
   <varray name="basis" >
    <v>      30.00000000       0.00000000       0.00000000 </v>
    <v>       0.00000000      30.00000000       0.00000000 </v>
    <v>       0.00000000       0.00000000      30.00000000 </v>
   </varray>
   <i name="volume">  27000.00000000 </i>
   <varray name="rec_basis" >
    <v>       0.03333333       0.00000000       0.00000000 </v>
    <v>       0.00000000       0.03333333       0.00000000 </v>
    <v>       0.00000000       0.00000000       0.03333333 </v>
   </varray>
  </crystal>
  <varray name="positions" >
   <v>       0.44576020       0.32826710       0.41691983 </v>
   <v>       0.67173288       0.55423978       0.41691983 </v>
   <v>       0.55423980       0.32826710       0.41691983 </v>
   <v>       0.32826712       0.55423978       0.41691983 </v>
   <v>       0.50000000       0.38250690       0.34021317 </v>
   <v>       0.50000000       0.38250690       0.65978680 </v>
   <v>       0.50000000       0.27609440       0.50000000 </v>
   <v>       0.27609443       0.49999998       0.50000000 </v>
   <v>       0.72390557       0.49999998       0.50000000 </v>
   <v>       0.50000000       0.72390555       0.50000000 </v>
   <v>       0.61195280       0.38804720       0.34167483 </v>
   <v>       0.61195280       0.38804720       0.65832513 </v>
   <v>       0.38804722       0.61195278       0.34167483 </v>
   <v>       0.38804722       0.61195278       0.65832513 </v>
   <v>       0.38804720       0.38804720       0.34167483 </v>
   <v>       0.38804720       0.38804720       0.65832513 </v>
   <v>       0.61195278       0.61195278       0.34167483 </v>
   <v>       0.61195278       0.61195278       0.65832513 </v>
   <v>       0.44576020       0.32826710       0.58308023 </v>
   <v>       0.67173288       0.55423978       0.58308023 </v>
   <v>       0.55791699       0.44208301       0.41809300 </v>
   <v>       0.32826705       0.44576024       0.41691983 </v>
   <v>       0.55423973       0.67173293       0.41691983 </v>
   <v>       0.55423980       0.32826710       0.58308023 </v>
   <v>       0.32826712       0.55423978       0.58308023 </v>
   <v>       0.67173295       0.44576024       0.41691983 </v>
   <v>       0.44576027       0.67173293       0.41691983 </v>
   <v>       0.44208301       0.44208301       0.41809300 </v>
   <v>       0.50000000       0.38416601       0.50000000 </v>
   <v>       0.61749315       0.50000005       0.34021317 </v>
   <v>       0.61749315       0.50000005       0.65978680 </v>
   <v>       0.38250685       0.50000005       0.34021317 </v>
   <v>       0.38250685       0.50000005       0.65978680 </v>
   <v>       0.38317830       0.38317830       0.50000000 </v>
   <v>       0.61682172       0.61682172       0.50000000 </v>
   <v>       0.61682170       0.38317830       0.50000000 </v>
   <v>       0.38317828       0.61682172       0.50000000 </v>
   <v>       0.50000000       0.50000000       0.33478917 </v>
   <v>       0.50000000       0.50000000       0.66521087 </v>
   <v>       0.32826705       0.44576024       0.58308023 </v>
   <v>       0.55423973       0.67173293       0.58308023 </v>
   <v>       0.55791699       0.44208301       0.58190703 </v>
   <v>       0.44208298       0.55791702       0.41809300 </v>
   <v>       0.44208301       0.44208301       0.58190703 </v>
   <v>       0.67173295       0.44576024       0.58308023 </v>
   <v>       0.44576027       0.67173293       0.58308023 </v>
   <v>       0.55791702       0.55791702       0.41809300 </v>
   <v>       0.38416599       0.50000002       0.50000000 </v>
   <v>       0.61583401       0.50000002       0.50000000 </v>
   <v>       0.50000000       0.61749319       0.34021317 </v>
   <v>       0.50000000       0.61749319       0.65978680 </v>
   <v>       0.50000000       0.50000000       0.50000000 </v>
   <v>       0.44208298       0.55791702       0.58190703 </v>
   <v>       0.55791702       0.55791702       0.58190703 </v>
   <v>       0.50000000       0.61583404       0.50000000 </v>
   <v>       0.55264630       0.56288880       0.34759120 </v>
   <v>       0.56408353       0.57655117       0.31448093 </v>
  </varray>
  <varray name="selective"  type="logical" >
   <v type="logical" >  F  F  F </v>
   <v type="logical" >  F  F  F </v>
   <v type="logical" >  F  F  F </v>
   <v type="logical" >  F  F  F </v>
   <v type="logical" >  F  F  F </v>
   <v type="logical" >  F  F  F </v>
   <v type="logical" >  F  F  F </v>
   <v type="logical" >  F  F  F </v>
   <v type="logical" >  F  F  F </v>
   <v type="logical" >  F  F  F </v>
   <v type="logical" >  F  F  F </v>
   <v type="logical" >  F  F  F </v>
   <v type="logical" >  F  F  F </v>
   <v type="logical" >  F  F  F </v>
   <v type="logical" >  F  F  F </v>
   <v type="logical" >  F  F  F </v>
   <v type="logical" >  F  F  F </v>
   <v type="logical" >  F  F  F </v>
   <v type="logical" >  F  F  F </v>
   <v type="logical" >  F  F  F </v>
   <v type="logical" >  F  F  F </v>
   <v type="logical" >  F  F  F </v>
   <v type="logical" >  F  F  F </v>
   <v type="logical" >  F  F  F </v>
   <v type="logical" >  F  F  F </v>
   <v type="logical" >  F  F  F </v>
   <v type="logical" >  F  F  F </v>
   <v type="logical" >  F  F  F </v>
   <v type="logical" >  F  F  F </v>
   <v type="logical" >  F  F  F </v>
   <v type="logical" >  F  F  F </v>
   <v type="logical" >  F  F  F </v>
   <v type="logical" >  F  F  F </v>
   <v type="logical" >  F  F  F </v>
   <v type="logical" >  F  F  F </v>
   <v type="logical" >  F  F  F </v>
   <v type="logical" >  F  F  F </v>
   <v type="logical" >  F  F  F </v>
   <v type="logical" >  F  F  F </v>
   <v type="logical" >  F  F  F </v>
   <v type="logical" >  F  F  F </v>
   <v type="logical" >  F  F  F </v>
   <v type="logical" >  F  F  F </v>
   <v type="logical" >  F  F  F </v>
   <v type="logical" >  F  F  F </v>
   <v type="logical" >  F  F  F </v>
   <v type="logical" >  F  F  F </v>
   <v type="logical" >  F  F  F </v>
   <v type="logical" >  F  F  F </v>
   <v type="logical" >  F  F  F </v>
   <v type="logical" >  F  F  F </v>
   <v type="logical" >  F  F  F </v>
   <v type="logical" >  F  F  F </v>
   <v type="logical" >  F  F  F </v>
   <v type="logical" >  F  F  F </v>
   <v type="logical" >  F  F  F </v>
   <v type="logical" >  F  F  F </v>
  </varray>
  <nose>
   <v>      -3.00000000       0.00000000       0.00010000       0.00010000 </v>
  </nose>
 </structure>
</modeling>
