<?xml version="1.0" encoding="ISO-8859-1"?>
<modeling>
 <generator>
  <i name="program" type="string">vasp </i>
  <i name="version" type="string">5.4.4.18Apr17-6-g9f103f2a35  </i>
  <i name="subversion" type="string">(build Sep 03 2018 23:53:05) complex            parallel </i>
  <i name="platform" type="string">LinuxIFC </i>
  <i name="date" type="string">2021 11 26 </i>
  <i name="time" type="string">00:29:46 </i>
 </generator>
 <incar>
  <i type="string" name="SYSTEM"> 6_Pd100_top_free_z(O)</i>
  <i type="int" name="ISTART">     0</i>
  <i type="string" name="PREC">normal   			! encut=max(enmax), ngx,y,z</i>
  <i type="string" name="ALGO"> Fast     			! Mix RMM-DIIS and Dav</i>
  <i type="logical" name="ADDGRID"> F  </i>
  <i type="int" name="ISPIN">     1</i>
  <i type="int" name="ICHARG">     2</i>
  <i type="int" name="NELM">   100</i>
  <i type="int" name="NELMIN">     6</i>
  <i type="int" name="IBRION">     2</i>
  <i name="EDIFF">      0.00010000</i>
  <i name="EDIFFG">     -0.05000000</i>
  <i type="int" name="NSW">     0</i>
  <i type="int" name="ISIF">     2</i>
  <i type="int" name="ISYM">     2</i>
  <i name="ENCUT">    400.00000000</i>
  <i type="string" name="LREAL"> Auto     			! Auto or A projection done</i>
  <i type="int" name="ISMEAR">     2</i>
  <i name="SIGMA">      0.20000000</i>
  <i type="logical" name="LWAVE"> F  </i>
  <i type="logical" name="LCHARG"> F  </i>
  <v type="int" name="KPOINT_BSE">    -1     0     0     0</v>
  <i type="int" name="MAXMEM"> 10000</i>
  <i type="int" name="NELM">   100</i>
  <i type="string" name="GGA"> RP         			! Revised PBE</i>
 </incar>
 <structure name="primitive_cell" >
  <crystal>
   <varray name="basis" >
    <v>      30.00000000       0.00000000       0.00000000 </v>
    <v>       0.00000000      30.00000000       0.00000000 </v>
    <v>       0.00000000       0.00000000      30.00000000 </v>
   </varray>
   <i name="volume">  27000.00000000 </i>
   <varray name="rec_basis" >
    <v>       0.03333333       0.00000000       0.00000000 </v>
    <v>       0.00000000       0.03333333       0.00000000 </v>
    <v>       0.00000000       0.00000000       0.03333333 </v>
   </varray>
  </crystal>
  <varray name="positions" >
   <v>       0.44576020       0.32826710       0.41691983 </v>
   <v>      -0.44576020       0.32826710       0.41691983 </v>
   <v>      -0.50000000       0.38250690       0.34021317 </v>
   <v>      -0.50000000       0.27609440      -0.50000000 </v>
   <v>       0.38804720       0.38804720       0.34167483 </v>
   <v>      -0.50000000       0.38416601      -0.50000000 </v>
   <v>       0.44208300       0.44208300       0.41809300 </v>
   <v>       0.38317830       0.38317830      -0.50000000 </v>
   <v>      -0.44208300       0.44208300       0.41809300 </v>
   <v>       0.44576020       0.32826710      -0.41691977 </v>
   <v>       0.32826705       0.44576024       0.41691983 </v>
   <v>      -0.38804720       0.38804720       0.34167483 </v>
   <v>      -0.38317830       0.38317830      -0.50000000 </v>
   <v>      -0.50000000      -0.50000000       0.33478917 </v>
   <v>      -0.50000000      -0.50000000      -0.50000000 </v>
   <v>      -0.44576020       0.32826710      -0.41691977 </v>
   <v>       0.38250685      -0.49999995       0.34021317 </v>
   <v>       0.44208300       0.44208300      -0.41809297 </v>
   <v>       0.38416599      -0.49999998      -0.50000000 </v>
   <v>      -0.40949593       0.25966147      -0.42291777 </v>
   <v>      -0.44208300       0.44208300      -0.41809297 </v>
   <v>       0.44208298      -0.44208298       0.41809300 </v>
   <v>       0.32826705       0.44576024      -0.41691977 </v>
   <v>      -0.39680463       0.22595903      -0.41210860 </v>
   <v>      -0.50000000       0.38250690      -0.34021320 </v>
   <v>       0.32826712      -0.44576022       0.41691983 </v>
   <v>      -0.38250685      -0.49999995       0.34021317 </v>
   <v>      -0.32826705       0.44576024       0.41691983 </v>
   <v>       0.27609443       0.49999998      -0.50000000 </v>
   <v>       0.38804720       0.38804720      -0.34167487 </v>
   <v>      -0.38416599      -0.49999998      -0.50000000 </v>
   <v>      -0.44208298      -0.44208298       0.41809300 </v>
   <v>       0.44208298      -0.44208298      -0.41809297 </v>
   <v>      -0.38804720       0.38804720      -0.34167487 </v>
   <v>       0.38804722      -0.38804722       0.34167483 </v>
   <v>       0.38250685      -0.49999995      -0.34021320 </v>
   <v>       0.32826712      -0.44576022      -0.41691977 </v>
   <v>      -0.32826705       0.44576024      -0.41691977 </v>
   <v>       0.50000000      -0.38250681       0.34021317 </v>
   <v>      -0.50000000      -0.38416596      -0.50000000 </v>
   <v>      -0.44208298      -0.44208298      -0.41809297 </v>
   <v>      -0.50000000      -0.50000000      -0.33478913 </v>
   <v>       0.38317828      -0.38317828      -0.50000000 </v>
   <v>      -0.32826712      -0.44576022       0.41691983 </v>
   <v>      -0.27609443       0.49999998      -0.50000000 </v>
   <v>      -0.38804722      -0.38804722       0.34167483 </v>
   <v>      -0.38250685      -0.49999995      -0.34021320 </v>
   <v>       0.44576027      -0.32826707       0.41691983 </v>
   <v>      -0.38317828      -0.38317828      -0.50000000 </v>
   <v>      -0.32826712      -0.44576022      -0.41691977 </v>
   <v>      -0.44576027      -0.32826707       0.41691983 </v>
   <v>       0.38804722      -0.38804722      -0.34167487 </v>
   <v>      -0.50000000      -0.38250681      -0.34021320 </v>
   <v>       0.44576027      -0.32826707      -0.41691977 </v>
   <v>      -0.44576027      -0.32826707      -0.41691977 </v>
   <v>      -0.50000000      -0.27609445       0.50000000 </v>
   <v>      -0.38804722      -0.38804722      -0.34167487 </v>
  </varray>
 </structure>
 <varray name="primitive_index" >
  <v type="int" >        1 </v>
  <v type="int" >        3 </v>
  <v type="int" >        5 </v>
  <v type="int" >        7 </v>
  <v type="int" >       15 </v>
  <v type="int" >       29 </v>
  <v type="int" >       28 </v>
  <v type="int" >       34 </v>
  <v type="int" >       21 </v>
  <v type="int" >       19 </v>
  <v type="int" >       22 </v>
  <v type="int" >       11 </v>
  <v type="int" >       36 </v>
  <v type="int" >       38 </v>
  <v type="int" >       52 </v>
  <v type="int" >       24 </v>
  <v type="int" >       32 </v>
  <v type="int" >       44 </v>
  <v type="int" >       48 </v>
  <v type="int" >       56 </v>
  <v type="int" >       42 </v>
  <v type="int" >       43 </v>
  <v type="int" >       40 </v>
  <v type="int" >       57 </v>
  <v type="int" >        6 </v>
  <v type="int" >        4 </v>
  <v type="int" >       30 </v>
  <v type="int" >       26 </v>
  <v type="int" >        8 </v>
  <v type="int" >       16 </v>
  <v type="int" >       49 </v>
  <v type="int" >       47 </v>
  <v type="int" >       53 </v>
  <v type="int" >       12 </v>
  <v type="int" >       13 </v>
  <v type="int" >       33 </v>
  <v type="int" >       25 </v>
  <v type="int" >       45 </v>
  <v type="int" >       50 </v>
  <v type="int" >       55 </v>
  <v type="int" >       54 </v>
  <v type="int" >       39 </v>
  <v type="int" >       37 </v>
  <v type="int" >        2 </v>
  <v type="int" >        9 </v>
  <v type="int" >       17 </v>
  <v type="int" >       31 </v>
  <v type="int" >       27 </v>
  <v type="int" >       35 </v>
  <v type="int" >       20 </v>
  <v type="int" >       23 </v>
  <v type="int" >       14 </v>
  <v type="int" >       51 </v>
  <v type="int" >       46 </v>
  <v type="int" >       41 </v>
  <v type="int" >       10 </v>
  <v type="int" >       18 </v>
 </varray>
 <kpoints>
  <generation param="Monkhorst-Pack">
   <v type="int" name="divisions">       1        1        1 </v>
   <v name="usershift">      0.00000000       0.00000000       0.00000000 </v>
   <v name="genvec1">      1.00000000       0.00000000       0.00000000 </v>
   <v name="genvec2">      0.00000000       1.00000000       0.00000000 </v>
   <v name="genvec3">      0.00000000       0.00000000       1.00000000 </v>
   <v name="shift">      0.00000000       0.00000000       0.00000000 </v>
  </generation>
  <varray name="kpointlist" >
   <v>       0.00000000       0.00000000       0.00000000 </v>
  </varray>
  <varray name="weights" >
   <v>       1.00000000 </v>
  </varray>
 </kpoints>
 <parameters>
  <separator name="general" >
   <i type="string" name="SYSTEM">6_Pd100_top_free_z(O)</i>
   <i type="logical" name="LCOMPAT"> F  </i>
  </separator>
  <separator name="electronic" >
   <i type="string" name="PREC">normal</i>
   <i name="ENMAX">    400.00000000</i>
   <i name="ENAUG">    644.87300000</i>
   <i name="EDIFF">      0.00010000</i>
   <i type="int" name="IALGO">    68</i>
   <i type="int" name="IWAVPR">    10</i>
   <i type="int" name="NBANDS">   336</i>
   <i name="NELECT">    560.00000000</i>
   <i type="int" name="TURBO">     0</i>
   <i type="int" name="IRESTART">     0</i>
   <i type="int" name="NREBOOT">     0</i>
   <i type="int" name="NMIN">     0</i>
   <i name="EREF">      0.00000000</i>
   <separator name="electronic smearing" >
    <i type="int" name="ISMEAR">     2</i>
    <i name="SIGMA">      0.20000000</i>
    <i name="KSPACING">      0.50000000</i>
    <i type="logical" name="KGAMMA"> T  </i>
   </separator>
   <separator name="electronic projectors" >
    <i type="logical" name="LREAL"> T  </i>
    <v name="ROPT">     -0.00050000     -0.00050000     -0.00050000</v>
    <i type="int" name="LMAXPAW">  -100</i>
    <i type="int" name="LMAXMIX">     2</i>
    <i type="logical" name="NLSPLINE"> F  </i>
   </separator>
   <separator name="electronic startup" >
    <i type="int" name="ISTART">     0</i>
    <i type="int" name="ICHARG">     2</i>
    <i type="int" name="INIWAV">     1</i>
   </separator>
   <separator name="electronic spin" >
    <i type="int" name="ISPIN">     1</i>
    <i type="logical" name="LNONCOLLINEAR"> F  </i>
    <v name="MAGMOM">      1.00000000      1.00000000      1.00000000      1.00000000      1.00000000      1.00000000      1.00000000      1.00000000      1.00000000      1.00000000      1.00000000      1.00000000      1.00000000      1.00000000      1.00000000      1.00000000      1.00000000      1.00000000      1.00000000      1.00000000
      1.00000000      1.00000000      1.00000000      1.00000000      1.00000000      1.00000000      1.00000000      1.00000000      1.00000000      1.00000000      1.00000000      1.00000000      1.00000000      1.00000000      1.00000000      1.00000000      1.00000000      1.00000000      1.00000000      1.00000000
      1.00000000      1.00000000      1.00000000      1.00000000      1.00000000      1.00000000      1.00000000      1.00000000      1.00000000      1.00000000      1.00000000      1.00000000      1.00000000      1.00000000      1.00000000      1.00000000      1.00000000</v>
    <i name="NUPDOWN">     -1.00000000</i>
    <i type="logical" name="LSORBIT"> F  </i>
    <v name="SAXIS">      0.00000000      0.00000000      1.00000000</v>
    <i type="logical" name="LSPIRAL"> F  </i>
    <v name="QSPIRAL">      0.00000000      0.00000000      0.00000000</v>
    <i type="logical" name="LZEROZ"> F  </i>
   </separator>
   <separator name="electronic exchange-correlation" >
    <i type="logical" name="LASPH"> F  </i>
    <i type="logical" name="LMETAGGA"> F  </i>
   </separator>
   <separator name="electronic convergence" >
    <i type="int" name="NELM">   100</i>
    <i type="int" name="NELMDL">    -5</i>
    <i type="int" name="NELMIN">     6</i>
    <i name="ENINI">    400.00000000</i>
    <separator name="electronic convergence detail" >
     <i type="logical" name="LDIAG"> T  </i>
     <i type="logical" name="LSUBROT"> F  </i>
     <i name="WEIMIN">      0.00000000</i>
     <i name="EBREAK">      0.00000007</i>
     <i name="DEPER">      0.30000000</i>
     <i type="int" name="NRMM">     4</i>
     <i name="TIME">      0.40000000</i>
    </separator>
   </separator>
   <separator name="electronic mixer" >
    <i name="AMIX">      0.40000000</i>
    <i name="BMIX">      1.00000000</i>
    <i name="AMIN">      0.10000000</i>
    <i name="AMIX_MAG">      1.60000000</i>
    <i name="BMIX_MAG">      1.00000000</i>
    <separator name="electronic mixer details" >
     <i type="int" name="IMIX">     4</i>
     <i type="logical" name="MIXFIRST"> F  </i>
     <i type="int" name="MAXMIX">   -45</i>
     <i name="WC">    100.00000000</i>
     <i type="int" name="INIMIX">     1</i>
     <i type="int" name="MIXPRE">     1</i>
     <i type="int" name="MREMOVE">     5</i>
    </separator>
   </separator>
   <separator name="electronic dipolcorrection" >
    <i type="logical" name="LDIPOL"> F  </i>
    <i type="logical" name="LMONO"> F  </i>
    <i type="int" name="IDIPOL">     0</i>
    <i name="EPSILON">      1.00000000</i>
    <v name="DIPOL">   -100.00000000   -100.00000000   -100.00000000</v>
    <i name="EFIELD">      0.00000000</i>
   </separator>
  </separator>
  <separator name="grids" >
   <i type="int" name="NGX">   150</i>
   <i type="int" name="NGY">   150</i>
   <i type="int" name="NGZ">   150</i>
   <i type="int" name="NGXF">   300</i>
   <i type="int" name="NGYF">   300</i>
   <i type="int" name="NGZF">   300</i>
   <i type="logical" name="ADDGRID"> F  </i>
  </separator>
  <separator name="ionic" >
   <i type="int" name="NSW">     0</i>
   <i type="int" name="IBRION">    -1</i>
   <i type="int" name="MDALGO">     0</i>
   <i type="int" name="ISIF">     2</i>
   <i name="PSTRESS">      0.00000000</i>
   <i name="EDIFFG">     -0.05000000</i>
   <i type="int" name="NFREE">     1</i>
   <i name="POTIM">      0.50000000</i>
   <i name="SMASS">     -3.00000000</i>
   <i name="SCALEE">      1.00000000</i>
  </separator>
  <separator name="ionic md" >
   <i name="TEBEG">      0.00010000</i>
   <i name="TEEND">      0.00010000</i>
   <i type="int" name="NBLOCK">     1</i>
   <i type="int" name="KBLOCK">     1</i>
   <i type="int" name="NPACO">   256</i>
   <i name="APACO">     16.00000000</i>
  </separator>
  <separator name="symmetry" >
   <i type="int" name="ISYM">     2</i>
   <i name="SYMPREC">      0.00001000</i>
  </separator>
  <separator name="dos" >
   <i type="int" name="LORBIT">     0</i>
   <v name="RWIGS">     -1.00000000     -1.00000000     -1.00000000</v>
   <i type="int" name="NEDOS">   301</i>
   <i name="EMIN">     10.00000000</i>
   <i name="EMAX">    -10.00000000</i>
   <i name="EFERMI">      0.00000000</i>
  </separator>
  <separator name="writing" >
   <i type="int" name="NWRITE">     2</i>
   <i type="logical" name="LWAVE"> F  </i>
   <i type="logical" name="LDOWNSAMPLE"> F  </i>
   <i type="logical" name="LCHARG"> F  </i>
   <i type="logical" name="LPARD"> F  </i>
   <i type="logical" name="LVTOT"> F  </i>
   <i type="logical" name="LVHAR"> F  </i>
   <i type="logical" name="LELF"> F  </i>
   <i type="logical" name="LOPTICS"> F  </i>
   <v name="STM">      0.00000000      0.00000000      0.00000000      0.00000000      0.00000000      0.00000000      0.00000000</v>
  </separator>
  <separator name="performance" >
   <i type="int" name="NPAR">     1</i>
   <i type="int" name="NSIM">     4</i>
   <i type="int" name="NBLK">    -1</i>
   <i type="logical" name="LPLANE"> T  </i>
   <i type="logical" name="LSCALAPACK"> T  </i>
   <i type="logical" name="LSCAAWARE"> F  </i>
   <i type="logical" name="LSCALU"> F  </i>
   <i type="logical" name="LASYNC"> F  </i>
   <i type="logical" name="LORBITALREAL"> F  </i>
  </separator>
  <separator name="miscellaneous" >
   <i type="int" name="IDIOT">     3</i>
   <i type="int" name="ISPECIAL">     0</i>
   <i type="logical" name="LMUSIC"> F  </i>
   <v name="POMASS">    106.42000000     12.01100000     16.00000000</v>
   <v name="DARWINR">      0.00000000      0.00000000      0.00000000</v>
   <v name="DARWINV">      1.00000000      1.00000000      1.00000000</v>
   <i type="logical" name="LCORR"> T  </i>
  </separator>
  <i type="logical" name="GGA_COMPAT"> T  </i>
  <i type="logical" name="LBERRY"> F  </i>
  <i type="int" name="ICORELEVEL">     0</i>
  <i type="logical" name="LDAU"> F  </i>
  <i type="int" name="I_CONSTRAINED_M">     0</i>
  <separator name="electronic exchange-correlation" >
   <i type="string" name="GGA">RP</i>
   <i type="int" name="VOSKOWN">     0</i>
   <i type="logical" name="LHFCALC"> F  </i>
   <i type="string" name="PRECFOCK"></i>
   <i type="logical" name="LSYMGRAD"> F  </i>
   <i type="logical" name="LHFONE"> F  </i>
   <i type="logical" name="LRHFCALC"> F  </i>
   <i type="logical" name="LTHOMAS"> F  </i>
   <i type="logical" name="LMODELHF"> F  </i>
   <i name="ENCUT4O">     -1.00000000</i>
   <i type="int" name="EXXOEP">     0</i>
   <i type="int" name="FOURORBIT">     0</i>
   <i name="AEXX">      0.00000000</i>
   <i name="HFALPHA">      0.00000000</i>
   <i name="MCALPHA">      0.00000000</i>
   <i name="ALDAX">      1.00000000</i>
   <i name="AGGAX">      1.00000000</i>
   <i name="ALDAC">      1.00000000</i>
   <i name="AGGAC">      1.00000000</i>
   <i type="int" name="NKREDX">     1</i>
   <i type="int" name="NKREDY">     1</i>
   <i type="int" name="NKREDZ">     1</i>
   <i type="logical" name="SHIFTRED"> F  </i>
   <i type="logical" name="ODDONLY"> F  </i>
   <i type="logical" name="EVENONLY"> F  </i>
   <i type="int" name="LMAXFOCK">     0</i>
   <i type="int" name="NMAXFOCKAE">     0</i>
   <i type="logical" name="LFOCKAEDFT"> F  </i>
   <i name="HFSCREEN">      0.00000000</i>
   <i name="HFSCREENC">      0.00000000</i>
   <i type="int" name="NBANDSGWLOW">     0</i>
  </separator>
  <separator name="vdW DFT" >
   <i type="logical" name="LUSE_VDW"> F  </i>
   <i name="Zab_VDW">     -0.84910000</i>
   <i name="PARAM1">      0.12340000</i>
   <i name="PARAM2">      1.00000000</i>
   <i name="PARAM3">      0.00000000</i>
  </separator>
  <separator name="model GW" >
   <i type="int" name="MODEL_GW">     0</i>
   <i name="MODEL_EPS0">    284.21052632</i>
   <i name="MODEL_ALPHA">      1.00000000</i>
  </separator>
  <separator name="linear response parameters" >
   <i type="logical" name="LEPSILON"> F  </i>
   <i type="logical" name="LRPA"> F  </i>
   <i type="logical" name="LNABLA"> F  </i>
   <i type="logical" name="LVEL"> F  </i>
   <i type="int" name="KINTER">     0</i>
   <i name="CSHIFT">      0.10000000</i>
   <i name="OMEGAMAX">     -1.00000000</i>
   <i name="DEG_THRESHOLD">      0.00200000</i>
   <i name="RTIME">     -0.10000000</i>
   <i name="WPLASMAI">      0.00000000</i>
   <v name="DFIELD">      0.00000000      0.00000000      0.00000000</v>
   <v name="WPLASMA">      0.00000000      0.00000000      0.00000000      0.00000000      0.00000000      0.00000000      0.00000000      0.00000000      0.00000000</v>
  </separator>
  <separator name="orbital magnetization" >
   <i type="logical" name="NUCIND"> F  </i>
   <v name="MAGPOS">      0.00000000      0.00000000      0.00000000</v>
   <i type="logical" name="LNICSALL"> T  </i>
   <i type="logical" name="ORBITALMAG"> F  </i>
   <i type="logical" name="LMAGBLOCH"> F  </i>
   <i type="logical" name="LCHIMAG"> F  </i>
   <i type="logical" name="LGAUGE"> T  </i>
   <i type="int" name="MAGATOM">     0</i>
   <v name="MAGDIPOL">      0.00000000      0.00000000      0.00000000</v>
   <v name="AVECCONST">      0.00000000      0.00000000      0.00000000</v>
  </separator>
  <separator name="response functions" >
   <i type="logical" name="LADDER"> F  </i>
   <i type="logical" name="LRPAFORCE"> F  </i>
   <i type="logical" name="LFXC"> F  </i>
   <i type="logical" name="LHARTREE"> T  </i>
   <i type="int" name="IBSE">     0</i>
   <v type="int" name="KPOINT">    -1     0     0     0</v>
   <i type="logical" name="LTCTE"> F  </i>
   <i type="logical" name="LTETE"> F  </i>
   <i type="logical" name="LTRIPLET"> F  </i>
   <i type="logical" name="LFXCEPS"> F  </i>
   <i type="logical" name="LFXHEG"> F  </i>
   <i type="int" name="NATURALO">     2</i>
   <i type="logical" name="L2ORDER"> F  </i>
   <i type="logical" name="LMP2LT"> F  </i>
   <i type="logical" name="LUSEW"> F  </i>
   <i name="ENCUTGW">     -2.00000000</i>
   <i name="ENCUTGWSOFT">     -2.00000000</i>
   <i name="ENCUTLF">     -1.00000000</i>
   <i type="int" name="LMAXMP2">    -1</i>
   <i name="SCISSOR">      0.00000000</i>
   <i type="int" name="NOMEGA">     0</i>
   <i type="int" name="NOMEGAR">     0</i>
   <i type="int" name="NBANDSGW">    -1</i>
   <i type="int" name="NBANDSO">    -1</i>
   <i type="int" name="NBANDSV">    -1</i>
   <i type="int" name="NELM">   100</i>
   <i type="int" name="NELMHF">     1</i>
   <i type="int" name="DIM">     3</i>
   <i type="int" name="ANTIRES">     0</i>
   <i name="OMEGAMAX">    -30.00000000</i>
   <i name="OMEGAMIN">    -30.00000000</i>
   <i name="OMEGATL">   -200.00000000</i>
   <i type="int" name="OMEGAGRID">   140</i>
   <i name="CSHIFT">     -0.10000000</i>
   <i type="logical" name="SELFENERGY"> F  </i>
   <i type="logical" name="LSPECTRAL"> F  </i>
   <i type="logical" name="LSPECTRALGW"> F  </i>
   <i type="logical" name="LSINGLES"> F  </i>
   <i type="logical" name="LFERMIGW"> F  </i>
   <i type="logical" name="ODDONLYGW"> F  </i>
   <i type="logical" name="EVENONLYGW"> F  </i>
   <i type="int" name="NKREDLFX">     1</i>
   <i type="int" name="NKREDLFY">     1</i>
   <i type="int" name="NKREDLFZ">     1</i>
   <i type="int" name="MAXMEM"> 10000</i>
   <i type="int" name="TELESCOPE">     0</i>
   <i type="int" name="TAUPAR">     1</i>
   <i type="int" name="OMEGAPAR">    -1</i>
   <i name="LAMBDA">      1.00000000</i>
  </separator>
  <separator name="External order field" >
   <i name="OFIELD_KAPPA">      0.00000000</i>
   <v name="OFIELD_K">      0.00000000      0.00000000      0.00000000</v>
   <i name="OFIELD_Q6_NEAR">      0.00000000</i>
   <i name="OFIELD_Q6_FAR">      0.00000000</i>
   <i name="OFIELD_A">      0.00000000</i>
  </separator>
 </parameters>
 <atominfo>
  <atoms>      57 </atoms>
  <types>       3 </types>
  <array name="atoms" >
   <dimension dim="1">ion</dimension>
   <field type="string">element</field>
   <field type="int">atomtype</field>
   <set>
    <rc><c>Pd</c><c>   1</c></rc>
    <rc><c>Pd</c><c>   1</c></rc>
    <rc><c>Pd</c><c>   1</c></rc>
    <rc><c>Pd</c><c>   1</c></rc>
    <rc><c>Pd</c><c>   1</c></rc>
    <rc><c>Pd</c><c>   1</c></rc>
    <rc><c>Pd</c><c>   1</c></rc>
    <rc><c>Pd</c><c>   1</c></rc>
    <rc><c>Pd</c><c>   1</c></rc>
    <rc><c>Pd</c><c>   1</c></rc>
    <rc><c>Pd</c><c>   1</c></rc>
    <rc><c>Pd</c><c>   1</c></rc>
    <rc><c>Pd</c><c>   1</c></rc>
    <rc><c>Pd</c><c>   1</c></rc>
    <rc><c>Pd</c><c>   1</c></rc>
    <rc><c>Pd</c><c>   1</c></rc>
    <rc><c>Pd</c><c>   1</c></rc>
    <rc><c>Pd</c><c>   1</c></rc>
    <rc><c>Pd</c><c>   1</c></rc>
    <rc><c>Pd</c><c>   1</c></rc>
    <rc><c>Pd</c><c>   1</c></rc>
    <rc><c>Pd</c><c>   1</c></rc>
    <rc><c>Pd</c><c>   1</c></rc>
    <rc><c>Pd</c><c>   1</c></rc>
    <rc><c>Pd</c><c>   1</c></rc>
    <rc><c>Pd</c><c>   1</c></rc>
    <rc><c>Pd</c><c>   1</c></rc>
    <rc><c>Pd</c><c>   1</c></rc>
    <rc><c>Pd</c><c>   1</c></rc>
    <rc><c>Pd</c><c>   1</c></rc>
    <rc><c>Pd</c><c>   1</c></rc>
    <rc><c>Pd</c><c>   1</c></rc>
    <rc><c>Pd</c><c>   1</c></rc>
    <rc><c>Pd</c><c>   1</c></rc>
    <rc><c>Pd</c><c>   1</c></rc>
    <rc><c>Pd</c><c>   1</c></rc>
    <rc><c>Pd</c><c>   1</c></rc>
    <rc><c>Pd</c><c>   1</c></rc>
    <rc><c>Pd</c><c>   1</c></rc>
    <rc><c>Pd</c><c>   1</c></rc>
    <rc><c>Pd</c><c>   1</c></rc>
    <rc><c>Pd</c><c>   1</c></rc>
    <rc><c>Pd</c><c>   1</c></rc>
    <rc><c>Pd</c><c>   1</c></rc>
    <rc><c>Pd</c><c>   1</c></rc>
    <rc><c>Pd</c><c>   1</c></rc>
    <rc><c>Pd</c><c>   1</c></rc>
    <rc><c>Pd</c><c>   1</c></rc>
    <rc><c>Pd</c><c>   1</c></rc>
    <rc><c>Pd</c><c>   1</c></rc>
    <rc><c>Pd</c><c>   1</c></rc>
    <rc><c>Pd</c><c>   1</c></rc>
    <rc><c>Pd</c><c>   1</c></rc>
    <rc><c>Pd</c><c>   1</c></rc>
    <rc><c>Pd</c><c>   1</c></rc>
    <rc><c>C </c><c>   2</c></rc>
    <rc><c>O </c><c>   3</c></rc>
   </set>
  </array>
  <array name="atomtypes" >
   <dimension dim="1">type</dimension>
   <field type="int">atomspertype</field>
   <field type="string">element</field>
   <field>mass</field>
   <field>valence</field>
   <field type="string">pseudopotential</field>
   <set>
    <rc><c>  55</c><c>Pd</c><c>    106.42000000</c><c>     10.00000000</c><c>  PAW_PBE Pd 04Jan2005                  </c></rc>
    <rc><c>   1</c><c>C </c><c>     12.01100000</c><c>      4.00000000</c><c>  PAW_PBE C 08Apr2002                   </c></rc>
    <rc><c>   1</c><c>O </c><c>     16.00000000</c><c>      6.00000000</c><c>  PAW_PBE O 08Apr2002                   </c></rc>
   </set>
  </array>
 </atominfo>
 <structure name="initialpos" >
  <crystal>
   <varray name="basis" >
    <v>      30.00000000       0.00000000       0.00000000 </v>
    <v>       0.00000000      30.00000000       0.00000000 </v>
    <v>       0.00000000       0.00000000      30.00000000 </v>
   </varray>
   <i name="volume">  27000.00000000 </i>
   <varray name="rec_basis" >
    <v>       0.03333333       0.00000000       0.00000000 </v>
    <v>       0.00000000       0.03333333       0.00000000 </v>
    <v>       0.00000000       0.00000000       0.03333333 </v>
   </varray>
  </crystal>
  <varray name="positions" >
   <v>       0.44576020       0.32826710       0.41691983 </v>
   <v>       0.67173288       0.55423978       0.41691983 </v>
   <v>       0.55423980       0.32826710       0.41691983 </v>
   <v>       0.32826712       0.55423978       0.41691983 </v>
   <v>       0.50000000       0.38250690       0.34021317 </v>
   <v>       0.50000000       0.38250690       0.65978680 </v>
   <v>       0.50000000       0.27609440       0.50000000 </v>
   <v>       0.27609443       0.49999998       0.50000000 </v>
   <v>       0.72390557       0.49999998       0.50000000 </v>
   <v>       0.50000000       0.72390555       0.50000000 </v>
   <v>       0.61195280       0.38804720       0.34167483 </v>
   <v>       0.61195280       0.38804720       0.65832513 </v>
   <v>       0.38804722       0.61195278       0.34167483 </v>
   <v>       0.38804722       0.61195278       0.65832513 </v>
   <v>       0.38804720       0.38804720       0.34167483 </v>
   <v>       0.38804720       0.38804720       0.65832513 </v>
   <v>       0.61195278       0.61195278       0.34167483 </v>
   <v>       0.61195278       0.61195278       0.65832513 </v>
   <v>       0.44576020       0.32826710       0.58308023 </v>
   <v>       0.67173288       0.55423978       0.58308023 </v>
   <v>       0.55791699       0.44208301       0.41809300 </v>
   <v>       0.32826705       0.44576024       0.41691983 </v>
   <v>       0.55423973       0.67173293       0.41691983 </v>
   <v>       0.55423980       0.32826710       0.58308023 </v>
   <v>       0.32826712       0.55423978       0.58308023 </v>
   <v>       0.67173295       0.44576024       0.41691983 </v>
   <v>       0.44576027       0.67173293       0.41691983 </v>
   <v>       0.44208301       0.44208301       0.41809300 </v>
   <v>       0.50000000       0.38416601       0.50000000 </v>
   <v>       0.61749315       0.50000005       0.34021317 </v>
   <v>       0.61749315       0.50000005       0.65978680 </v>
   <v>       0.38250685       0.50000005       0.34021317 </v>
   <v>       0.38250685       0.50000005       0.65978680 </v>
   <v>       0.38317830       0.38317830       0.50000000 </v>
   <v>       0.61682172       0.61682172       0.50000000 </v>
   <v>       0.61682170       0.38317830       0.50000000 </v>
   <v>       0.38317828       0.61682172       0.50000000 </v>
   <v>       0.50000000       0.50000000       0.33478917 </v>
   <v>       0.50000000       0.50000000       0.66521087 </v>
   <v>       0.32826705       0.44576024       0.58308023 </v>
   <v>       0.55423973       0.67173293       0.58308023 </v>
   <v>       0.55791699       0.44208301       0.58190703 </v>
   <v>       0.44208298       0.55791702       0.41809300 </v>
   <v>       0.44208301       0.44208301       0.58190703 </v>
   <v>       0.67173295       0.44576024       0.58308023 </v>
   <v>       0.44576027       0.67173293       0.58308023 </v>
   <v>       0.55791702       0.55791702       0.41809300 </v>
   <v>       0.38416599       0.50000002       0.50000000 </v>
   <v>       0.61583401       0.50000002       0.50000000 </v>
   <v>       0.50000000       0.61749319       0.34021317 </v>
   <v>       0.50000000       0.61749319       0.65978680 </v>
   <v>       0.50000000       0.50000000       0.50000000 </v>
   <v>       0.44208298       0.55791702       0.58190703 </v>
   <v>       0.55791702       0.55791702       0.58190703 </v>
   <v>       0.50000000       0.61583404       0.50000000 </v>
   <v>       0.59050407       0.25966147       0.57708223 </v>
   <v>       0.60319537       0.22595903       0.58789140 </v>
  </varray>
  <varray name="selective"  type="logical" >
   <v type="logical" >  F  F  F </v>
   <v type="logical" >  F  F  F </v>
   <v type="logical" >  F  F  F </v>
   <v type="logical" >  F  F  F </v>
   <v type="logical" >  F  F  F </v>
   <v type="logical" >  F  F  F </v>
   <v type="logical" >  F  F  F </v>
   <v type="logical" >  F  F  F </v>
   <v type="logical" >  F  F  F </v>
   <v type="logical" >  F  F  F </v>
   <v type="logical" >  F  F  F </v>
   <v type="logical" >  F  F  F </v>
   <v type="logical" >  F  F  F </v>
   <v type="logical" >  F  F  F </v>
   <v type="logical" >  F  F  F </v>
   <v type="logical" >  F  F  F </v>
   <v type="logical" >  F  F  F </v>
   <v type="logical" >  F  F  F </v>
   <v type="logical" >  F  F  F </v>
   <v type="logical" >  F  F  F </v>
   <v type="logical" >  F  F  F </v>
   <v type="logical" >  F  F  F </v>
   <v type="logical" >  F  F  F </v>
   <v type="logical" >  F  F  F </v>
   <v type="logical" >  F  F  F </v>
   <v type="logical" >  F  F  F </v>
   <v type="logical" >  F  F  F </v>
   <v type="logical" >  F  F  F </v>
   <v type="logical" >  F  F  F </v>
   <v type="logical" >  F  F  F </v>
   <v type="logical" >  F  F  F </v>
   <v type="logical" >  F  F  F </v>
   <v type="logical" >  F  F  F </v>
   <v type="logical" >  F  F  F </v>
   <v type="logical" >  F  F  F </v>
   <v type="logical" >  F  F  F </v>
   <v type="logical" >  F  F  F </v>
   <v type="logical" >  F  F  F </v>
   <v type="logical" >  F  F  F </v>
   <v type="logical" >  F  F  F </v>
   <v type="logical" >  F  F  F </v>
   <v type="logical" >  F  F  F </v>
   <v type="logical" >  F  F  F </v>
   <v type="logical" >  F  F  F </v>
   <v type="logical" >  F  F  F </v>
   <v type="logical" >  F  F  F </v>
   <v type="logical" >  F  F  F </v>
   <v type="logical" >  F  F  F </v>
   <v type="logical" >  F  F  F </v>
   <v type="logical" >  F  F  F </v>
   <v type="logical" >  F  F  F </v>
   <v type="logical" >  F  F  F </v>
   <v type="logical" >  F  F  F </v>
   <v type="logical" >  F  F  F </v>
   <v type="logical" >  F  F  F </v>
   <v type="logical" >  F  F  F </v>
   <v type="logical" >  F  F  F </v>
  </varray>
  <nose>
   <v>      -3.00000000       0.00000000       0.00010000       0.00010000 </v>
  </nose>
 </structure>
 <calculation>
  <scstep>
   <time name="dav">  603.51  603.62</time>
   <time name="total">  625.26  625.37</time>
   <energy>
    <i name="alphaZ">     75.25431677 </i>
    <i name="ewald"> 137634.80991689 </i>
    <i name="hartreedc">-181001.07678359 </i>
    <i name="XCdc">  -1703.71899443 </i>
    <i name="pawpsdc">  44873.02882129 </i>
    <i name="pawaedc"> -41398.84523641 </i>
    <i name="eentropy">      0.00420085 </i>
    <i name="bandstr">    817.95450663 </i>
    <i name="atom">  45086.50549395 </i>
    <i name="e_fr_energy">   4383.91624195 </i>
    <i name="e_wo_entrp">   4383.91204110 </i>
    <i name="e_0_energy">   4383.91519174 </i>
   </energy>
  </scstep>
  <scstep>
   <time name="dav">  947.05  947.06</time>
   <time name="total">  947.05  947.07</time>
   <energy>
    <i name="e_fr_energy">   2011.54158999 </i>
    <i name="e_wo_entrp">   2011.55849266 </i>
    <i name="e_0_energy">   2011.54581566 </i>
   </energy>
  </scstep>
  <scstep>
   <time name="dav">  817.91  817.93</time>
   <time name="total">  817.91  817.93</time>
   <energy>
    <i name="e_fr_energy">    233.94353359 </i>
    <i name="e_wo_entrp">    233.92303161 </i>
    <i name="e_0_energy">    233.93840810 </i>
   </energy>
  </scstep>
  <scstep>
   <time name="dav">  688.76  688.77</time>
   <time name="total">  688.76  688.77</time>
   <energy>
    <i name="e_fr_energy">   -133.45491822 </i>
    <i name="e_wo_entrp">   -133.48717598 </i>
    <i name="e_0_energy">   -133.46298266 </i>
   </energy>
  </scstep>
  <scstep>
   <time name="dav">  848.64  848.66</time>
   <time name="total">  888.89  888.91</time>
   <energy>
    <i name="e_fr_energy">   -178.89007228 </i>
    <i name="e_wo_entrp">   -179.39022149 </i>
    <i name="e_0_energy">   -179.01510959 </i>
   </energy>
  </scstep>
  <scstep>
   <time name="diag">  112.18  112.18</time>
   <time name="diis">  323.14  323.15</time>
   <time name="orth">   20.84   20.84</time>
   <time name="total">  515.72  515.73</time>
   <energy>
    <i name="e_fr_energy">   -178.48932955 </i>
    <i name="e_wo_entrp">   -178.30404799 </i>
    <i name="e_0_energy">   -178.44300916 </i>
   </energy>
  </scstep>
  <scstep>
   <time name="diag">  112.51  112.52</time>
   <time name="diis">  379.21  379.23</time>
   <time name="orth">   21.98   21.98</time>
   <time name="total">  576.20  576.23</time>
   <energy>
    <i name="e_fr_energy">   -180.91632553 </i>
    <i name="e_wo_entrp">   -180.74228552 </i>
    <i name="e_0_energy">   -180.87281552 </i>
   </energy>
  </scstep>
  <scstep>
   <time name="diag">  112.96  112.96</time>
   <time name="diis">  337.79  337.80</time>
   <time name="orth">   22.17   22.17</time>
   <time name="total">  535.10  535.12</time>
   <energy>
    <i name="e_fr_energy">   -183.97885087 </i>
    <i name="e_wo_entrp">   -183.86629746 </i>
    <i name="e_0_energy">   -183.95071252 </i>
   </energy>
  </scstep>
  <scstep>
   <time name="diag">  108.06  108.07</time>
   <time name="diis">  319.91  319.92</time>
   <time name="orth">   21.58   21.58</time>
   <time name="total">  510.04  510.06</time>
   <energy>
    <i name="e_fr_energy">   -181.68672334 </i>
    <i name="e_wo_entrp">   -181.56777635 </i>
    <i name="e_0_energy">   -181.65698659 </i>
   </energy>
  </scstep>
  <scstep>
   <time name="diag">  111.02  111.03</time>
   <time name="diis">  318.44  318.45</time>
   <time name="orth">   21.31   21.31</time>
   <time name="total">  511.29  511.31</time>
   <energy>
    <i name="e_fr_energy">   -179.16533892 </i>
    <i name="e_wo_entrp">   -179.09956203 </i>
    <i name="e_0_energy">   -179.14889470 </i>
   </energy>
  </scstep>
  <scstep>
   <time name="diag">  112.20  112.20</time>
   <time name="diis">  319.15  319.16</time>
   <time name="orth">   21.77   21.77</time>
   <time name="total">  514.42  514.43</time>
   <energy>
    <i name="e_fr_energy">   -177.93925186 </i>
    <i name="e_wo_entrp">   -177.86927418 </i>
    <i name="e_0_energy">   -177.92175744 </i>
   </energy>
  </scstep>
  <scstep>
   <time name="diag">  111.90  111.90</time>
   <time name="diis">  315.25  315.26</time>
   <time name="orth">   21.45   21.45</time>
   <time name="total">  509.01  509.02</time>
   <energy>
    <i name="e_fr_energy">   -176.44893310 </i>
    <i name="e_wo_entrp">   -176.33827744 </i>
    <i name="e_0_energy">   -176.42126919 </i>
   </energy>
  </scstep>
  <scstep>
   <time name="diag">  111.02  111.02</time>
   <time name="diis">  309.43  309.44</time>
   <time name="orth">   21.22   21.22</time>
   <time name="total">  502.96  502.97</time>
   <energy>
    <i name="e_fr_energy">   -176.06873217 </i>
    <i name="e_wo_entrp">   -175.93543515 </i>
    <i name="e_0_energy">   -176.03540791 </i>
   </energy>
  </scstep>
  <scstep>
   <time name="diag">  110.98  110.99</time>
   <time name="diis">  298.75  298.76</time>
   <time name="orth">   21.37   21.37</time>
   <time name="total">  491.95  491.97</time>
   <energy>
    <i name="e_fr_energy">   -176.56860244 </i>
    <i name="e_wo_entrp">   -176.49040428 </i>
    <i name="e_0_energy">   -176.54905290 </i>
   </energy>
  </scstep>
  <scstep>
   <time name="diag">  110.15  110.15</time>
   <time name="diis">  305.66  305.67</time>
   <time name="orth">   21.25   21.26</time>
   <time name="total">  497.63  497.65</time>
   <energy>
    <i name="e_fr_energy">   -176.44832936 </i>
    <i name="e_wo_entrp">   -176.61789778 </i>
    <i name="e_0_energy">   -176.49072146 </i>
   </energy>
  </scstep>
  <scstep>
   <time name="diag">  110.12  110.13</time>
   <time name="diis">  308.17  308.18</time>
   <time name="orth">   20.97   20.97</time>
   <time name="total">  499.71  499.74</time>
   <energy>
    <i name="e_fr_energy">   -175.55817060 </i>
    <i name="e_wo_entrp">   -175.50604516 </i>
    <i name="e_0_energy">   -175.54513924 </i>
   </energy>
  </scstep>
  <scstep>
   <time name="diag">  109.92  109.92</time>
   <time name="diis">  304.40  304.41</time>
   <time name="orth">   21.12   21.12</time>
   <time name="total">  496.77  496.78</time>
   <energy>
    <i name="e_fr_energy">   -175.27536912 </i>
    <i name="e_wo_entrp">   -175.26301265 </i>
    <i name="e_0_energy">   -175.27228000 </i>
   </energy>
  </scstep>
  <scstep>
   <time name="diag">  109.62  109.62</time>
   <time name="diis">  306.58  306.61</time>
   <time name="orth">   21.17   21.17</time>
   <time name="total">  499.31  499.34</time>
   <energy>
    <i name="e_fr_energy">   -175.04482049 </i>
    <i name="e_wo_entrp">   -175.01779476 </i>
    <i name="e_0_energy">   -175.03806405 </i>
   </energy>
  </scstep>
  <scstep>
   <time name="diag">  110.32  110.32</time>
   <time name="diis">  297.10  297.11</time>
   <time name="orth">   20.62   20.62</time>
   <time name="total">  490.53  490.54</time>
   <energy>
    <i name="e_fr_energy">   -175.04614883 </i>
    <i name="e_wo_entrp">   -174.98160543 </i>
    <i name="e_0_energy">   -175.03001298 </i>
   </energy>
  </scstep>
  <scstep>
   <time name="diag">  109.93  109.93</time>
   <time name="diis">  302.60  302.61</time>
   <time name="orth">   21.25   21.25</time>
   <time name="total">  496.71  496.72</time>
   <energy>
    <i name="e_fr_energy">   -174.81675442 </i>
    <i name="e_wo_entrp">   -174.77745482 </i>
    <i name="e_0_energy">   -174.80692952 </i>
   </energy>
  </scstep>
  <scstep>
   <time name="diag">  109.26  109.26</time>
   <time name="diis">  304.79  304.79</time>
   <time name="orth">   20.76   20.76</time>
   <time name="total">  497.56  497.57</time>
   <energy>
    <i name="e_fr_energy">   -174.78910025 </i>
    <i name="e_wo_entrp">   -174.73940953 </i>
    <i name="e_0_energy">   -174.77667757 </i>
   </energy>
  </scstep>
  <scstep>
   <time name="diag">  108.25  108.25</time>
   <time name="diis">  302.09  302.10</time>
   <time name="orth">   20.84   20.84</time>
   <time name="total">  492.30  492.31</time>
   <energy>
    <i name="e_fr_energy">   -174.64686842 </i>
    <i name="e_wo_entrp">   -174.57525651 </i>
    <i name="e_0_energy">   -174.62896544 </i>
   </energy>
  </scstep>
  <scstep>
   <time name="diag">  109.25  109.26</time>
   <time name="diis">  301.22  301.23</time>
   <time name="orth">   21.36   21.36</time>
   <time name="total">  495.75  495.76</time>
   <energy>
    <i name="e_fr_energy">   -174.53324806 </i>
    <i name="e_wo_entrp">   -174.44497149 </i>
    <i name="e_0_energy">   -174.51117892 </i>
   </energy>
  </scstep>
  <scstep>
   <time name="diag">  113.35  113.35</time>
   <time name="diis">  303.32  303.32</time>
   <time name="orth">   19.79   19.79</time>
   <time name="total">  498.30  498.32</time>
   <energy>
    <i name="e_fr_energy">   -174.50427557 </i>
    <i name="e_wo_entrp">   -174.40981454 </i>
    <i name="e_0_energy">   -174.48066031 </i>
   </energy>
  </scstep>
  <scstep>
   <time name="diag">  114.19  114.19</time>
   <time name="diis">  305.06  305.07</time>
   <time name="orth">   21.59   21.59</time>
   <time name="total">  506.00  506.02</time>
   <energy>
    <i name="e_fr_energy">   -174.45182515 </i>
    <i name="e_wo_entrp">   -174.32764382 </i>
    <i name="e_0_energy">   -174.42077981 </i>
   </energy>
  </scstep>
  <scstep>
   <time name="diag">  114.90  114.91</time>
   <time name="diis">  304.42  304.43</time>
   <time name="orth">   21.36   21.36</time>
   <time name="total">  506.01  506.02</time>
   <energy>
    <i name="e_fr_energy">   -174.41044919 </i>
    <i name="e_wo_entrp">   -174.31000337 </i>
    <i name="e_0_energy">   -174.38533773 </i>
   </energy>
  </scstep>
  <scstep>
   <time name="diag">  115.94  115.94</time>
   <time name="diis">  302.62  302.63</time>
   <time name="orth">   21.72   21.72</time>
   <time name="total">  507.63  507.64</time>
   <energy>
    <i name="e_fr_energy">   -174.38626805 </i>
    <i name="e_wo_entrp">   -174.29546755 </i>
    <i name="e_0_energy">   -174.36356792 </i>
   </energy>
  </scstep>
  <scstep>
   <time name="diag">  115.52  115.52</time>
   <time name="diis">  305.25  305.26</time>
   <time name="orth">   21.72   21.72</time>
   <time name="total">  509.53  509.54</time>
   <energy>
    <i name="e_fr_energy">   -174.38414834 </i>
    <i name="e_wo_entrp">   -174.28025750 </i>
    <i name="e_0_energy">   -174.35817563 </i>
   </energy>
  </scstep>
  <scstep>
   <time name="diag">  114.34  114.35</time>
   <time name="diis">  302.13  302.13</time>
   <time name="orth">   22.00   22.00</time>
   <time name="total">  504.39  504.40</time>
   <energy>
    <i name="e_fr_energy">   -174.35360759 </i>
    <i name="e_wo_entrp">   -174.25574746 </i>
    <i name="e_0_energy">   -174.32914256 </i>
   </energy>
  </scstep>
  <scstep>
   <time name="diag">  110.64  110.65</time>
   <time name="diis">  294.51  294.52</time>
   <time name="orth">   21.39   21.39</time>
   <time name="total">  492.47  492.48</time>
   <energy>
    <i name="e_fr_energy">   -174.34583571 </i>
    <i name="e_wo_entrp">   -174.24707310 </i>
    <i name="e_0_energy">   -174.32114505 </i>
   </energy>
  </scstep>
  <scstep>
   <time name="diag">  114.87  114.88</time>
   <time name="diis">  302.03  302.04</time>
   <time name="orth">   22.14   22.14</time>
   <time name="total">  505.34  505.35</time>
   <energy>
    <i name="e_fr_energy">   -174.34469919 </i>
    <i name="e_wo_entrp">   -174.24396517 </i>
    <i name="e_0_energy">   -174.31951569 </i>
   </energy>
  </scstep>
  <scstep>
   <time name="diag">  112.94  112.94</time>
   <time name="diis">  302.48  302.49</time>
   <time name="orth">   21.21   21.21</time>
   <time name="total">  502.83  502.85</time>
   <energy>
    <i name="e_fr_energy">   -174.33804936 </i>
    <i name="e_wo_entrp">   -174.23870968 </i>
    <i name="e_0_energy">   -174.31321444 </i>
   </energy>
  </scstep>
  <scstep>
   <time name="diag">  113.25  113.26</time>
   <time name="diis">  299.29  299.29</time>
   <time name="orth">   21.33   21.33</time>
   <time name="total">  500.50  500.52</time>
   <energy>
    <i name="e_fr_energy">   -174.33963463 </i>
    <i name="e_wo_entrp">   -174.24173285 </i>
    <i name="e_0_energy">   -174.31515918 </i>
   </energy>
  </scstep>
  <scstep>
   <time name="diag">  113.63  113.63</time>
   <time name="diis">  293.09  293.10</time>
   <time name="orth">   20.17   20.17</time>
   <time name="total">  489.91  489.93</time>
   <energy>
    <i name="e_fr_energy">   -174.33980662 </i>
    <i name="e_wo_entrp">   -174.23918803 </i>
    <i name="e_0_energy">   -174.31465197 </i>
   </energy>
  </scstep>
  <scstep>
   <time name="diag">  112.23  112.24</time>
   <time name="diis">  298.49  298.50</time>
   <time name="orth">   20.92   20.92</time>
   <time name="total">  497.36  497.37</time>
   <energy>
    <i name="e_fr_energy">   -174.33795821 </i>
    <i name="e_wo_entrp">   -174.23775696 </i>
    <i name="e_0_energy">   -174.31290790 </i>
   </energy>
  </scstep>
  <scstep>
   <time name="diag">  112.25  112.25</time>
   <time name="diis">  297.02  297.04</time>
   <time name="orth">   21.17   21.17</time>
   <time name="total">  496.74  496.76</time>
   <energy>
    <i name="e_fr_energy">   -174.33944040 </i>
    <i name="e_wo_entrp">   -174.23888970 </i>
    <i name="e_0_energy">   -174.31430272 </i>
   </energy>
  </scstep>
  <scstep>
   <time name="diag">  112.88  112.88</time>
   <time name="diis">  297.41  297.44</time>
   <time name="orth">   20.91   20.91</time>
   <time name="total">  497.99  498.06</time>
   <energy>
    <i name="e_fr_energy">   -174.34056768 </i>
    <i name="e_wo_entrp">   -174.23670870 </i>
    <i name="e_0_energy">   -174.31460293 </i>
   </energy>
  </scstep>
  <scstep>
   <time name="diag">  112.77  112.81</time>
   <time name="diis">  290.63  290.63</time>
   <time name="orth">   21.27   21.27</time>
   <time name="total">  490.52  490.58</time>
   <energy>
    <i name="e_fr_energy">   -174.34220914 </i>
    <i name="e_wo_entrp">   -174.23939551 </i>
    <i name="e_0_energy">   -174.31650574 </i>
   </energy>
  </scstep>
  <scstep>
   <time name="diag">  107.50  107.50</time>
   <time name="diis">  289.31  289.32</time>
   <time name="orth">   21.07   21.07</time>
   <time name="total">  482.80  482.81</time>
   <energy>
    <i name="e_fr_energy">   -174.34541912 </i>
    <i name="e_wo_entrp">   -174.24422902 </i>
    <i name="e_0_energy">   -174.32012160 </i>
   </energy>
  </scstep>
  <scstep>
   <time name="diag">  111.37  111.37</time>
   <time name="diis">  285.85  285.86</time>
   <time name="orth">   20.92   20.92</time>
   <time name="total">  482.66  482.67</time>
   <energy>
    <i name="e_fr_energy">   -174.34774119 </i>
    <i name="e_wo_entrp">   -174.24757299 </i>
    <i name="e_0_energy">   -174.32269914 </i>
   </energy>
  </scstep>
  <scstep>
   <time name="diag">  111.67  111.67</time>
   <time name="diis">  252.65  252.66</time>
   <time name="orth">   21.31   21.31</time>
   <time name="total">  450.04  450.05</time>
   <energy>
    <i name="e_fr_energy">   -174.35024097 </i>
    <i name="e_wo_entrp">   -174.25044388 </i>
    <i name="e_0_energy">   -174.32529169 </i>
   </energy>
  </scstep>
  <scstep>
   <time name="diag">  112.75  112.75</time>
   <time name="diis">  254.37  254.37</time>
   <time name="orth">   21.77   21.77</time>
   <time name="total">  454.79  454.80</time>
   <energy>
    <i name="e_fr_energy">   -174.35329439 </i>
    <i name="e_wo_entrp">   -174.25236262 </i>
    <i name="e_0_energy">   -174.32806145 </i>
   </energy>
  </scstep>
  <scstep>
   <time name="diag">  111.68  111.68</time>
   <time name="diis">  206.61  206.62</time>
   <time name="orth">   21.60   21.60</time>
   <time name="total">  406.95  406.96</time>
   <energy>
    <i name="e_fr_energy">   -174.35437299 </i>
    <i name="e_wo_entrp">   -174.25339349 </i>
    <i name="e_0_energy">   -174.32912811 </i>
   </energy>
  </scstep>
  <scstep>
   <time name="diag">  110.39  110.39</time>
   <time name="diis">  194.10  194.11</time>
   <time name="orth">   22.03   22.03</time>
   <time name="total">  396.91  396.92</time>
   <energy>
    <i name="e_fr_energy">   -174.35638247 </i>
    <i name="e_wo_entrp">   -174.25564230 </i>
    <i name="e_0_energy">   -174.33119743 </i>
   </energy>
  </scstep>
  <scstep>
   <time name="diag">  111.93  111.94</time>
   <time name="diis">  195.70  195.71</time>
   <time name="orth">   21.64   21.64</time>
   <time name="total">  400.34  400.35</time>
   <energy>
    <i name="e_fr_energy">   -174.35816696 </i>
    <i name="e_wo_entrp">   -174.25744476 </i>
    <i name="e_0_energy">   -174.33298641 </i>
   </energy>
  </scstep>
  <scstep>
   <time name="diag">  115.64  115.64</time>
   <time name="diis">  190.76  190.77</time>
   <time name="orth">   21.80   21.80</time>
   <time name="total">  397.11  397.11</time>
   <energy>
    <i name="e_fr_energy">   -174.35891527 </i>
    <i name="e_wo_entrp">   -174.25793921 </i>
    <i name="e_0_energy">   -174.33367126 </i>
   </energy>
  </scstep>
  <scstep>
   <time name="diag">  113.44  113.45</time>
   <time name="diis">  195.06  195.06</time>
   <time name="orth">   21.82   21.82</time>
   <time name="total">  398.13  398.15</time>
   <energy>
    <i name="e_fr_energy">   -174.36084254 </i>
    <i name="e_wo_entrp">   -174.26012101 </i>
    <i name="e_0_energy">   -174.33566216 </i>
   </energy>
  </scstep>
  <scstep>
   <time name="diag">  109.84  109.85</time>
   <time name="diis">  199.45  199.46</time>
   <time name="orth">   22.47   22.47</time>
   <time name="total">  399.56  399.58</time>
   <energy>
    <i name="e_fr_energy">   -174.36174666 </i>
    <i name="e_wo_entrp">   -174.26079855 </i>
    <i name="e_0_energy">   -174.33650964 </i>
   </energy>
  </scstep>
  <scstep>
   <time name="diag">  109.37  109.37</time>
   <time name="diis">  190.88  190.88</time>
   <time name="orth">   22.75   22.75</time>
   <time name="total">  395.67  395.68</time>
   <energy>
    <i name="e_fr_energy">   -174.36237481 </i>
    <i name="e_wo_entrp">   -174.26155170 </i>
    <i name="e_0_energy">   -174.33716903 </i>
   </energy>
  </scstep>
  <scstep>
   <time name="diag">  112.67  112.67</time>
   <time name="diis">  182.66  182.66</time>
   <time name="orth">   22.21   22.21</time>
   <time name="total">  386.57  386.57</time>
   <energy>
    <i name="e_fr_energy">   -174.36359865 </i>
    <i name="e_wo_entrp">   -174.26312969 </i>
    <i name="e_0_energy">   -174.33848141 </i>
   </energy>
  </scstep>
  <scstep>
   <time name="diag">  106.20  106.20</time>
   <time name="diis">  182.35  182.36</time>
   <time name="orth">   20.95   20.95</time>
   <time name="total">  374.72  374.74</time>
   <energy>
    <i name="e_fr_energy">   -174.36381144 </i>
    <i name="e_wo_entrp">   -174.26317413 </i>
    <i name="e_0_energy">   -174.33865211 </i>
   </energy>
  </scstep>
  <scstep>
   <time name="diag">  110.24  110.24</time>
   <time name="diis">  177.16  177.16</time>
   <time name="orth">   21.67   21.67</time>
   <time name="total">  377.25  377.25</time>
   <energy>
    <i name="e_fr_energy">   -174.36432690 </i>
    <i name="e_wo_entrp">   -174.26361023 </i>
    <i name="e_0_energy">   -174.33914773 </i>
   </energy>
  </scstep>
  <scstep>
   <time name="diag">  106.84  106.84</time>
   <time name="diis">  145.62  145.62</time>
   <time name="orth">   22.57   22.57</time>
   <time name="total">  345.56  345.57</time>
   <energy>
    <i name="e_fr_energy">   -174.36463912 </i>
    <i name="e_wo_entrp">   -174.26391681 </i>
    <i name="e_0_energy">   -174.33945854 </i>
   </energy>
  </scstep>
  <scstep>
   <time name="diag">  111.16  111.17</time>
   <time name="diis">  164.12  164.13</time>
   <time name="orth">   21.85   21.85</time>
   <time name="total">  365.70  365.71</time>
   <energy>
    <i name="e_fr_energy">   -174.36506335 </i>
    <i name="e_wo_entrp">   -174.26436706 </i>
    <i name="e_0_energy">   -174.33988928 </i>
   </energy>
  </scstep>
  <scstep>
   <time name="diag">  110.99  110.99</time>
   <time name="diis">  161.79  161.79</time>
   <time name="orth">   21.50   21.51</time>
   <time name="total">  361.02  361.04</time>
   <energy>
    <i name="e_fr_energy">   -174.36555450 </i>
    <i name="e_wo_entrp">   -174.26493416 </i>
    <i name="e_0_energy">   -174.34039941 </i>
   </energy>
  </scstep>
  <scstep>
   <time name="diag">  108.95  108.95</time>
   <time name="diis">  117.80  117.80</time>
   <time name="orth">   21.96   21.96</time>
   <time name="total">  268.27  268.28</time>
   <energy>
    <i name="alphaZ">     75.25431677 </i>
    <i name="ewald"> 137634.80991689 </i>
    <i name="hartreedc">-182001.56261920 </i>
    <i name="XCdc">  -1693.10368674 </i>
    <i name="pawpsdc">  46064.64977858 </i>
    <i name="pawaedc"> -42534.56172870 </i>
    <i name="eentropy">     -0.10059380 </i>
    <i name="bandstr">  -2806.25650361 </i>
    <i name="atom">  45086.50549395 </i>
    <i name="e_fr_energy">   -174.36562586 </i>
    <i name="e_wo_entrp">   -174.26503206 </i>
    <i name="e_0_energy">   -174.34047741 </i>
   </energy>
  </scstep>
  <structure>
   <crystal>
    <varray name="basis" >
     <v>      30.00000000       0.00000000       0.00000000 </v>
     <v>       0.00000000      30.00000000       0.00000000 </v>
     <v>       0.00000000       0.00000000      30.00000000 </v>
    </varray>
    <i name="volume">  27000.00000000 </i>
    <varray name="rec_basis" >
     <v>       0.03333333       0.00000000       0.00000000 </v>
     <v>       0.00000000       0.03333333       0.00000000 </v>
     <v>       0.00000000       0.00000000       0.03333333 </v>
    </varray>
   </crystal>
   <varray name="positions" >
    <v>       0.44576020       0.32826710       0.41691983 </v>
    <v>       0.67173288       0.55423978       0.41691983 </v>
    <v>       0.55423980       0.32826710       0.41691983 </v>
    <v>       0.32826712       0.55423978       0.41691983 </v>
    <v>       0.50000000       0.38250690       0.34021317 </v>
    <v>       0.50000000       0.38250690       0.65978680 </v>
    <v>       0.50000000       0.27609440       0.50000000 </v>
    <v>       0.27609443       0.49999998       0.50000000 </v>
    <v>       0.72390557       0.49999998       0.50000000 </v>
    <v>       0.50000000       0.72390555       0.50000000 </v>
    <v>       0.61195280       0.38804720       0.34167483 </v>
    <v>       0.61195280       0.38804720       0.65832513 </v>
    <v>       0.38804722       0.61195278       0.34167483 </v>
    <v>       0.38804722       0.61195278       0.65832513 </v>
    <v>       0.38804720       0.38804720       0.34167483 </v>
    <v>       0.38804720       0.38804720       0.65832513 </v>
    <v>       0.61195278       0.61195278       0.34167483 </v>
    <v>       0.61195278       0.61195278       0.65832513 </v>
    <v>       0.44576020       0.32826710       0.58308023 </v>
    <v>       0.67173288       0.55423978       0.58308023 </v>
    <v>       0.55791699       0.44208301       0.41809300 </v>
    <v>       0.32826705       0.44576024       0.41691983 </v>
    <v>       0.55423973       0.67173293       0.41691983 </v>
    <v>       0.55423980       0.32826710       0.58308023 </v>
    <v>       0.32826712       0.55423978       0.58308023 </v>
    <v>       0.67173295       0.44576024       0.41691983 </v>
    <v>       0.44576027       0.67173293       0.41691983 </v>
    <v>       0.44208301       0.44208301       0.41809300 </v>
    <v>       0.50000000       0.38416601       0.50000000 </v>
    <v>       0.61749315       0.50000005       0.34021317 </v>
    <v>       0.61749315       0.50000005       0.65978680 </v>
    <v>       0.38250685       0.50000005       0.34021317 </v>
    <v>       0.38250685       0.50000005       0.65978680 </v>
    <v>       0.38317830       0.38317830       0.50000000 </v>
    <v>       0.61682172       0.61682172       0.50000000 </v>
    <v>       0.61682170       0.38317830       0.50000000 </v>
    <v>       0.38317828       0.61682172       0.50000000 </v>
    <v>       0.50000000       0.50000000       0.33478917 </v>
    <v>       0.50000000       0.50000000       0.66521087 </v>
    <v>       0.32826705       0.44576024       0.58308023 </v>
    <v>       0.55423973       0.67173293       0.58308023 </v>
    <v>       0.55791699       0.44208301       0.58190703 </v>
    <v>       0.44208298       0.55791702       0.41809300 </v>
    <v>       0.44208301       0.44208301       0.58190703 </v>
    <v>       0.67173295       0.44576024       0.58308023 </v>
    <v>       0.44576027       0.67173293       0.58308023 </v>
    <v>       0.55791702       0.55791702       0.41809300 </v>
    <v>       0.38416599       0.50000002       0.50000000 </v>
    <v>       0.61583401       0.50000002       0.50000000 </v>
    <v>       0.50000000       0.61749319       0.34021317 </v>
    <v>       0.50000000       0.61749319       0.65978680 </v>
    <v>       0.50000000       0.50000000       0.50000000 </v>
    <v>       0.44208298       0.55791702       0.58190703 </v>
    <v>       0.55791702       0.55791702       0.58190703 </v>
    <v>       0.50000000       0.61583404       0.50000000 </v>
    <v>       0.59050407       0.25966147       0.57708223 </v>
    <v>       0.60319537       0.22595903       0.58789140 </v>
   </varray>
  </structure>
  <varray name="forces" >
   <v>       0.70310214       1.09953249       0.29405344 </v>
   <v>      -1.10852199      -0.70350494       0.29033638 </v>
   <v>      -0.70720371       1.12044826       0.26734692 </v>
   <v>       1.10520316      -0.70667911       0.29245908 </v>
   <v>       0.00471582       0.40662356       1.28683215 </v>
   <v>       0.00252161       0.44677023      -1.30323088 </v>
   <v>      -0.00432284       1.48120342      -0.01366881 </v>
   <v>       1.51719611      -0.00128189      -0.00013677 </v>
   <v>      -1.51824949      -0.00011140      -0.00017029 </v>
   <v>       0.00258895      -1.51431952      -0.00049115 </v>
   <v>      -0.75703122       0.75672143       1.07401737 </v>
   <v>      -0.75779791       0.77948127      -1.06513711 </v>
   <v>       0.75686434      -0.75734850       1.07031781 </v>
   <v>       0.75732985      -0.75707001      -1.07123843 </v>
   <v>       0.74720186       0.76336877       1.06912390 </v>
   <v>       0.76231799       0.73720697      -1.08295381 </v>
   <v>      -0.75354947      -0.75900351       1.07218485 </v>
   <v>      -0.76235113      -0.74877480      -1.07528354 </v>
   <v>       0.62953940       1.14051300      -0.28163326 </v>
   <v>      -1.10843705      -0.70772443      -0.29191139 </v>
   <v>       0.11066996      -0.11195314      -0.15883192 </v>
   <v>       1.10923538       0.70447740       0.28965524 </v>
   <v>      -0.70274887      -1.11028258       0.29197056 </v>
   <v>       0.29607835      -0.63259735      -0.34231573 </v>
   <v>       1.10830412      -0.70342994      -0.29112357 </v>
   <v>      -1.11068088       0.70331656       0.29371672 </v>
   <v>       0.70466905      -1.10692614       0.28920524 </v>
   <v>      -0.12424173      -0.09851253      -0.16629018 </v>
   <v>      -0.02783727      -0.17723352      -0.02747793 </v>
   <v>      -0.41074684       0.00271688       1.28250756 </v>
   <v>      -0.41390981      -0.00915326      -1.27726634 </v>
   <v>       0.41588361      -0.00833409       1.28261226 </v>
   <v>       0.41371677       0.00608096      -1.28522634 </v>
   <v>       0.83263275       0.82728232       0.00773816 </v>
   <v>      -0.82763843      -0.82699503      -0.00112224 </v>
   <v>      -0.80256658       0.87099252      -0.04225090 </v>
   <v>       0.82873728      -0.83246590       0.00288664 </v>
   <v>      -0.00031462       0.00339031       1.17558314 </v>
   <v>       0.00411398      -0.01296745      -1.18293839 </v>
   <v>       1.10848497       0.70644714      -0.29562420 </v>
   <v>      -0.69613697      -1.11505330      -0.28834320 </v>
   <v>       0.08385484      -0.12779266       0.15700890 </v>
   <v>      -0.11037838       0.11284449      -0.15663444 </v>
   <v>      -0.10346069      -0.11291919       0.15210133 </v>
   <v>      -1.10602828       0.71391668      -0.29146611 </v>
   <v>       0.70164434      -1.11199670      -0.28756254 </v>
   <v>       0.11410238       0.11283215      -0.15513105 </v>
   <v>      -0.22972457      -0.00181930      -0.00119774 </v>
   <v>       0.22912790       0.00009855       0.00208809 </v>
   <v>       0.00056855      -0.41277414       1.28035975 </v>
   <v>       0.00144077      -0.40995224      -1.27870279 </v>
   <v>       0.00040901      -0.01407404       0.00860668 </v>
   <v>      -0.11206127       0.11657409       0.15786622 </v>
   <v>       0.11142790       0.14088578       0.16227515 </v>
   <v>      -0.00022448       0.22614167      -0.00265545 </v>
   <v>      -2.06814293       4.58793380      -0.68256554 </v>
   <v>       1.16062424      -2.97475007       0.84772854 </v>
  </varray>
  <varray name="stress" >
   <v>      -6.77531601       0.04088733       0.03715663 </v>
   <v>       0.04088735      -6.75985925      -0.08044908 </v>
   <v>       0.03715663      -0.08044907      -6.73237412 </v>
  </varray>
  <energy>
   <i name="e_fr_energy">   -174.36562586 </i>
   <i name="e_wo_entrp">   -174.34047741 </i>
   <i name="e_0_energy">     -0.10059380 </i>
  </energy>
  <time name="totalsc">28303.4128304.44</time>
  <eigenvalues>
   <array>
    <dimension dim="1">band</dimension>
    <dimension dim="2">kpoint</dimension>
    <dimension dim="3">spin</dimension>
    <field>eigene</field>
    <field>occ</field>
    <set>
     <set comment="spin 1">
      <set comment="kpoint 1">
       <r>  -29.0139    1.0000 </r>
       <r>  -13.5855    1.0000 </r>
       <r>  -11.3509    1.0000 </r>
       <r>  -11.3384    1.0000 </r>
       <r>   -9.7519    1.0000 </r>
       <r>   -6.6359    1.0000 </r>
       <r>   -6.1188    1.0000 </r>
       <r>   -6.1175    1.0000 </r>
       <r>   -6.1095    1.0000 </r>
       <r>   -5.8121    1.0000 </r>
       <r>   -5.8037    1.0000 </r>
       <r>   -5.8009    1.0000 </r>
       <r>   -5.7410    1.0000 </r>
       <r>   -5.6841    1.0000 </r>
       <r>   -5.6828    1.0000 </r>
       <r>   -5.6788    1.0000 </r>
       <r>   -5.6753    1.0000 </r>
       <r>   -5.6361    1.0000 </r>
       <r>   -5.6164    1.0000 </r>
       <r>   -5.6127    1.0000 </r>
       <r>   -5.6023    1.0000 </r>
       <r>   -5.5951    1.0000 </r>
       <r>   -5.5860    1.0000 </r>
       <r>   -5.5626    1.0000 </r>
       <r>   -5.5553    1.0000 </r>
       <r>   -5.5454    1.0000 </r>
       <r>   -5.5380    1.0000 </r>
       <r>   -5.5369    1.0000 </r>
       <r>   -5.5241    1.0000 </r>
       <r>   -5.5110    1.0000 </r>
       <r>   -5.5088    1.0000 </r>
       <r>   -5.5067    1.0000 </r>
       <r>   -5.5043    1.0000 </r>
       <r>   -5.5041    1.0000 </r>
       <r>   -5.5034    1.0000 </r>
       <r>   -5.4825    1.0000 </r>
       <r>   -5.4754    1.0000 </r>
       <r>   -5.4695    1.0000 </r>
       <r>   -5.4636    1.0000 </r>
       <r>   -5.4594    1.0000 </r>
       <r>   -5.4591    1.0000 </r>
       <r>   -5.4583    1.0000 </r>
       <r>   -5.4576    1.0000 </r>
       <r>   -5.4425    1.0000 </r>
       <r>   -5.4304    1.0000 </r>
       <r>   -5.4227    1.0000 </r>
       <r>   -5.4195    1.0000 </r>
       <r>   -5.4186    1.0000 </r>
       <r>   -5.4158    1.0000 </r>
       <r>   -5.4138    1.0000 </r>
       <r>   -5.4111    1.0000 </r>
       <r>   -5.4037    1.0000 </r>
       <r>   -5.3969    1.0000 </r>
       <r>   -5.3957    1.0000 </r>
       <r>   -5.3850    1.0000 </r>
       <r>   -5.3478    1.0000 </r>
       <r>   -5.3245    1.0000 </r>
       <r>   -5.3190    1.0000 </r>
       <r>   -5.3161    1.0000 </r>
       <r>   -5.3151    1.0000 </r>
       <r>   -5.3119    1.0000 </r>
       <r>   -5.3075    1.0000 </r>
       <r>   -5.3057    1.0000 </r>
       <r>   -5.2917    1.0000 </r>
       <r>   -5.2907    1.0000 </r>
       <r>   -5.2819    1.0000 </r>
       <r>   -5.2799    1.0000 </r>
       <r>   -5.2208    1.0000 </r>
       <r>   -5.2083    1.0000 </r>
       <r>   -5.1977    1.0000 </r>
       <r>   -5.1961    1.0000 </r>
       <r>   -5.1911    1.0000 </r>
       <r>   -5.1856    1.0000 </r>
       <r>   -5.1749    1.0000 </r>
       <r>   -5.1701    1.0000 </r>
       <r>   -5.1697    1.0000 </r>
       <r>   -5.1688    1.0000 </r>
       <r>   -5.1548    1.0000 </r>
       <r>   -5.1529    1.0000 </r>
       <r>   -5.1434    1.0000 </r>
       <r>   -5.1282    1.0000 </r>
       <r>   -5.1208    1.0000 </r>
       <r>   -5.1147    1.0000 </r>
       <r>   -5.1140    1.0000 </r>
       <r>   -5.0996    1.0000 </r>
       <r>   -5.0975    1.0000 </r>
       <r>   -5.0937    1.0000 </r>
       <r>   -5.0756    1.0000 </r>
       <r>   -5.0583    1.0000 </r>
       <r>   -5.0474    1.0000 </r>
       <r>   -5.0447    1.0000 </r>
       <r>   -5.0442    1.0000 </r>
       <r>   -5.0439    1.0000 </r>
       <r>   -5.0425    1.0000 </r>
       <r>   -5.0394    1.0000 </r>
       <r>   -5.0298    1.0000 </r>
       <r>   -5.0240    1.0000 </r>
       <r>   -5.0204    1.0000 </r>
       <r>   -5.0178    1.0000 </r>
       <r>   -5.0103    1.0000 </r>
       <r>   -5.0051    1.0000 </r>
       <r>   -4.9995    1.0000 </r>
       <r>   -4.9951    1.0000 </r>
       <r>   -4.9909    1.0000 </r>
       <r>   -4.9882    1.0000 </r>
       <r>   -4.9832    1.0000 </r>
       <r>   -4.9813    1.0000 </r>
       <r>   -4.9756    1.0000 </r>
       <r>   -4.9720    1.0000 </r>
       <r>   -4.9636    1.0000 </r>
       <r>   -4.9628    1.0000 </r>
       <r>   -4.9545    1.0000 </r>
       <r>   -4.9496    1.0000 </r>
       <r>   -4.9472    1.0000 </r>
       <r>   -4.9468    1.0000 </r>
       <r>   -4.9441    1.0000 </r>
       <r>   -4.9311    1.0000 </r>
       <r>   -4.9202    1.0000 </r>
       <r>   -4.9121    1.0000 </r>
       <r>   -4.9075    1.0000 </r>
       <r>   -4.8985    1.0000 </r>
       <r>   -4.8968    1.0000 </r>
       <r>   -4.8928    1.0000 </r>
       <r>   -4.8917    1.0000 </r>
       <r>   -4.8907    1.0000 </r>
       <r>   -4.8900    1.0000 </r>
       <r>   -4.8539    1.0000 </r>
       <r>   -4.8395    1.0000 </r>
       <r>   -4.8360    1.0000 </r>
       <r>   -4.8330    1.0000 </r>
       <r>   -4.8308    1.0000 </r>
       <r>   -4.8301    1.0000 </r>
       <r>   -4.8231    1.0000 </r>
       <r>   -4.8201    1.0000 </r>
       <r>   -4.8185    1.0000 </r>
       <r>   -4.8092    1.0000 </r>
       <r>   -4.7857    0.9999 </r>
       <r>   -4.7839    0.9999 </r>
       <r>   -4.7818    0.9999 </r>
       <r>   -4.7650    0.9998 </r>
       <r>   -4.7604    0.9998 </r>
       <r>   -4.7543    0.9998 </r>
       <r>   -4.7392    0.9997 </r>
       <r>   -4.7308    0.9996 </r>
       <r>   -4.7272    0.9996 </r>
       <r>   -4.7264    0.9996 </r>
       <r>   -4.7136    0.9995 </r>
       <r>   -4.6980    0.9993 </r>
       <r>   -4.6937    0.9992 </r>
       <r>   -4.6838    0.9990 </r>
       <r>   -4.6763    0.9989 </r>
       <r>   -4.6750    0.9989 </r>
       <r>   -4.6716    0.9988 </r>
       <r>   -4.6670    0.9987 </r>
       <r>   -4.6630    0.9986 </r>
       <r>   -4.6618    0.9986 </r>
       <r>   -4.6615    0.9986 </r>
       <r>   -4.6587    0.9985 </r>
       <r>   -4.6579    0.9985 </r>
       <r>   -4.6493    0.9982 </r>
       <r>   -4.6448    0.9981 </r>
       <r>   -4.6394    0.9980 </r>
       <r>   -4.6370    0.9979 </r>
       <r>   -4.6363    0.9979 </r>
       <r>   -4.6349    0.9978 </r>
       <r>   -4.6346    0.9978 </r>
       <r>   -4.6325    0.9977 </r>
       <r>   -4.6300    0.9976 </r>
       <r>   -4.6216    0.9974 </r>
       <r>   -4.6195    0.9973 </r>
       <r>   -4.5960    0.9964 </r>
       <r>   -4.5935    0.9963 </r>
       <r>   -4.5880    0.9961 </r>
       <r>   -4.5872    0.9961 </r>
       <r>   -4.5855    0.9960 </r>
       <r>   -4.5837    0.9960 </r>
       <r>   -4.5821    0.9959 </r>
       <r>   -4.5776    0.9958 </r>
       <r>   -4.5749    0.9957 </r>
       <r>   -4.5647    0.9954 </r>
       <r>   -4.5632    0.9953 </r>
       <r>   -4.5547    0.9952 </r>
       <r>   -4.5502    0.9951 </r>
       <r>   -4.5450    0.9951 </r>
       <r>   -4.5429    0.9951 </r>
       <r>   -4.5426    0.9951 </r>
       <r>   -4.5401    0.9951 </r>
       <r>   -4.5392    0.9951 </r>
       <r>   -4.5373    0.9951 </r>
       <r>   -4.5358    0.9951 </r>
       <r>   -4.5074    0.9963 </r>
       <r>   -4.5006    0.9969 </r>
       <r>   -4.4973    0.9973 </r>
       <r>   -4.4963    0.9974 </r>
       <r>   -4.4939    0.9977 </r>
       <r>   -4.4869    0.9986 </r>
       <r>   -4.4794    0.9999 </r>
       <r>   -4.4729    1.0011 </r>
       <r>   -4.4703    1.0017 </r>
       <r>   -4.4641    1.0031 </r>
       <r>   -4.4621    1.0036 </r>
       <r>   -4.4551    1.0055 </r>
       <r>   -4.4502    1.0070 </r>
       <r>   -4.4475    1.0079 </r>
       <r>   -4.4428    1.0094 </r>
       <r>   -4.4413    1.0100 </r>
       <r>   -4.4361    1.0118 </r>
       <r>   -4.4345    1.0124 </r>
       <r>   -4.4302    1.0141 </r>
       <r>   -4.4292    1.0145 </r>
       <r>   -4.4138    1.0211 </r>
       <r>   -4.4080    1.0237 </r>
       <r>   -4.4024    1.0264 </r>
       <r>   -4.3982    1.0284 </r>
       <r>   -4.3961    1.0294 </r>
       <r>   -4.3958    1.0296 </r>
       <r>   -4.3936    1.0306 </r>
       <r>   -4.3920    1.0314 </r>
       <r>   -4.3871    1.0338 </r>
       <r>   -4.3788    1.0377 </r>
       <r>   -4.3569    1.0466 </r>
       <r>   -4.3559    1.0469 </r>
       <r>   -4.3467    1.0496 </r>
       <r>   -4.3382    1.0511 </r>
       <r>   -4.3308    1.0516 </r>
       <r>   -4.3270    1.0515 </r>
       <r>   -4.3263    1.0515 </r>
       <r>   -4.3255    1.0514 </r>
       <r>   -4.3245    1.0513 </r>
       <r>   -4.3227    1.0511 </r>
       <r>   -4.3221    1.0510 </r>
       <r>   -4.3199    1.0506 </r>
       <r>   -4.3179    1.0502 </r>
       <r>   -4.3144    1.0492 </r>
       <r>   -4.3125    1.0486 </r>
       <r>   -4.3108    1.0480 </r>
       <r>   -4.3101    1.0477 </r>
       <r>   -4.3081    1.0468 </r>
       <r>   -4.3074    1.0465 </r>
       <r>   -4.3067    1.0462 </r>
       <r>   -4.2952    1.0387 </r>
       <r>   -4.2888    1.0329 </r>
       <r>   -4.2822    1.0257 </r>
       <r>   -4.2758    1.0172 </r>
       <r>   -4.2743    1.0150 </r>
       <r>   -4.2726    1.0125 </r>
       <r>   -4.2719    1.0114 </r>
       <r>   -4.2715    1.0108 </r>
       <r>   -4.2678    1.0046 </r>
       <r>   -4.2556    0.9811 </r>
       <r>   -4.2526    0.9744 </r>
       <r>   -4.2510    0.9708 </r>
       <r>   -4.2454    0.9570 </r>
       <r>   -4.2421    0.9485 </r>
       <r>   -4.2414    0.9467 </r>
       <r>   -4.2387    0.9392 </r>
       <r>   -4.2372    0.9350 </r>
       <r>   -4.2370    0.9342 </r>
       <r>   -4.2326    0.9214 </r>
       <r>   -4.2325    0.9209 </r>
       <r>   -4.2311    0.9168 </r>
       <r>   -4.2283    0.9078 </r>
       <r>   -4.2262    0.9010 </r>
       <r>   -4.2259    0.9001 </r>
       <r>   -4.2238    0.8930 </r>
       <r>   -4.2153    0.8629 </r>
       <r>   -4.2131    0.8548 </r>
       <r>   -4.2102    0.8435 </r>
       <r>   -4.2090    0.8388 </r>
       <r>   -4.2069    0.8308 </r>
       <r>   -4.2049    0.8226 </r>
       <r>   -4.1990    0.7982 </r>
       <r>   -4.1849    0.7351 </r>
       <r>   -4.1813    0.7181 </r>
       <r>   -4.1721    0.6737 </r>
       <r>   -4.1706    0.6664 </r>
       <r>   -4.1651    0.6384 </r>
       <r>   -4.1644    0.6349 </r>
       <r>   -4.1617    0.6214 </r>
       <r>   -4.1593    0.6087 </r>
       <r>   -4.1565    0.5944 </r>
       <r>   -4.1462    0.5403 </r>
       <r>   -4.1192    0.3982 </r>
       <r>   -4.1165    0.3846 </r>
       <r>   -4.1158    0.3811 </r>
       <r>   -4.1155    0.3791 </r>
       <r>   -4.1031    0.3169 </r>
       <r>   -4.0992    0.2982 </r>
       <r>   -4.0972    0.2883 </r>
       <r>   -3.9551   -0.0510 </r>
       <r>   -3.8819   -0.0298 </r>
       <r>   -3.8139   -0.0034 </r>
       <r>   -3.8036   -0.0010 </r>
       <r>   -3.7627    0.0042 </r>
       <r>   -3.4855    0.0001 </r>
       <r>   -3.4762    0.0001 </r>
       <r>   -3.4268    0.0000 </r>
       <r>   -3.0475    0.0000 </r>
       <r>   -3.0449    0.0000 </r>
       <r>   -3.0248    0.0000 </r>
       <r>   -3.0158    0.0000 </r>
       <r>   -3.0072    0.0000 </r>
       <r>   -2.9473    0.0000 </r>
       <r>   -2.9260    0.0000 </r>
       <r>   -2.9075    0.0000 </r>
       <r>   -2.5107    0.0000 </r>
       <r>   -2.5096    0.0000 </r>
       <r>   -2.4110    0.0000 </r>
       <r>   -2.3541    0.0000 </r>
       <r>   -2.1237    0.0000 </r>
       <r>   -2.1101    0.0000 </r>
       <r>   -2.1021    0.0000 </r>
       <r>   -2.0176    0.0000 </r>
       <r>   -1.9672    0.0000 </r>
       <r>   -1.9242    0.0000 </r>
       <r>   -1.8553    0.0000 </r>
       <r>   -1.8296    0.0000 </r>
       <r>   -1.7299    0.0000 </r>
       <r>   -1.6977    0.0000 </r>
       <r>   -1.6281    0.0000 </r>
       <r>   -1.6084    0.0000 </r>
       <r>   -1.5434    0.0000 </r>
       <r>   -1.5270    0.0000 </r>
       <r>   -1.4389    0.0000 </r>
       <r>   -1.3651    0.0000 </r>
       <r>   -1.2111    0.0000 </r>
       <r>   -1.1785    0.0000 </r>
       <r>   -1.1383    0.0000 </r>
       <r>   -0.9795    0.0000 </r>
       <r>   -0.9722    0.0000 </r>
       <r>   -0.9626    0.0000 </r>
       <r>   -0.9237    0.0000 </r>
       <r>   -0.9212    0.0000 </r>
       <r>   -0.9065    0.0000 </r>
       <r>   -0.7554    0.0000 </r>
       <r>   -0.6216    0.0000 </r>
      </set>
     </set>
    </set>
   </array>
  </eigenvalues>
  <separator name="orbital magnetization" >
   <v name="MAGDIPOLOUT">      0.00000000      0.00000000      0.00000000</v>
  </separator>
  <dos>
   <i name="efermi">     -4.13855284 </i>
   <total>
    <array>
     <dimension dim="1">gridpoints</dimension>
     <dimension dim="2">spin</dimension>
     <field>energy</field>
     <field>total</field>
     <field>integrated</field>
     <set>
      <set comment="spin 1">
       <r>   -31.0139     0.0000     0.0000 </r>
       <r>   -30.9059     0.0000     0.0000 </r>
       <r>   -30.7979     0.0000     0.0000 </r>
       <r>   -30.6899     0.0000     0.0000 </r>
       <r>   -30.5820     0.0000     0.0000 </r>
       <r>   -30.4740     0.0000     0.0000 </r>
       <r>   -30.3660     0.0000     0.0000 </r>
       <r>   -30.2581     0.0000     0.0000 </r>
       <r>   -30.1501     0.0000     0.0000 </r>
       <r>   -30.0421     0.0000     0.0000 </r>
       <r>   -29.9341     0.0000     0.0000 </r>
       <r>   -29.8262     0.0000     0.0000 </r>
       <r>   -29.7182     0.0003     0.0000 </r>
       <r>   -29.6102     0.0057     0.0006 </r>
       <r>   -29.5022     0.0395     0.0049 </r>
       <r>   -29.3943     0.0363     0.0088 </r>
       <r>   -29.2863    -0.4966    -0.0448 </r>
       <r>   -29.1783    -0.4024    -0.0882 </r>
       <r>   -29.0703     4.8753     0.4382 </r>
       <r>   -28.9624     9.9987     1.5178 </r>
       <r>   -28.8544     5.2226     2.0817 </r>
       <r>   -28.7464    -0.2992     2.0494 </r>
       <r>   -28.6384    -0.5344     1.9917 </r>
       <r>   -28.5305     0.0282     1.9947 </r>
       <r>   -28.4225     0.0420     1.9993 </r>
       <r>   -28.3145     0.0063     2.0000 </r>
       <r>   -28.2065     0.0004     2.0000 </r>
       <r>   -28.0986     0.0000     2.0000 </r>
       <r>   -27.9906     0.0000     2.0000 </r>
       <r>   -27.8826     0.0000     2.0000 </r>
       <r>   -27.7746     0.0000     2.0000 </r>
       <r>   -27.6667     0.0000     2.0000 </r>
       <r>   -27.5587     0.0000     2.0000 </r>
       <r>   -27.4507     0.0000     2.0000 </r>
       <r>   -27.3427     0.0000     2.0000 </r>
       <r>   -27.2348     0.0000     2.0000 </r>
       <r>   -27.1268     0.0000     2.0000 </r>
       <r>   -27.0188     0.0000     2.0000 </r>
       <r>   -26.9108     0.0000     2.0000 </r>
       <r>   -26.8029     0.0000     2.0000 </r>
       <r>   -26.6949     0.0000     2.0000 </r>
       <r>   -26.5869     0.0000     2.0000 </r>
       <r>   -26.4790     0.0000     2.0000 </r>
       <r>   -26.3710     0.0000     2.0000 </r>
       <r>   -26.2630     0.0000     2.0000 </r>
       <r>   -26.1550     0.0000     2.0000 </r>
       <r>   -26.0471     0.0000     2.0000 </r>
       <r>   -25.9391     0.0000     2.0000 </r>
       <r>   -25.8311     0.0000     2.0000 </r>
       <r>   -25.7231     0.0000     2.0000 </r>
       <r>   -25.6152     0.0000     2.0000 </r>
       <r>   -25.5072     0.0000     2.0000 </r>
       <r>   -25.3992     0.0000     2.0000 </r>
       <r>   -25.2912     0.0000     2.0000 </r>
       <r>   -25.1833     0.0000     2.0000 </r>
       <r>   -25.0753     0.0000     2.0000 </r>
       <r>   -24.9673     0.0000     2.0000 </r>
       <r>   -24.8593     0.0000     2.0000 </r>
       <r>   -24.7514     0.0000     2.0000 </r>
       <r>   -24.6434     0.0000     2.0000 </r>
       <r>   -24.5354     0.0000     2.0000 </r>
       <r>   -24.4274     0.0000     2.0000 </r>
       <r>   -24.3195     0.0000     2.0000 </r>
       <r>   -24.2115     0.0000     2.0000 </r>
       <r>   -24.1035     0.0000     2.0000 </r>
       <r>   -23.9955     0.0000     2.0000 </r>
       <r>   -23.8876     0.0000     2.0000 </r>
       <r>   -23.7796     0.0000     2.0000 </r>
       <r>   -23.6716     0.0000     2.0000 </r>
       <r>   -23.5636     0.0000     2.0000 </r>
       <r>   -23.4557     0.0000     2.0000 </r>
       <r>   -23.3477     0.0000     2.0000 </r>
       <r>   -23.2397     0.0000     2.0000 </r>
       <r>   -23.1317     0.0000     2.0000 </r>
       <r>   -23.0238     0.0000     2.0000 </r>
       <r>   -22.9158     0.0000     2.0000 </r>
       <r>   -22.8078     0.0000     2.0000 </r>
       <r>   -22.6999     0.0000     2.0000 </r>
       <r>   -22.5919     0.0000     2.0000 </r>
       <r>   -22.4839     0.0000     2.0000 </r>
       <r>   -22.3759     0.0000     2.0000 </r>
       <r>   -22.2680     0.0000     2.0000 </r>
       <r>   -22.1600     0.0000     2.0000 </r>
       <r>   -22.0520     0.0000     2.0000 </r>
       <r>   -21.9440     0.0000     2.0000 </r>
       <r>   -21.8361     0.0000     2.0000 </r>
       <r>   -21.7281     0.0000     2.0000 </r>
       <r>   -21.6201     0.0000     2.0000 </r>
       <r>   -21.5121     0.0000     2.0000 </r>
       <r>   -21.4042     0.0000     2.0000 </r>
       <r>   -21.2962     0.0000     2.0000 </r>
       <r>   -21.1882     0.0000     2.0000 </r>
       <r>   -21.0802     0.0000     2.0000 </r>
       <r>   -20.9723     0.0000     2.0000 </r>
       <r>   -20.8643     0.0000     2.0000 </r>
       <r>   -20.7563     0.0000     2.0000 </r>
       <r>   -20.6483     0.0000     2.0000 </r>
       <r>   -20.5404     0.0000     2.0000 </r>
       <r>   -20.4324     0.0000     2.0000 </r>
       <r>   -20.3244     0.0000     2.0000 </r>
       <r>   -20.2164     0.0000     2.0000 </r>
       <r>   -20.1085     0.0000     2.0000 </r>
       <r>   -20.0005     0.0000     2.0000 </r>
       <r>   -19.8925     0.0000     2.0000 </r>
       <r>   -19.7845     0.0000     2.0000 </r>
       <r>   -19.6766     0.0000     2.0000 </r>
       <r>   -19.5686     0.0000     2.0000 </r>
       <r>   -19.4606     0.0000     2.0000 </r>
       <r>   -19.3527     0.0000     2.0000 </r>
       <r>   -19.2447     0.0000     2.0000 </r>
       <r>   -19.1367     0.0000     2.0000 </r>
       <r>   -19.0287     0.0000     2.0000 </r>
       <r>   -18.9208     0.0000     2.0000 </r>
       <r>   -18.8128     0.0000     2.0000 </r>
       <r>   -18.7048     0.0000     2.0000 </r>
       <r>   -18.5968     0.0000     2.0000 </r>
       <r>   -18.4889     0.0000     2.0000 </r>
       <r>   -18.3809     0.0000     2.0000 </r>
       <r>   -18.2729     0.0000     2.0000 </r>
       <r>   -18.1649     0.0000     2.0000 </r>
       <r>   -18.0570     0.0000     2.0000 </r>
       <r>   -17.9490     0.0000     2.0000 </r>
       <r>   -17.8410     0.0000     2.0000 </r>
       <r>   -17.7330     0.0000     2.0000 </r>
       <r>   -17.6251     0.0000     2.0000 </r>
       <r>   -17.5171     0.0000     2.0000 </r>
       <r>   -17.4091     0.0000     2.0000 </r>
       <r>   -17.3011     0.0000     2.0000 </r>
       <r>   -17.1932     0.0000     2.0000 </r>
       <r>   -17.0852     0.0000     2.0000 </r>
       <r>   -16.9772     0.0000     2.0000 </r>
       <r>   -16.8692     0.0000     2.0000 </r>
       <r>   -16.7613     0.0000     2.0000 </r>
       <r>   -16.6533     0.0000     2.0000 </r>
       <r>   -16.5453     0.0000     2.0000 </r>
       <r>   -16.4373     0.0000     2.0000 </r>
       <r>   -16.3294     0.0000     2.0000 </r>
       <r>   -16.2214     0.0000     2.0000 </r>
       <r>   -16.1134     0.0000     2.0000 </r>
       <r>   -16.0054     0.0000     2.0000 </r>
       <r>   -15.8975     0.0000     2.0000 </r>
       <r>   -15.7895     0.0000     2.0000 </r>
       <r>   -15.6815     0.0000     2.0000 </r>
       <r>   -15.5736     0.0000     2.0000 </r>
       <r>   -15.4656     0.0000     2.0000 </r>
       <r>   -15.3576     0.0000     2.0000 </r>
       <r>   -15.2496     0.0000     2.0000 </r>
       <r>   -15.1417     0.0000     2.0000 </r>
       <r>   -15.0337     0.0000     2.0000 </r>
       <r>   -14.9257     0.0000     2.0000 </r>
       <r>   -14.8177     0.0000     2.0000 </r>
       <r>   -14.7098     0.0000     2.0000 </r>
       <r>   -14.6018     0.0000     2.0000 </r>
       <r>   -14.4938     0.0000     2.0000 </r>
       <r>   -14.3858     0.0000     2.0000 </r>
       <r>   -14.2779     0.0005     2.0001 </r>
       <r>   -14.1699     0.0074     2.0008 </r>
       <r>   -14.0619     0.0456     2.0058 </r>
       <r>   -13.9539     0.0144     2.0073 </r>
       <r>   -13.8460    -0.5868     1.9440 </r>
       <r>   -13.7380    -0.1305     1.9299 </r>
       <r>   -13.6300     5.7122     2.5466 </r>
       <r>   -13.5220     9.9537     3.6214 </r>
       <r>   -13.4141     4.3888     4.0953 </r>
       <r>   -13.3061    -0.5259     4.0385 </r>
       <r>   -13.1981    -0.4434     3.9906 </r>
       <r>   -13.0901     0.0457     3.9956 </r>
       <r>   -12.9822     0.0361     3.9994 </r>
       <r>   -12.8742     0.0048     4.0000 </r>
       <r>   -12.7662     0.0003     4.0000 </r>
       <r>   -12.6582     0.0000     4.0000 </r>
       <r>   -12.5503     0.0000     4.0000 </r>
       <r>   -12.4423     0.0000     4.0000 </r>
       <r>   -12.3343     0.0000     4.0000 </r>
       <r>   -12.2263     0.0000     4.0000 </r>
       <r>   -12.1184     0.0001     4.0000 </r>
       <r>   -12.0104     0.0020     4.0002 </r>
       <r>   -11.9024     0.0257     4.0030 </r>
       <r>   -11.7945     0.1157     4.0155 </r>
       <r>   -11.6865    -0.1354     4.0009 </r>
       <r>   -11.5785    -1.5068     3.8382 </r>
       <r>   -11.4705     1.5753     4.0083 </r>
       <r>   -11.3626    14.9739     5.6251 </r>
       <r>   -11.2546    18.5963     7.6330 </r>
       <r>   -11.1466     5.2884     8.2040 </r>
       <r>   -11.0386    -1.5596     8.0356 </r>
       <r>   -10.9307    -0.5092     7.9806 </r>
       <r>   -10.8227     0.1253     7.9942 </r>
       <r>   -10.7147     0.0487     7.9994 </r>
       <r>   -10.6067     0.0052     8.0000 </r>
       <r>   -10.4988     0.0003     8.0000 </r>
       <r>   -10.3908     0.0020     8.0002 </r>
       <r>   -10.2828     0.0209     8.0025 </r>
       <r>   -10.1748     0.0641     8.0094 </r>
       <r>   -10.0669    -0.1981     7.9880 </r>
       <r>    -9.9589    -0.8120     7.9003 </r>
       <r>    -9.8509     2.1069     8.1278 </r>
       <r>    -9.7429     8.9498     9.0942 </r>
       <r>    -9.6350     8.0332     9.9616 </r>
       <r>    -9.5270     1.1756    10.0885 </r>
       <r>    -9.4190    -0.7928    10.0029 </r>
       <r>    -9.3110    -0.1045     9.9916 </r>
       <r>    -9.2031     0.0612     9.9982 </r>
       <r>    -9.0951     0.0152     9.9999 </r>
       <r>    -8.9871     0.0013    10.0000 </r>
       <r>    -8.8791     0.0000    10.0000 </r>
       <r>    -8.7712     0.0000    10.0000 </r>
       <r>    -8.6632     0.0000    10.0000 </r>
       <r>    -8.5552     0.0000    10.0000 </r>
       <r>    -8.4472     0.0000    10.0000 </r>
       <r>    -8.3393     0.0000    10.0000 </r>
       <r>    -8.2313     0.0000    10.0000 </r>
       <r>    -8.1233     0.0000    10.0000 </r>
       <r>    -8.0154     0.0000    10.0000 </r>
       <r>    -7.9074     0.0000    10.0000 </r>
       <r>    -7.7994     0.0000    10.0000 </r>
       <r>    -7.6914     0.0000    10.0000 </r>
       <r>    -7.5835     0.0000    10.0000 </r>
       <r>    -7.4755     0.0000    10.0000 </r>
       <r>    -7.3675     0.0001    10.0000 </r>
       <r>    -7.2595     0.0030    10.0003 </r>
       <r>    -7.1516     0.0268    10.0032 </r>
       <r>    -7.0436     0.0613    10.0099 </r>
       <r>    -6.9356    -0.2957     9.9779 </r>
       <r>    -6.8276    -0.7509     9.8968 </r>
       <r>    -6.7197     3.0475    10.2259 </r>
       <r>    -6.6117     9.6393    11.2667 </r>
       <r>    -6.5037     7.2317    12.0475 </r>
       <r>    -6.3957    -0.7636    11.9651 </r>
       <r>    -6.2878    -2.1714    11.7306 </r>
       <r>    -6.1798    13.2628    13.1627 </r>
       <r>    -6.0718    28.8718    16.2801 </r>
       <r>    -5.9638    15.1435    17.9152 </r>
       <r>    -5.8559    10.3240    19.0299 </r>
       <r>    -5.7479    41.9452    23.5589 </r>
       <r>    -5.6399   104.7645    34.8708 </r>
       <r>    -5.5319   217.4649    58.3514 </r>
       <r>    -5.4240   303.7705    91.1508 </r>
       <r>    -5.3160   264.1040   119.6672 </r>
       <r>    -5.2080   206.0465   141.9150 </r>
       <r>    -5.1000   255.3399   169.4851 </r>
       <r>    -4.9921   349.3209   207.2028 </r>
       <r>    -4.8841   350.6582   245.0648 </r>
       <r>    -4.7761   292.1733   276.6120 </r>
       <r>    -4.6681   337.9696   313.1041 </r>
       <r>    -4.5602   423.6562   358.8480 </r>
       <r>    -4.4522   423.8859   404.6168 </r>
       <r>    -4.3442   467.4121   455.0853 </r>
       <r>    -4.2363   559.9490   515.5454 </r>
       <r>    -4.1283   441.5281   563.2191 </r>
       <r>    -4.0203   156.5460   580.1220 </r>
       <r>    -3.9123    13.3373   581.5621 </r>
       <r>    -3.8044    24.3947   584.1961 </r>
       <r>    -3.6964    28.2508   587.2465 </r>
       <r>    -3.5884    10.2446   588.3526 </r>
       <r>    -3.4804    20.2786   590.5422 </r>
       <r>    -3.3725    26.2861   593.3804 </r>
       <r>    -3.2645     4.5389   593.8705 </r>
       <r>    -3.1565    -0.4422   593.8227 </r>
       <r>    -3.0485    38.7311   598.0047 </r>
       <r>    -2.9406    69.8372   605.5453 </r>
       <r>    -2.8326    41.2262   609.9967 </r>
       <r>    -2.7246     1.8922   610.2010 </r>
       <r>    -2.6166    -1.5438   610.0343 </r>
       <r>    -2.5087    19.0108   612.0870 </r>
       <r>    -2.4007    30.8248   615.4153 </r>
       <r>    -2.2927    18.7213   617.4367 </r>
       <r>    -2.1847    13.4471   618.8886 </r>
       <r>    -2.0768    32.4959   622.3974 </r>
       <r>    -1.9688    43.1957   627.0614 </r>
       <r>    -1.8608    38.0498   631.1698 </r>
       <r>    -1.7528    33.8127   634.8207 </r>
       <r>    -1.6449    38.8106   639.0112 </r>
       <r>    -1.5369    43.6588   643.7253 </r>
       <r>    -1.4289    33.9125   647.3869 </r>
       <r>    -1.3209    20.3977   649.5894 </r>
       <r>    -1.2130    20.1895   651.7693 </r>
       <r>    -1.1050    26.4738   654.6278 </r>
       <r>    -0.9970    41.5767   659.1170 </r>
       <r>    -0.8890    56.2710   665.1928 </r>
       <r>    -0.7811    35.4338   669.0188 </r>
       <r>    -0.6731    13.9024   670.5199 </r>
       <r>    -0.5651    10.2185   671.6232 </r>
       <r>    -0.4572     4.2334   672.0803 </r>
       <r>    -0.3492    -0.4643   672.0302 </r>
       <r>    -0.2412    -0.3950   671.9875 </r>
       <r>    -0.1332     0.0666   671.9947 </r>
       <r>    -0.0253     0.0427   671.9993 </r>
       <r>     0.0827     0.0058   672.0000 </r>
       <r>     0.1907     0.0003   672.0000 </r>
       <r>     0.2987     0.0000   672.0000 </r>
       <r>     0.4066     0.0000   672.0000 </r>
       <r>     0.5146     0.0000   672.0000 </r>
       <r>     0.6226     0.0000   672.0000 </r>
       <r>     0.7306     0.0000   672.0000 </r>
       <r>     0.8385     0.0000   672.0000 </r>
       <r>     0.9465     0.0000   672.0000 </r>
       <r>     1.0545     0.0000   672.0000 </r>
       <r>     1.1625     0.0000   672.0000 </r>
       <r>     1.2704     0.0000   672.0000 </r>
       <r>     1.3784     0.0000   672.0000 </r>
      </set>
     </set>
    </array>
   </total>
  </dos>
 </calculation>
 <structure name="finalpos" >
  <crystal>
   <varray name="basis" >
    <v>      30.00000000       0.00000000       0.00000000 </v>
    <v>       0.00000000      30.00000000       0.00000000 </v>
    <v>       0.00000000       0.00000000      30.00000000 </v>
   </varray>
   <i name="volume">  27000.00000000 </i>
   <varray name="rec_basis" >
    <v>       0.03333333       0.00000000       0.00000000 </v>
    <v>       0.00000000       0.03333333       0.00000000 </v>
    <v>       0.00000000       0.00000000       0.03333333 </v>
   </varray>
  </crystal>
  <varray name="positions" >
   <v>       0.44576020       0.32826710       0.41691983 </v>
   <v>       0.67173288       0.55423978       0.41691983 </v>
   <v>       0.55423980       0.32826710       0.41691983 </v>
   <v>       0.32826712       0.55423978       0.41691983 </v>
   <v>       0.50000000       0.38250690       0.34021317 </v>
   <v>       0.50000000       0.38250690       0.65978680 </v>
   <v>       0.50000000       0.27609440       0.50000000 </v>
   <v>       0.27609443       0.49999998       0.50000000 </v>
   <v>       0.72390557       0.49999998       0.50000000 </v>
   <v>       0.50000000       0.72390555       0.50000000 </v>
   <v>       0.61195280       0.38804720       0.34167483 </v>
   <v>       0.61195280       0.38804720       0.65832513 </v>
   <v>       0.38804722       0.61195278       0.34167483 </v>
   <v>       0.38804722       0.61195278       0.65832513 </v>
   <v>       0.38804720       0.38804720       0.34167483 </v>
   <v>       0.38804720       0.38804720       0.65832513 </v>
   <v>       0.61195278       0.61195278       0.34167483 </v>
   <v>       0.61195278       0.61195278       0.65832513 </v>
   <v>       0.44576020       0.32826710       0.58308023 </v>
   <v>       0.67173288       0.55423978       0.58308023 </v>
   <v>       0.55791699       0.44208301       0.41809300 </v>
   <v>       0.32826705       0.44576024       0.41691983 </v>
   <v>       0.55423973       0.67173293       0.41691983 </v>
   <v>       0.55423980       0.32826710       0.58308023 </v>
   <v>       0.32826712       0.55423978       0.58308023 </v>
   <v>       0.67173295       0.44576024       0.41691983 </v>
   <v>       0.44576027       0.67173293       0.41691983 </v>
   <v>       0.44208301       0.44208301       0.41809300 </v>
   <v>       0.50000000       0.38416601       0.50000000 </v>
   <v>       0.61749315       0.50000005       0.34021317 </v>
   <v>       0.61749315       0.50000005       0.65978680 </v>
   <v>       0.38250685       0.50000005       0.34021317 </v>
   <v>       0.38250685       0.50000005       0.65978680 </v>
   <v>       0.38317830       0.38317830       0.50000000 </v>
   <v>       0.61682172       0.61682172       0.50000000 </v>
   <v>       0.61682170       0.38317830       0.50000000 </v>
   <v>       0.38317828       0.61682172       0.50000000 </v>
   <v>       0.50000000       0.50000000       0.33478917 </v>
   <v>       0.50000000       0.50000000       0.66521087 </v>
   <v>       0.32826705       0.44576024       0.58308023 </v>
   <v>       0.55423973       0.67173293       0.58308023 </v>
   <v>       0.55791699       0.44208301       0.58190703 </v>
   <v>       0.44208298       0.55791702       0.41809300 </v>
   <v>       0.44208301       0.44208301       0.58190703 </v>
   <v>       0.67173295       0.44576024       0.58308023 </v>
   <v>       0.44576027       0.67173293       0.58308023 </v>
   <v>       0.55791702       0.55791702       0.41809300 </v>
   <v>       0.38416599       0.50000002       0.50000000 </v>
   <v>       0.61583401       0.50000002       0.50000000 </v>
   <v>       0.50000000       0.61749319       0.34021317 </v>
   <v>       0.50000000       0.61749319       0.65978680 </v>
   <v>       0.50000000       0.50000000       0.50000000 </v>
   <v>       0.44208298       0.55791702       0.58190703 </v>
   <v>       0.55791702       0.55791702       0.58190703 </v>
   <v>       0.50000000       0.61583404       0.50000000 </v>
   <v>       0.59050407       0.25966147       0.57708223 </v>
   <v>       0.60319537       0.22595903       0.58789140 </v>
  </varray>
  <varray name="selective"  type="logical" >
   <v type="logical" >  F  F  F </v>
   <v type="logical" >  F  F  F </v>
   <v type="logical" >  F  F  F </v>
   <v type="logical" >  F  F  F </v>
   <v type="logical" >  F  F  F </v>
   <v type="logical" >  F  F  F </v>
   <v type="logical" >  F  F  F </v>
   <v type="logical" >  F  F  F </v>
   <v type="logical" >  F  F  F </v>
   <v type="logical" >  F  F  F </v>
   <v type="logical" >  F  F  F </v>
   <v type="logical" >  F  F  F </v>
   <v type="logical" >  F  F  F </v>
   <v type="logical" >  F  F  F </v>
   <v type="logical" >  F  F  F </v>
   <v type="logical" >  F  F  F </v>
   <v type="logical" >  F  F  F </v>
   <v type="logical" >  F  F  F </v>
   <v type="logical" >  F  F  F </v>
   <v type="logical" >  F  F  F </v>
   <v type="logical" >  F  F  F </v>
   <v type="logical" >  F  F  F </v>
   <v type="logical" >  F  F  F </v>
   <v type="logical" >  F  F  F </v>
   <v type="logical" >  F  F  F </v>
   <v type="logical" >  F  F  F </v>
   <v type="logical" >  F  F  F </v>
   <v type="logical" >  F  F  F </v>
   <v type="logical" >  F  F  F </v>
   <v type="logical" >  F  F  F </v>
   <v type="logical" >  F  F  F </v>
   <v type="logical" >  F  F  F </v>
   <v type="logical" >  F  F  F </v>
   <v type="logical" >  F  F  F </v>
   <v type="logical" >  F  F  F </v>
   <v type="logical" >  F  F  F </v>
   <v type="logical" >  F  F  F </v>
   <v type="logical" >  F  F  F </v>
   <v type="logical" >  F  F  F </v>
   <v type="logical" >  F  F  F </v>
   <v type="logical" >  F  F  F </v>
   <v type="logical" >  F  F  F </v>
   <v type="logical" >  F  F  F </v>
   <v type="logical" >  F  F  F </v>
   <v type="logical" >  F  F  F </v>
   <v type="logical" >  F  F  F </v>
   <v type="logical" >  F  F  F </v>
   <v type="logical" >  F  F  F </v>
   <v type="logical" >  F  F  F </v>
   <v type="logical" >  F  F  F </v>
   <v type="logical" >  F  F  F </v>
   <v type="logical" >  F  F  F </v>
   <v type="logical" >  F  F  F </v>
   <v type="logical" >  F  F  F </v>
   <v type="logical" >  F  F  F </v>
   <v type="logical" >  F  F  F </v>
   <v type="logical" >  F  F  F </v>
  </varray>
  <nose>
   <v>      -3.00000000       0.00000000       0.00010000       0.00010000 </v>
  </nose>
 </structure>
</modeling>
