   57   57    1    1
  0.4736842E+03  0.3000000E-08  0.3000000E-08  0.3000000E-08  0.5000000E-15
  1.000000000000000E-004
  CAR 
 6_Pd100_top_free_z(O)                   
    560      1    336
 
  0.0000000E+00  0.0000000E+00  0.0000000E+00  0.1000000E+01
    1      -28.025899   1.000000
    2      -13.664856   1.000000
    3      -11.344385   1.000000
    4      -10.843681   1.000000
    5      -10.708936   1.000000
    6       -7.100509   1.000000
    7       -6.995118   1.000000
    8       -6.684244   1.000000
    9       -6.276618   1.000000
   10       -6.148053   1.000000
   11       -6.147377   1.000000
   12       -6.091264   1.000000
   13       -6.018410   1.000000
   14       -5.876661   1.000000
   15       -5.828362   1.000000
   16       -5.820494   1.000000
   17       -5.763912   1.000000
   18       -5.746584   1.000000
   19       -5.710041   1.000000
   20       -5.701666   1.000000
   21       -5.697036   1.000000
   22       -5.663874   1.000000
   23       -5.640235   1.000000
   24       -5.627022   1.000000
   25       -5.618669   1.000000
   26       -5.611354   1.000000
   27       -5.603697   1.000000
   28       -5.592285   1.000000
   29       -5.566058   1.000000
   30       -5.565092   1.000000
   31       -5.555103   1.000000
   32       -5.546510   1.000000
   33       -5.537272   1.000000
   34       -5.536307   1.000000
   35       -5.530826   1.000000
   36       -5.530358   1.000000
   37       -5.526796   1.000000
   38       -5.521400   1.000000
   39       -5.515293   1.000000
   40       -5.496212   1.000000
   41       -5.492068   1.000000
   42       -5.490784   1.000000
   43       -5.486069   1.000000
   44       -5.484530   1.000000
   45       -5.481543   1.000000
   46       -5.474750   1.000000
   47       -5.455695   1.000000
   48       -5.449509   1.000000
   49       -5.445567   1.000000
   50       -5.443081   1.000000
   51       -5.442801   1.000000
   52       -5.439775   1.000000
   53       -5.424481   1.000000
   54       -5.423128   1.000000
   55       -5.418690   1.000000
   56       -5.414096   1.000000
   57       -5.403805   1.000000
   58       -5.395775   1.000000
   59       -5.372983   1.000000
   60       -5.351706   1.000000
   61       -5.343685   1.000000
   62       -5.338414   1.000000
   63       -5.334378   1.000000
   64       -5.332458   1.000000
   65       -5.327654   1.000000
   66       -5.319732   1.000000
   67       -5.317752   1.000000
   68       -5.310927   1.000000
   69       -5.280468   1.000000
   70       -5.261593   1.000000
   71       -5.241558   1.000000
   72       -5.228211   1.000000
   73       -5.226638   1.000000
   74       -5.217624   1.000000
   75       -5.209160   1.000000
   76       -5.199084   1.000000
   77       -5.197924   1.000000
   78       -5.195123   1.000000
   79       -5.186999   1.000000
   80       -5.182321   1.000000
   81       -5.182025   1.000000
   82       -5.158300   1.000000
   83       -5.153229   1.000000
   84       -5.144746   1.000000
   85       -5.136784   1.000000
   86       -5.134783   1.000000
   87       -5.130171   1.000000
   88       -5.118481   1.000000
   89       -5.111793   1.000000
   90       -5.097376   1.000000
   91       -5.093605   1.000000
   92       -5.078343   1.000000
   93       -5.073017   1.000000
   94       -5.072035   1.000000
   95       -5.071241   1.000000
   96       -5.067829   1.000000
   97       -5.060833   1.000000
   98       -5.057517   1.000000
   99       -5.056438   1.000000
  100       -5.046241   1.000000
  101       -5.042242   1.000000
  102       -5.040152   1.000000
  103       -5.028871   1.000000
  104       -5.022543   1.000000
  105       -5.021172   1.000000
  106       -5.020888   1.000000
  107       -5.016337   1.000000
  108       -5.008109   1.000000
  109       -4.999918   1.000000
  110       -4.997874   1.000000
  111       -4.995452   1.000000
  112       -4.991372   1.000000
  113       -4.979458   1.000000
  114       -4.978626   0.999999
  115       -4.975497   0.999999
  116       -4.973748   0.999999
  117       -4.964871   0.999999
  118       -4.960699   0.999999
  119       -4.951360   0.999999
  120       -4.937462   0.999998
  121       -4.930199   0.999997
  122       -4.930002   0.999997
  123       -4.926728   0.999997
  124       -4.920222   0.999996
  125       -4.919182   0.999996
  126       -4.916361   0.999996
  127       -4.910367   0.999995
  128       -4.899704   0.999993
  129       -4.878429   0.999986
  130       -4.870372   0.999982
  131       -4.858440   0.999974
  132       -4.858029   0.999974
  133       -4.857593   0.999973
  134       -4.854136   0.999970
  135       -4.848600   0.999965
  136       -4.847011   0.999964
  137       -4.826643   0.999936
  138       -4.819193   0.999922
  139       -4.811272   0.999903
  140       -4.805481   0.999887
  141       -4.794744   0.999852
  142       -4.788194   0.999826
  143       -4.782595   0.999800
  144       -4.774575   0.999757
  145       -4.759431   0.999655
  146       -4.755288   0.999621
  147       -4.748565   0.999560
  148       -4.740200   0.999472
  149       -4.737621   0.999442
  150       -4.721848   0.999229
  151       -4.715879   0.999132
  152       -4.709815   0.999025
  153       -4.705593   0.998944
  154       -4.700665   0.998843
  155       -4.698052   0.998787
  156       -4.690204   0.998606
  157       -4.690083   0.998603
  158       -4.688843   0.998572
  159       -4.687172   0.998531
  160       -4.683591   0.998439
  161       -4.678104   0.998290
  162       -4.666525   0.997947
  163       -4.664091   0.997870
  164       -4.663733   0.997859
  165       -4.662537   0.997820
  166       -4.661951   0.997801
  167       -4.661437   0.997784
  168       -4.657983   0.997670
  169       -4.652033   0.997466
  170       -4.650105   0.997399
  171       -4.635788   0.996876
  172       -4.628721   0.996610
  173       -4.620126   0.996289
  174       -4.619642   0.996271
  175       -4.614100   0.996068
  176       -4.612921   0.996026
  177       -4.610232   0.995931
  178       -4.607267   0.995830
  179       -4.606775   0.995813
  180       -4.599210   0.995572
  181       -4.593284   0.995406
  182       -4.587752   0.995274
  183       -4.584840   0.995215
  184       -4.578010   0.995112
  185       -4.574708   0.995082
  186       -4.571879   0.995068
  187       -4.568169   0.995067
  188       -4.567771   0.995068
  189       -4.565424   0.995080
  190       -4.562435   0.995109
  191       -4.546196   0.995579
  192       -4.541812   0.995812
  193       -4.534718   0.996300
  194       -4.529105   0.996793
  195       -4.520910   0.997700
  196       -4.520481   0.997754
  197       -4.517615   0.998132
  198       -4.509563   0.999362
  199       -4.500939   1.000970
  200       -4.492587   1.002832
  201       -4.492156   1.002936
  202       -4.482621   1.005463
  203       -4.479954   1.006244
  204       -4.475595   1.007591
  205       -4.473473   1.008278
  206       -4.472691   1.008536
  207       -4.465194   1.011149
  208       -4.463847   1.011645
  209       -4.457523   1.014073
  210       -4.454970   1.015098
  211       -4.446503   1.018672
  212       -4.442683   1.020362
  213       -4.435169   1.023803
  214       -4.433544   1.024564
  215       -4.426552   1.027885
  216       -4.425134   1.028566
  217       -4.424107   1.029059
  218       -4.421145   1.030485
  219       -4.418802   1.031614
  220       -4.415595   1.033154
  221       -4.404117   1.038539
  222       -4.385198   1.046264
  223       -4.382985   1.047010
  224       -4.381569   1.047465
  225       -4.369258   1.050541
  226       -4.366287   1.051007
  227       -4.354019   1.051518
  228       -4.353332   1.051471
  229       -4.352161   1.051371
  230       -4.350354   1.051166
  231       -4.350274   1.051155
  232       -4.348561   1.050899
  233       -4.345097   1.050199
  234       -4.342544   1.049519
  235       -4.339975   1.048689
  236       -4.338777   1.048251
  237       -4.337807   1.047871
  238       -4.336923   1.047505
  239       -4.334430   1.046371
  240       -4.331806   1.045009
  241       -4.326212   1.041504
  242       -4.317529   1.034326
  243       -4.314971   1.031783
  244       -4.306517   1.021904
  245       -4.305031   1.019924
  246       -4.304038   1.018560
  247       -4.300167   1.012919
  248       -4.299560   1.011988
  249       -4.295384   1.005224
  250       -4.288124   0.991967
  251       -4.284463   0.984543
  252       -4.280990   0.977030
  253       -4.278034   0.970277
  254       -4.274793   0.962485
  255       -4.270729   0.952141
  256       -4.269643   0.949267
  257       -4.265726   0.938527
  258       -4.264840   0.936015
  259       -4.262021   0.927820
  260       -4.260352   0.922824
  261       -4.258572   0.917379
  262       -4.256261   0.910125
  263       -4.253909   0.902532
  264       -4.252217   0.896940
  265       -4.251537   0.894660
  266       -4.242817   0.863920
  267       -4.242089   0.861227
  268       -4.237788   0.844934
  269       -4.237403   0.843442
  270       -4.234278   0.831154
  271       -4.231333   0.819266
  272       -4.224493   0.790559
  273       -4.220584   0.773500
  274       -4.209496   0.722728
  275       -4.201588   0.684630
  276       -4.199503   0.674361
  277       -4.192220   0.637835
  278       -4.190463   0.628891
  279       -4.189726   0.625122
  280       -4.185771   0.604786
  281       -4.176119   0.554435
  282       -4.174386   0.545320
  283       -4.155060   0.443290
  284       -4.144199   0.386745
  285       -4.144122   0.386349
  286       -4.143221   0.381717
  287       -4.133426   0.332175
  288       -4.126084   0.296212
  289       -4.087597   0.131690
  290       -3.976976  -0.051553
  291       -3.910249  -0.030380
  292       -3.847636  -0.005079
  293       -3.830395  -0.000913
  294       -3.748276   0.004812
  295       -3.522329   0.000102
  296       -3.504396   0.000063
  297       -3.398262   0.000002
  298       -3.082828   0.000000
  299       -3.076061   0.000000
  300       -3.055472   0.000000
  301       -3.045238   0.000000
  302       -3.042114   0.000000
  303       -2.965438   0.000000
  304       -2.950248   0.000000
  305       -2.894530   0.000000
  306       -2.544027   0.000000
  307       -2.535269   0.000000
  308       -2.382741   0.000000
  309       -2.349762   0.000000
  310       -2.138590   0.000000
  311       -2.132272   0.000000
  312       -2.121783   0.000000
  313       -1.997908   0.000000
  314       -1.982548   0.000000
  315       -1.957274   0.000000
  316       -1.881614   0.000000
  317       -1.826212   0.000000
  318       -1.748542   0.000000
  319       -1.664722   0.000000
  320       -1.654067   0.000000
  321       -1.624879   0.000000
  322       -1.575276   0.000000
  323       -1.450490   0.000000
  324       -1.320314   0.000000
  325       -1.255920   0.000000
  326       -1.170700   0.000000
  327       -1.064921   0.000000
  328       -1.009979   0.000000
  329       -1.002086   0.000000
  330       -0.978286   0.000000
  331       -0.971732   0.000000
  332       -0.945286   0.000000
  333       -0.907290   0.000000
  334       -0.841533   0.000000
  335       -0.810663   0.000000
  336       -0.634790   0.000000
