 vasp.5.4.4.18Apr17-6-g9f103f2a35 (build Sep 03 2018 23:53:05) complex          
  
 executed on             LinuxIFC date 2021.12.02  19:11:11
 running on    1 total cores
 distrk:  each k-point on    1 cores,    1 groups
 distr:  one band on NCORES_PER_BAND=   1 cores,    1 groups


--------------------------------------------------------------------------------------------------------


 INCAR:
 POTCAR:    PAW_PBE Pd 04Jan2005                  
 POTCAR:    PAW_PBE C 08Apr2002                   
 POTCAR:    PAW_PBE O 08Apr2002                   
 POTCAR:    PAW_PBE Pd 04Jan2005                  
   VRHFIN =Pd : s1 d9                                                           
   LEXCH  = PE                                                                  
   EATOM  =   809.7530 eV,   59.5152 Ry                                         
                                                                                
   TITEL  = PAW_PBE Pd 04Jan2005                                                
   LULTRA =        F    use ultrasoft PP ?                                      
   IUNSCR =        1    unscreen: 0-lin 1-nonlin 2-no                           
   RPACOR =    2.000    partial core radius                                     
   POMASS =  106.420; ZVAL   =   10.000    mass and valenz                      
   RCORE  =    2.600    outmost cutoff radius                                   
   RWIGS  =    2.710; RWIGS  =    1.434    wigner-seitz radius (au A)           
   ENMAX  =  250.925; ENMIN  =  188.194 eV                                      
   ICORE  =        3    local potential                                         
   LCOR   =        T    correct aug charges                                     
   LPAW   =        T    paw PP                                                  
   EAUG   =  416.230                                                            
   DEXC   =    0.000                                                            
   RMAX   =    2.653    core radius for proj-oper                               
   RAUG   =    1.300    factor for augmentation sphere                          
   RDEP   =    2.734    radius for radial grids                                 
   RDEPT  =    2.103    core radius for aug-charge                              
                                                                                
   Atomic configuration                                                         
   12 entries                                                                   
     n  l   j            E        occ.                                          
     1  0  0.50    -24164.6631   2.0000                                         
     2  0  0.50     -3530.9218   2.0000                                         
     2  1  1.50     -3165.6822   6.0000                                         
     3  0  0.50      -639.4577   2.0000                                         
     3  1  1.50      -519.4532   6.0000                                         
     3  2  2.50      -328.9757  10.0000                                         
     4  0  0.50       -88.7014   2.0000                                         
     4  1  1.50       -54.4540   6.0000                                         
     4  2  2.50        -6.6878   9.0000                                         
     5  0  0.50        -4.3543   1.0000                                         
     5  1  0.50        -1.3606   0.0000                                         
     4  3  2.50        -1.3606   0.0000                                         
   Description                                                                  
     l       E           TYP  RCUT    TYP  RCUT                                 
     2     -6.6878251     23  2.400                                             
     2     -8.0484077     23  2.400                                             
     0     -4.3542939     23  2.400                                             
     0      4.3406793     23  2.400                                             
     1     -4.0817478     23  2.600                                             
     1     15.8380318     23  2.600                                             
     3     -4.0817478     23  2.400                                             
  local pseudopotential read in
  partial core-charges read in
  partial kinetic energy density read in
  atomic valenz-charges read in
  non local Contribution for L=           2  read in
    real space projection operators read in
  non local Contribution for L=           2  read in
    real space projection operators read in
  non local Contribution for L=           0  read in
    real space projection operators read in
  non local Contribution for L=           0  read in
    real space projection operators read in
  non local Contribution for L=           1  read in
    real space projection operators read in
  non local Contribution for L=           1  read in
    real space projection operators read in
    PAW grid and wavefunctions read in
 
   number of l-projection  operators is LMAX  =           6
   number of lm-projection operators is LMMAX =          18
 
 POTCAR:    PAW_PBE C 08Apr2002                   
   VRHFIN =C: s2p2                                                              
   LEXCH  = PE                                                                  
   EATOM  =   147.1560 eV,   10.8157 Ry                                         
                                                                                
   TITEL  = PAW_PBE C 08Apr2002                                                 
   LULTRA =        F    use ultrasoft PP ?                                      
   IUNSCR =        1    unscreen: 0-lin 1-nonlin 2-no                           
   RPACOR =    1.200    partial core radius                                     
   POMASS =   12.011; ZVAL   =    4.000    mass and valenz                      
   RCORE  =    1.500    outmost cutoff radius                                   
   RWIGS  =    1.630; RWIGS  =    0.863    wigner-seitz radius (au A)           
   ENMAX  =  400.000; ENMIN  =  300.000 eV                                      
   ICORE  =        2    local potential                                         
   LCOR   =        T    correct aug charges                                     
   LPAW   =        T    paw PP                                                  
   EAUG   =  644.873                                                            
   DEXC   =    0.000                                                            
   RMAX   =    1.529    core radius for proj-oper                               
   RAUG   =    1.300    factor for augmentation sphere                          
   RDEP   =    1.501    radius for radial grids                                 
   RDEPT  =    1.300    core radius for aug-charge                              
                                                                                
   Atomic configuration                                                         
    4 entries                                                                   
     n  l   j            E        occ.                                          
     1  0  0.50      -273.3789   2.0000                                         
     2  0  0.50       -13.7508   2.0000                                         
     2  1  0.50        -5.2854   2.0000                                         
     3  2  1.50        -5.4423   0.0000                                         
   Description                                                                  
     l       E           TYP  RCUT    TYP  RCUT                                 
     0    -13.7508458     23  1.200                                             
     0     -8.2022199     23  1.200                                             
     1     -5.2854383     23  1.500                                             
     1     34.0145650     23  1.500                                             
     2     -5.4423304      7  1.500                                             
  local pseudopotential read in
  partial core-charges read in
  partial kinetic energy density read in
  atomic valenz-charges read in
  non local Contribution for L=           0  read in
    real space projection operators read in
  non local Contribution for L=           0  read in
    real space projection operators read in
  non local Contribution for L=           1  read in
    real space projection operators read in
  non local Contribution for L=           1  read in
    real space projection operators read in
    PAW grid and wavefunctions read in
 
   number of l-projection  operators is LMAX  =           4
   number of lm-projection operators is LMMAX =           8
 
 POTCAR:    PAW_PBE O 08Apr2002                   
   VRHFIN =O: s2p4                                                              
   LEXCH  = PE                                                                  
   EATOM  =   432.3788 eV,   31.7789 Ry                                         
                                                                                
   TITEL  = PAW_PBE O 08Apr2002                                                 
   LULTRA =        F    use ultrasoft PP ?                                      
   IUNSCR =        1    unscreen: 0-lin 1-nonlin 2-no                           
   RPACOR =    1.200    partial core radius                                     
   POMASS =   16.000; ZVAL   =    6.000    mass and valenz                      
   RCORE  =    1.520    outmost cutoff radius                                   
   RWIGS  =    1.550; RWIGS  =    0.820    wigner-seitz radius (au A)           
   ENMAX  =  400.000; ENMIN  =  300.000 eV                                      
   ICORE  =        2    local potential                                         
   LCOR   =        T    correct aug charges                                     
   LPAW   =        T    paw PP                                                  
   EAUG   =  605.392                                                            
   DEXC   =    0.000                                                            
   RMAX   =    1.553    core radius for proj-oper                               
   RAUG   =    1.300    factor for augmentation sphere                          
   RDEP   =    1.550    radius for radial grids                                 
   RDEPT  =    1.329    core radius for aug-charge                              
                                                                                
   Atomic configuration                                                         
    4 entries                                                                   
     n  l   j            E        occ.                                          
     1  0  0.50      -514.6923   2.0000                                         
     2  0  0.50       -23.9615   2.0000                                         
     2  1  0.50        -9.0305   4.0000                                         
     3  2  1.50        -9.5241   0.0000                                         
   Description                                                                  
     l       E           TYP  RCUT    TYP  RCUT                                 
     0    -23.9615318     23  1.200                                             
     0     -9.5240782     23  1.200                                             
     1     -9.0304911     23  1.520                                             
     1      8.1634956     23  1.520                                             
     2     -9.5240782      7  1.500                                             
  local pseudopotential read in
  partial core-charges read in
  partial kinetic energy density read in
  kinetic energy density of atom read in
  atomic valenz-charges read in
  non local Contribution for L=           0  read in
    real space projection operators read in
  non local Contribution for L=           0  read in
    real space projection operators read in
  non local Contribution for L=           1  read in
    real space projection operators read in
  non local Contribution for L=           1  read in
    real space projection operators read in
    PAW grid and wavefunctions read in
 
   number of l-projection  operators is LMAX  =           4
   number of lm-projection operators is LMMAX =           8
 
 Optimization of the real space projectors (new method)

 maximal supplied QI-value         = 14.36
 optimisation between [QCUT,QGAM] = [ 10.20, 20.39] = [ 29.12,116.47] Ry 
 Optimized for a Real-space Cutoff    1.51 Angstroem

   l    n(q)    QCUT    max X(q) W(low)/X(q) W(high)/X(q)  e(spline) 
   2      8    10.197    59.108    0.26E-03    0.14E-03    0.96E-07
   2      8    10.197    58.101    0.27E-03    0.14E-03    0.98E-07
   0      9    10.197   102.235    0.54E-04    0.60E-05    0.72E-07
   0      9    10.197    58.388    0.52E-04    0.60E-05    0.68E-07
   1      9    10.197    22.191    0.18E-03    0.25E-03    0.79E-07
   1      9    10.197    15.590    0.15E-03    0.21E-03    0.69E-07
 Optimization of the real space projectors (new method)

 maximal supplied QI-value         = 25.13
 optimisation between [QCUT,QGAM] = [ 10.05, 20.36] = [ 28.30,116.06] Ry 
 Optimized for a Real-space Cutoff    1.30 Angstroem

   l    n(q)    QCUT    max X(q) W(low)/X(q) W(high)/X(q)  e(spline) 
   0      8    10.053   115.676    0.49E-03    0.72E-03    0.18E-06
   0      8    10.053    87.132    0.49E-03    0.71E-03    0.18E-06
   1      7    10.053     4.429    0.32E-03    0.31E-03    0.18E-06
   1      7    10.053     2.733    0.23E-03    0.19E-03    0.20E-06
 Optimization of the real space projectors (new method)

 maximal supplied QI-value         = 24.76
 optimisation between [QCUT,QGAM] = [ 10.15, 20.30] = [ 28.85,115.39] Ry 
 Optimized for a Real-space Cutoff    1.38 Angstroem

   l    n(q)    QCUT    max X(q) W(low)/X(q) W(high)/X(q)  e(spline) 
   0      8    10.150    20.381    0.22E-03    0.32E-03    0.29E-06
   0      8    10.150    15.268    0.23E-03    0.35E-03    0.30E-06
   1      8    10.150     5.964    0.46E-03    0.53E-03    0.21E-06
   1      8    10.150     5.382    0.38E-03    0.45E-03    0.19E-06

 ----------------------------------------------------------------------------- 
|                                                                             |
|  ADVICE TO THIS USER RUNNING 'VASP/VAMP'   (HEAR YOUR MASTER'S VOICE ...):  |
|                                                                             |
|      You enforced a specific xc-type in the INCAR file,                     |
|      a different type was found on the POTCAR file                          |
|          I HOPE YOU KNOW, WHAT YOU ARE  DOING                               |
|                                                                             |
 ----------------------------------------------------------------------------- 

  PAW_PBE Pd 04Jan2005                  :
 energy of atom  1       EATOM= -809.7530
 kinetic energy error for atom=    0.0091 (will be added to EATOM!!)
  PAW_PBE C 08Apr2002                   :
 energy of atom  2       EATOM= -147.1560
 kinetic energy error for atom=    0.0288 (will be added to EATOM!!)
  PAW_PBE O 08Apr2002                   :
 energy of atom  3       EATOM= -432.3788
 kinetic energy error for atom=    0.1156 (will be added to EATOM!!)
 
 
 POSCAR: Pd55PES                                 
  positions in cartesian coordinates
  No initial velocities read in
 exchange correlation table for  LEXCH =        9
   RHO(1)=    0.500       N(1)  =     2000
   RHO(2)=  100.500       N(2)  =     4000
 


--------------------------------------------------------------------------------------------------------


 ion  position               nearest neighbor table
   1  0.446  0.328  0.417-   3 3.25   5 3.25   7 3.36  15 3.36  29 3.42  28 3.42
   2  0.672  0.554  0.417-  26 3.25  30 3.25  17 3.36   9 3.36  47 3.42  49 3.42
   3  0.554  0.328  0.417-   1 3.25   5 3.25   7 3.36  11 3.36  29 3.42  21 3.42
   4  0.328  0.554  0.417-  32 3.25  22 3.25  13 3.36   8 3.36  43 3.42  48 3.42
   5  0.500  0.383  0.340-   1 3.25   3 3.25  11 3.36  15 3.36  21 3.42  28 3.42
   6  0.500  0.383  0.660-  24 3.25  19 3.25  16 3.36  12 3.36  42 3.42  44 3.42
   7  0.500  0.276  0.500-  29 3.24   3 3.36   1 3.36  19 3.36  24 3.36
   8  0.276  0.500  0.500-  48 3.24  22 3.36  40 3.36   4 3.36  25 3.36
   9  0.724  0.500  0.500-  56 2.68  49 3.24  26 3.36  45 3.36   2 3.36  20 3.36
  10  0.500  0.724  0.500-  55 3.24  27 3.36  23 3.36  46 3.36  41 3.36
  11  0.612  0.388  0.342-  21 3.24   5 3.36   3 3.36  30 3.36  26 3.36
  12  0.612  0.388  0.658-  42 3.24  24 3.36  45 3.36   6 3.36  31 3.36
  13  0.388  0.612  0.342-  43 3.24  32 3.36  50 3.36   4 3.36  27 3.36
  14  0.388  0.612  0.658-  53 3.24  25 3.36  33 3.36  51 3.36  46 3.36
  15  0.388  0.388  0.342-  28 3.24   5 3.36   1 3.36  32 3.36  22 3.36
  16  0.388  0.388  0.658-  44 3.24  19 3.36  40 3.36   6 3.36  33 3.36
  17  0.612  0.612  0.342-  47 3.24  30 3.36  50 3.36   2 3.36  23 3.36
  18  0.612  0.612  0.658-  54 3.24  31 3.36  20 3.36  51 3.36  41 3.36
  19  0.446  0.328  0.583-   6 3.25  24 3.25  16 3.36   7 3.36  44 3.42  29 3.42
  20  0.672  0.554  0.583-  56 1.65  57 2.12  31 3.25  45 3.25  18 3.36   9 3.36  54 3.42  49 3.42

  21  0.558  0.442  0.418-  11 3.24   5 3.42   3 3.42  30 3.42  26 3.42
  22  0.328  0.446  0.417-   4 3.25  32 3.25   8 3.36  15 3.36  48 3.42  28 3.42
  23  0.554  0.672  0.417-  27 3.25  50 3.25  10 3.36  17 3.36  55 3.42  47 3.42
  24  0.554  0.328  0.583-   6 3.25  19 3.25  12 3.36   7 3.36  42 3.42  29 3.42
  25  0.328  0.554  0.583-  33 3.25  40 3.25  14 3.36   8 3.36  53 3.42  48 3.42
  26  0.672  0.446  0.417-   2 3.25  30 3.25   9 3.36  11 3.36  49 3.42  21 3.42
  27  0.446  0.672  0.417-  23 3.25  50 3.25  10 3.36  13 3.36  55 3.42  43 3.42
  28  0.442  0.442  0.418-  15 3.24   5 3.42   1 3.42  32 3.42  22 3.42
  29  0.500  0.384  0.500-   7 3.24   3 3.42   1 3.42  24 3.42  19 3.42
  30  0.617  0.500  0.340-   2 3.25  26 3.25  17 3.36  11 3.36  47 3.42  21 3.42
  31  0.617  0.500  0.660-  20 3.25  45 3.25  18 3.36  12 3.36  54 3.42  42 3.42
  32  0.383  0.500  0.340-   4 3.25  22 3.25  13 3.36  15 3.36  43 3.42  28 3.42
  33  0.383  0.500  0.660-  25 3.25  40 3.25  14 3.36  16 3.36  53 3.42  44 3.42
  34  0.383  0.383  0.500-
  35  0.617  0.617  0.500-  56 2.55
  36  0.617  0.383  0.500-
  37  0.383  0.617  0.500-
  38  0.500  0.500  0.335-
  39  0.500  0.500  0.665-
  40  0.328  0.446  0.583-  33 3.25  25 3.25  16 3.36   8 3.36  44 3.42  48 3.42
  41  0.554  0.672  0.583-  46 3.25  51 3.25  10 3.36  18 3.36  54 3.42  55 3.42
  42  0.558  0.442  0.582-  12 3.24   6 3.42  24 3.42  31 3.42  45 3.42
  43  0.442  0.558  0.418-  13 3.24   4 3.42  32 3.42  27 3.42  50 3.42
  44  0.442  0.442  0.582-  16 3.24   6 3.42  19 3.42  33 3.42  40 3.42
  45  0.672  0.446  0.583-  20 3.25  31 3.25   9 3.36  12 3.36  49 3.42  42 3.42
  46  0.446  0.672  0.583-  41 3.25  51 3.25  10 3.36  14 3.36  53 3.42  55 3.42
  47  0.558  0.558  0.418-  17 3.24   2 3.42  30 3.42  23 3.42  50 3.42
  48  0.384  0.500  0.500-   8 3.24   4 3.42  22 3.42  25 3.42  40 3.42
  49  0.616  0.500  0.500-   9 3.24   2 3.42  26 3.42  20 3.42  45 3.42
  50  0.500  0.617  0.340-  27 3.25  23 3.25  13 3.36  17 3.36  43 3.42  47 3.42
  51  0.500  0.617  0.660-  41 3.25  46 3.25  14 3.36  18 3.36  53 3.42  54 3.42
  52  0.500  0.500  0.500-
  53  0.442  0.558  0.582-  14 3.24  25 3.42  33 3.42  51 3.42  46 3.42
  54  0.558  0.558  0.582-  18 3.24  31 3.42  20 3.42  51 3.42  41 3.42
  55  0.500  0.616  0.500-  10 3.24  23 3.42  27 3.42  41 3.42  46 3.42
  56  0.682  0.572  0.532-  57 1.13  20 1.65  35 2.55   9 2.68
  57  0.716  0.586  0.538-  56 1.13  20 2.12
 
  LATTYP: Found a simple cubic cell.
 ALAT       =    30.0000000000
  
  Lattice vectors:
  
 A1 = (  30.0000000000,   0.0000000000,   0.0000000000)
 A2 = (   0.0000000000,  30.0000000000,   0.0000000000)
 A3 = (   0.0000000000,   0.0000000000,  30.0000000000)


Analysis of symmetry for initial positions (statically):
=====================================================================
 Subroutine PRICEL returns:
 Original cell was already a primitive cell.
 

 Routine SETGRP: Setting up the symmetry group for a 
 simple cubic supercell.


 Subroutine GETGRP returns: Found  1 space group operations
 (whereof  1 operations were pure point group operations)
 out of a pool of 48 trial point group operations.


The static configuration has the point symmetry C_1 .


Analysis of symmetry for dynamics (positions and initial velocities):
=====================================================================
 Subroutine PRICEL returns:
 Original cell was already a primitive cell.
 

 Routine SETGRP: Setting up the symmetry group for a 
 simple cubic supercell.


 Subroutine GETGRP returns: Found  1 space group operations
 (whereof  1 operations were pure point group operations)
 out of a pool of 48 trial point group operations.


The dynamic configuration has the point symmetry C_1 .


Analysis of constrained symmetry for selective dynamics:
=====================================================================
 Subroutine PRICEL returns:
 Original cell was already a primitive cell.
 

 Routine SETGRP: Setting up the symmetry group for a 
 simple cubic supercell.


 Subroutine GETGRP returns: Found  1 space group operations
 (whereof  1 operations were pure point group operations)
 out of a pool of 48 trial point group operations.


The constrained configuration has the point symmetry C_1 .


 Subroutine INISYM returns: Found  1 space group operations
 (whereof  1 operations are pure point group operations),
 and found     1 'primitive' translations

 
 
 KPOINTS: K-points                                

Automatic generation of k-mesh.
Space group operators:
 irot       det(A)        alpha          n_x          n_y          n_z        tau_x        tau_y        tau_z
    1     1.000000     0.000000     1.000000     0.000000     0.000000     0.000000     0.000000     0.000000
 
 Subroutine IBZKPT returns following result:
 ===========================================
 
 Found      1 irreducible k-points:
 
 Following reciprocal coordinates:
            Coordinates               Weight
  0.000000  0.000000  0.000000      1.000000
 
 Following cartesian coordinates:
            Coordinates               Weight
  0.000000  0.000000  0.000000      1.000000
 


--------------------------------------------------------------------------------------------------------




 Dimension of arrays:
   k-points           NKPTS =      1   k-points in BZ     NKDIM =      1   number of bands    NBANDS=    336
   number of dos      NEDOS =    301   number of ions     NIONS =     57
   non local maximal  LDIM  =      6   non local SUM 2l+1 LMDIM =     18
   total plane-waves  NPLWV = ******
   max r-space proj   IRMAX =   1847   max aug-charges    IRDMAX=   6262
   dimension x,y,z NGX =   150 NGY =  150 NGZ =  150
   dimension x,y,z NGXF=   300 NGYF=  300 NGZF=  300
   support grid    NGXF=   300 NGYF=  300 NGZF=  300
   ions per type =              55   1   1
   NGX,Y,Z   is equivalent  to a cutoff of   8.31,  8.31,  8.31 a.u.
   NGXF,Y,Z  is equivalent  to a cutoff of  16.62, 16.62, 16.62 a.u.

 SYSTEM =  6_Pd100_top_free_z(O)                   
 POSCAR =  Pd55PES                                 

 Startparameter for this run:
   NWRITE =      2    write-flag & timer
   PREC   = normal    normal or accurate (medium, high low for compatibility)
   ISTART =      0    job   : 0-new  1-cont  2-samecut
   ICHARG =      2    charge: 1-file 2-atom 10-const
   ISPIN  =      1    spin polarized calculation?
   LNONCOLLINEAR =      F non collinear calculations
   LSORBIT =      F    spin-orbit coupling
   INIWAV =      1    electr: 0-lowe 1-rand  2-diag
   LASPH  =      F    aspherical Exc in radial PAW
   METAGGA=      F    non-selfconsistent MetaGGA calc.

 Electronic Relaxation 1
   ENCUT  =  400.0 eV  29.40 Ry    5.42 a.u.  48.92 48.92 48.92*2*pi/ulx,y,z
   ENINI  =  400.0     initial cutoff
   ENAUG  =  644.9 eV  augmentation charge cutoff
   NELM   =    100;   NELMIN=  6; NELMDL= -5     # of ELM steps 
   EDIFF  = 0.1E-03   stopping-criterion for ELM
   LREAL  =      T    real-space projection
   NLSPLINE    = F    spline interpolate recip. space projectors
   LCOMPAT=      F    compatible to vasp.4.4
   GGA_COMPAT  = T    GGA compatible to vasp.4.4-vasp.4.6
   LMAXPAW     = -100 max onsite density
   LMAXMIX     =    2 max onsite mixed and CHGCAR
   VOSKOWN=      0    Vosko Wilk Nusair interpolation
   ROPT   =   -0.00050  -0.00050  -0.00050
 Ionic relaxation
   EDIFFG = -.5E-01   stopping-criterion for IOM
   NSW    =      0    number of steps for IOM
   NBLOCK =      1;   KBLOCK =      1    inner block; outer block 
   IBRION =     -1    ionic relax: 0-MD 1-quasi-New 2-CG
   NFREE  =      1    steps in history (QN), initial steepest desc. (CG)
   ISIF   =      2    stress and relaxation
   IWAVPR =     10    prediction:  0-non 1-charg 2-wave 3-comb
   ISYM   =      2    0-nonsym 1-usesym 2-fastsym
   LCORR  =      T    Harris-Foulkes like correction to forces

   POTIM  = 0.5000    time-step for ionic-motion
   TEIN   =    0.0    initial temperature
   TEBEG  =    0.0;   TEEND  =   0.0 temperature during run
   SMASS  =  -3.00    Nose mass-parameter (am)
   estimated Nose-frequenzy (Omega)   =  0.10E-29 period in steps =****** mass=  -0.206E-25a.u.
   SCALEE = 1.0000    scale energy and forces
   NPACO  =    256;   APACO  = 16.0  distance and # of slots for P.C.
   PSTRESS=    0.0 pullay stress

  Mass of Ions in am
   POMASS = 106.42 12.01 16.00
  Ionic Valenz
   ZVAL   =  10.00  4.00  6.00
  Atomic Wigner-Seitz radii
   RWIGS  =  -1.00 -1.00 -1.00
  virtual crystal weights 
   VCA    =   1.00  1.00  1.00
   NELECT =     560.0000    total number of electrons
   NUPDOWN=      -1.0000    fix difference up-down

 DOS related values:
   EMIN   =  10.00;   EMAX   =-10.00  energy-range for DOS
   EFERMI =   0.00
   ISMEAR =     2;   SIGMA  =   0.20  broadening in eV -4-tet -1-fermi 0-gaus

 Electronic relaxation 2 (details)
   IALGO  =     68    algorithm
   LDIAG  =      T    sub-space diagonalisation (order eigenvalues)
   LSUBROT=      F    optimize rotation matrix (better conditioning)
   TURBO    =      0    0=normal 1=particle mesh
   IRESTART =      0    0=no restart 2=restart with 2 vectors
   NREBOOT  =      0    no. of reboots
   NMIN     =      0    reboot dimension
   EREF     =   0.00    reference energy to select bands
   IMIX   =      4    mixing-type and parameters
     AMIX     =   0.40;   BMIX     =  1.00
     AMIX_MAG =   1.60;   BMIX_MAG =  1.00
     AMIN     =   0.10
     WC   =   100.;   INIMIX=   1;  MIXPRE=   1;  MAXMIX= -45

 Intra band minimization:
   WEIMIN = 0.0000     energy-eigenvalue tresh-hold
   EBREAK =  0.74E-07  absolut break condition
   DEPER  =   0.30     relativ break condition  

   TIME   =   0.40     timestep for ELM

  volume/ion in A,a.u.               =     473.68      3196.58
  Fermi-wavevector in a.u.,A,eV,Ry     =   0.449797  0.849992  2.752691  0.202317
  Thomas-Fermi vector in A             =   1.430086
 
 Write flags
   LWAVE        =      F    write WAVECAR
   LDOWNSAMPLE  =      F    k-point downsampling of WAVECAR
   LCHARG       =      F    write CHGCAR
   LVTOT        =      F    write LOCPOT, total local potential
   LVHAR        =      F    write LOCPOT, Hartree potential only
   LELF         =      F    write electronic localiz. function (ELF)
   LORBIT       =      0    0 simple, 1 ext, 2 COOP (PROOUT), +10 PAW based schemes


 Dipole corrections
   LMONO  =      F    monopole corrections only (constant potential shift)
   LDIPOL =      F    correct potential (dipole corrections)
   IDIPOL =      0    1-x, 2-y, 3-z, 4-all directions 
   EPSILON=  1.0000000 bulk dielectric constant

 Exchange correlation treatment:
   GGA     =    RP    GGA type
   LEXCH   =     9    internal setting for exchange type
   VOSKOWN=      0    Vosko Wilk Nusair interpolation
   LHFCALC =     F    Hartree Fock is set to
   LHFONE  =     F    Hartree Fock one center treatment
   AEXX    =    0.0000 exact exchange contribution

 Linear response parameters
   LEPSILON=     F    determine dielectric tensor
   LRPA    =     F    only Hartree local field effects (RPA)
   LNABLA  =     F    use nabla operator in PAW spheres
   LVEL    =     F    velocity operator in full k-point grid
   LINTERFAST=   F  fast interpolation
   KINTER  =     0    interpolate to denser k-point grid
   CSHIFT  =0.1000    complex shift for real part using Kramers Kronig
   OMEGAMAX=  -1.0    maximum frequency
   DEG_THRESHOLD= 0.2000000E-02 threshold for treating states as degnerate
   RTIME   =   -0.100 relaxation time in fs
  (WPLASMAI=    0.000 imaginary part of plasma frequency in eV, 0.658/RTIME)
   DFIELD  = 0.0000000 0.0000000 0.0000000 field for delta impulse in time
 
 Orbital magnetization related:
   ORBITALMAG=     F  switch on orbital magnetization
   LCHIMAG   =     F  perturbation theory with respect to B field
   DQ        =  0.001000  dq finite difference perturbation B field
   LLRAUG    =     F  two centre corrections for induced B field



--------------------------------------------------------------------------------------------------------


 Static calculation
 charge density and potential will be updated during run
 non-spin polarized calculation
 RMM-DIIS sequential band-by-band and
  variant of blocked Davidson during initial phase
 perform sub-space diagonalisation
    before iterative eigenvector-optimisation
 modified Broyden-mixing scheme, WC =      100.0
 initial mixing is a Kerker type mixing with AMIX =  0.4000 and BMIX =      1.0000
 Hartree-type preconditioning will be used
 using additional bands           56
 real space projection scheme for non local part
 use partial core corrections
 calculate Harris-corrections to forces 
   (improved forces if not selfconsistent)
 use gradient corrections 
 use of overlap-Matrix (Vanderbilt PP)
 Methfessel and Paxton  Order N= 2 SIGMA  =   0.20


--------------------------------------------------------------------------------------------------------


  energy-cutoff  :      400.00
  volume of cell :    27000.00
      direct lattice vectors                 reciprocal lattice vectors
    30.000000000  0.000000000  0.000000000     0.033333333  0.000000000  0.000000000
     0.000000000 30.000000000  0.000000000     0.000000000  0.033333333  0.000000000
     0.000000000  0.000000000 30.000000000     0.000000000  0.000000000  0.033333333

  length of vectors
    30.000000000 30.000000000 30.000000000     0.033333333  0.033333333  0.033333333


 
 k-points in units of 2pi/SCALE and weight: K-points                                
   0.00000000  0.00000000  0.00000000       1.000
 
 k-points in reciprocal lattice and weights: K-points                                
   0.00000000  0.00000000  0.00000000       1.000
 
 position of ions in fractional coordinates (direct lattice) 
   0.44576020  0.32826710  0.41691983
   0.67173288  0.55423978  0.41691983
   0.55423980  0.32826710  0.41691983
   0.32826712  0.55423978  0.41691983
   0.50000000  0.38250690  0.34021317
   0.50000000  0.38250690  0.65978680
   0.50000000  0.27609440  0.50000000
   0.27609443  0.49999998  0.50000000
   0.72390557  0.49999998  0.50000000
   0.50000000  0.72390555  0.50000000
   0.61195280  0.38804720  0.34167483
   0.61195280  0.38804720  0.65832513
   0.38804722  0.61195278  0.34167483
   0.38804722  0.61195278  0.65832513
   0.38804720  0.38804720  0.34167483
   0.38804720  0.38804720  0.65832513
   0.61195278  0.61195278  0.34167483
   0.61195278  0.61195278  0.65832513
   0.44576020  0.32826710  0.58308023
   0.67173288  0.55423978  0.58308023
   0.55791699  0.44208301  0.41809300
   0.32826705  0.44576024  0.41691983
   0.55423973  0.67173293  0.41691983
   0.55423980  0.32826710  0.58308023
   0.32826712  0.55423978  0.58308023
   0.67173295  0.44576024  0.41691983
   0.44576027  0.67173293  0.41691983
   0.44208301  0.44208301  0.41809300
   0.50000000  0.38416601  0.50000000
   0.61749315  0.50000005  0.34021317
   0.61749315  0.50000005  0.65978680
   0.38250685  0.50000005  0.34021317
   0.38250685  0.50000005  0.65978680
   0.38317830  0.38317830  0.50000000
   0.61682172  0.61682172  0.50000000
   0.61682170  0.38317830  0.50000000
   0.38317828  0.61682172  0.50000000
   0.50000000  0.50000000  0.33478917
   0.50000000  0.50000000  0.66521087
   0.32826705  0.44576024  0.58308023
   0.55423973  0.67173293  0.58308023
   0.55791699  0.44208301  0.58190703
   0.44208298  0.55791702  0.41809300
   0.44208301  0.44208301  0.58190703
   0.67173295  0.44576024  0.58308023
   0.44576027  0.67173293  0.58308023
   0.55791702  0.55791702  0.41809300
   0.38416599  0.50000002  0.50000000
   0.61583401  0.50000002  0.50000000
   0.50000000  0.61749319  0.34021317
   0.50000000  0.61749319  0.65978680
   0.50000000  0.50000000  0.50000000
   0.44208298  0.55791702  0.58190703
   0.55791702  0.55791702  0.58190703
   0.50000000  0.61583404  0.50000000
   0.68166837  0.57190030  0.53208123
   0.71616780  0.58555440  0.53817357
 
 position of ions in cartesian coordinates  (Angst):
  13.37280588  9.84801292 12.50759500
  20.15198637 16.62719342 12.50759500
  16.62719412  9.84801292 12.50759500
   9.84801363 16.62719342 12.50759500
  15.00000000 11.47520705 10.20639500
  15.00000000 11.47520705 19.79360400
  15.00000000  8.28283206 15.00000000
   8.28283277 14.99999929 15.00000000
  21.71716723 14.99999929 15.00000000
  15.00000000 21.71716652 14.99999999
  18.35858397 11.64141603 10.25024500
  18.35858397 11.64141603 19.74975399
  11.64141674 18.35858326 10.25024500
  11.64141674 18.35858326 19.74975400
  11.64141603 11.64141603 10.25024500
  11.64141603 11.64141603 19.74975400
  18.35858326 18.35858326 10.25024500
  18.35858326 18.35858326 19.74975400
  13.37280588  9.84801291 17.49240700
  20.15198638 16.62719341 17.49240700
  16.73750985 13.26249015 12.54279000
   9.84801151 13.37280729 12.50759500
  16.62719200 20.15198779 12.50759500
  16.62719412  9.84801292 17.49240700
   9.84801363 16.62719342 17.49240700
  20.15198849 13.37280729 12.50759500
  13.37280800 20.15198779 12.50759500
  13.26249015 13.26249015 12.54279000
  15.00000000 11.52498029 15.00000000
  18.52479437 15.00000140 10.20639500
  18.52479437 15.00000141 19.79360400
  11.47520562 15.00000141 10.20639501
  11.47520563 15.00000141 19.79360400
  11.49534898 11.49534898 15.00000000
  18.50465172 18.50465172 15.00000000
  18.50465102 11.49534898 15.00000000
  11.49534828 18.50465172 15.00000000
  15.00000000 15.00000000 10.04367500
  15.00000000 15.00000000 19.95632599
   9.84801151 13.37280729 17.49240700
  16.62719200 20.15198779 17.49240700
  16.73750985 13.26249015 17.45721100
  13.26248944 16.73751056 12.54279001
  13.26249015 13.26249015 17.45721100
  20.15198849 13.37280729 17.49240699
  13.37280800 20.15198779 17.49240700
  16.73751056 16.73751056 12.54279000
  11.52497959 15.00000071 15.00000000
  18.47502041 15.00000071 15.00000000
  14.99999999 18.52479579 10.20639500
  15.00000000 18.52479578 19.79360400
  15.00000000 15.00000000 15.00000000
  13.26248944 16.73751057 17.45721101
  16.73751056 16.73751057 17.45721100
  15.00000000 18.47502112 15.00000000
  20.45005100 17.15700900 15.96243700
  21.48503400 17.56663200 16.14520700
 


--------------------------------------------------------------------------------------------------------


 k-point  1 :   0.0000 0.0000 0.0000  plane waves:  490521

 maximum and minimum number of plane-waves per node :    490521   490521

 maximum number of plane-waves:    490521
 maximum index in each direction: 
   IXMAX=   48   IYMAX=   48   IZMAX=   48
   IXMIN=  -48   IYMIN=  -48   IZMIN=  -48


 serial   3D FFT for wavefunctions
 parallel 3D FFT for charge:
    minimum data exchange during FFTs selected (reduces bandwidth)


 total amount of memory used by VASP MPI-rank0  5486941. kBytes
=======================================================================

   base      :      30000. kBytes
   nonlr-proj:      17126. kBytes
   fftplans  :     924480. kBytes
   grid      :    1872000. kBytes
   one-center:        886. kBytes
   wavefun   :    2642449. kBytes
 
     INWAV:  cpu time    0.0001: real time    0.0005
 Broyden mixing: mesh for mixing (old mesh)
   NGX = 97   NGY = 97   NGZ = 97
  (NGX  =300   NGY  =300   NGZ  =300)
  gives a total of 912673 points

 initial charge density was supplied:
 charge density of overlapping atoms calculated
 number of electron     560.0000000 magnetization 
 keeping initial charge density in first step


--------------------------------------------------------------------------------------------------------


 Maximum index for non-local projection operator         1763
 Maximum index for augmentation-charges         5898 (set IRDMAX)


--------------------------------------------------------------------------------------------------------


 First call to EWALD:  gamma=   0.059
 Maximum number of real-space cells 3x 3x 3
 Maximum number of reciprocal cells 3x 3x 3

    FEWALD:  cpu time    0.0149: real time    0.0149


--------------------------------------- Iteration      1(   1)  ---------------------------------------


    POTLOK:  cpu time   14.2042: real time   14.2082
    SETDIJ:  cpu time    0.1223: real time    0.1223
     EDDAV:  cpu time  367.1430: real time  367.2027
       DOS:  cpu time    0.0012: real time    0.0012
    --------------------------------------------
      LOOP:  cpu time  381.4708: real time  381.5345

 eigenvalue-minimisations  :   688
 total energy-change (2. order) : 0.4404227E+04  (-0.1005668E+05)
 number of electron     560.0000000 magnetization 
 augmentation part      560.0000000 magnetization 

 Free energy of the ion-electron system (eV)
  ---------------------------------------------------
  alpha Z        PSCENC =        75.25431677
  Ewald energy   TEWEN  =    139902.52641547
  -Hartree energ DENC   =   -183245.71634051
  -exchange      EXHF   =         0.00000000
  -V(xc)+E(xc)   XCENC  =     -1701.35902073
  PAW double counting   =     44873.02882129   -41398.84523641
  entropy T*S    EENTRO =         0.02636022
  eigenvalues    EBANDS =       812.80611604
  atomic energy  EATOM  =     45086.50549395
  Solvation  Ediel_sol  =         0.00000000
  ---------------------------------------------------
  free energy    TOTEN  =      4404.22692610 eV

  energy without entropy =     4404.20056587  energy(sigma->0) =     4404.22033604


--------------------------------------------------------------------------------------------------------




--------------------------------------- Iteration      1(   2)  ---------------------------------------


     EDDAV:  cpu time  592.4728: real time  592.4747
       DOS:  cpu time    0.0012: real time    0.0012
    --------------------------------------------
      LOOP:  cpu time  592.4741: real time  592.4760

 eigenvalue-minimisations  :  1224
 total energy-change (2. order) :-0.2388323E+04  (-0.2148852E+04)
 number of electron     560.0000000 magnetization 
 augmentation part      560.0000000 magnetization 

 Free energy of the ion-electron system (eV)
  ---------------------------------------------------
  alpha Z        PSCENC =        75.25431677
  Ewald energy   TEWEN  =    139902.52641547
  -Hartree energ DENC   =   -183245.71634051
  -exchange      EXHF   =         0.00000000
  -V(xc)+E(xc)   XCENC  =     -1701.35902073
  PAW double counting   =     44873.02882129   -41398.84523641
  entropy T*S    EENTRO =        -0.02513731
  eigenvalues    EBANDS =     -1575.46521693
  atomic energy  EATOM  =     45086.50549395
  Solvation  Ediel_sol  =         0.00000000
  ---------------------------------------------------
  free energy    TOTEN  =      2015.90409559 eV

  energy without entropy =     2015.92923290  energy(sigma->0) =     2015.91037992


--------------------------------------------------------------------------------------------------------




--------------------------------------- Iteration      1(   3)  ---------------------------------------


     EDDAV:  cpu time  504.6374: real time  504.6452
       DOS:  cpu time    0.0011: real time    0.0011
    --------------------------------------------
      LOOP:  cpu time  504.6384: real time  504.6463

 eigenvalue-minimisations  :  1016
 total energy-change (2. order) :-0.1782864E+04  (-0.1674840E+04)
 number of electron     560.0000000 magnetization 
 augmentation part      560.0000000 magnetization 

 Free energy of the ion-electron system (eV)
  ---------------------------------------------------
  alpha Z        PSCENC =        75.25431677
  Ewald energy   TEWEN  =    139902.52641547
  -Hartree energ DENC   =   -183245.71634051
  -exchange      EXHF   =         0.00000000
  -V(xc)+E(xc)   XCENC  =     -1701.35902073
  PAW double counting   =     44873.02882129   -41398.84523641
  entropy T*S    EENTRO =         0.02433602
  eigenvalues    EBANDS =     -3358.37838522
  atomic energy  EATOM  =     45086.50549395
  Solvation  Ediel_sol  =         0.00000000
  ---------------------------------------------------
  free energy    TOTEN  =       233.04040063 eV

  energy without entropy =      233.01606461  energy(sigma->0) =      233.03431663


--------------------------------------------------------------------------------------------------------




--------------------------------------- Iteration      1(   4)  ---------------------------------------


     EDDAV:  cpu time  428.3500: real time  428.3519
       DOS:  cpu time    0.0011: real time    0.0011
    --------------------------------------------
      LOOP:  cpu time  428.3511: real time  428.3530

 eigenvalue-minimisations  :   832
 total energy-change (2. order) :-0.3667585E+03  (-0.3125114E+03)
 number of electron     560.0000000 magnetization 
 augmentation part      560.0000000 magnetization 

 Free energy of the ion-electron system (eV)
  ---------------------------------------------------
  alpha Z        PSCENC =        75.25431677
  Ewald energy   TEWEN  =    139902.52641547
  -Hartree energ DENC   =   -183245.71634051
  -exchange      EXHF   =         0.00000000
  -V(xc)+E(xc)   XCENC  =     -1701.35902073
  PAW double counting   =     44873.02882129   -41398.84523641
  entropy T*S    EENTRO =        -0.03140496
  eigenvalues    EBANDS =     -3725.08117683
  atomic energy  EATOM  =     45086.50549395
  Solvation  Ediel_sol  =         0.00000000
  ---------------------------------------------------
  free energy    TOTEN  =      -133.71813196 eV

  energy without entropy =     -133.68672700  energy(sigma->0) =     -133.71028072


--------------------------------------------------------------------------------------------------------




--------------------------------------- Iteration      1(   5)  ---------------------------------------


     EDDAV:  cpu time  520.5817: real time  520.5856
       DOS:  cpu time    0.0014: real time    0.0014
    CHARGE:  cpu time   26.7274: real time   26.7273
    MIXING:  cpu time    0.4463: real time    0.4463
    --------------------------------------------
      LOOP:  cpu time  547.7568: real time  547.7606

 eigenvalue-minimisations  :  1064
 total energy-change (2. order) :-0.4514032E+02  (-0.3723415E+02)
 number of electron     559.9999825 magnetization 
 augmentation part      245.0964288 magnetization 

 Broyden mixing:
  rms(total) = 0.21382E+01    rms(broyden)= 0.21375E+01
  rms(prec ) = 0.22196E+01
  weight for this iteration     100.00

 Free energy of the ion-electron system (eV)
  ---------------------------------------------------
  alpha Z        PSCENC =        75.25431677
  Ewald energy   TEWEN  =    139902.52641547
  -Hartree energ DENC   =   -183245.71634051
  -exchange      EXHF   =         0.00000000
  -V(xc)+E(xc)   XCENC  =     -1701.35902073
  PAW double counting   =     44873.02882129   -41398.84523641
  entropy T*S    EENTRO =         0.52251656
  eigenvalues    EBANDS =     -3770.77541843
  atomic energy  EATOM  =     45086.50549395
  Solvation  Ediel_sol  =         0.00000000
  ---------------------------------------------------
  free energy    TOTEN  =      -178.85845204 eV

  energy without entropy =     -179.38096860  energy(sigma->0) =     -178.98908118


--------------------------------------------------------------------------------------------------------




--------------------------------------- Iteration      1(   6)  ---------------------------------------


    POTLOK:  cpu time   13.4520: real time   13.4551
    SETDIJ:  cpu time    0.1292: real time    0.1292
    EDDIAG:  cpu time   69.2039: real time   69.2038
  RMM-DIIS:  cpu time  189.6653: real time  189.6662
    ORTHCH:  cpu time   13.7936: real time   13.7934
       DOS:  cpu time    0.0015: real time    0.0015
    CHARGE:  cpu time   25.9497: real time   25.9494
    MIXING:  cpu time    0.4634: real time    0.4634
    --------------------------------------------
      LOOP:  cpu time  312.6585: real time  312.6619

 eigenvalue-minimisations  :   727
 total energy-change (2. order) : 0.1006996E+01  (-0.6417319E+01)
 number of electron     559.9999871 magnetization 
 augmentation part      240.7081567 magnetization 

 Broyden mixing:
  rms(total) = 0.22749E+01    rms(broyden)= 0.22747E+01
  rms(prec ) = 0.26170E+01
  weight for this iteration     100.00

 eigenvalues of (default mixing * dielectric matrix)
  average eigenvalue GAMMA=   0.4910
  0.4910

 Free energy of the ion-electron system (eV)
  ---------------------------------------------------
  alpha Z        PSCENC =        75.25431677
  Ewald energy   TEWEN  =    139902.52641547
  -Hartree energ DENC   =   -183657.58579657
  -exchange      EXHF   =         0.00000000
  -V(xc)+E(xc)   XCENC  =     -1694.78673737
  PAW double counting   =     45724.24408262   -42223.94057414
  entropy T*S    EENTRO =        -0.09212625
  eigenvalues    EBANDS =     -3389.97653010
  atomic energy  EATOM  =     45086.50549395
  Solvation  Ediel_sol  =         0.00000000
  ---------------------------------------------------
  free energy    TOTEN  =      -177.85145561 eV

  energy without entropy =     -177.75932936  energy(sigma->0) =     -177.82842405


--------------------------------------------------------------------------------------------------------




--------------------------------------- Iteration      1(   7)  ---------------------------------------


    POTLOK:  cpu time   13.2408: real time   13.2445
    SETDIJ:  cpu time    0.1214: real time    0.1214
    EDDIAG:  cpu time   67.6323: real time   67.6337
  RMM-DIIS:  cpu time  216.4849: real time  216.4873
    ORTHCH:  cpu time   13.4976: real time   13.4975
       DOS:  cpu time    0.0014: real time    0.0014
    CHARGE:  cpu time   25.5021: real time   25.5018
    MIXING:  cpu time    0.4760: real time    0.4760
    --------------------------------------------
      LOOP:  cpu time  336.9566: real time  336.9636

 eigenvalue-minimisations  :   824
 total energy-change (2. order) :-0.8101698E+01  (-0.2539722E+01)
 number of electron     559.9999836 magnetization 
 augmentation part      239.2545185 magnetization 

 Broyden mixing:
  rms(total) = 0.30824E+01    rms(broyden)= 0.30822E+01
  rms(prec ) = 0.37889E+01
  weight for this iteration     100.00

 eigenvalues of (default mixing * dielectric matrix)
  average eigenvalue GAMMA=   0.4511
  0.7378  0.1644

 Free energy of the ion-electron system (eV)
  ---------------------------------------------------
  alpha Z        PSCENC =        75.25431677
  Ewald energy   TEWEN  =    139902.52641547
  -Hartree energ DENC   =   -183776.55616521
  -exchange      EXHF   =         0.00000000
  -V(xc)+E(xc)   XCENC  =     -1695.06987140
  PAW double counting   =     45850.38405091   -42346.51002876
  entropy T*S    EENTRO =        -0.23771152
  eigenvalues    EBANDS =     -3282.24965378
  atomic energy  EATOM  =     45086.50549395
  Solvation  Ediel_sol  =         0.00000000
  ---------------------------------------------------
  free energy    TOTEN  =      -185.95315356 eV

  energy without entropy =     -185.71544205  energy(sigma->0) =     -185.89372568


--------------------------------------------------------------------------------------------------------




--------------------------------------- Iteration      1(   8)  ---------------------------------------


    POTLOK:  cpu time   13.1569: real time   13.1574
    SETDIJ:  cpu time    0.1251: real time    0.1251
    EDDIAG:  cpu time   67.7814: real time   67.7812
  RMM-DIIS:  cpu time  204.1355: real time  204.1352
    ORTHCH:  cpu time   13.6826: real time   13.6824
       DOS:  cpu time    0.0013: real time    0.0013
    CHARGE:  cpu time   25.2963: real time   25.2959
    MIXING:  cpu time    0.5068: real time    0.5068
    --------------------------------------------
      LOOP:  cpu time  324.6860: real time  324.6853

 eigenvalue-minimisations  :   779
 total energy-change (2. order) :-0.3170564E+01  (-0.1302429E+01)
 number of electron     559.9999811 magnetization 
 augmentation part      239.1584248 magnetization 

 Broyden mixing:
  rms(total) = 0.32898E+01    rms(broyden)= 0.32895E+01
  rms(prec ) = 0.38258E+01
  weight for this iteration     100.00

 eigenvalues of (default mixing * dielectric matrix)
  average eigenvalue GAMMA=   0.4338
  0.9850  0.1713  0.1451

 Free energy of the ion-electron system (eV)
  ---------------------------------------------------
  alpha Z        PSCENC =        75.25431677
  Ewald energy   TEWEN  =    139902.52641547
  -Hartree energ DENC   =   -183819.30535862
  -exchange      EXHF   =         0.00000000
  -V(xc)+E(xc)   XCENC  =     -1695.39262882
  PAW double counting   =     45944.85030857   -42438.87542750
  entropy T*S    EENTRO =        -0.17712647
  eigenvalues    EBANDS =     -3244.50971052
  atomic energy  EATOM  =     45086.50549395
  Solvation  Ediel_sol  =         0.00000000
  ---------------------------------------------------
  free energy    TOTEN  =      -189.12371717 eV

  energy without entropy =     -188.94659070  energy(sigma->0) =     -189.07943555


--------------------------------------------------------------------------------------------------------




--------------------------------------- Iteration      1(   9)  ---------------------------------------


    POTLOK:  cpu time   13.2024: real time   13.2029
    SETDIJ:  cpu time    0.1286: real time    0.1286
    EDDIAG:  cpu time   66.6151: real time   66.6150
  RMM-DIIS:  cpu time  187.5534: real time  187.5743
    ORTHCH:  cpu time   13.6775: real time   13.6789
       DOS:  cpu time    0.0014: real time    0.0014
    CHARGE:  cpu time   25.7976: real time   25.8010
    MIXING:  cpu time    0.5434: real time    0.5434
    --------------------------------------------
      LOOP:  cpu time  307.5193: real time  307.5454

 eigenvalue-minimisations  :   727
 total energy-change (2. order) : 0.2859358E+01  (-0.1129151E+01)
 number of electron     559.9999805 magnetization 
 augmentation part      240.5179706 magnetization 

 Broyden mixing:
  rms(total) = 0.34857E+01    rms(broyden)= 0.34854E+01
  rms(prec ) = 0.40295E+01
  weight for this iteration     100.00

 eigenvalues of (default mixing * dielectric matrix)
  average eigenvalue GAMMA=   0.3818
  1.0847  0.1643  0.1392  0.1392

 Free energy of the ion-electron system (eV)
  ---------------------------------------------------
  alpha Z        PSCENC =        75.25431677
  Ewald energy   TEWEN  =    139902.52641547
  -Hartree energ DENC   =   -183810.49640410
  -exchange      EXHF   =         0.00000000
  -V(xc)+E(xc)   XCENC  =     -1695.59719663
  PAW double counting   =     46038.92642281   -42531.15679544
  entropy T*S    EENTRO =        -0.13802602
  eigenvalues    EBANDS =     -3252.08858559
  atomic energy  EATOM  =     45086.50549395
  Solvation  Ediel_sol  =         0.00000000
  ---------------------------------------------------
  free energy    TOTEN  =      -186.26435877 eV

  energy without entropy =     -186.12633275  energy(sigma->0) =     -186.22985227


--------------------------------------------------------------------------------------------------------




--------------------------------------- Iteration      1(  10)  ---------------------------------------


    POTLOK:  cpu time   13.3864: real time   13.3899
    SETDIJ:  cpu time    0.1229: real time    0.1229
    EDDIAG:  cpu time   68.2632: real time   68.2700
  RMM-DIIS:  cpu time  193.4846: real time  193.5602
    ORTHCH:  cpu time   13.4388: real time   13.4387
       DOS:  cpu time    0.0015: real time    0.0015
    CHARGE:  cpu time   25.2238: real time   25.2237
    MIXING:  cpu time    0.5859: real time    0.5859
    --------------------------------------------
      LOOP:  cpu time  314.5069: real time  314.5928

 eigenvalue-minimisations  :   734
 total energy-change (2. order) : 0.4338899E+01  (-0.5624120E+00)
 number of electron     559.9999813 magnetization 
 augmentation part      241.5253159 magnetization 

 Broyden mixing:
  rms(total) = 0.27641E+01    rms(broyden)= 0.27638E+01
  rms(prec ) = 0.32799E+01
  weight for this iteration     100.00

 eigenvalues of (default mixing * dielectric matrix)
  average eigenvalue GAMMA=   0.3523
  1.1769  0.1668  0.1668  0.1482  0.1029

 Free energy of the ion-electron system (eV)
  ---------------------------------------------------
  alpha Z        PSCENC =        75.25431677
  Ewald energy   TEWEN  =    139902.52641547
  -Hartree energ DENC   =   -183835.93832762
  -exchange      EXHF   =         0.00000000
  -V(xc)+E(xc)   XCENC  =     -1695.58815003
  PAW double counting   =     46088.92112875   -42580.13323101
  entropy T*S    EENTRO =         0.03465557
  eigenvalues    EBANDS =     -3223.50776165
  atomic energy  EATOM  =     45086.50549395
  Solvation  Ediel_sol  =         0.00000000
  ---------------------------------------------------
  free energy    TOTEN  =      -181.92545979 eV

  energy without entropy =     -181.96011536  energy(sigma->0) =     -181.93412368


--------------------------------------------------------------------------------------------------------




--------------------------------------- Iteration      1(  11)  ---------------------------------------


    POTLOK:  cpu time   13.1440: real time   13.1451
    SETDIJ:  cpu time    0.1207: real time    0.1207
    EDDIAG:  cpu time   67.2564: real time   67.2585
  RMM-DIIS:  cpu time  190.4410: real time  190.4449
    ORTHCH:  cpu time   13.2742: real time   13.2741
       DOS:  cpu time    0.0014: real time    0.0014
    CHARGE:  cpu time   25.1301: real time   25.1300
    MIXING:  cpu time    0.5901: real time    0.5901
    --------------------------------------------
      LOOP:  cpu time  309.9580: real time  309.9647

 eigenvalue-minimisations  :   727
 total energy-change (2. order) : 0.1574280E+01  (-0.3684403E+00)
 number of electron     559.9999821 magnetization 
 augmentation part      241.5951754 magnetization 

 Broyden mixing:
  rms(total) = 0.25871E+01    rms(broyden)= 0.25868E+01
  rms(prec ) = 0.31053E+01
  weight for this iteration     100.00

 eigenvalues of (default mixing * dielectric matrix)
  average eigenvalue GAMMA=   0.3292
  1.2518  0.1772  0.1772  0.1903  0.0934  0.0851

 Free energy of the ion-electron system (eV)
  ---------------------------------------------------
  alpha Z        PSCENC =        75.25431677
  Ewald energy   TEWEN  =    139902.52641547
  -Hartree energ DENC   =   -183858.47674143
  -exchange      EXHF   =         0.00000000
  -V(xc)+E(xc)   XCENC  =     -1695.43170162
  PAW double counting   =     46135.94318065   -42625.83708801
  entropy T*S    EENTRO =        -0.15835491
  eigenvalues    EBANDS =     -3200.67670018
  atomic energy  EATOM  =     45086.50549395
  Solvation  Ediel_sol  =         0.00000000
  ---------------------------------------------------
  free energy    TOTEN  =      -180.35117931 eV

  energy without entropy =     -180.19282440  energy(sigma->0) =     -180.31159058


--------------------------------------------------------------------------------------------------------




--------------------------------------- Iteration      1(  12)  ---------------------------------------


    POTLOK:  cpu time   12.8724: real time   12.8730
    SETDIJ:  cpu time    0.1247: real time    0.1247
    EDDIAG:  cpu time   66.6138: real time   66.6132
  RMM-DIIS:  cpu time  188.4697: real time  188.4738
    ORTHCH:  cpu time   13.5010: real time   13.5008
       DOS:  cpu time    0.0014: real time    0.0014
    CHARGE:  cpu time   25.4847: real time   25.4844
    MIXING:  cpu time    0.6490: real time    0.6490
    --------------------------------------------
      LOOP:  cpu time  307.7168: real time  307.7203

 eigenvalue-minimisations  :   729
 total energy-change (2. order) : 0.3144365E+01  (-0.2776894E+00)
 number of electron     559.9999855 magnetization 
 augmentation part      242.1713025 magnetization 

 Broyden mixing:
  rms(total) = 0.19277E+01    rms(broyden)= 0.19274E+01
  rms(prec ) = 0.22089E+01
  weight for this iteration     100.00

 eigenvalues of (default mixing * dielectric matrix)
  average eigenvalue GAMMA=   0.3247
  1.3500  0.2272  0.2272  0.1888  0.1012  0.1012  0.0773

 Free energy of the ion-electron system (eV)
  ---------------------------------------------------
  alpha Z        PSCENC =        75.25431677
  Ewald energy   TEWEN  =    139902.52641547
  -Hartree energ DENC   =   -183873.49663049
  -exchange      EXHF   =         0.00000000
  -V(xc)+E(xc)   XCENC  =     -1695.21637692
  PAW double counting   =     46176.64697778   -42665.32343181
  entropy T*S    EENTRO =        -0.08744960
  eigenvalues    EBANDS =     -3184.01612916
  atomic energy  EATOM  =     45086.50549395
  Solvation  Ediel_sol  =         0.00000000
  ---------------------------------------------------
  free energy    TOTEN  =      -177.20681401 eV

  energy without entropy =     -177.11936441  energy(sigma->0) =     -177.18495161


--------------------------------------------------------------------------------------------------------




--------------------------------------- Iteration      1(  13)  ---------------------------------------


    POTLOK:  cpu time   13.4862: real time   13.4878
    SETDIJ:  cpu time    0.1196: real time    0.1196
    EDDIAG:  cpu time   68.3440: real time   68.3451
  RMM-DIIS:  cpu time  182.8131: real time  182.8145
    ORTHCH:  cpu time   13.3556: real time   13.3555
       DOS:  cpu time    0.0015: real time    0.0015
    CHARGE:  cpu time   25.4150: real time   25.4148
    MIXING:  cpu time    0.6603: real time    0.6603
    --------------------------------------------
      LOOP:  cpu time  304.1952: real time  304.1990

 eigenvalue-minimisations  :   700
 total energy-change (2. order) : 0.1998710E+01  (-0.2923782E+00)
 number of electron     559.9999817 magnetization 
 augmentation part      242.2996005 magnetization 

 Broyden mixing:
  rms(total) = 0.15441E+01    rms(broyden)= 0.15438E+01
  rms(prec ) = 0.17280E+01
  weight for this iteration     100.00

 eigenvalues of (default mixing * dielectric matrix)
  average eigenvalue GAMMA=   0.3546
  1.5585  0.3517  0.3517  0.1410  0.1410  0.1117  0.1117  0.0694

 Free energy of the ion-electron system (eV)
  ---------------------------------------------------
  alpha Z        PSCENC =        75.25431677
  Ewald energy   TEWEN  =    139902.52641547
  -Hartree energ DENC   =   -183898.61218564
  -exchange      EXHF   =         0.00000000
  -V(xc)+E(xc)   XCENC  =     -1694.78505282
  PAW double counting   =     46231.88982868   -42718.60052260
  entropy T*S    EENTRO =        -0.03210756
  eigenvalues    EBANDS =     -3159.35429005
  atomic energy  EATOM  =     45086.50549395
  Solvation  Ediel_sol  =         0.00000000
  ---------------------------------------------------
  free energy    TOTEN  =      -175.20810379 eV

  energy without entropy =     -175.17599623  energy(sigma->0) =     -175.20007690


--------------------------------------------------------------------------------------------------------




--------------------------------------- Iteration      1(  14)  ---------------------------------------


    POTLOK:  cpu time   13.1539: real time   13.1547
    SETDIJ:  cpu time    0.1240: real time    0.1240
    EDDIAG:  cpu time   67.3636: real time   67.3647
  RMM-DIIS:  cpu time  183.9096: real time  183.9127
    ORTHCH:  cpu time   13.3521: real time   13.3519
       DOS:  cpu time    0.0015: real time    0.0015
    CHARGE:  cpu time   25.1299: real time   25.1297
    MIXING:  cpu time    0.7276: real time    0.7276
    --------------------------------------------
      LOOP:  cpu time  303.7622: real time  303.7669

 eigenvalue-minimisations  :   703
 total energy-change (2. order) : 0.2737207E-01  (-0.2659352E+00)
 number of electron     559.9999810 magnetization 
 augmentation part      241.7024552 magnetization 

 Broyden mixing:
  rms(total) = 0.19544E+01    rms(broyden)= 0.19541E+01
  rms(prec ) = 0.22050E+01
  weight for this iteration     100.00

 eigenvalues of (default mixing * dielectric matrix)
  average eigenvalue GAMMA=   0.3505
  1.6822  0.3879  0.3879  0.1390  0.1390  0.1267  0.1267  0.0919  0.0730

 Free energy of the ion-electron system (eV)
  ---------------------------------------------------
  alpha Z        PSCENC =        75.25431677
  Ewald energy   TEWEN  =    139902.52641547
  -Hartree energ DENC   =   -183961.51137314
  -exchange      EXHF   =         0.00000000
  -V(xc)+E(xc)   XCENC  =     -1693.70785114
  PAW double counting   =     46342.05807505   -42824.29778966
  entropy T*S    EENTRO =        -0.08382425
  eigenvalues    EBANDS =     -3101.92419478
  atomic energy  EATOM  =     45086.50549395
  Solvation  Ediel_sol  =         0.00000000
  ---------------------------------------------------
  free energy    TOTEN  =      -175.18073172 eV

  energy without entropy =     -175.09690747  energy(sigma->0) =     -175.15977566


--------------------------------------------------------------------------------------------------------




--------------------------------------- Iteration      1(  15)  ---------------------------------------


    POTLOK:  cpu time   13.0409: real time   13.0438
    SETDIJ:  cpu time    0.1208: real time    0.1208
    EDDIAG:  cpu time   68.0147: real time   68.0146
  RMM-DIIS:  cpu time  182.4029: real time  182.4045
    ORTHCH:  cpu time   13.6380: real time   13.6401
       DOS:  cpu time    0.0014: real time    0.0014
    CHARGE:  cpu time   24.9559: real time   24.9558
    MIXING:  cpu time    0.7678: real time    0.7678
    --------------------------------------------
      LOOP:  cpu time  302.9424: real time  302.9488

 eigenvalue-minimisations  :   704
 total energy-change (2. order) : 0.7883154E+00  (-0.1717961E+00)
 number of electron     559.9999843 magnetization 
 augmentation part      241.3021666 magnetization 

 Broyden mixing:
  rms(total) = 0.14376E+01    rms(broyden)= 0.14373E+01
  rms(prec ) = 0.16630E+01
  weight for this iteration     100.00

 eigenvalues of (default mixing * dielectric matrix)
  average eigenvalue GAMMA=   0.3430
  1.7664  0.4911  0.2578  0.2076  0.2076  0.1106  0.1106  0.1245  0.0771  0.0771

 Free energy of the ion-electron system (eV)
  ---------------------------------------------------
  alpha Z        PSCENC =        75.25431677
  Ewald energy   TEWEN  =    139902.52641547
  -Hartree energ DENC   =   -184000.11312428
  -exchange      EXHF   =         0.00000000
  -V(xc)+E(xc)   XCENC  =     -1693.07630057
  PAW double counting   =     46402.33826241   -42882.01781319
  entropy T*S    EENTRO =        -0.01521252
  eigenvalues    EBANDS =     -3065.79445436
  atomic energy  EATOM  =     45086.50549395
  Solvation  Ediel_sol  =         0.00000000
  ---------------------------------------------------
  free energy    TOTEN  =      -174.39241632 eV

  energy without entropy =     -174.37720380  energy(sigma->0) =     -174.38861319


--------------------------------------------------------------------------------------------------------




--------------------------------------- Iteration      1(  16)  ---------------------------------------


    POTLOK:  cpu time   13.2074: real time   13.2095
    SETDIJ:  cpu time    0.1227: real time    0.1227
    EDDIAG:  cpu time   67.7962: real time   67.7971
  RMM-DIIS:  cpu time  187.0574: real time  187.0602
    ORTHCH:  cpu time   13.2820: real time   13.2819
       DOS:  cpu time    0.0015: real time    0.0015
    CHARGE:  cpu time   24.7958: real time   24.7955
    MIXING:  cpu time    0.7969: real time    0.7969
    --------------------------------------------
      LOOP:  cpu time  307.0600: real time  307.0652

 eigenvalue-minimisations  :   720
 total energy-change (2. order) :-0.2071141E+00  (-0.9638454E-01)
 number of electron     559.9999842 magnetization 
 augmentation part      241.0705742 magnetization 

 Broyden mixing:
  rms(total) = 0.14350E+01    rms(broyden)= 0.14347E+01
  rms(prec ) = 0.17078E+01
  weight for this iteration     100.00

 eigenvalues of (default mixing * dielectric matrix)
  average eigenvalue GAMMA=   0.3431
  1.8449  0.5891  0.2877  0.2877  0.1526  0.1526  0.1128  0.1128  0.0919  0.0710
  0.0710

 Free energy of the ion-electron system (eV)
  ---------------------------------------------------
  alpha Z        PSCENC =        75.25431677
  Ewald energy   TEWEN  =    139902.52641547
  -Hartree energ DENC   =   -184020.10660346
  -exchange      EXHF   =         0.00000000
  -V(xc)+E(xc)   XCENC  =     -1692.76406362
  PAW double counting   =     46433.00823107   -42911.34496396
  entropy T*S    EENTRO =        -0.04690288
  eigenvalues    EBANDS =     -3047.63145374
  atomic energy  EATOM  =     45086.50549395
  Solvation  Ediel_sol  =         0.00000000
  ---------------------------------------------------
  free energy    TOTEN  =      -174.59953040 eV

  energy without entropy =     -174.55262751  energy(sigma->0) =     -174.58780468


--------------------------------------------------------------------------------------------------------




--------------------------------------- Iteration      1(  17)  ---------------------------------------


    POTLOK:  cpu time   12.9605: real time   12.9633
    SETDIJ:  cpu time    0.1211: real time    0.1211
    EDDIAG:  cpu time   68.3508: real time   68.3510
  RMM-DIIS:  cpu time  184.5456: real time  184.5467
    ORTHCH:  cpu time   13.4976: real time   13.4975
       DOS:  cpu time    0.0015: real time    0.0015
    CHARGE:  cpu time   25.4650: real time   25.4647
    MIXING:  cpu time    0.8618: real time    0.8618
    --------------------------------------------
      LOOP:  cpu time  305.8039: real time  305.8076

 eigenvalue-minimisations  :   708
 total energy-change (2. order) : 0.2927102E+00  (-0.7323154E-01)
 number of electron     559.9999849 magnetization 
 augmentation part      241.0656832 magnetization 

 Broyden mixing:
  rms(total) = 0.15003E+01    rms(broyden)= 0.15000E+01
  rms(prec ) = 0.17414E+01
  weight for this iteration     100.00

 eigenvalues of (default mixing * dielectric matrix)
  average eigenvalue GAMMA=   0.3433
  1.9066  0.6760  0.3487  0.3487  0.1420  0.1420  0.1146  0.1146  0.0989  0.0989
  0.0714  0.0574

 Free energy of the ion-electron system (eV)
  ---------------------------------------------------
  alpha Z        PSCENC =        75.25431677
  Ewald energy   TEWEN  =    139902.52641547
  -Hartree energ DENC   =   -184034.78176125
  -exchange      EXHF   =         0.00000000
  -V(xc)+E(xc)   XCENC  =     -1692.53733081
  PAW double counting   =     46455.09737981   -42932.35734534
  entropy T*S    EENTRO =         0.05091560
  eigenvalues    EBANDS =     -3034.06490440
  atomic energy  EATOM  =     45086.50549395
  Solvation  Ediel_sol  =         0.00000000
  ---------------------------------------------------
  free energy    TOTEN  =      -174.30682020 eV

  energy without entropy =     -174.35773580  energy(sigma->0) =     -174.31954910


--------------------------------------------------------------------------------------------------------




--------------------------------------- Iteration      1(  18)  ---------------------------------------


    POTLOK:  cpu time   13.3269: real time   13.3288
    SETDIJ:  cpu time    0.1250: real time    0.1250
    EDDIAG:  cpu time   69.2168: real time   69.2188
  RMM-DIIS:  cpu time  181.9802: real time  181.9813
    ORTHCH:  cpu time   13.5513: real time   13.5511
       DOS:  cpu time    0.0014: real time    0.0014
    CHARGE:  cpu time   25.3585: real time   25.3581
    MIXING:  cpu time    0.9571: real time    0.9571
    --------------------------------------------
      LOOP:  cpu time  304.5172: real time  304.5217

 eigenvalue-minimisations  :   701
 total energy-change (2. order) : 0.3371474E+00  (-0.5434995E-01)
 number of electron     559.9999850 magnetization 
 augmentation part      241.1951011 magnetization 

 Broyden mixing:
  rms(total) = 0.10741E+01    rms(broyden)= 0.10739E+01
  rms(prec ) = 0.12207E+01
  weight for this iteration     100.00

 eigenvalues of (default mixing * dielectric matrix)
  average eigenvalue GAMMA=   0.3443
  1.9557  0.7738  0.3933  0.3933  0.1576  0.1576  0.1107  0.1107  0.1059  0.1059
  0.0822  0.0746  0.0550

 Free energy of the ion-electron system (eV)
  ---------------------------------------------------
  alpha Z        PSCENC =        75.25431677
  Ewald energy   TEWEN  =    139902.52641547
  -Hartree energ DENC   =   -184041.79146625
  -exchange      EXHF   =         0.00000000
  -V(xc)+E(xc)   XCENC  =     -1692.42459036
  PAW double counting   =     46465.09317428   -42941.68777349
  entropy T*S    EENTRO =         0.00740903
  eigenvalues    EBANDS =     -3027.45265225
  atomic energy  EATOM  =     45086.50549395
  Solvation  Ediel_sol  =         0.00000000
  ---------------------------------------------------
  free energy    TOTEN  =      -173.96967283 eV

  energy without entropy =     -173.97708187  energy(sigma->0) =     -173.97152509


--------------------------------------------------------------------------------------------------------




--------------------------------------- Iteration      1(  19)  ---------------------------------------


    POTLOK:  cpu time   13.3254: real time   13.3277
    SETDIJ:  cpu time    0.1204: real time    0.1204
    EDDIAG:  cpu time   68.7644: real time   68.7642
  RMM-DIIS:  cpu time  179.0913: real time  179.0957
    ORTHCH:  cpu time   13.5410: real time   13.5411
       DOS:  cpu time    0.0015: real time    0.0015
    CHARGE:  cpu time   25.6389: real time   25.6391
    MIXING:  cpu time    0.9768: real time    0.9768
    --------------------------------------------
      LOOP:  cpu time  301.4597: real time  301.4665

 eigenvalue-minimisations  :   704
 total energy-change (2. order) : 0.3231500E-01  (-0.3713917E-01)
 number of electron     559.9999847 magnetization 
 augmentation part      241.2954623 magnetization 

 Broyden mixing:
  rms(total) = 0.12462E+01    rms(broyden)= 0.12461E+01
  rms(prec ) = 0.14742E+01
  weight for this iteration     100.00

 eigenvalues of (default mixing * dielectric matrix)
  average eigenvalue GAMMA=   0.3351
  1.9751  0.8481  0.4082  0.4082  0.1710  0.1710  0.1116  0.1116  0.0979  0.0979
  0.0978  0.0707  0.0707  0.0516

 Free energy of the ion-electron system (eV)
  ---------------------------------------------------
  alpha Z        PSCENC =        75.25431677
  Ewald energy   TEWEN  =    139902.52641547
  -Hartree energ DENC   =   -184050.69460261
  -exchange      EXHF   =         0.00000000
  -V(xc)+E(xc)   XCENC  =     -1692.33042461
  PAW double counting   =     46470.62838889   -42946.63977120
  entropy T*S    EENTRO =         0.09857431
  eigenvalues    EBANDS =     -3019.28574881
  atomic energy  EATOM  =     45086.50549395
  Solvation  Ediel_sol  =         0.00000000
  ---------------------------------------------------
  free energy    TOTEN  =      -173.93735784 eV

  energy without entropy =     -174.03593215  energy(sigma->0) =     -173.96200141


--------------------------------------------------------------------------------------------------------




--------------------------------------- Iteration      1(  20)  ---------------------------------------


    POTLOK:  cpu time   13.4908: real time   13.4942
    SETDIJ:  cpu time    0.1207: real time    0.1207
    EDDIAG:  cpu time   69.1482: real time   69.1493
  RMM-DIIS:  cpu time  181.0261: real time  181.0287
    ORTHCH:  cpu time   13.7266: real time   13.7266
       DOS:  cpu time    0.0016: real time    0.0016
    CHARGE:  cpu time   25.4594: real time   25.4595
    MIXING:  cpu time    1.0550: real time    1.0550
    --------------------------------------------
      LOOP:  cpu time  304.0284: real time  304.0356

 eigenvalue-minimisations  :   696
 total energy-change (2. order) : 0.3668728E+00  (-0.2124280E-01)
 number of electron     559.9999848 magnetization 
 augmentation part      241.3065017 magnetization 

 Broyden mixing:
  rms(total) = 0.89656E+00    rms(broyden)= 0.89637E+00
  rms(prec ) = 0.10495E+01
  weight for this iteration     100.00

 eigenvalues of (default mixing * dielectric matrix)
  average eigenvalue GAMMA=   0.3365
  2.0281  0.8772  0.4352  0.4352  0.2191  0.2191  0.1234  0.1234  0.1129  0.1129
  0.0898  0.0898  0.0676  0.0676  0.0463

 Free energy of the ion-electron system (eV)
  ---------------------------------------------------
  alpha Z        PSCENC =        75.25431677
  Ewald energy   TEWEN  =    139902.52641547
  -Hartree energ DENC   =   -184060.39096743
  -exchange      EXHF   =         0.00000000
  -V(xc)+E(xc)   XCENC  =     -1692.24930715
  PAW double counting   =     46473.11657355   -42948.71409777
  entropy T*S    EENTRO =         0.04329348
  eigenvalues    EBANDS =     -3009.66220592
  atomic energy  EATOM  =     45086.50549395
  Solvation  Ediel_sol  =         0.00000000
  ---------------------------------------------------
  free energy    TOTEN  =      -173.57048504 eV

  energy without entropy =     -173.61377852  energy(sigma->0) =     -173.58130841


--------------------------------------------------------------------------------------------------------




--------------------------------------- Iteration      1(  21)  ---------------------------------------


    POTLOK:  cpu time   13.2758: real time   13.2804
    SETDIJ:  cpu time    0.1609: real time    0.1615
    EDDIAG:  cpu time   69.2277: real time   69.2327
  RMM-DIIS:  cpu time  182.2246: real time  182.2299
    ORTHCH:  cpu time   13.6449: real time   13.6449
       DOS:  cpu time    0.0015: real time    0.0015
    CHARGE:  cpu time   25.5225: real time   25.5226
    MIXING:  cpu time    1.1027: real time    1.1027
    --------------------------------------------
      LOOP:  cpu time  305.1607: real time  305.1762

 eigenvalue-minimisations  :   695
 total energy-change (2. order) : 0.1576523E+00  (-0.2369354E-01)
 number of electron     559.9999841 magnetization 
 augmentation part      241.3439738 magnetization 

 Broyden mixing:
  rms(total) = 0.78820E+00    rms(broyden)= 0.78805E+00
  rms(prec ) = 0.89700E+00
  weight for this iteration     100.00

 eigenvalues of (default mixing * dielectric matrix)
  average eigenvalue GAMMA=   0.3353
  2.0843  0.9397  0.4388  0.4388  0.2579  0.2579  0.1249  0.1249  0.1101  0.1101
  0.1140  0.0915  0.0915  0.0737  0.0619  0.0457

 Free energy of the ion-electron system (eV)
  ---------------------------------------------------
  alpha Z        PSCENC =        75.25431677
  Ewald energy   TEWEN  =    139902.52641547
  -Hartree energ DENC   =   -184071.87358800
  -exchange      EXHF   =         0.00000000
  -V(xc)+E(xc)   XCENC  =     -1692.08432437
  PAW double counting   =     46478.14461945   -42953.05827520
  entropy T*S    EENTRO =         0.01294890
  eigenvalues    EBANDS =     -2998.84043969
  atomic energy  EATOM  =     45086.50549395
  Solvation  Ediel_sol  =         0.00000000
  ---------------------------------------------------
  free energy    TOTEN  =      -173.41283273 eV

  energy without entropy =     -173.42578163  energy(sigma->0) =     -173.41606996


--------------------------------------------------------------------------------------------------------




--------------------------------------- Iteration      1(  22)  ---------------------------------------


    POTLOK:  cpu time   13.2286: real time   13.2317
    SETDIJ:  cpu time    0.1218: real time    0.1218
    EDDIAG:  cpu time   68.8304: real time   68.8341
  RMM-DIIS:  cpu time  183.5783: real time  183.5823
    ORTHCH:  cpu time   13.1613: real time   13.1612
       DOS:  cpu time    0.0015: real time    0.0015
    CHARGE:  cpu time   25.0069: real time   25.0069
    MIXING:  cpu time    1.1622: real time    1.1622
    --------------------------------------------
      LOOP:  cpu time  305.0909: real time  305.1018

 eigenvalue-minimisations  :   694
 total energy-change (2. order) : 0.1882413E+00  (-0.1852626E-01)
 number of electron     559.9999843 magnetization 
 augmentation part      241.2971561 magnetization 

 Broyden mixing:
  rms(total) = 0.58266E+00    rms(broyden)= 0.58250E+00
  rms(prec ) = 0.67055E+00
  weight for this iteration     100.00

 eigenvalues of (default mixing * dielectric matrix)
  average eigenvalue GAMMA=   0.3376
  2.1441  0.9476  0.5714  0.3729  0.3729  0.2321  0.1460  0.1460  0.1115  0.1115
  0.1232  0.1103  0.0854  0.0854  0.0716  0.0616  0.0456

 Free energy of the ion-electron system (eV)
  ---------------------------------------------------
  alpha Z        PSCENC =        75.25431677
  Ewald energy   TEWEN  =    139902.52641547
  -Hartree energ DENC   =   -184088.27817802
  -exchange      EXHF   =         0.00000000
  -V(xc)+E(xc)   XCENC  =     -1691.86554774
  PAW double counting   =     46483.20607794   -42957.26004198
  entropy T*S    EENTRO =        -0.00140928
  eigenvalues    EBANDS =     -2983.31171855
  atomic energy  EATOM  =     45086.50549395
  Solvation  Ediel_sol  =         0.00000000
  ---------------------------------------------------
  free energy    TOTEN  =      -173.22459143 eV

  energy without entropy =     -173.22318215  energy(sigma->0) =     -173.22423911


--------------------------------------------------------------------------------------------------------




--------------------------------------- Iteration      1(  23)  ---------------------------------------


    POTLOK:  cpu time   13.1513: real time   13.1530
    SETDIJ:  cpu time    0.1232: real time    0.1232
    EDDIAG:  cpu time   68.7468: real time   68.7471
  RMM-DIIS:  cpu time  183.8760: real time  183.8780
    ORTHCH:  cpu time   13.2913: real time   13.2913
       DOS:  cpu time    0.0015: real time    0.0015
    CHARGE:  cpu time   25.0040: real time   25.0039
    MIXING:  cpu time    1.2170: real time    1.2171
    --------------------------------------------
      LOOP:  cpu time  305.4111: real time  305.4151

 eigenvalue-minimisations  :   695
 total energy-change (2. order) : 0.2098926E-01  (-0.1674258E-01)
 number of electron     559.9999837 magnetization 
 augmentation part      241.2746617 magnetization 

 Broyden mixing:
  rms(total) = 0.71269E+00    rms(broyden)= 0.71253E+00
  rms(prec ) = 0.85443E+00
  weight for this iteration     100.00

 eigenvalues of (default mixing * dielectric matrix)
  average eigenvalue GAMMA=   0.3415
[...]
 -0.007  -0.012   0.004   0.004   0.005  -0.006  -0.012   0.004
 -0.011  -0.020   0.006   0.007   0.009  -0.011  -0.020   0.006
 -0.015  -0.005   0.012   0.000   0.022  -0.014  -0.005   0.012
  0.000  -0.023  -0.006  -0.015  -0.000   0.000  -0.022  -0.006
 -0.022   0.000   0.009  -0.005  -0.016  -0.021   0.000   0.008
 -0.017  -0.006   0.015   0.000   0.027  -0.017  -0.006   0.015
  0.000  -0.027  -0.007  -0.018   0.000   0.000  -0.026  -0.007
 -0.027   0.000   0.010  -0.006  -0.019  -0.026   0.000   0.010
 total augmentation occupancy for first ion, spin component:           1
  1.537  -0.029   0.004   0.017   0.022   0.076  -0.008  -0.002   0.035  -0.009   0.097  -0.033   0.011   0.002   0.003  -0.019
 -0.029   1.403   0.031   0.070   0.001  -0.007   0.070   0.011  -0.014  -0.008   0.217  -0.066   0.019   0.001   0.002  -0.006
  0.004   0.031   1.543   0.003   0.001  -0.002   0.012   0.074  -0.013   0.017  -0.055   0.018  -0.003  -0.007  -0.005   0.016
  0.017   0.070   0.003   1.338   0.044   0.033  -0.014  -0.012   0.091  -0.023  -0.081   0.020  -0.001  -0.009  -0.004   0.001
  0.022   0.001   0.001   0.044   1.437  -0.010  -0.009   0.016  -0.022   0.068  -0.093   0.030  -0.003  -0.010  -0.009   0.026
  0.076  -0.007  -0.002   0.033  -0.010   0.217   0.019  -0.002  -0.045   0.003  -0.048   0.002   0.017  -0.010   0.034  -0.004
 -0.008   0.070   0.012  -0.014  -0.009   0.019   0.263  -0.023  -0.003   0.006  -0.109   0.007  -0.001   0.051  -0.010  -0.000
 -0.002   0.011   0.074  -0.012   0.016  -0.002  -0.023   0.215   0.014  -0.020   0.028  -0.001  -0.012   0.009  -0.018   0.003
  0.035  -0.014  -0.013   0.091  -0.022  -0.045  -0.003   0.014   0.261   0.007   0.043  -0.004  -0.009   0.036   0.004   0.000
 -0.009  -0.008   0.017  -0.023   0.068   0.003   0.006  -0.020   0.007   0.258   0.047  -0.003  -0.038   0.002   0.049   0.007
  0.097   0.217  -0.055  -0.081  -0.093  -0.048  -0.109   0.028   0.043   0.047   0.951  -0.141   0.084   0.014   0.064  -0.013
 -0.033  -0.066   0.018   0.020   0.030   0.002   0.007  -0.001  -0.004  -0.003  -0.141   0.023  -0.014  -0.003  -0.010   0.003
  0.011   0.019  -0.003  -0.001  -0.003   0.017  -0.001  -0.012  -0.009  -0.038   0.084  -0.014   0.029  -0.008  -0.004  -0.003
  0.002   0.001  -0.007  -0.009  -0.010  -0.010   0.051   0.009   0.036   0.002   0.014  -0.003  -0.008   0.036   0.004   0.000
  0.003   0.002  -0.005  -0.004  -0.009   0.034  -0.010  -0.018   0.004   0.049   0.064  -0.010  -0.004   0.004   0.034  -0.000
 -0.019  -0.006   0.016   0.001   0.026  -0.004  -0.000   0.003   0.000   0.007  -0.013   0.003  -0.003   0.000  -0.000   0.001
  0.001  -0.028  -0.007  -0.018   0.001   0.001  -0.008  -0.002  -0.006  -0.000  -0.003   0.001   0.000  -0.003  -0.000   0.000
 -0.028   0.001   0.012  -0.005  -0.019  -0.006   0.001   0.003  -0.001  -0.007  -0.008   0.001  -0.000  -0.000  -0.003   0.000


------------------------ aborting loop because EDIFF is reached ----------------------------------------


    CHARGE:  cpu time   25.6246: real time   25.6243
    FORLOC:  cpu time    6.7472: real time    6.7471
    FORNL :  cpu time   66.1568: real time   66.1567
    STRESS:  cpu time  205.1646: real time  205.1657
    FORCOR:  cpu time   22.1851: real time   22.1853
    FORHAR:  cpu time    9.7452: real time    9.7453
    MIXING:  cpu time    3.5927: real time    3.5927
    OFIELD:  cpu time    0.0000: real time    0.0000

  FORCE on cell =-STRESS in cart. coord.  units (eV):
  Direction    XX          YY          ZZ          XY          YZ          ZX
  --------------------------------------------------------------------------------------
  Alpha Z    75.25432    75.25432    75.25432
  Ewald   48905.71797 45598.45244 45398.25011  1125.99019   161.42121   336.56485
  Hartree 63594.41021 60480.86313 60182.63811  1028.82557   202.72152   356.61580
  E(xc)   -2906.22543 -2907.08863 -2907.21308     0.26996    -0.27622     0.32456
  Local  ************************************ -2142.10658  -371.93278  -689.89747
  n-local  -889.93665  -883.07214  -869.99749    -2.75145    -5.46099    -2.72273
  augment  4105.59755  4105.40772  4098.54924     0.46107     3.69195    -0.94935
  Kinetic  7810.07852  7821.55619  7811.41050    -3.40399     5.31631    -4.27993
  Fock        0.00000     0.00000     0.00000     0.00000     0.00000     0.00000
  -------------------------------------------------------------------------------------
  Total    -102.56709  -109.51221   -98.21969     7.28478    -4.51901    -4.34427
  in kB      -6.08632    -6.49844    -5.82835     0.43228    -0.26816    -0.25779
  external pressure =       -6.14 kB  Pullay stress =        0.00 kB


 VOLUME and BASIS-vectors are now :
 -----------------------------------------------------------------------------
  energy-cutoff  :      400.00
  volume of cell :    27000.00
      direct lattice vectors                 reciprocal lattice vectors
    30.000000000  0.000000000  0.000000000     0.033333333  0.000000000  0.000000000
     0.000000000 30.000000000  0.000000000     0.000000000  0.033333333  0.000000000
     0.000000000  0.000000000 30.000000000     0.000000000  0.000000000  0.033333333

  length of vectors
    30.000000000 30.000000000 30.000000000     0.033333333  0.033333333  0.033333333


 FORCES acting on ions
    electron-ion (+dipol)            ewald-force                    non-local-force                 convergence-correction
 -----------------------------------------------------------------------------------------------
   0.400E+03 0.976E+03 0.419E+03   -.397E+03 -.973E+03 -.418E+03   -.149E+01 -.182E+01 -.224E+00   -.182E-03 0.685E-02 -.145E-02
   -.948E+03 -.374E+03 0.510E+03   0.945E+03 0.372E+03 -.510E+03   0.181E+01 0.148E+01 0.386E-01   0.744E-02 -.138E-01 0.890E-02
   -.387E+03 0.981E+03 0.421E+03   0.385E+03 -.978E+03 -.421E+03   0.150E+01 -.180E+01 -.225E+00   0.381E-02 0.525E-02 -.326E-03
   0.977E+03 -.393E+03 0.419E+03   -.974E+03 0.391E+03 -.418E+03   -.184E+01 0.150E+01 -.234E+00   -.462E-02 -.184E-01 -.531E-02
   0.684E+01 0.592E+03 0.970E+03   -.688E+01 -.592E+03 -.967E+03   0.212E-01 -.307E+00 -.235E+01   -.813E-03 0.955E-03 0.118E-03
   0.975E+01 0.595E+03 -.970E+03   -.978E+01 -.594E+03 0.966E+03   0.221E-01 -.303E+00 0.233E+01   -.377E-02 -.202E-02 -.947E-03
   0.561E+01 0.114E+04 0.105E+01   -.561E+01 -.114E+04 -.104E+01   0.159E-02 -.311E+01 -.136E-03   0.109E-02 0.211E-03 -.353E-02
   0.114E+04 0.158E+01 0.718E+00   -.113E+04 -.155E+01 -.699E+00   -.311E+01 -.159E-01 -.632E-02   0.392E-02 -.506E-02 -.903E-02
   -.118E+04 0.162E+03 0.722E+02   0.117E+04 -.163E+03 -.727E+02   0.286E+01 0.355E+00 0.322E+00   -.550E-02 -.612E-02 -.298E-02
   0.190E+02 -.115E+04 0.342E+01   -.190E+02 0.114E+04 -.342E+01   -.919E-02 0.313E+01 -.574E-03   0.232E-02 0.747E-02 0.793E-02
   -.572E+03 0.589E+03 0.823E+03   0.570E+03 -.587E+03 -.820E+03   0.152E+01 -.157E+01 -.220E+01   0.375E-03 -.207E-02 0.583E-02
   -.568E+03 0.597E+03 -.824E+03   0.566E+03 -.595E+03 0.821E+03   0.150E+01 -.158E+01 0.223E+01   0.895E-02 -.713E-03 -.311E-02
   0.585E+03 -.578E+03 0.817E+03   -.583E+03 0.576E+03 -.814E+03   -.156E+01 0.156E+01 -.220E+01   -.147E-01 -.190E-01 -.225E-02
   0.588E+03 -.579E+03 -.816E+03   -.585E+03 0.576E+03 0.813E+03   -.156E+01 0.156E+01 0.220E+01   -.266E-02 -.538E-02 0.290E-02
   0.582E+03 0.581E+03 0.815E+03   -.580E+03 -.579E+03 -.812E+03   -.157E+01 -.156E+01 -.220E+01   -.434E-02 0.111E-01 0.350E-02
   0.584E+03 0.582E+03 -.814E+03   -.581E+03 -.580E+03 0.811E+03   -.156E+01 -.156E+01 0.220E+01   -.745E-02 0.319E-02 -.412E-02
   -.564E+03 -.582E+03 0.841E+03   0.562E+03 0.580E+03 -.837E+03   0.156E+01 0.158E+01 -.220E+01   0.102E-01 -.628E-02 -.180E-02
   -.541E+03 -.591E+03 -.862E+03   0.538E+03 0.589E+03 0.859E+03   0.163E+01 0.168E+01 0.218E+01   0.319E-02 0.136E-02 0.233E-02
   0.401E+03 0.977E+03 -.417E+03   -.398E+03 -.974E+03 0.417E+03   -.149E+01 -.182E+01 0.233E+00   -.458E-02 -.142E-02 -.912E-02
   -.811E+03 -.239E+03 -.736E+03   0.807E+03 0.237E+03 0.735E+03   -.814E+00 -.263E+01 0.961E+01   0.462E-02 -.577E-02 -.614E-02
   -.303E+03 0.338E+03 0.467E+03   0.303E+03 -.338E+03 -.468E+03   -.410E+00 0.331E+00 0.470E+00   0.528E-02 -.901E-02 0.255E-02
   0.975E+03 0.396E+03 0.418E+03   -.972E+03 -.394E+03 -.418E+03   -.183E+01 -.152E+01 -.200E+00   0.155E-02 0.485E-02 -.488E-02
   -.370E+03 -.986E+03 0.435E+03   0.367E+03 0.983E+03 -.435E+03   0.153E+01 0.190E+01 -.291E+00   0.945E-02 0.264E-03 0.368E-02
   -.385E+03 0.984E+03 -.418E+03   0.383E+03 -.981E+03 0.418E+03   0.149E+01 -.180E+01 0.231E+00   0.229E-02 -.274E-02 -.117E-01
   0.978E+03 -.393E+03 -.417E+03   -.975E+03 0.391E+03 0.416E+03   -.184E+01 0.150E+01 0.241E+00   -.113E-02 -.740E-02 0.637E-03
   -.963E+03 0.428E+03 0.446E+03   0.960E+03 -.426E+03 -.446E+03   0.185E+01 -.145E+01 -.242E+00   -.148E-03 -.408E-02 0.680E-02
   0.407E+03 -.975E+03 0.422E+03   -.405E+03 0.972E+03 -.422E+03   -.152E+01 0.182E+01 -.223E+00   -.972E-02 -.301E-02 -.688E-03
   0.332E+03 0.327E+03 0.458E+03   -.332E+03 -.327E+03 -.459E+03   0.376E+00 0.367E+00 0.530E+00   -.114E-01 -.950E-03 -.578E-02
   0.129E+02 0.650E+03 0.236E+01   -.130E+02 -.651E+03 -.235E+01   0.253E-01 0.733E+00 -.307E-02   0.651E-03 -.597E-06 -.792E-02
   -.575E+03 0.104E+02 0.989E+03   0.574E+03 -.104E+02 -.985E+03   0.281E+00 -.177E-01 -.238E+01   0.563E-02 -.145E-01 0.720E-02
   -.559E+03 0.253E+02 -.100E+04   0.559E+03 -.252E+02 0.999E+03   0.189E+00 -.113E+00 0.257E+01   0.786E-02 0.231E-02 -.339E-02
   0.592E+03 0.204E+01 0.968E+03   -.592E+03 -.204E+01 -.965E+03   -.310E+00 0.945E-02 -.236E+01   -.101E-01 -.101E-01 0.723E-02
   0.595E+03 0.265E+01 -.968E+03   -.594E+03 -.267E+01 0.964E+03   -.306E+00 0.153E-01 0.236E+01   -.532E-02 0.307E-02 -.398E-02
   0.767E+03 0.764E+03 0.992E+00   -.765E+03 -.763E+03 -.969E+00   -.117E+01 -.113E+01 -.116E-01   -.588E-02 0.592E-02 -.658E-02
   -.621E+03 -.828E+03 0.603E+02   0.621E+03 0.826E+03 -.599E+02   0.178E+00 0.132E+01 -.225E+00   0.105E-01 -.999E-02 0.427E-02
   -.747E+03 0.789E+03 0.535E+01   0.745E+03 -.787E+03 -.536E+01   0.113E+01 -.123E+01 0.126E-01   0.596E-02 0.458E-02 -.852E-02
   0.772E+03 -.761E+03 0.157E+01   -.770E+03 0.759E+03 -.158E+01   -.112E+01 0.115E+01 0.511E-02   -.110E-01 -.141E-01 0.142E-02
   0.112E+02 0.460E+01 0.108E+04   -.112E+02 -.457E+01 -.108E+04   0.507E-04 -.127E-01 -.161E+01   -.109E-01 -.145E-01 0.152E-02
   0.186E+02 0.752E+01 -.108E+04   -.186E+02 -.749E+01 0.108E+04   -.131E-01 -.362E-01 0.162E+01   -.674E-02 0.559E-02 -.133E-02
   0.976E+03 0.397E+03 -.417E+03   -.973E+03 -.394E+03 0.416E+03   -.184E+01 -.151E+01 0.206E+00   -.242E-02 0.127E-02 -.610E-02
   -.355E+03 -.995E+03 -.428E+03   0.353E+03 0.992E+03 0.428E+03   0.154E+01 0.184E+01 0.247E+00   0.554E-02 -.272E-02 0.734E-02
   -.294E+03 0.346E+03 -.461E+03   0.295E+03 -.346E+03 0.462E+03   -.426E+00 0.324E+00 -.493E+00   0.631E-02 0.589E-04 -.141E-01
   0.336E+03 -.319E+03 0.460E+03   -.337E+03 0.319E+03 -.461E+03   0.372E+00 -.358E+00 0.519E+00   -.149E-01 -.228E-01 -.281E-02
   0.334E+03 0.328E+03 -.455E+03   -.335E+03 -.329E+03 0.456E+03   0.389E+00 0.371E+00 -.514E+00   -.933E-02 0.245E-02 -.834E-02
   -.956E+03 0.461E+03 -.440E+03   0.953E+03 -.459E+03 0.440E+03   0.195E+01 -.133E+01 0.101E+00   0.565E-02 0.830E-04 -.122E-01
   0.411E+03 -.977E+03 -.419E+03   -.409E+03 0.974E+03 0.419E+03   -.153E+01 0.182E+01 0.220E+00   -.333E-02 -.581E-02 0.101E-01
   -.286E+03 -.315E+03 0.481E+03   0.287E+03 0.316E+03 -.482E+03   -.325E+00 -.379E+00 0.531E+00   0.508E-02 -.182E-01 0.799E-02
   0.649E+03 0.334E+01 0.149E+01   -.650E+03 -.330E+01 -.148E+01   0.715E+00 -.248E-01 -.381E-03   -.949E-02 -.887E-02 -.831E-02
   -.563E+03 0.731E+02 0.326E+02   0.563E+03 -.738E+02 -.329E+02   -.197E+00 0.636E+00 0.301E+00   0.107E-01 -.102E-01 -.481E-02
   0.129E+02 -.588E+03 0.976E+03   -.128E+02 0.587E+03 -.972E+03   -.193E-02 0.319E+00 -.234E+01   -.528E-02 -.109E-01 -.903E-02
   0.218E+02 -.590E+03 -.977E+03   -.218E+02 0.589E+03 0.974E+03   0.474E-02 0.326E+00 0.235E+01   -.269E-02 -.145E-02 0.454E-02
   0.294E+02 0.118E+02 0.527E+01   -.294E+02 -.118E+02 -.526E+01   -.300E-01 -.939E-02 -.934E-02   -.159E-02 -.831E-02 -.334E-02
   0.341E+03 -.319E+03 -.456E+03   -.341E+03 0.319E+03 0.457E+03   0.364E+00 -.365E+00 -.515E+00   -.636E-02 -.637E-02 0.378E-02
   -.256E+03 -.311E+03 -.474E+03   0.256E+03 0.312E+03 0.475E+03   -.213E+00 -.322E+00 -.674E+00   0.286E-02 -.199E-02 -.214E-02
   0.347E+02 -.644E+03 0.616E+01   -.346E+02 0.645E+03 -.618E+01   -.103E+00 -.751E+00 0.106E-01   0.107E-02 -.140E-01 0.848E-02
   -.211E+03 -.172E+03 0.937E+02   0.190E+03 0.167E+03 -.106E+03   0.138E+02 0.442E+01 0.316E+01   0.127E-02 -.438E-02 -.143E-02
   -.845E+03 -.447E+03 -.756E+02   0.908E+03 0.475E+03 0.807E+02   -.529E+02 -.227E+02 -.579E+01   0.269E-03 -.522E-02 -.147E-02
 -----------------------------------------------------------------------------------------------
   0.425E+02 0.213E+02 -.723E+01   0.341E-12 0.455E-12 -.512E-12   -.424E+02 -.211E+02 0.730E+01   -.426E-01 -.231E+00 -.700E-01
 
 
 POSITION                                       TOTAL-FORCE (eV/Angst)
 -----------------------------------------------------------------------------------
     13.37281      9.84801     12.50759         0.700353      1.105433      0.292745
     20.15199     16.62719     12.50759        -1.144530     -0.696096      0.194304
     16.62719      9.84801     12.50759        -0.705124      1.112801      0.296191
      9.84801     16.62719     12.50759         1.106780     -0.698183      0.293811
     15.00000     11.47521     10.20639        -0.012212      0.409704      1.278507
     15.00000     11.47521     19.79360        -0.011543      0.414584     -1.281394
     15.00000      8.28283     15.00000        -0.000091      1.515788      0.000032
      8.28283     15.00000     15.00000         1.512376      0.009510      0.003522
     21.71717     15.00000     15.00000        -1.502125     -0.025794     -0.130252
     15.00000     21.71717     15.00000         0.003755     -1.517798      0.002680
     18.35858     11.64142     10.25025        -0.738431      0.749116      1.070397
     18.35858     11.64142     19.74975        -0.719692      0.764850     -1.086417
     11.64142     18.35858     10.25025         0.755320     -0.756403      1.065604
     11.64142     18.35858     19.74975         0.758634     -0.756182     -1.067739
     11.64142     11.64142     10.25025         0.759836      0.752787      1.067137
     11.64142     11.64142     19.74975         0.756721      0.755270     -1.069461
     18.35858     18.35858     10.25025        -0.754520     -0.760351      1.066090
     18.35858     18.35858     19.74975        -0.822867     -0.718541     -0.971193
     13.37281      9.84801     17.49241         0.699300      1.108365     -0.294967
     20.15199     16.62719     17.49241        -4.489767     -4.523375      9.177336
     16.73751     13.26249     12.54279         0.118003     -0.109430     -0.145553
      9.84801     13.37281     12.50759         1.107714      0.703426      0.278787
     16.62719     20.15199     12.50759        -0.718479     -1.091548      0.282792
     16.62719      9.84801     17.49241        -0.702446      1.110475     -0.298823
      9.84801     16.62719     17.49241         1.107674     -0.696630     -0.293734
     20.15199     13.37281     12.50759        -1.129684      0.678439      0.253449
     13.37281     20.15199     12.50759         0.708802     -1.106896      0.302462
     13.26249     13.26249     12.54279        -0.109054     -0.111059     -0.156011
     15.00000     11.52498     15.00000         0.001092     -0.227766      0.000155
     18.52479     15.00000     10.20639        -0.401070      0.011704      1.282942
     18.52479     15.00000     19.79360        -0.463013     -0.036359     -1.233556
     11.47521     15.00000     10.20640         0.412809     -0.002938      1.277345
     11.47521     15.00000     19.79360         0.412049     -0.003080     -1.280267
     11.49535     11.49535     15.00000         0.840740      0.819842      0.004366
     18.50465     18.50465     15.00000        -0.047022     -1.343140      0.219653
     18.50465     11.49535     15.00000        -0.840166      0.835505     -0.008260
     11.49535     18.50465     15.00000         0.812775     -0.830399     -0.002584
     15.00000     15.00000     10.04368        -0.000634      0.004416      1.180229
     15.00000     15.00000     19.95633         0.000975      0.008504     -1.185545
      9.84801     13.37281     17.49241         1.110673      0.698707     -0.281866
     16.62719     20.15199     17.49241        -0.743174     -1.089533     -0.283067
     16.73751     13.26249     17.45721         0.116368     -0.109036      0.154625
     13.26249     16.73751     12.54279        -0.109668      0.109437     -0.143217
     13.26249     13.26249     17.45721        -0.118047     -0.112507      0.154666
     20.15199     13.37281     17.49241        -1.159766      0.538090     -0.202432
     13.37281     20.15199     17.49241         0.709307     -1.104288     -0.298399
     16.73751     16.73751     12.54279         0.082844      0.104818     -0.188503
     11.52498     15.00000     15.00000        -0.224845      0.008622      0.001663
     18.47502     15.00000     15.00000         0.143996     -0.066362     -0.072198
     15.00000     18.52480     10.20639         0.001720     -0.416452      1.276381
     15.00000     18.52480     19.79360         0.010272     -0.419671     -1.272656
     15.00000     15.00000     15.00000         0.006427     -0.010599     -0.000455
     13.26249     16.73751     17.45721        -0.125834      0.107781      0.151874
     16.73751     16.73751     17.45721         0.018052      0.092812      0.218714
     15.00000     18.47502     15.00000        -0.016887      0.231185     -0.001632
     20.45005     17.15701     15.96244        -7.286794     -0.381591     -8.933699
     21.48503     17.56663     16.14521        10.322117      4.960038     -0.664578
 -----------------------------------------------------------------------------------
    total drift:                               -0.001662      0.006198      0.001252


--------------------------------------------------------------------------------------------------------



  FREE ENERGIE OF THE ION-ELECTRON SYSTEM (eV)
  ---------------------------------------------------
  free  energy   TOTEN  =      -172.96688242 eV

  energy  without entropy=     -172.93900445  energy(sigma->0) =     -172.95991293
 


--------------------------------------------------------------------------------------------------------


    POTLOK:  cpu time   14.1040: real time   14.1042


--------------------------------------------------------------------------------------------------------


     LOOP+:  cpu time18502.3155: real time18502.8279
    4ORBIT:  cpu time    0.0000: real time    0.0000

 total amount of memory used by VASP MPI-rank0  5486941. kBytes
=======================================================================

   base      :      30000. kBytes
   nonlr-proj:      17126. kBytes
   fftplans  :     924480. kBytes
   grid      :    1872000. kBytes
   one-center:        886. kBytes
   wavefun   :    2642449. kBytes
 
  
  
 General timing and accounting informations for this job:
 ========================================================
  
                  Total CPU time used (sec):    18578.422
                            User time (sec):    17548.537
                          System time (sec):     1029.885
                         Elapsed time (sec):    18578.979
  
                   Maximum memory used (kb):     7178608.
                   Average memory used (kb):           0.
  
                          Minor page faults:    826091324
                          Major page faults:            0
                 Voluntary context switches:          555
