 running on    1 total cores
 distrk:  each k-point on    1 cores,    1 groups
 distr:  one band on    1 cores,    1 groups
 using from now: INCAR     
 vasp.5.4.4.18Apr17-6-g9f103f2a35 (build Sep 03 2018 23:53:05) complex          
  
 POSCAR found type information on POSCAR  Pd C  O 
 POSCAR found :  3 types and      57 ions
 scaLAPACK will be used

 ----------------------------------------------------------------------------- 
|                                                                             |
|  ADVICE TO THIS USER RUNNING 'VASP/VAMP'   (HEAR YOUR MASTER'S VOICE ...):  |
|                                                                             |
|      You enforced a specific xc-type in the INCAR file,                     |
|      a different type was found on the POTCAR file                          |
|          I HOPE YOU KNOW, WHAT YOU ARE  DOING                               |
|                                                                             |
 ----------------------------------------------------------------------------- 

 LDA part: xc-table for Pade appr. of Perdew
 POSCAR, INCAR and KPOINTS ok, starting setup
 FFT: planning ...
 WAVECAR not read
 entering main loop
       N       E                     dE             d eps       ncg     rms          rms(c)
DAV:   1     0.438689225838E+04    0.43869E+04   -0.10051E+05   688   0.815E+02
DAV:   2     0.201043377969E+04   -0.23765E+04   -0.21385E+04  1224   0.106E+02
DAV:   3     0.230456068142E+03   -0.17800E+04   -0.16776E+04  1008   0.918E+01
DAV:   4    -0.135046737074E+03   -0.36550E+03   -0.31073E+03   832   0.433E+01
DAV:   5    -0.179788963543E+03   -0.44742E+02   -0.37051E+02  1048   0.145E+01    0.146E+01
RMM:   6    -0.178946910830E+03    0.84205E+00   -0.53006E+01   725   0.883E+00    0.203E+01
RMM:   7    -0.180898173902E+03   -0.19513E+01   -0.18630E+01   847   0.460E+00    0.195E+01
RMM:   8    -0.183976706031E+03   -0.30785E+01   -0.68985E+00   758   0.357E+00    0.272E+01
RMM:   9    -0.181969881627E+03    0.20068E+01   -0.38930E+00   764   0.275E+00    0.257E+01
RMM:  10    -0.179135302322E+03    0.28346E+01   -0.30055E+00   726   0.257E+00    0.213E+01
RMM:  11    -0.177678828121E+03    0.14565E+01   -0.14047E+00   736   0.175E+00    0.163E+01
RMM:  12    -0.176777899162E+03    0.90093E+00   -0.12158E+00   727   0.164E+00    0.147E+01
RMM:  13    -0.176545059083E+03    0.23284E+00   -0.14646E+00   721   0.173E+00    0.146E+01
RMM:  14    -0.177171150876E+03   -0.62609E+00   -0.12936E+00   709   0.167E+00    0.176E+01
RMM:  15    -0.176114786485E+03    0.10564E+01   -0.11431E+00   706   0.160E+00    0.111E+01
RMM:  16    -0.175496786474E+03    0.61800E+00   -0.73484E-01   703   0.130E+00    0.894E+00
RMM:  17    -0.175637418844E+03   -0.14063E+00   -0.36912E-01   717   0.915E-01    0.111E+01
RMM:  18    -0.175912989898E+03   -0.27557E+00   -0.38109E-01   714   0.933E-01    0.146E+01
RMM:  19    -0.175636185043E+03    0.27680E+00   -0.36820E-01   714   0.939E-01    0.102E+01
RMM:  20    -0.175228462748E+03    0.40772E+00   -0.29017E-01   703   0.854E-01    0.719E+00
RMM:  21    -0.175085954725E+03    0.14251E+00   -0.18453E-01   696   0.675E-01    0.563E+00
RMM:  22    -0.175168999842E+03   -0.83045E-01   -0.17637E-01   697   0.648E-01    0.703E+00
RMM:  23    -0.174999069332E+03    0.16993E+00   -0.13117E-01   694   0.585E-01    0.469E+00
RMM:  24    -0.174932764114E+03    0.66305E-01   -0.64377E-02   691   0.414E-01    0.330E+00
RMM:  25    -0.174927780904E+03    0.49832E-02   -0.58417E-02   693   0.368E-01    0.347E+00
RMM:  26    -0.174877444355E+03    0.50337E-01   -0.34214E-02   692   0.305E-01    0.205E+00
RMM:  27    -0.174873593975E+03    0.38504E-02   -0.19472E-02   694   0.230E-01    0.193E+00
RMM:  28    -0.174867291635E+03    0.63023E-02   -0.14805E-02   693   0.193E-01    0.197E+00
RMM:  29    -0.174855340597E+03    0.11951E-01   -0.83884E-03   696   0.158E-01    0.155E+00
RMM:  30    -0.174849263590E+03    0.60770E-02   -0.56377E-03   692   0.126E-01    0.115E+00
RMM:  31    -0.174843958532E+03    0.53051E-02   -0.49348E-03   692   0.112E-01    0.853E-01
RMM:  32    -0.174842804794E+03    0.11537E-02   -0.42849E-03   695   0.102E-01    0.971E-01
RMM:  33    -0.174841520449E+03    0.12843E-02   -0.40022E-03   691   0.102E-01    0.757E-01
RMM:  34    -0.174840726887E+03    0.79356E-03   -0.22246E-03   689   0.755E-02    0.539E-01
RMM:  35    -0.174841635392E+03   -0.90850E-03   -0.15607E-03   685   0.653E-02    0.507E-01
RMM:  36    -0.174842160577E+03   -0.52519E-03   -0.11734E-03   687   0.557E-02    0.315E-01
RMM:  37    -0.174843924163E+03   -0.17636E-02   -0.87940E-04   684   0.462E-02    0.314E-01
RMM:  38    -0.174847053073E+03   -0.31289E-02   -0.80037E-04   675   0.436E-02    0.312E-01
RMM:  39    -0.174848405256E+03   -0.13522E-02   -0.37042E-04   470   0.304E-02    0.217E-01
RMM:  40    -0.174851431486E+03   -0.30262E-02   -0.58767E-04   581   0.345E-02    0.199E-01
RMM:  41    -0.174853757187E+03   -0.23257E-02   -0.43674E-04   497   0.302E-02    0.197E-01
RMM:  42    -0.174856533069E+03   -0.27759E-02   -0.49548E-04   530   0.298E-02    0.181E-01
RMM:  43    -0.174858171727E+03   -0.16387E-02   -0.32398E-04   451   0.242E-02    0.973E-02
RMM:  44    -0.174859705050E+03   -0.15333E-02   -0.22468E-04   426   0.200E-02    0.115E-01
RMM:  45    -0.174861519949E+03   -0.18149E-02   -0.22539E-04   424   0.189E-02    0.732E-02
RMM:  46    -0.174862494413E+03   -0.97446E-03   -0.12903E-04   413   0.144E-02    0.721E-02
RMM:  47    -0.174863867425E+03   -0.13730E-02   -0.11862E-04   409   0.129E-02    0.610E-02
RMM:  48    -0.174864513160E+03   -0.64574E-03   -0.69284E-05   414   0.101E-02    0.294E-02
RMM:  49    -0.174865249394E+03   -0.73623E-03   -0.42667E-05   405   0.778E-03    0.429E-02
RMM:  50    -0.174866244463E+03   -0.99507E-03   -0.38252E-05   400   0.721E-03    0.259E-02
RMM:  51    -0.174866565582E+03   -0.32112E-03   -0.15660E-05   283   0.506E-03    0.213E-02
RMM:  52    -0.174867166469E+03   -0.60089E-03   -0.18278E-05   334   0.518E-03    0.243E-02
RMM:  53    -0.174867519827E+03   -0.35336E-03   -0.77358E-06   206   0.432E-03    0.990E-03
RMM:  54    -0.174867887396E+03   -0.36757E-03   -0.13078E-05   264   0.472E-03    0.159E-02
RMM:  55    -0.174868311408E+03   -0.42401E-03   -0.22046E-05   281   0.501E-03    0.854E-03
RMM:  56    -0.174868420731E+03   -0.10932E-03   -0.41806E-06   138   0.360E-03    0.756E-03
RMM:  57    -0.174868633347E+03   -0.21262E-03   -0.13333E-05   209   0.414E-03    0.596E-03
RMM:  58    -0.174868691486E+03   -0.58138E-04   -0.22568E-06   117   0.344E-03
   1 F= -.17486869E+03 E0= -.17483937E+03  d E =-.117304E+00
================================= SLURM INFO ===================================
Command: run-cluster -n 1 -m 10000 -j 0282_vasp --same-node /opt/VASP/vasp
Exit code: 0
Job name: 0282_vasp
Job time: 0 days 4h:58m:1s
MPI task count: 1
Working dir: /home/pashkov/pyFitIt/pyfitit/data/random_pd_co_new/sample/0282
Job was running on nodes: h6
Task per node: 1
       JobID     MaxRSS  MaxDiskRead MaxDiskWrite    Elapsed    JobName 
------------ ---------- ------------ ------------ ---------- ---------- 
105560                                              04:58:01  0282_vasp 
105560.batch                                        04:58:01      batch 
