 vasp.5.4.4.18Apr17-6-g9f103f2a35 (build Sep 03 2018 23:53:05) complex          
  
 executed on             LinuxIFC date 2021.11.26  06:57:34
 running on    1 total cores
 distrk:  each k-point on    1 cores,    1 groups
 distr:  one band on NCORES_PER_BAND=   1 cores,    1 groups


--------------------------------------------------------------------------------------------------------


 INCAR:
 POTCAR:    PAW_PBE Pd 04Jan2005                  
 POTCAR:    PAW_PBE C 08Apr2002                   
 POTCAR:    PAW_PBE O 08Apr2002                   
 POTCAR:    PAW_PBE Pd 04Jan2005                  
   VRHFIN =Pd : s1 d9                                                           
   LEXCH  = PE                                                                  
   EATOM  =   809.7530 eV,   59.5152 Ry                                         
                                                                                
   TITEL  = PAW_PBE Pd 04Jan2005                                                
   LULTRA =        F    use ultrasoft PP ?                                      
   IUNSCR =        1    unscreen: 0-lin 1-nonlin 2-no                           
   RPACOR =    2.000    partial core radius                                     
   POMASS =  106.420; ZVAL   =   10.000    mass and valenz                      
   RCORE  =    2.600    outmost cutoff radius                                   
   RWIGS  =    2.710; RWIGS  =    1.434    wigner-seitz radius (au A)           
   ENMAX  =  250.925; ENMIN  =  188.194 eV                                      
   ICORE  =        3    local potential                                         
   LCOR   =        T    correct aug charges                                     
   LPAW   =        T    paw PP                                                  
   EAUG   =  416.230                                                            
   DEXC   =    0.000                                                            
   RMAX   =    2.653    core radius for proj-oper                               
   RAUG   =    1.300    factor for augmentation sphere                          
   RDEP   =    2.734    radius for radial grids                                 
   RDEPT  =    2.103    core radius for aug-charge                              
                                                                                
   Atomic configuration                                                         
   12 entries                                                                   
     n  l   j            E        occ.                                          
     1  0  0.50    -24164.6631   2.0000                                         
     2  0  0.50     -3530.9218   2.0000                                         
     2  1  1.50     -3165.6822   6.0000                                         
     3  0  0.50      -639.4577   2.0000                                         
     3  1  1.50      -519.4532   6.0000                                         
     3  2  2.50      -328.9757  10.0000                                         
     4  0  0.50       -88.7014   2.0000                                         
     4  1  1.50       -54.4540   6.0000                                         
     4  2  2.50        -6.6878   9.0000                                         
     5  0  0.50        -4.3543   1.0000                                         
     5  1  0.50        -1.3606   0.0000                                         
     4  3  2.50        -1.3606   0.0000                                         
   Description                                                                  
     l       E           TYP  RCUT    TYP  RCUT                                 
     2     -6.6878251     23  2.400                                             
     2     -8.0484077     23  2.400                                             
     0     -4.3542939     23  2.400                                             
     0      4.3406793     23  2.400                                             
     1     -4.0817478     23  2.600                                             
     1     15.8380318     23  2.600                                             
     3     -4.0817478     23  2.400                                             
  local pseudopotential read in
  partial core-charges read in
  partial kinetic energy density read in
  atomic valenz-charges read in
  non local Contribution for L=           2  read in
    real space projection operators read in
  non local Contribution for L=           2  read in
    real space projection operators read in
  non local Contribution for L=           0  read in
    real space projection operators read in
  non local Contribution for L=           0  read in
    real space projection operators read in
  non local Contribution for L=           1  read in
    real space projection operators read in
  non local Contribution for L=           1  read in
    real space projection operators read in
    PAW grid and wavefunctions read in
 
   number of l-projection  operators is LMAX  =           6
   number of lm-projection operators is LMMAX =          18
 
 POTCAR:    PAW_PBE C 08Apr2002                   
   VRHFIN =C: s2p2                                                              
   LEXCH  = PE                                                                  
   EATOM  =   147.1560 eV,   10.8157 Ry                                         
                                                                                
   TITEL  = PAW_PBE C 08Apr2002                                                 
   LULTRA =        F    use ultrasoft PP ?                                      
   IUNSCR =        1    unscreen: 0-lin 1-nonlin 2-no                           
   RPACOR =    1.200    partial core radius                                     
   POMASS =   12.011; ZVAL   =    4.000    mass and valenz                      
   RCORE  =    1.500    outmost cutoff radius                                   
   RWIGS  =    1.630; RWIGS  =    0.863    wigner-seitz radius (au A)           
   ENMAX  =  400.000; ENMIN  =  300.000 eV                                      
   ICORE  =        2    local potential                                         
   LCOR   =        T    correct aug charges                                     
   LPAW   =        T    paw PP                                                  
   EAUG   =  644.873                                                            
   DEXC   =    0.000                                                            
   RMAX   =    1.529    core radius for proj-oper                               
   RAUG   =    1.300    factor for augmentation sphere                          
   RDEP   =    1.501    radius for radial grids                                 
   RDEPT  =    1.300    core radius for aug-charge                              
                                                                                
   Atomic configuration                                                         
    4 entries                                                                   
     n  l   j            E        occ.                                          
     1  0  0.50      -273.3789   2.0000                                         
     2  0  0.50       -13.7508   2.0000                                         
     2  1  0.50        -5.2854   2.0000                                         
     3  2  1.50        -5.4423   0.0000                                         
   Description                                                                  
     l       E           TYP  RCUT    TYP  RCUT                                 
     0    -13.7508458     23  1.200                                             
     0     -8.2022199     23  1.200                                             
     1     -5.2854383     23  1.500                                             
     1     34.0145650     23  1.500                                             
     2     -5.4423304      7  1.500                                             
  local pseudopotential read in
  partial core-charges read in
  partial kinetic energy density read in
  atomic valenz-charges read in
  non local Contribution for L=           0  read in
    real space projection operators read in
  non local Contribution for L=           0  read in
    real space projection operators read in
  non local Contribution for L=           1  read in
    real space projection operators read in
  non local Contribution for L=           1  read in
    real space projection operators read in
    PAW grid and wavefunctions read in
 
   number of l-projection  operators is LMAX  =           4
   number of lm-projection operators is LMMAX =           8
 
 POTCAR:    PAW_PBE O 08Apr2002                   
   VRHFIN =O: s2p4                                                              
   LEXCH  = PE                                                                  
   EATOM  =   432.3788 eV,   31.7789 Ry                                         
                                                                                
   TITEL  = PAW_PBE O 08Apr2002                                                 
   LULTRA =        F    use ultrasoft PP ?                                      
   IUNSCR =        1    unscreen: 0-lin 1-nonlin 2-no                           
   RPACOR =    1.200    partial core radius                                     
   POMASS =   16.000; ZVAL   =    6.000    mass and valenz                      
   RCORE  =    1.520    outmost cutoff radius                                   
   RWIGS  =    1.550; RWIGS  =    0.820    wigner-seitz radius (au A)           
   ENMAX  =  400.000; ENMIN  =  300.000 eV                                      
   ICORE  =        2    local potential                                         
   LCOR   =        T    correct aug charges                                     
   LPAW   =        T    paw PP                                                  
   EAUG   =  605.392                                                            
   DEXC   =    0.000                                                            
   RMAX   =    1.553    core radius for proj-oper                               
   RAUG   =    1.300    factor for augmentation sphere                          
   RDEP   =    1.550    radius for radial grids                                 
   RDEPT  =    1.329    core radius for aug-charge                              
                                                                                
   Atomic configuration                                                         
    4 entries                                                                   
     n  l   j            E        occ.                                          
     1  0  0.50      -514.6923   2.0000                                         
     2  0  0.50       -23.9615   2.0000                                         
     2  1  0.50        -9.0305   4.0000                                         
     3  2  1.50        -9.5241   0.0000                                         
   Description                                                                  
     l       E           TYP  RCUT    TYP  RCUT                                 
     0    -23.9615318     23  1.200                                             
     0     -9.5240782     23  1.200                                             
     1     -9.0304911     23  1.520                                             
     1      8.1634956     23  1.520                                             
     2     -9.5240782      7  1.500                                             
  local pseudopotential read in
  partial core-charges read in
  partial kinetic energy density read in
  kinetic energy density of atom read in
  atomic valenz-charges read in
  non local Contribution for L=           0  read in
    real space projection operators read in
  non local Contribution for L=           0  read in
    real space projection operators read in
  non local Contribution for L=           1  read in
    real space projection operators read in
  non local Contribution for L=           1  read in
    real space projection operators read in
    PAW grid and wavefunctions read in
 
   number of l-projection  operators is LMAX  =           4
   number of lm-projection operators is LMMAX =           8
 
 Optimization of the real space projectors (new method)

 maximal supplied QI-value         = 14.36
 optimisation between [QCUT,QGAM] = [ 10.20, 20.39] = [ 29.12,116.47] Ry 
 Optimized for a Real-space Cutoff    1.51 Angstroem

   l    n(q)    QCUT    max X(q) W(low)/X(q) W(high)/X(q)  e(spline) 
   2      8    10.197    59.108    0.26E-03    0.14E-03    0.96E-07
   2      8    10.197    58.101    0.27E-03    0.14E-03    0.98E-07
   0      9    10.197   102.235    0.54E-04    0.60E-05    0.72E-07
   0      9    10.197    58.388    0.52E-04    0.60E-05    0.68E-07
   1      9    10.197    22.191    0.18E-03    0.25E-03    0.79E-07
   1      9    10.197    15.590    0.15E-03    0.21E-03    0.69E-07
 Optimization of the real space projectors (new method)

 maximal supplied QI-value         = 25.13
 optimisation between [QCUT,QGAM] = [ 10.05, 20.36] = [ 28.30,116.06] Ry 
 Optimized for a Real-space Cutoff    1.30 Angstroem

   l    n(q)    QCUT    max X(q) W(low)/X(q) W(high)/X(q)  e(spline) 
   0      8    10.053   115.676    0.49E-03    0.72E-03    0.18E-06
   0      8    10.053    87.132    0.49E-03    0.71E-03    0.18E-06
   1      7    10.053     4.429    0.32E-03    0.31E-03    0.18E-06
   1      7    10.053     2.733    0.23E-03    0.19E-03    0.20E-06
 Optimization of the real space projectors (new method)

 maximal supplied QI-value         = 24.76
 optimisation between [QCUT,QGAM] = [ 10.15, 20.30] = [ 28.85,115.39] Ry 
 Optimized for a Real-space Cutoff    1.38 Angstroem

   l    n(q)    QCUT    max X(q) W(low)/X(q) W(high)/X(q)  e(spline) 
   0      8    10.150    20.381    0.22E-03    0.32E-03    0.29E-06
   0      8    10.150    15.268    0.23E-03    0.35E-03    0.30E-06
   1      8    10.150     5.964    0.46E-03    0.53E-03    0.21E-06
   1      8    10.150     5.382    0.38E-03    0.45E-03    0.19E-06

 ----------------------------------------------------------------------------- 
|                                                                             |
|  ADVICE TO THIS USER RUNNING 'VASP/VAMP'   (HEAR YOUR MASTER'S VOICE ...):  |
|                                                                             |
|      You enforced a specific xc-type in the INCAR file,                     |
|      a different type was found on the POTCAR file                          |
|          I HOPE YOU KNOW, WHAT YOU ARE  DOING                               |
|                                                                             |
 ----------------------------------------------------------------------------- 

  PAW_PBE Pd 04Jan2005                  :
 energy of atom  1       EATOM= -809.7530
 kinetic energy error for atom=    0.0091 (will be added to EATOM!!)
  PAW_PBE C 08Apr2002                   :
 energy of atom  2       EATOM= -147.1560
 kinetic energy error for atom=    0.0288 (will be added to EATOM!!)
  PAW_PBE O 08Apr2002                   :
 energy of atom  3       EATOM= -432.3788
 kinetic energy error for atom=    0.1156 (will be added to EATOM!!)
 
 
 POSCAR: Pd55PES                                 
  positions in cartesian coordinates
  No initial velocities read in
 exchange correlation table for  LEXCH =        9
   RHO(1)=    0.500       N(1)  =     2000
   RHO(2)=  100.500       N(2)  =     4000
 


--------------------------------------------------------------------------------------------------------


 ion  position               nearest neighbor table
   1  0.446  0.328  0.417-   3 3.25   5 3.25   7 3.36  15 3.36  29 3.42  28 3.42
   2  0.672  0.554  0.417-  26 3.25  30 3.25  17 3.36   9 3.36  47 3.42  49 3.42
   3  0.554  0.328  0.417-   1 3.25   5 3.25   7 3.36  11 3.36  29 3.42  21 3.42
   4  0.328  0.554  0.417-  32 3.25  22 3.25  13 3.36   8 3.36  43 3.42  48 3.42
   5  0.500  0.383  0.340-   1 3.25   3 3.25  11 3.36  15 3.36  21 3.42  28 3.42
   6  0.500  0.383  0.660-  24 3.25  19 3.25  16 3.36  12 3.36  42 3.42  44 3.42
   7  0.500  0.276  0.500-  29 3.24   3 3.36   1 3.36  19 3.36  24 3.36
   8  0.276  0.500  0.500-  48 3.24  22 3.36  40 3.36   4 3.36  25 3.36
   9  0.724  0.500  0.500-  49 3.24  26 3.36  45 3.36   2 3.36  20 3.36
  10  0.500  0.724  0.500-  55 3.24  27 3.36  23 3.36  46 3.36  41 3.36
  11  0.612  0.388  0.342-  21 3.24   5 3.36   3 3.36  30 3.36  26 3.36
  12  0.612  0.388  0.658-  42 3.24  24 3.36  45 3.36   6 3.36  31 3.36
  13  0.388  0.612  0.342-  43 3.24  32 3.36  50 3.36   4 3.36  27 3.36
  14  0.388  0.612  0.658-  53 3.24  25 3.36  33 3.36  51 3.36  46 3.36
  15  0.388  0.388  0.342-  28 3.24   5 3.36   1 3.36  32 3.36  22 3.36
  16  0.388  0.388  0.658-  44 3.24  19 3.36  40 3.36   6 3.36  33 3.36
  17  0.612  0.612  0.342-  47 3.24  30 3.36  50 3.36   2 3.36  23 3.36
  18  0.612  0.612  0.658-  54 3.24  31 3.36  20 3.36  51 3.36  41 3.36
  19  0.446  0.328  0.583-   6 3.25  24 3.25  16 3.36   7 3.36  44 3.42  29 3.42
  20  0.672  0.554  0.583-  31 3.25  45 3.25  18 3.36   9 3.36  54 3.42  49 3.42
  21  0.558  0.442  0.418-  11 3.24   5 3.42   3 3.42  30 3.42  26 3.42
  22  0.328  0.446  0.417-   4 3.25  32 3.25   8 3.36  15 3.36  48 3.42  28 3.42
  23  0.554  0.672  0.417-  27 3.25  50 3.25  10 3.36  17 3.36  55 3.42  47 3.42
  24  0.554  0.328  0.583-   6 3.25  19 3.25  12 3.36   7 3.36  42 3.42  29 3.42
  25  0.328  0.554  0.583-  33 3.25  40 3.25  14 3.36   8 3.36  53 3.42  48 3.42
  26  0.672  0.446  0.417-   2 3.25  30 3.25   9 3.36  11 3.36  49 3.42  21 3.42
  27  0.446  0.672  0.417-  23 3.25  50 3.25  10 3.36  13 3.36  55 3.42  43 3.42
  28  0.442  0.442  0.418-  15 3.24   5 3.42   1 3.42  32 3.42  22 3.42
  29  0.500  0.384  0.500-   7 3.24   3 3.42   1 3.42  24 3.42  19 3.42
  30  0.617  0.500  0.340-   2 3.25  26 3.25  17 3.36  11 3.36  47 3.42  21 3.42
  31  0.617  0.500  0.660-  20 3.25  45 3.25  18 3.36  12 3.36  54 3.42  42 3.42
  32  0.383  0.500  0.340-   4 3.25  22 3.25  13 3.36  15 3.36  43 3.42  28 3.42
  33  0.383  0.500  0.660-  25 3.25  40 3.25  14 3.36  16 3.36  53 3.42  44 3.42
  34  0.383  0.383  0.500-
  35  0.617  0.617  0.500-
  36  0.617  0.383  0.500-
  37  0.383  0.617  0.500-
  38  0.500  0.500  0.335-
  39  0.500  0.500  0.665-  56 2.62
  40  0.328  0.446  0.583-  33 3.25  25 3.25  16 3.36   8 3.36  44 3.42  48 3.42
  41  0.554  0.672  0.583-  46 3.25  51 3.25  10 3.36  18 3.36  54 3.42  55 3.42
  42  0.558  0.442  0.582-  12 3.24   6 3.42  24 3.42  31 3.42  45 3.42
  43  0.442  0.558  0.418-  13 3.24   4 3.42  32 3.42  27 3.42  50 3.42
  44  0.442  0.442  0.582-  16 3.24   6 3.42  19 3.42  33 3.42  40 3.42
  45  0.672  0.446  0.583-  20 3.25  31 3.25   9 3.36  12 3.36  49 3.42  42 3.42
  46  0.446  0.672  0.583-  41 3.25  51 3.25  10 3.36  14 3.36  53 3.42  55 3.42
  47  0.558  0.558  0.418-  17 3.24   2 3.42  30 3.42  23 3.42  50 3.42
  48  0.384  0.500  0.500-   8 3.24   4 3.42  22 3.42  25 3.42  40 3.42
  49  0.616  0.500  0.500-   9 3.24   2 3.42  26 3.42  20 3.42  45 3.42
  50  0.500  0.617  0.340-  27 3.25  23 3.25  13 3.36  17 3.36  43 3.42  47 3.42
  51  0.500  0.617  0.660-  41 3.25  46 3.25  14 3.36  18 3.36  53 3.42  54 3.42
  52  0.500  0.500  0.500-
  53  0.442  0.558  0.582-  14 3.24  25 3.42  33 3.42  51 3.42  46 3.42
  54  0.558  0.558  0.582-  18 3.24  31 3.42  20 3.42  51 3.42  41 3.42
  55  0.500  0.616  0.500-  10 3.24  23 3.42  27 3.42  41 3.42  46 3.42
  56  0.518  0.540  0.741-  57 1.13  39 2.62
  57  0.521  0.546  0.778-  56 1.13
 
  LATTYP: Found a simple cubic cell.
 ALAT       =    30.0000000000
  
  Lattice vectors:
  
 A1 = (  30.0000000000,   0.0000000000,   0.0000000000)
 A2 = (   0.0000000000,  30.0000000000,   0.0000000000)
 A3 = (   0.0000000000,   0.0000000000,  30.0000000000)


Analysis of symmetry for initial positions (statically):
=====================================================================
 Subroutine PRICEL returns:
 Original cell was already a primitive cell.
 

 Routine SETGRP: Setting up the symmetry group for a 
 simple cubic supercell.


 Subroutine GETGRP returns: Found  1 space group operations
 (whereof  1 operations were pure point group operations)
 out of a pool of 48 trial point group operations.


The static configuration has the point symmetry C_1 .


Analysis of symmetry for dynamics (positions and initial velocities):
=====================================================================
 Subroutine PRICEL returns:
 Original cell was already a primitive cell.
 

 Routine SETGRP: Setting up the symmetry group for a 
 simple cubic supercell.


 Subroutine GETGRP returns: Found  1 space group operations
 (whereof  1 operations were pure point group operations)
 out of a pool of 48 trial point group operations.


The dynamic configuration has the point symmetry C_1 .


Analysis of constrained symmetry for selective dynamics:
=====================================================================
 Subroutine PRICEL returns:
 Original cell was already a primitive cell.
 

 Routine SETGRP: Setting up the symmetry group for a 
 simple cubic supercell.


 Subroutine GETGRP returns: Found  1 space group operations
 (whereof  1 operations were pure point group operations)
 out of a pool of 48 trial point group operations.


The constrained configuration has the point symmetry C_1 .


 Subroutine INISYM returns: Found  1 space group operations
 (whereof  1 operations are pure point group operations),
 and found     1 'primitive' translations

 
 
 KPOINTS: K-points                                

Automatic generation of k-mesh.
Space group operators:
 irot       det(A)        alpha          n_x          n_y          n_z        tau_x        tau_y        tau_z
    1     1.000000     0.000000     1.000000     0.000000     0.000000     0.000000     0.000000     0.000000
 
 Subroutine IBZKPT returns following result:
 ===========================================
 
 Found      1 irreducible k-points:
 
 Following reciprocal coordinates:
            Coordinates               Weight
  0.000000  0.000000  0.000000      1.000000
 
 Following cartesian coordinates:
            Coordinates               Weight
  0.000000  0.000000  0.000000      1.000000
 


--------------------------------------------------------------------------------------------------------




 Dimension of arrays:
   k-points           NKPTS =      1   k-points in BZ     NKDIM =      1   number of bands    NBANDS=    336
   number of dos      NEDOS =    301   number of ions     NIONS =     57
   non local maximal  LDIM  =      6   non local SUM 2l+1 LMDIM =     18
   total plane-waves  NPLWV = ******
   max r-space proj   IRMAX =   1847   max aug-charges    IRDMAX=   6262
   dimension x,y,z NGX =   150 NGY =  150 NGZ =  150
   dimension x,y,z NGXF=   300 NGYF=  300 NGZF=  300
   support grid    NGXF=   300 NGYF=  300 NGZF=  300
   ions per type =              55   1   1
   NGX,Y,Z   is equivalent  to a cutoff of   8.31,  8.31,  8.31 a.u.
   NGXF,Y,Z  is equivalent  to a cutoff of  16.62, 16.62, 16.62 a.u.

 SYSTEM =  6_Pd100_top_free_z(O)                   
 POSCAR =  Pd55PES                                 

 Startparameter for this run:
   NWRITE =      2    write-flag & timer
   PREC   = normal    normal or accurate (medium, high low for compatibility)
   ISTART =      0    job   : 0-new  1-cont  2-samecut
   ICHARG =      2    charge: 1-file 2-atom 10-const
   ISPIN  =      1    spin polarized calculation?
   LNONCOLLINEAR =      F non collinear calculations
   LSORBIT =      F    spin-orbit coupling
   INIWAV =      1    electr: 0-lowe 1-rand  2-diag
   LASPH  =      F    aspherical Exc in radial PAW
   METAGGA=      F    non-selfconsistent MetaGGA calc.

 Electronic Relaxation 1
   ENCUT  =  400.0 eV  29.40 Ry    5.42 a.u.  48.92 48.92 48.92*2*pi/ulx,y,z
   ENINI  =  400.0     initial cutoff
   ENAUG  =  644.9 eV  augmentation charge cutoff
   NELM   =    100;   NELMIN=  6; NELMDL= -5     # of ELM steps 
   EDIFF  = 0.1E-03   stopping-criterion for ELM
   LREAL  =      T    real-space projection
   NLSPLINE    = F    spline interpolate recip. space projectors
   LCOMPAT=      F    compatible to vasp.4.4
   GGA_COMPAT  = T    GGA compatible to vasp.4.4-vasp.4.6
   LMAXPAW     = -100 max onsite density
   LMAXMIX     =    2 max onsite mixed and CHGCAR
   VOSKOWN=      0    Vosko Wilk Nusair interpolation
   ROPT   =   -0.00050  -0.00050  -0.00050
 Ionic relaxation
   EDIFFG = -.5E-01   stopping-criterion for IOM
   NSW    =      0    number of steps for IOM
   NBLOCK =      1;   KBLOCK =      1    inner block; outer block 
   IBRION =     -1    ionic relax: 0-MD 1-quasi-New 2-CG
   NFREE  =      1    steps in history (QN), initial steepest desc. (CG)
   ISIF   =      2    stress and relaxation
   IWAVPR =     10    prediction:  0-non 1-charg 2-wave 3-comb
   ISYM   =      2    0-nonsym 1-usesym 2-fastsym
   LCORR  =      T    Harris-Foulkes like correction to forces

   POTIM  = 0.5000    time-step for ionic-motion
   TEIN   =    0.0    initial temperature
   TEBEG  =    0.0;   TEEND  =   0.0 temperature during run
   SMASS  =  -3.00    Nose mass-parameter (am)
   estimated Nose-frequenzy (Omega)   =  0.10E-29 period in steps =****** mass=  -0.206E-25a.u.
   SCALEE = 1.0000    scale energy and forces
   NPACO  =    256;   APACO  = 16.0  distance and # of slots for P.C.
   PSTRESS=    0.0 pullay stress

  Mass of Ions in am
   POMASS = 106.42 12.01 16.00
  Ionic Valenz
   ZVAL   =  10.00  4.00  6.00
  Atomic Wigner-Seitz radii
   RWIGS  =  -1.00 -1.00 -1.00
  virtual crystal weights 
   VCA    =   1.00  1.00  1.00
   NELECT =     560.0000    total number of electrons
   NUPDOWN=      -1.0000    fix difference up-down

 DOS related values:
   EMIN   =  10.00;   EMAX   =-10.00  energy-range for DOS
   EFERMI =   0.00
   ISMEAR =     2;   SIGMA  =   0.20  broadening in eV -4-tet -1-fermi 0-gaus

 Electronic relaxation 2 (details)
   IALGO  =     68    algorithm
   LDIAG  =      T    sub-space diagonalisation (order eigenvalues)
   LSUBROT=      F    optimize rotation matrix (better conditioning)
   TURBO    =      0    0=normal 1=particle mesh
   IRESTART =      0    0=no restart 2=restart with 2 vectors
   NREBOOT  =      0    no. of reboots
   NMIN     =      0    reboot dimension
   EREF     =   0.00    reference energy to select bands
   IMIX   =      4    mixing-type and parameters
     AMIX     =   0.40;   BMIX     =  1.00
     AMIX_MAG =   1.60;   BMIX_MAG =  1.00
     AMIN     =   0.10
     WC   =   100.;   INIMIX=   1;  MIXPRE=   1;  MAXMIX= -45

 Intra band minimization:
   WEIMIN = 0.0000     energy-eigenvalue tresh-hold
   EBREAK =  0.74E-07  absolut break condition
   DEPER  =   0.30     relativ break condition  

   TIME   =   0.40     timestep for ELM

  volume/ion in A,a.u.               =     473.68      3196.58
  Fermi-wavevector in a.u.,A,eV,Ry     =   0.449797  0.849992  2.752691  0.202317
  Thomas-Fermi vector in A             =   1.430086
 
 Write flags
   LWAVE        =      F    write WAVECAR
   LDOWNSAMPLE  =      F    k-point downsampling of WAVECAR
   LCHARG       =      F    write CHGCAR
   LVTOT        =      F    write LOCPOT, total local potential
   LVHAR        =      F    write LOCPOT, Hartree potential only
   LELF         =      F    write electronic localiz. function (ELF)
   LORBIT       =      0    0 simple, 1 ext, 2 COOP (PROOUT), +10 PAW based schemes


 Dipole corrections
   LMONO  =      F    monopole corrections only (constant potential shift)
   LDIPOL =      F    correct potential (dipole corrections)
   IDIPOL =      0    1-x, 2-y, 3-z, 4-all directions 
   EPSILON=  1.0000000 bulk dielectric constant

 Exchange correlation treatment:
   GGA     =    RP    GGA type
   LEXCH   =     9    internal setting for exchange type
   VOSKOWN=      0    Vosko Wilk Nusair interpolation
   LHFCALC =     F    Hartree Fock is set to
   LHFONE  =     F    Hartree Fock one center treatment
   AEXX    =    0.0000 exact exchange contribution

 Linear response parameters
   LEPSILON=     F    determine dielectric tensor
   LRPA    =     F    only Hartree local field effects (RPA)
   LNABLA  =     F    use nabla operator in PAW spheres
   LVEL    =     F    velocity operator in full k-point grid
   LINTERFAST=   F  fast interpolation
   KINTER  =     0    interpolate to denser k-point grid
   CSHIFT  =0.1000    complex shift for real part using Kramers Kronig
   OMEGAMAX=  -1.0    maximum frequency
   DEG_THRESHOLD= 0.2000000E-02 threshold for treating states as degnerate
   RTIME   =   -0.100 relaxation time in fs
  (WPLASMAI=    0.000 imaginary part of plasma frequency in eV, 0.658/RTIME)
   DFIELD  = 0.0000000 0.0000000 0.0000000 field for delta impulse in time
 
 Orbital magnetization related:
   ORBITALMAG=     F  switch on orbital magnetization
   LCHIMAG   =     F  perturbation theory with respect to B field
   DQ        =  0.001000  dq finite difference perturbation B field
   LLRAUG    =     F  two centre corrections for induced B field



--------------------------------------------------------------------------------------------------------


 Static calculation
 charge density and potential will be updated during run
 non-spin polarized calculation
 RMM-DIIS sequential band-by-band and
  variant of blocked Davidson during initial phase
 perform sub-space diagonalisation
    before iterative eigenvector-optimisation
 modified Broyden-mixing scheme, WC =      100.0
 initial mixing is a Kerker type mixing with AMIX =  0.4000 and BMIX =      1.0000
 Hartree-type preconditioning will be used
 using additional bands           56
 real space projection scheme for non local part
 use partial core corrections
 calculate Harris-corrections to forces 
   (improved forces if not selfconsistent)
 use gradient corrections 
 use of overlap-Matrix (Vanderbilt PP)
 Methfessel and Paxton  Order N= 2 SIGMA  =   0.20


--------------------------------------------------------------------------------------------------------


  energy-cutoff  :      400.00
  volume of cell :    27000.00
      direct lattice vectors                 reciprocal lattice vectors
    30.000000000  0.000000000  0.000000000     0.033333333  0.000000000  0.000000000
     0.000000000 30.000000000  0.000000000     0.000000000  0.033333333  0.000000000
     0.000000000  0.000000000 30.000000000     0.000000000  0.000000000  0.033333333

  length of vectors
    30.000000000 30.000000000 30.000000000     0.033333333  0.033333333  0.033333333


 
 k-points in units of 2pi/SCALE and weight: K-points                                
   0.00000000  0.00000000  0.00000000       1.000
 
 k-points in reciprocal lattice and weights: K-points                                
   0.00000000  0.00000000  0.00000000       1.000
 
 position of ions in fractional coordinates (direct lattice) 
   0.44576020  0.32826710  0.41691983
   0.67173288  0.55423978  0.41691983
   0.55423980  0.32826710  0.41691983
   0.32826712  0.55423978  0.41691983
   0.50000000  0.38250690  0.34021317
   0.50000000  0.38250690  0.65978680
   0.50000000  0.27609440  0.50000000
   0.27609443  0.49999998  0.50000000
   0.72390557  0.49999998  0.50000000
   0.50000000  0.72390555  0.50000000
   0.61195280  0.38804720  0.34167483
   0.61195280  0.38804720  0.65832513
   0.38804722  0.61195278  0.34167483
   0.38804722  0.61195278  0.65832513
   0.38804720  0.38804720  0.34167483
   0.38804720  0.38804720  0.65832513
   0.61195278  0.61195278  0.34167483
   0.61195278  0.61195278  0.65832513
   0.44576020  0.32826710  0.58308023
   0.67173288  0.55423978  0.58308023
   0.55791699  0.44208301  0.41809300
   0.32826705  0.44576024  0.41691983
   0.55423973  0.67173293  0.41691983
   0.55423980  0.32826710  0.58308023
   0.32826712  0.55423978  0.58308023
   0.67173295  0.44576024  0.41691983
   0.44576027  0.67173293  0.41691983
   0.44208301  0.44208301  0.41809300
   0.50000000  0.38416601  0.50000000
   0.61749315  0.50000005  0.34021317
   0.61749315  0.50000005  0.65978680
   0.38250685  0.50000005  0.34021317
   0.38250685  0.50000005  0.65978680
   0.38317830  0.38317830  0.50000000
   0.61682172  0.61682172  0.50000000
   0.61682170  0.38317830  0.50000000
   0.38317828  0.61682172  0.50000000
   0.50000000  0.50000000  0.33478917
   0.50000000  0.50000000  0.66521087
   0.32826705  0.44576024  0.58308023
   0.55423973  0.67173293  0.58308023
   0.55791699  0.44208301  0.58190703
   0.44208298  0.55791702  0.41809300
   0.44208301  0.44208301  0.58190703
   0.67173295  0.44576024  0.58308023
   0.44576027  0.67173293  0.58308023
   0.55791702  0.55791702  0.41809300
   0.38416599  0.50000002  0.50000000
   0.61583401  0.50000002  0.50000000
   0.50000000  0.61749319  0.34021317
   0.50000000  0.61749319  0.65978680
   0.50000000  0.50000000  0.50000000
   0.44208298  0.55791702  0.58190703
   0.55791702  0.55791702  0.58190703
   0.50000000  0.61583404  0.50000000
   0.51824650  0.53951507  0.74111003
   0.52104670  0.54557923  0.77811200
 
 position of ions in cartesian coordinates  (Angst):
  13.37280588  9.84801292 12.50759500
  20.15198637 16.62719342 12.50759500
  16.62719412  9.84801292 12.50759500
   9.84801363 16.62719342 12.50759500
  15.00000000 11.47520705 10.20639500
  15.00000000 11.47520705 19.79360400
  15.00000000  8.28283206 15.00000000
   8.28283277 14.99999929 15.00000000
  21.71716723 14.99999929 15.00000000
  15.00000000 21.71716652 14.99999999
  18.35858397 11.64141603 10.25024500
  18.35858397 11.64141603 19.74975399
  11.64141674 18.35858326 10.25024500
  11.64141674 18.35858326 19.74975400
  11.64141603 11.64141603 10.25024500
  11.64141603 11.64141603 19.74975400
  18.35858326 18.35858326 10.25024500
  18.35858326 18.35858326 19.74975400
  13.37280588  9.84801291 17.49240700
  20.15198638 16.62719341 17.49240700
  16.73750985 13.26249015 12.54279000
   9.84801151 13.37280729 12.50759500
  16.62719200 20.15198779 12.50759500
  16.62719412  9.84801292 17.49240700
   9.84801363 16.62719342 17.49240700
  20.15198849 13.37280729 12.50759500
  13.37280800 20.15198779 12.50759500
  13.26249015 13.26249015 12.54279000
  15.00000000 11.52498029 15.00000000
  18.52479437 15.00000140 10.20639500
  18.52479437 15.00000141 19.79360400
  11.47520562 15.00000141 10.20639501
  11.47520563 15.00000141 19.79360400
  11.49534898 11.49534898 15.00000000
  18.50465172 18.50465172 15.00000000
  18.50465102 11.49534898 15.00000000
  11.49534828 18.50465172 15.00000000
  15.00000000 15.00000000 10.04367500
  15.00000000 15.00000000 19.95632599
   9.84801151 13.37280729 17.49240700
  16.62719200 20.15198779 17.49240700
  16.73750985 13.26249015 17.45721100
  13.26248944 16.73751056 12.54279001
  13.26249015 13.26249015 17.45721100
  20.15198849 13.37280729 17.49240699
  13.37280800 20.15198779 17.49240700
  16.73751056 16.73751056 12.54279000
  11.52497959 15.00000071 15.00000000
  18.47502041 15.00000071 15.00000000
  14.99999999 18.52479579 10.20639500
  15.00000000 18.52479578 19.79360400
  15.00000000 15.00000000 15.00000000
  13.26248944 16.73751057 17.45721101
  16.73751056 16.73751057 17.45721100
  15.00000000 18.47502112 15.00000000
  15.54739500 16.18545200 22.23330100
  15.63140100 16.36737700 23.34336000
 


--------------------------------------------------------------------------------------------------------


 k-point  1 :   0.0000 0.0000 0.0000  plane waves:  490521

 maximum and minimum number of plane-waves per node :    490521   490521

 maximum number of plane-waves:    490521
 maximum index in each direction: 
   IXMAX=   48   IYMAX=   48   IZMAX=   48
   IXMIN=  -48   IYMIN=  -48   IZMIN=  -48


 serial   3D FFT for wavefunctions
 parallel 3D FFT for charge:
    minimum data exchange during FFTs selected (reduces bandwidth)


 total amount of memory used by VASP MPI-rank0  5486941. kBytes
=======================================================================

   base      :      30000. kBytes
   nonlr-proj:      17126. kBytes
   fftplans  :     924480. kBytes
   grid      :    1872000. kBytes
   one-center:        886. kBytes
   wavefun   :    2642449. kBytes
 
     INWAV:  cpu time    0.0001: real time    0.0004
 Broyden mixing: mesh for mixing (old mesh)
   NGX = 97   NGY = 97   NGZ = 97
  (NGX  =300   NGY  =300   NGZ  =300)
  gives a total of 912673 points

 initial charge density was supplied:
 charge density of overlapping atoms calculated
 number of electron     560.0000000 magnetization 
 keeping initial charge density in first step


--------------------------------------------------------------------------------------------------------


 Maximum index for non-local projection operator         1763
 Maximum index for augmentation-charges         5898 (set IRDMAX)


--------------------------------------------------------------------------------------------------------


 First call to EWALD:  gamma=   0.059
 Maximum number of real-space cells 3x 3x 3
 Maximum number of reciprocal cells 3x 3x 3

    FEWALD:  cpu time    0.0147: real time    0.0147


--------------------------------------- Iteration      1(   1)  ---------------------------------------


    POTLOK:  cpu time   14.3786: real time   14.3848
    SETDIJ:  cpu time    0.1176: real time    0.1176
     EDDAV:  cpu time  368.5146: real time  368.6099
       DOS:  cpu time    0.0013: real time    0.0013
    --------------------------------------------
      LOOP:  cpu time  383.0122: real time  383.1136

 eigenvalue-minimisations  :   688
 total energy-change (2. order) : 0.4383964E+04  (-0.1004728E+05)
 number of electron     560.0000000 magnetization 
 augmentation part      560.0000000 magnetization 

 Free energy of the ion-electron system (eV)
  ---------------------------------------------------
  alpha Z        PSCENC =        75.25431677
  Ewald energy   TEWEN  =    138125.07436415
  -Hartree energ DENC   =   -181492.74567748
  -exchange      EXHF   =         0.00000000
  -V(xc)+E(xc)   XCENC  =     -1703.91567161
  PAW double counting   =     44873.02882129   -41398.84523641
  entropy T*S    EENTRO =         0.02799371
  eigenvalues    EBANDS =       819.58005164
  atomic energy  EATOM  =     45086.50549395
  Solvation  Ediel_sol  =         0.00000000
  ---------------------------------------------------
  free energy    TOTEN  =      4383.96445602 eV

  energy without entropy =     4383.93646230  energy(sigma->0) =     4383.95745759


--------------------------------------------------------------------------------------------------------




--------------------------------------- Iteration      1(   2)  ---------------------------------------


     EDDAV:  cpu time  577.9067: real time  577.9650
       DOS:  cpu time    0.0012: real time    0.0012
    --------------------------------------------
      LOOP:  cpu time  577.9080: real time  577.9663

 eigenvalue-minimisations  :  1208
 total energy-change (2. order) :-0.2354855E+04  (-0.2115353E+04)
 number of electron     560.0000000 magnetization 
 augmentation part      560.0000000 magnetization 

 Free energy of the ion-electron system (eV)
  ---------------------------------------------------
  alpha Z        PSCENC =        75.25431677
  Ewald energy   TEWEN  =    138125.07436415
  -Hartree energ DENC   =   -181492.74567748
  -exchange      EXHF   =         0.00000000
  -V(xc)+E(xc)   XCENC  =     -1703.91567161
  PAW double counting   =     44873.02882129   -41398.84523641
  entropy T*S    EENTRO =         0.00010933
  eigenvalues    EBANDS =     -1535.24708923
  atomic energy  EATOM  =     45086.50549395
  Solvation  Ediel_sol  =         0.00000000
  ---------------------------------------------------
  free energy    TOTEN  =      2029.10943077 eV

  energy without entropy =     2029.10932143  energy(sigma->0) =     2029.10940344


--------------------------------------------------------------------------------------------------------




--------------------------------------- Iteration      1(   3)  ---------------------------------------


     EDDAV:  cpu time  492.3140: real time  492.3286
       DOS:  cpu time    0.0010: real time    0.0010
    --------------------------------------------
      LOOP:  cpu time  492.3151: real time  492.3297

 eigenvalue-minimisations  :  1000
 total energy-change (2. order) :-0.1785618E+04  (-0.1676138E+04)
 number of electron     560.0000000 magnetization 
 augmentation part      560.0000000 magnetization 

 Free energy of the ion-electron system (eV)
  ---------------------------------------------------
  alpha Z        PSCENC =        75.25431677
  Ewald energy   TEWEN  =    138125.07436415
  -Hartree energ DENC   =   -181492.74567748
  -exchange      EXHF   =         0.00000000
  -V(xc)+E(xc)   XCENC  =     -1703.91567161
  PAW double counting   =     44873.02882129   -41398.84523641
  entropy T*S    EENTRO =        -0.00284824
  eigenvalues    EBANDS =     -3320.86247965
  atomic energy  EATOM  =     45086.50549395
  Solvation  Ediel_sol  =         0.00000000
  ---------------------------------------------------
  free energy    TOTEN  =       243.49108278 eV

  energy without entropy =      243.49393101  energy(sigma->0) =      243.49179484


--------------------------------------------------------------------------------------------------------




--------------------------------------- Iteration      1(   4)  ---------------------------------------


     EDDAV:  cpu time  422.5964: real time  422.6271
       DOS:  cpu time    0.0011: real time    0.0011
    --------------------------------------------
      LOOP:  cpu time  422.5976: real time  422.6282

 eigenvalue-minimisations  :   824
 total energy-change (2. order) :-0.3753503E+03  (-0.3165658E+03)
 number of electron     560.0000000 magnetization 
 augmentation part      560.0000000 magnetization 

 Free energy of the ion-electron system (eV)
  ---------------------------------------------------
  alpha Z        PSCENC =        75.25431677
  Ewald energy   TEWEN  =    138125.07436415
  -Hartree energ DENC   =   -181492.74567748
  -exchange      EXHF   =         0.00000000
  -V(xc)+E(xc)   XCENC  =     -1703.91567161
  PAW double counting   =     44873.02882129   -41398.84523641
  entropy T*S    EENTRO =         0.05268708
  eigenvalues    EBANDS =     -3696.26836202
  atomic energy  EATOM  =     45086.50549395
  Solvation  Ediel_sol  =         0.00000000
  ---------------------------------------------------
  free energy    TOTEN  =      -131.85926428 eV

  energy without entropy =     -131.91195135  energy(sigma->0) =     -131.87243605


--------------------------------------------------------------------------------------------------------




--------------------------------------- Iteration      1(   5)  ---------------------------------------


     EDDAV:  cpu time  509.3449: real time  509.3735
       DOS:  cpu time    0.0014: real time    0.0014
    CHARGE:  cpu time   25.7978: real time   25.8026
    MIXING:  cpu time    0.4403: real time    0.4403
    --------------------------------------------
      LOOP:  cpu time  535.5844: real time  535.6178

 eigenvalue-minimisations  :  1040
 total energy-change (2. order) :-0.4671764E+02  (-0.3891357E+02)
 number of electron     559.9999820 magnetization 
 augmentation part      245.2739710 magnetization 

 Broyden mixing:
  rms(total) = 0.13929E+01    rms(broyden)= 0.13920E+01
  rms(prec ) = 0.14971E+01
  weight for this iteration     100.00

 Free energy of the ion-electron system (eV)
  ---------------------------------------------------
  alpha Z        PSCENC =        75.25431677
  Ewald energy   TEWEN  =    138125.07436415
  -Hartree energ DENC   =   -181492.74567748
  -exchange      EXHF   =         0.00000000
  -V(xc)+E(xc)   XCENC  =     -1703.91567161
  PAW double counting   =     44873.02882129   -41398.84523641
  entropy T*S    EENTRO =         0.54109726
  eigenvalues    EBANDS =     -3743.47440909
  atomic energy  EATOM  =     45086.50549395
  Solvation  Ediel_sol  =         0.00000000
  ---------------------------------------------------
  free energy    TOTEN  =      -178.57690117 eV

  energy without entropy =     -179.11799843  energy(sigma->0) =     -178.71217549


--------------------------------------------------------------------------------------------------------




--------------------------------------- Iteration      1(   6)  ---------------------------------------


    POTLOK:  cpu time   13.3136: real time   13.3158
    SETDIJ:  cpu time    0.1219: real time    0.1219
    EDDIAG:  cpu time   68.2573: real time   68.2641
  RMM-DIIS:  cpu time  188.5732: real time  188.5984
    ORTHCH:  cpu time   13.8378: real time   13.8391
       DOS:  cpu time    0.0014: real time    0.0014
    CHARGE:  cpu time   25.7058: real time   25.7094
    MIXING:  cpu time    0.4573: real time    0.4573
    --------------------------------------------
      LOOP:  cpu time  310.2683: real time  310.3073

 eigenvalue-minimisations  :   723
 total energy-change (2. order) : 0.2382510E+00  (-0.5158161E+01)
 number of electron     559.9999863 magnetization 
 augmentation part      240.4883839 magnetization 

 Broyden mixing:
  rms(total) = 0.19664E+01    rms(broyden)= 0.19662E+01
  rms(prec ) = 0.22626E+01
  weight for this iteration     100.00

 eigenvalues of (default mixing * dielectric matrix)
  average eigenvalue GAMMA=   0.3726
  0.3726

 Free energy of the ion-electron system (eV)
  ---------------------------------------------------
  alpha Z        PSCENC =        75.25431677
  Ewald energy   TEWEN  =    138125.07436415
  -Hartree energ DENC   =   -181901.70535354
  -exchange      EXHF   =         0.00000000
  -V(xc)+E(xc)   XCENC  =     -1697.58811247
  PAW double counting   =     45621.55949814   -42120.07273891
  entropy T*S    EENTRO =        -0.35549747
  eigenvalues    EBANDS =     -3367.01062082
  atomic energy  EATOM  =     45086.50549395
  Solvation  Ediel_sol  =         0.00000000
  ---------------------------------------------------
  free energy    TOTEN  =      -178.33865020 eV

  energy without entropy =     -177.98315273  energy(sigma->0) =     -178.24977583


--------------------------------------------------------------------------------------------------------




--------------------------------------- Iteration      1(   7)  ---------------------------------------


    POTLOK:  cpu time   13.5041: real time   13.5083
    SETDIJ:  cpu time    0.1257: real time    0.1257
    EDDIAG:  cpu time   68.5986: real time   68.6296
  RMM-DIIS:  cpu time  216.6091: real time  216.6225
    ORTHCH:  cpu time   13.4476: real time   13.4476
       DOS:  cpu time    0.0014: real time    0.0014
    CHARGE:  cpu time   25.7818: real time   25.7817
    MIXING:  cpu time    0.4864: real time    0.4863
    --------------------------------------------
      LOOP:  cpu time  338.5547: real time  338.6032

 eigenvalue-minimisations  :   829
 total energy-change (2. order) :-0.9025130E+00  (-0.1824636E+01)
 number of electron     559.9999804 magnetization 
 augmentation part      240.6291278 magnetization 

 Broyden mixing:
  rms(total) = 0.18111E+01    rms(broyden)= 0.18108E+01
  rms(prec ) = 0.21065E+01
  weight for this iteration     100.00

 eigenvalues of (default mixing * dielectric matrix)
  average eigenvalue GAMMA=   0.4153
  0.6609  0.1697

 Free energy of the ion-electron system (eV)
  ---------------------------------------------------
  alpha Z        PSCENC =        75.25431677
  Ewald energy   TEWEN  =    138125.07436415
  -Hartree energ DENC   =   -182000.61375493
  -exchange      EXHF   =         0.00000000
  -V(xc)+E(xc)   XCENC  =     -1697.85825678
  PAW double counting   =     45686.13930687   -42181.77540158
  entropy T*S    EENTRO =        -0.15418254
  eigenvalues    EBANDS =     -3271.81304913
  atomic energy  EATOM  =     45086.50549395
  Solvation  Ediel_sol  =         0.00000000
  ---------------------------------------------------
  free energy    TOTEN  =      -179.24116323 eV

  energy without entropy =     -179.08698068  energy(sigma->0) =     -179.20261759


--------------------------------------------------------------------------------------------------------




--------------------------------------- Iteration      1(   8)  ---------------------------------------


    POTLOK:  cpu time   13.2428: real time   13.2437
    SETDIJ:  cpu time    0.1249: real time    0.1249
    EDDIAG:  cpu time   68.4968: real time   68.5027
  RMM-DIIS:  cpu time  198.0835: real time  198.1014
    ORTHCH:  cpu time   13.6215: real time   13.6215
       DOS:  cpu time    0.0014: real time    0.0014
    CHARGE:  cpu time   25.7127: real time   25.7182
    MIXING:  cpu time    0.5295: real time    0.5295
    --------------------------------------------
      LOOP:  cpu time  319.8131: real time  319.8433

 eigenvalue-minimisations  :   756
 total energy-change (2. order) :-0.4346822E+01  (-0.6417639E+00)
 number of electron     559.9999819 magnetization 
 augmentation part      240.3855963 magnetization 

 Broyden mixing:
  rms(total) = 0.31152E+01    rms(broyden)= 0.31149E+01
  rms(prec ) = 0.37736E+01
  weight for this iteration     100.00

 eigenvalues of (default mixing * dielectric matrix)
  average eigenvalue GAMMA=   0.3476
  0.7717  0.1681  0.1031

 Free energy of the ion-electron system (eV)
  ---------------------------------------------------
  alpha Z        PSCENC =        75.25431677
  Ewald energy   TEWEN  =    138125.07436415
  -Hartree energ DENC   =   -182042.97800298
  -exchange      EXHF   =         0.00000000
  -V(xc)+E(xc)   XCENC  =     -1697.70785645
  PAW double counting   =     45772.89980016   -42264.25654611
  entropy T*S    EENTRO =        -0.00310256
  eigenvalues    EBANDS =     -3238.37645170
  atomic energy  EATOM  =     45086.50549395
  Solvation  Ediel_sol  =         0.00000000
  ---------------------------------------------------
  free energy    TOTEN  =      -183.58798478 eV

  energy without entropy =     -183.58488222  energy(sigma->0) =     -183.58720914


--------------------------------------------------------------------------------------------------------




--------------------------------------- Iteration      1(   9)  ---------------------------------------


    POTLOK:  cpu time   13.3685: real time   13.3696
    SETDIJ:  cpu time    0.1266: real time    0.1266
    EDDIAG:  cpu time   68.2763: real time   68.2785
  RMM-DIIS:  cpu time  207.1442: real time  207.1543
    ORTHCH:  cpu time   13.8924: real time   13.8924
       DOS:  cpu time    0.0015: real time    0.0015
    CHARGE:  cpu time   25.3965: real time   25.3964
    MIXING:  cpu time    0.5606: real time    0.5606
    --------------------------------------------
      LOOP:  cpu time  328.7667: real time  328.7799

 eigenvalue-minimisations  :   770
 total energy-change (2. order) : 0.2603547E+01  (-0.3431406E+00)
 number of electron     559.9999832 magnetization 
 augmentation part      241.0911851 magnetization 

 Broyden mixing:
  rms(total) = 0.27791E+01    rms(broyden)= 0.27787E+01
  rms(prec ) = 0.32371E+01
  weight for this iteration     100.00

 eigenvalues of (default mixing * dielectric matrix)
  average eigenvalue GAMMA=   0.3028
  0.8430  0.1601  0.1268  0.0813

 Free energy of the ion-electron system (eV)
  ---------------------------------------------------
  alpha Z        PSCENC =        75.25431677
  Ewald energy   TEWEN  =    138125.07436415
  -Hartree energ DENC   =   -182065.03402376
  -exchange      EXHF   =         0.00000000
  -V(xc)+E(xc)   XCENC  =     -1697.62619032
  PAW double counting   =     45813.89886831   -42303.39445052
  entropy T*S    EENTRO =        -0.18788724
  eigenvalues    EBANDS =     -3215.47492874
  atomic energy  EATOM  =     45086.50549395
  Solvation  Ediel_sol  =         0.00000000
  ---------------------------------------------------
  free energy    TOTEN  =      -180.98443740 eV

  energy without entropy =     -180.79655016  energy(sigma->0) =     -180.93746559


--------------------------------------------------------------------------------------------------------




--------------------------------------- Iteration      1(  10)  ---------------------------------------


    POTLOK:  cpu time   13.3128: real time   13.3138
    SETDIJ:  cpu time    0.1227: real time    0.1227
    EDDIAG:  cpu time   68.2367: real time   68.2500
  RMM-DIIS:  cpu time  200.4550: real time  200.4725
    ORTHCH:  cpu time   14.0931: real time   14.0931
       DOS:  cpu time    0.0015: real time    0.0015
    CHARGE:  cpu time   25.9579: real time   25.9581
    MIXING:  cpu time    0.5871: real time    0.5871
    --------------------------------------------
      LOOP:  cpu time  322.7668: real time  322.7989

 eigenvalue-minimisations  :   735
 total energy-change (2. order) : 0.2581067E+01  (-0.2264119E+00)
 number of electron     559.9999839 magnetization 
 augmentation part      241.4388469 magnetization 

 Broyden mixing:
  rms(total) = 0.22343E+01    rms(broyden)= 0.22340E+01
  rms(prec ) = 0.26519E+01
  weight for this iteration     100.00

 eigenvalues of (default mixing * dielectric matrix)
  average eigenvalue GAMMA=   0.2669
  0.8801  0.1451  0.1451  0.0821  0.0821

 Free energy of the ion-electron system (eV)
  ---------------------------------------------------
  alpha Z        PSCENC =        75.25431677
  Ewald energy   TEWEN  =    138125.07436415
  -Hartree energ DENC   =   -182086.90287680
  -exchange      EXHF   =         0.00000000
  -V(xc)+E(xc)   XCENC  =     -1697.50411876
  PAW double counting   =     45845.39618292   -42333.44830787
  entropy T*S    EENTRO =        -0.16428469
  eigenvalues    EBANDS =     -3192.61413974
  atomic energy  EATOM  =     45086.50549395
  Solvation  Ediel_sol  =         0.00000000
  ---------------------------------------------------
  free energy    TOTEN  =      -178.40337008 eV

  energy without entropy =     -178.23908539  energy(sigma->0) =     -178.36229891


--------------------------------------------------------------------------------------------------------




--------------------------------------- Iteration      1(  11)  ---------------------------------------


    POTLOK:  cpu time   13.5133: real time   13.5145
    SETDIJ:  cpu time    0.1245: real time    0.1245
    EDDIAG:  cpu time   68.0129: real time   68.0147
  RMM-DIIS:  cpu time  196.5389: real time  196.5607
    ORTHCH:  cpu time   14.0595: real time   14.0595
       DOS:  cpu time    0.0016: real time    0.0016
    CHARGE:  cpu time   26.4911: real time   26.4965
    MIXING:  cpu time    0.6082: real time    0.6082
    --------------------------------------------
      LOOP:  cpu time  319.3500: real time  319.3803

 eigenvalue-minimisations  :   729
 total energy-change (2. order) : 0.2067853E+01  (-0.1146554E+00)
 number of electron     559.9999828 magnetization 
 augmentation part      241.6784170 magnetization 

 Broyden mixing:
  rms(total) = 0.14792E+01    rms(broyden)= 0.14788E+01
  rms(prec ) = 0.17101E+01
  weight for this iteration     100.00

 eigenvalues of (default mixing * dielectric matrix)
  average eigenvalue GAMMA=   0.2515
  0.9071  0.1806  0.1806  0.0883  0.0883  0.0640

 Free energy of the ion-electron system (eV)
  ---------------------------------------------------
  alpha Z        PSCENC =        75.25431677
  Ewald energy   TEWEN  =    138125.07436415
  -Hartree energ DENC   =   -182097.94514444
  -exchange      EXHF   =         0.00000000
  -V(xc)+E(xc)   XCENC  =     -1697.39598582
  PAW double counting   =     45864.80491808   -42351.88484714
  entropy T*S    EENTRO =        -0.13593141
  eigenvalues    EBANDS =     -3180.61270101
  atomic energy  EATOM  =     45086.50549395
  Solvation  Ediel_sol  =         0.00000000
  ---------------------------------------------------
  free energy    TOTEN  =      -176.33551688 eV

  energy without entropy =     -176.19958547  energy(sigma->0) =     -176.30153403


--------------------------------------------------------------------------------------------------------




--------------------------------------- Iteration      1(  12)  ---------------------------------------


    POTLOK:  cpu time   13.8532: real time   13.8593
    SETDIJ:  cpu time    0.1290: real time    0.1290
    EDDIAG:  cpu time   68.7059: real time   68.7115
  RMM-DIIS:  cpu time  192.7651: real time  192.7720
    ORTHCH:  cpu time   14.1200: real time   14.1199
       DOS:  cpu time    0.0016: real time    0.0016
    CHARGE:  cpu time   26.4869: real time   26.4900
    MIXING:  cpu time    0.6779: real time    0.6779
    --------------------------------------------
      LOOP:  cpu time  316.7396: real time  316.7612

 eigenvalue-minimisations  :   719
 total energy-change (2. order) : 0.1278666E+01  (-0.9266054E-01)
 number of electron     559.9999841 magnetization 
 augmentation part      241.8530777 magnetization 

 Broyden mixing:
  rms(total) = 0.87416E+00    rms(broyden)= 0.87378E+00
  rms(prec ) = 0.10116E+01
  weight for this iteration     100.00

 eigenvalues of (default mixing * dielectric matrix)
  average eigenvalue GAMMA=   0.2626
  0.9392  0.2673  0.2673  0.1164  0.1164  0.0655  0.0655

 Free energy of the ion-electron system (eV)
  ---------------------------------------------------
  alpha Z        PSCENC =        75.25431677
  Ewald energy   TEWEN  =    138125.07436415
  -Hartree energ DENC   =   -182111.23536419
  -exchange      EXHF   =         0.00000000
  -V(xc)+E(xc)   XCENC  =     -1697.19779892
  PAW double counting   =     45887.58877209   -42373.44870795
  entropy T*S    EENTRO =        -0.06704489
  eigenvalues    EBANDS =     -3167.53088191
  atomic energy  EATOM  =     45086.50549395
  Solvation  Ediel_sol  =         0.00000000
  ---------------------------------------------------
  free energy    TOTEN  =      -175.05685090 eV

  energy without entropy =     -174.98980601  energy(sigma->0) =     -175.04008968


--------------------------------------------------------------------------------------------------------




--------------------------------------- Iteration      1(  13)  ---------------------------------------


    POTLOK:  cpu time   13.4724: real time   13.4747
    SETDIJ:  cpu time    0.1232: real time    0.1232
    EDDIAG:  cpu time   68.8483: real time   68.8487
  RMM-DIIS:  cpu time  194.0007: real time  194.0035
    ORTHCH:  cpu time   13.9656: real time   13.9656
       DOS:  cpu time    0.0015: real time    0.0015
    CHARGE:  cpu time   26.4032: real time   26.4034
    MIXING:  cpu time    0.7109: real time    0.7109
    --------------------------------------------
      LOOP:  cpu time  317.5258: real time  317.5315

 eigenvalue-minimisations  :   723
 total energy-change (2. order) :-0.6806838E+00  (-0.8251067E-01)
 number of electron     559.9999814 magnetization 
 augmentation part      241.5912468 magnetization 

 Broyden mixing:
  rms(total) = 0.15831E+01    rms(broyden)= 0.15829E+01
  rms(prec ) = 0.19435E+01
  weight for this iteration     100.00

 eigenvalues of (default mixing * dielectric matrix)
  average eigenvalue GAMMA=   0.2750
  0.9963  0.5283  0.2159  0.1284  0.1284  0.0697  0.0697  0.0634

 Free energy of the ion-electron system (eV)
  ---------------------------------------------------
  alpha Z        PSCENC =        75.25431677
  Ewald energy   TEWEN  =    138125.07436415
  -Hartree energ DENC   =   -182143.26402150
  -exchange      EXHF   =         0.00000000
  -V(xc)+E(xc)   XCENC  =     -1696.79997510
  PAW double counting   =     45926.11759146   -42409.76726962
  entropy T*S    EENTRO =        -0.06865480
  eigenvalues    EBANDS =     -3138.78938004
  atomic energy  EATOM  =     45086.50549395
  Solvation  Ediel_sol  =         0.00000000
  ---------------------------------------------------
  free energy    TOTEN  =      -175.73753473 eV

  energy without entropy =     -175.66887993  energy(sigma->0) =     -175.72037103


--------------------------------------------------------------------------------------------------------




--------------------------------------- Iteration      1(  14)  ---------------------------------------


    POTLOK:  cpu time   13.3985: real time   13.4013
    SETDIJ:  cpu time    0.1262: real time    0.1262
    EDDIAG:  cpu time   68.9454: real time   68.9526
  RMM-DIIS:  cpu time  193.1344: real time  193.1458
    ORTHCH:  cpu time   13.9564: real time   13.9566
       DOS:  cpu time    0.0015: real time    0.0015
    CHARGE:  cpu time   26.3400: real time   26.3405
    MIXING:  cpu time    0.7335: real time    0.7335
    --------------------------------------------
      LOOP:  cpu time  316.6359: real time  316.6581

 eigenvalue-minimisations  :   723
 total energy-change (2. order) : 0.6541497E-01  (-0.8773719E-01)
 number of electron     559.9999815 magnetization 
 augmentation part      241.3343981 magnetization 

 Broyden mixing:
  rms(total) = 0.15553E+01    rms(broyden)= 0.15550E+01
  rms(prec ) = 0.18323E+01
  weight for this iteration     100.00

 eigenvalues of (default mixing * dielectric matrix)
  average eigenvalue GAMMA=   0.3108
  1.2387  0.7901  0.1713  0.1713  0.1152  0.1152  0.0714  0.0714  0.0528

 Free energy of the ion-electron system (eV)
  ---------------------------------------------------
  alpha Z        PSCENC =        75.25431677
  Ewald energy   TEWEN  =    138125.07436415
  -Hartree energ DENC   =   -182180.37085532
  -exchange      EXHF   =         0.00000000
  -V(xc)+E(xc)   XCENC  =     -1696.27427747
  PAW double counting   =     45972.97265075   -42453.86083888
  entropy T*S    EENTRO =        -0.03071671
  eigenvalues    EBANDS =     -3104.94225699
  atomic energy  EATOM  =     45086.50549395
  Solvation  Ediel_sol  =         0.00000000
  ---------------------------------------------------
  free energy    TOTEN  =      -175.67211975 eV

  energy without entropy =     -175.64140304  energy(sigma->0) =     -175.66444057


--------------------------------------------------------------------------------------------------------




--------------------------------------- Iteration      1(  15)  ---------------------------------------


    POTLOK:  cpu time   13.6027: real time   13.6095
    SETDIJ:  cpu time    0.1290: real time    0.1290
    EDDIAG:  cpu time   68.9081: real time   68.9102
  RMM-DIIS:  cpu time  190.4731: real time  190.4771
    ORTHCH:  cpu time   13.9567: real time   13.9567
       DOS:  cpu time    0.0015: real time    0.0015
    CHARGE:  cpu time   26.8760: real time   26.8841
    MIXING:  cpu time    0.7857: real time    0.7857
    --------------------------------------------
      LOOP:  cpu time  314.7325: real time  314.7538

 eigenvalue-minimisations  :   714
 total energy-change (2. order) : 0.1810947E+00  (-0.1129103E+00)
 number of electron     559.9999823 magnetization 
 augmentation part      241.1023021 magnetization 

 Broyden mixing:
  rms(total) = 0.15355E+01    rms(broyden)= 0.15353E+01
  rms(prec ) = 0.17719E+01
  weight for this iteration     100.00

 eigenvalues of (default mixing * dielectric matrix)
  average eigenvalue GAMMA=   0.3198
  1.4619  0.8378  0.1853  0.1853  0.1507  0.0966  0.0966  0.0663  0.0663  0.0518

 Free energy of the ion-electron system (eV)
  ---------------------------------------------------
  alpha Z        PSCENC =        75.25431677
  Ewald energy   TEWEN  =    138125.07436415
  -Hartree energ DENC   =   -182230.98615785
  -exchange      EXHF   =         0.00000000
  -V(xc)+E(xc)   XCENC  =     -1695.50217075
  PAW double counting   =     46039.37691822   -42516.33313827
  entropy T*S    EENTRO =        -0.08153887
  eigenvalues    EBANDS =     -3058.79911242
  atomic energy  EATOM  =     45086.50549395
  Solvation  Ediel_sol  =         0.00000000
  ---------------------------------------------------
  free energy    TOTEN  =      -175.49102507 eV

  energy without entropy =     -175.40948620  energy(sigma->0) =     -175.47064035


--------------------------------------------------------------------------------------------------------




--------------------------------------- Iteration      1(  16)  ---------------------------------------


    POTLOK:  cpu time   13.5610: real time   13.5654
    SETDIJ:  cpu time    0.1296: real time    0.1296
    EDDIAG:  cpu time   69.1521: real time   69.1546
  RMM-DIIS:  cpu time  190.6455: real time  190.6506
    ORTHCH:  cpu time   13.9824: real time   13.9827
       DOS:  cpu time    0.0015: real time    0.0015
    CHARGE:  cpu time   26.5747: real time   26.5752
    MIXING:  cpu time    0.8929: real time    0.8929
    --------------------------------------------
      LOOP:  cpu time  314.9398: real time  314.9526

 eigenvalue-minimisations  :   714
 total energy-change (2. order) : 0.4833054E+00  (-0.7207229E-01)
 number of electron     559.9999840 magnetization 
 augmentation part      240.9546529 magnetization 

 Broyden mixing:
  rms(total) = 0.12301E+01    rms(broyden)= 0.12299E+01
  rms(prec ) = 0.14044E+01
  weight for this iteration     100.00

 eigenvalues of (default mixing * dielectric matrix)
  average eigenvalue GAMMA=   0.3253
  1.6515  0.8605  0.2237  0.2237  0.1312  0.1312  0.0878  0.0878  0.0655  0.0655
  0.0499

 Free energy of the ion-electron system (eV)
  ---------------------------------------------------
  alpha Z        PSCENC =        75.25431677
  Ewald energy   TEWEN  =    138125.07436415
  -Hartree energ DENC   =   -182260.74909819
  -exchange      EXHF   =         0.00000000
  -V(xc)+E(xc)   XCENC  =     -1695.16185170
  PAW double counting   =     46072.50272829   -42547.48081449
  entropy T*S    EENTRO =        -0.02584720
  eigenvalues    EBANDS =     -3030.92701122
  atomic energy  EATOM  =     45086.50549395
  Solvation  Ediel_sol  =         0.00000000
  ---------------------------------------------------
  free energy    TOTEN  =      -175.00771965 eV

  energy without entropy =     -174.98187245  energy(sigma->0) =     -175.00125785


--------------------------------------------------------------------------------------------------------




--------------------------------------- Iteration      1(  17)  ---------------------------------------


    POTLOK:  cpu time   13.5184: real time   13.5219
    SETDIJ:  cpu time    0.1272: real time    0.1272
    EDDIAG:  cpu time   69.4289: real time   69.4311
  RMM-DIIS:  cpu time  189.8957: real time  189.9037
    ORTHCH:  cpu time   13.9722: real time   13.9725
       DOS:  cpu time    0.0015: real time    0.0015
    CHARGE:  cpu time   26.4987: real time   26.4993
    MIXING:  cpu time    0.9381: real time    0.9381
    --------------------------------------------
      LOOP:  cpu time  314.3807: real time  314.3955

 eigenvalue-minimisations  :   712
 total energy-change (2. order) : 0.3624779E+00  (-0.5296673E-01)
 number of electron     559.9999839 magnetization 
 augmentation part      241.0238705 magnetization 

 Broyden mixing:
  rms(total) = 0.10303E+01    rms(broyden)= 0.10301E+01
  rms(prec ) = 0.11892E+01
  weight for this iteration     100.00

 eigenvalues of (default mixing * dielectric matrix)
  average eigenvalue GAMMA=   0.3275
  1.7404  0.9177  0.2745  0.2745  0.1396  0.1396  0.0918  0.0918  0.0826  0.0639
  0.0639  0.0496

 Free energy of the ion-electron system (eV)
  ---------------------------------------------------
  alpha Z        PSCENC =        75.25431677
  Ewald energy   TEWEN  =    138125.07436415
  -Hartree energ DENC   =   -182278.52765934
  -exchange      EXHF   =         0.00000000
  -V(xc)+E(xc)   XCENC  =     -1694.92670223
  PAW double counting   =     46092.07954947   -42565.73007379
  entropy T*S    EENTRO =         0.02971957
  eigenvalues    EBANDS =     -3014.40425027
  atomic energy  EATOM  =     45086.50549395
  Solvation  Ediel_sol  =         0.00000000
  ---------------------------------------------------
  free energy    TOTEN  =      -174.64524171 eV

  energy without entropy =     -174.67496128  energy(sigma->0) =     -174.65267160


--------------------------------------------------------------------------------------------------------




--------------------------------------- Iteration      1(  18)  ---------------------------------------


    POTLOK:  cpu time   13.6800: real time   13.6842
    SETDIJ:  cpu time    0.1206: real time    0.1206
    EDDIAG:  cpu time   69.0260: real time   69.0278
  RMM-DIIS:  cpu time  190.1177: real time  190.1263
    ORTHCH:  cpu time   13.9041: real time   13.9042
       DOS:  cpu time    0.0015: real time    0.0015
    CHARGE:  cpu time   26.6341: real time   26.6342
    MIXING:  cpu time    0.9684: real time    0.9685
    --------------------------------------------
      LOOP:  cpu time  314.4524: real time  314.4674

 eigenvalue-minimisations  :   715
 total energy-change (2. order) : 0.1684976E+00  (-0.3990527E-01)
 number of electron     559.9999841 magnetization 
 augmentation part      241.0528263 magnetization 

 Broyden mixing:
  rms(total) = 0.85623E+00    rms(broyden)= 0.85602E+00
  rms(prec ) = 0.99804E+00
  weight for this iteration     100.00

 eigenvalues of (default mixing * dielectric matrix)
  average eigenvalue GAMMA=   0.3425
  1.8286  1.1208  0.3199  0.3199  0.1536  0.1536  0.1027  0.1027  0.0866  0.0866
  0.0639  0.0639  0.0495

 Free energy of the ion-electron system (eV)
  ---------------------------------------------------
  alpha Z        PSCENC =        75.25431677
  Ewald energy   TEWEN  =    138125.07436415
  -Hartree energ DENC   =   -182291.54670351
  -exchange      EXHF   =         0.00000000
  -V(xc)+E(xc)   XCENC  =     -1694.79916677
  PAW double counting   =     46098.98460211   -42571.85774511
  entropy T*S    EENTRO =         0.01211169
  eigenvalues    EBANDS =     -3002.10401735
  atomic energy  EATOM  =     45086.50549395
  Solvation  Ediel_sol  =         0.00000000
  ---------------------------------------------------
  free energy    TOTEN  =      -174.47674408 eV

  energy without entropy =     -174.48885577  energy(sigma->0) =     -174.47977200


--------------------------------------------------------------------------------------------------------




--------------------------------------- Iteration      1(  19)  ---------------------------------------


    POTLOK:  cpu time   13.6608: real time   13.6641
    SETDIJ:  cpu time    0.1184: real time    0.1184
    EDDIAG:  cpu time   68.8591: real time   68.8598
  RMM-DIIS:  cpu time  188.9758: real time  188.9834
    ORTHCH:  cpu time   13.9557: real time   13.9560
       DOS:  cpu time    0.0015: real time    0.0015
    CHARGE:  cpu time   26.6937: real time   26.6941
    MIXING:  cpu time    1.0486: real time    1.0487
    --------------------------------------------
      LOOP:  cpu time  313.3136: real time  313.3259

 eigenvalue-minimisations  :   713
 total energy-change (2. order) :-0.2474313E+00  (-0.4288004E-01)
 number of electron     559.9999848 magnetization 
 augmentation part      241.0429138 magnetization 

 Broyden mixing:
  rms(total) = 0.12470E+01    rms(broyden)= 0.12468E+01
  rms(prec ) = 0.14521E+01
  weight for this iteration     100.00

 eigenvalues of (default mixing * dielectric matrix)
  average eigenvalue GAMMA=   0.3613
  1.9968  1.3331  0.4962  0.2081  0.2081  0.1543  0.1543  0.0945  0.0945  0.0683
  0.0683  0.0662  0.0662  0.0496

 Free energy of the ion-electron system (eV)
  ---------------------------------------------------
  alpha Z        PSCENC =        75.25431677
  Ewald energy   TEWEN  =    138125.07436415
  -Hartree energ DENC   =   -182316.84224421
  -exchange      EXHF   =         0.00000000
  -V(xc)+E(xc)   XCENC  =     -1694.57869324
  PAW double counting   =     46104.91440275   -42576.57124954
  entropy T*S    EENTRO =        -0.04542768
  eigenvalues    EBANDS =     -2978.43513828
  atomic energy  EATOM  =     45086.50549395
  Solvation  Ediel_sol  =         0.00000000
  ---------------------------------------------------
  free energy    TOTEN  =      -174.72417534 eV

  energy without entropy =     -174.67874765  energy(sigma->0) =     -174.71281842


--------------------------------------------------------------------------------------------------------




--------------------------------------- Iteration      1(  20)  ---------------------------------------


    POTLOK:  cpu time   13.7041: real time   13.7073
    SETDIJ:  cpu time    0.1277: real time    0.1277
    EDDIAG:  cpu time   69.3525: real time   69.3544
  RMM-DIIS:  cpu time  189.9194: real time  189.9264
    ORTHCH:  cpu time   13.8777: real time   13.8781
       DOS:  cpu time    0.0015: real time    0.0015
    CHARGE:  cpu time   26.8792: real time   26.8799
    MIXING:  cpu time    1.1318: real time    1.1319
    --------------------------------------------
      LOOP:  cpu time  314.9939: real time  315.0071

 eigenvalue-minimisations  :   715
 total energy-change (2. order) : 0.3535096E+00  (-0.3809919E-01)
 number of electron     559.9999836 magnetization 
 augmentation part      241.0507863 magnetization 

 Broyden mixing:
  rms(total) = 0.78547E+00    rms(broyden)= 0.78517E+00
  rms(prec ) = 0.93842E+00
  weight for this iteration     100.00

 eigenvalues of (default mixing * dielectric matrix)
  average eigenvalue GAMMA=   0.3554
  2.0809  1.3378  0.5467  0.2173  0.2173  0.1585  0.1585  0.1106  0.0945  0.0945
  0.0659  0.0659  0.0698  0.0627  0.0494

 Free energy of the ion-electron system (eV)
  ---------------------------------------------------
  alpha Z        PSCENC =        75.25431677
  Ewald energy   TEWEN  =    138125.07436415
  -Hartree energ DENC   =   -182342.93203044
  -exchange      EXHF   =         0.00000000
  -V(xc)+E(xc)   XCENC  =     -1694.37192354
  PAW double counting   =     46106.38327335   -42576.90453775
  entropy T*S    EENTRO =        -0.03164108
  eigenvalues    EBANDS =     -2953.34798118
  atomic energy  EATOM  =     45086.50549395
  Solvation  Ediel_sol  =         0.00000000
  ---------------------------------------------------
  free energy    TOTEN  =      -174.37066578 eV

  energy without entropy =     -174.33902470  energy(sigma->0) =     -174.36275551


--------------------------------------------------------------------------------------------------------




--------------------------------------- Iteration      1(  21)  ---------------------------------------


    POTLOK:  cpu time   13.6025: real time   13.6060
    SETDIJ:  cpu time    0.1296: real time    0.1296
    EDDIAG:  cpu time   69.1175: real time   69.1195
  RMM-DIIS:  cpu time  188.8684: real time  188.8736
    ORTHCH:  cpu time   13.8400: real time   13.8402
       DOS:  cpu time    0.0015: real time    0.0015
    CHARGE:  cpu time   26.8394: real time   26.8398
    MIXING:  cpu time    1.1867: real time    1.1867
    --------------------------------------------
      LOOP:  cpu time  313.5856: real time  313.5969

 eigenvalue-minimisations  :   711
 total energy-change (2. order) : 0.2394253E+00  (-0.1557404E-01)
 number of electron     559.9999836 magnetization 
 augmentation part      241.2052250 magnetization 

 Broyden mixing:
  rms(total) = 0.49024E+00    rms(broyden)= 0.49007E+00
  rms(prec ) = 0.56601E+00
  weight for this iteration     100.00

 eigenvalues of (default mixing * dielectric matrix)
  average eigenvalue GAMMA=   0.3547
  2.0532  1.4340  0.6089  0.2613  0.2613  0.1607  0.1607  0.1386  0.0956  0.0956
  0.0898  0.0656  0.0656  0.0726  0.0621  0.0494

 Free energy of the ion-electron system (eV)
  ---------------------------------------------------
  alpha Z        PSCENC =        75.25431677
  Ewald energy   TEWEN  =    138125.07436415
  -Hartree energ DENC   =   -182347.16505630
  -exchange      EXHF   =         0.00000000
  -V(xc)+E(xc)   XCENC  =     -1694.30955877
  PAW double counting   =     46104.48399905   -42574.77732698
  entropy T*S    EENTRO =        -0.07988556
  eigenvalues    EBANDS =     -2949.11758679
  atomic energy  EATOM  =     45086.50549395
  Solvation  Ediel_sol  =         0.00000000
  ---------------------------------------------------
  free energy    TOTEN  =      -174.13124048 eV

  energy without entropy =     -174.05135492  energy(sigma->0) =     -174.11126909


--------------------------------------------------------------------------------------------------------




--------------------------------------- Iteration      1(  22)  ---------------------------------------


    POTLOK:  cpu time   13.4946: real time   13.4976
    SETDIJ:  cpu time    0.1335: real time    0.1335
    EDDIAG:  cpu time   69.0568: real time   69.0612
  RMM-DIIS:  cpu time  188.1667: real time  188.1743
    ORTHCH:  cpu time   13.9189: real time   13.9191
       DOS:  cpu time    0.0015: real time    0.0015
    CHARGE:  cpu time   26.9269: real time   26.9274
    MIXING:  cpu time    1.2693: real time    1.2693
    --------------------------------------------
      LOOP:  cpu time  312.9680: real time  312.9839

 eigenvalue-minimisations  :   709
 total energy-change (2. order) : 0.3287752E-01  (-0.1027462E-01)
 number of electron     559.9999832 magnetization 
 augmentation part      241.1896532 magnetization 

 Broyden mixing:
  rms(total) = 0.46917E+00    rms(broyden)= 0.46905E+00
  rms(prec ) = 0.54038E+00
  weight for this iteration     100.00

 eigenvalues of (default mixing * dielectric matrix)
  average eigenvalue GAMMA=   0.3594
  2.0942  1.5088  0.6884  0.3046  0.3046  0.2088  0.1553  0.1553  0.1110  0.0950
  0.0950  0.0654  0.0654  0.0746  0.0746  0.0494  0.0602

 Free energy of the ion-electron system (eV)
  ---------------------------------------------------
  alpha Z        PSCENC =        75.25431677
  Ewald energy   TEWEN  =    138125.07436415
  -Hartree energ DENC   =   -182355.77986091
  -exchange      EXHF   =         0.00000000
  -V(xc)+E(xc)   XCENC  =     -1694.23482099
  PAW double counting   =     46100.84870617   -42570.94034269
  entropy T*S    EENTRO =        -0.07248273
  eigenvalues    EBANDS =     -2940.75373668
  atomic energy  EATOM  =     45086.50549395
  Solvation  Ediel_sol  =         0.00000000
  ---------------------------------------------------
  free energy    TOTEN  =      -174.09836296 eV

  energy without entropy =     -174.02588023  energy(sigma->0) =     -174.08024227


--------------------------------------------------------------------------------------------------------




--------------------------------------- Iteration      1(  23)  ---------------------------------------


    POTLOK:  cpu time   13.5452: real time   13.5486
    SETDIJ:  cpu time    0.1230: real time    0.1230
    EDDIAG:  cpu time   69.0598: real time   69.0696
  RMM-DIIS:  cpu time  188.8777: real time  188.8944
    ORTHCH:  cpu time   14.1000: real time   14.1002
       DOS:  cpu time    0.0016: real time    0.0016
    CHARGE:  cpu time   27.0028: real time   27.0029
    MIXING:  cpu time    1.3114: real time    1.3114
    --------------------------------------------
      LOOP:  cpu time  314.0215: real time  314.0517

 eigenvalue-minimisations  :   712
 total energy-change (2. order) : 0.5470653E-01  (-0.7262486E-02)
 number of electron     559.9999841 magnetization 
 augmentation part      241.1658989 magnetization 

 Broyden mixing:
  rms(total) = 0.38552E+00    rms(broyden)= 0.38539E+00
  rms(prec ) = 0.44693E+00
  weight for this iteration     100.00

 eigenvalues of (default mixing * dielectric matrix)
  average eigenvalue GAMMA=   0.3643
  2.1782  1.5236  0.8190  0.4199  0.2534  0.2534  0.1572  0.1572  0.1113  0.1113
[...]
 -0.006  -0.012   0.004   0.004   0.005  -0.006  -0.012   0.004
 -0.011  -0.020   0.007   0.007   0.009  -0.010  -0.020   0.006
 -0.015  -0.005   0.012   0.000   0.022  -0.014  -0.005   0.012
  0.000  -0.023  -0.006  -0.015  -0.000   0.000  -0.022  -0.006
 -0.022   0.000   0.009  -0.005  -0.016  -0.021   0.000   0.008
 -0.017  -0.006   0.015   0.000   0.027  -0.017  -0.006   0.015
  0.000  -0.027  -0.007  -0.018  -0.000   0.000  -0.027  -0.007
 -0.027   0.000   0.010  -0.006  -0.019  -0.026   0.000   0.010
 total augmentation occupancy for first ion, spin component:           1
  1.538  -0.029   0.005   0.016   0.023   0.076  -0.008  -0.002   0.036  -0.010   0.091  -0.030   0.012   0.002   0.002  -0.019
 -0.029   1.399   0.027   0.069  -0.001  -0.007   0.072   0.011  -0.014  -0.008   0.219  -0.066   0.019   0.003   0.003  -0.006
  0.005   0.027   1.543   0.000   0.002  -0.002   0.013   0.073  -0.012   0.017  -0.055   0.019  -0.003  -0.006  -0.005   0.016
  0.016   0.069   0.000   1.337   0.044   0.034  -0.013  -0.012   0.091  -0.023  -0.081   0.021  -0.001  -0.008  -0.003   0.001
  0.023  -0.001   0.002   0.044   1.441  -0.010  -0.008   0.016  -0.022   0.067  -0.095   0.031  -0.002  -0.010  -0.010   0.026
  0.076  -0.007  -0.002   0.034  -0.010   0.217   0.019  -0.002  -0.045   0.004  -0.048   0.002   0.017  -0.010   0.034  -0.004
 -0.008   0.072   0.013  -0.013  -0.008   0.019   0.262  -0.023  -0.003   0.006  -0.109   0.007  -0.001   0.051  -0.010  -0.000
 -0.002   0.011   0.073  -0.012   0.016  -0.002  -0.023   0.215   0.014  -0.020   0.028  -0.001  -0.012   0.009  -0.018   0.003
  0.036  -0.014  -0.012   0.091  -0.022  -0.045  -0.003   0.014   0.260   0.007   0.044  -0.004  -0.009   0.036   0.004   0.000
 -0.010  -0.008   0.017  -0.023   0.067   0.004   0.006  -0.020   0.007   0.258   0.047  -0.003  -0.038   0.002   0.049   0.007
  0.091   0.219  -0.055  -0.081  -0.095  -0.048  -0.109   0.028   0.044   0.047   0.951  -0.141   0.083   0.014   0.064  -0.013
 -0.030  -0.066   0.019   0.021   0.031   0.002   0.007  -0.001  -0.004  -0.003  -0.141   0.023  -0.014  -0.003  -0.010   0.003
  0.012   0.019  -0.003  -0.001  -0.002   0.017  -0.001  -0.012  -0.009  -0.038   0.083  -0.014   0.029  -0.008  -0.004  -0.003
  0.002   0.003  -0.006  -0.008  -0.010  -0.010   0.051   0.009   0.036   0.002   0.014  -0.003  -0.008   0.036   0.004   0.000
  0.002   0.003  -0.005  -0.003  -0.010   0.034  -0.010  -0.018   0.004   0.049   0.064  -0.010  -0.004   0.004   0.034  -0.000
 -0.019  -0.006   0.016   0.001   0.026  -0.004  -0.000   0.003   0.000   0.007  -0.013   0.003  -0.003   0.000  -0.000   0.001
  0.001  -0.028  -0.007  -0.018   0.001   0.001  -0.008  -0.002  -0.006  -0.000  -0.003   0.001   0.000  -0.003  -0.000   0.000
 -0.028   0.001   0.012  -0.005  -0.019  -0.006   0.001   0.003  -0.001  -0.007  -0.008   0.001  -0.000  -0.000  -0.003   0.000


------------------------ aborting loop because EDIFF is reached ----------------------------------------


    CHARGE:  cpu time   25.5654: real time   25.5653
    FORLOC:  cpu time    6.7860: real time    6.7860
    FORNL :  cpu time   66.7047: real time   66.7045
    STRESS:  cpu time  201.6289: real time  201.6293
    FORCOR:  cpu time   21.9645: real time   21.9646
    FORHAR:  cpu time    9.9111: real time    9.9112
    MIXING:  cpu time    3.8073: real time    3.8080
    OFIELD:  cpu time    0.0000: real time    0.0000

  FORCE on cell =-STRESS in cart. coord.  units (eV):
  Direction    XX          YY          ZZ          XY          YZ          ZX
  --------------------------------------------------------------------------------------
  Alpha Z    75.25432    75.25432    75.25432
  Ewald   44052.69893 44180.76668 49891.50311    45.10269   624.73690   295.36708
  Hartree 58973.84462 59085.14692 64440.72630    39.32111   565.53978   265.56309
  E(xc)   -2905.08266 -2904.84771 -2902.80892     0.09647     0.51834     0.28696
  Local  ************************************   -83.41139 -1183.13354  -557.37529
  n-local  -882.16201  -883.12060  -894.33505    -0.40253    -2.77997    -1.32302
  augment  4104.65839  4104.33651  4102.37469    -0.18092    -0.52467    -0.35323
  Kinetic  7811.95598  7810.55013  7789.05670    -0.75577    -4.95044    -2.57274
  Fock        0.00000     0.00000     0.00000     0.00000     0.00000     0.00000
  -------------------------------------------------------------------------------------
  Total    -113.54699  -114.08938  -112.98822    -0.23034    -0.59360    -0.40714
  in kB      -6.73787    -6.77005    -6.70471    -0.01367    -0.03522    -0.02416
  external pressure =       -6.74 kB  Pullay stress =        0.00 kB


 VOLUME and BASIS-vectors are now :
 -----------------------------------------------------------------------------
  energy-cutoff  :      400.00
  volume of cell :    27000.00
      direct lattice vectors                 reciprocal lattice vectors
    30.000000000  0.000000000  0.000000000     0.033333333  0.000000000  0.000000000
     0.000000000 30.000000000  0.000000000     0.000000000  0.033333333  0.000000000
     0.000000000  0.000000000 30.000000000     0.000000000  0.000000000  0.033333333

  length of vectors
    30.000000000 30.000000000 30.000000000     0.033333333  0.033333333  0.033333333


 FORCES acting on ions
    electron-ion (+dipol)            ewald-force                    non-local-force                 convergence-correction
 -----------------------------------------------------------------------------------------------
   0.395E+03 0.974E+03 0.421E+03   -.393E+03 -.971E+03 -.420E+03   -.150E+01 -.183E+01 -.228E+00   0.432E-02 -.578E-02 0.226E-02
   -.974E+03 -.394E+03 0.423E+03   0.971E+03 0.392E+03 -.422E+03   0.182E+01 0.150E+01 -.209E+00   -.343E-02 0.172E-02 0.371E-03
   -.394E+03 0.974E+03 0.421E+03   0.392E+03 -.971E+03 -.421E+03   0.150E+01 -.183E+01 -.222E+00   0.543E-02 0.311E-04 0.785E-02
   0.974E+03 -.394E+03 0.422E+03   -.971E+03 0.392E+03 -.421E+03   -.182E+01 0.150E+01 -.215E+00   -.242E-02 0.518E-02 0.674E-03
   0.338E+00 0.588E+03 0.967E+03   -.341E+00 -.587E+03 -.963E+03   -.751E-03 -.304E+00 -.236E+01   0.456E-02 -.272E-02 0.366E-03
   0.438E+01 0.621E+03 -.941E+03   -.440E+01 -.620E+03 0.937E+03   0.294E-03 -.303E+00 0.238E+01   0.120E-01 0.472E-02 -.254E-02
   0.533E+00 0.114E+04 0.641E+01   -.540E+00 -.113E+04 -.641E+01   0.129E-02 -.311E+01 0.176E-02   0.632E-02 0.168E-02 0.265E-02
   0.114E+04 0.131E+01 0.729E+01   -.113E+04 -.132E+01 -.729E+01   -.311E+01 0.259E-02 -.310E-02   -.501E-02 0.222E-02 0.342E-02
   -.114E+04 0.166E+01 0.935E+01   0.113E+04 -.166E+01 -.934E+01   0.310E+01 0.169E-02 -.934E-02   -.503E-02 -.378E-03 0.316E-02
   0.892E+00 -.114E+04 0.110E+02   -.895E+00 0.114E+04 -.110E+02   -.732E-03 0.310E+01 -.179E-01   0.579E-02 -.339E-02 0.546E-02
   -.579E+03 0.580E+03 0.815E+03   0.577E+03 -.578E+03 -.811E+03   0.155E+01 -.156E+01 -.220E+01   0.614E-02 0.223E-02 0.197E-02
   -.593E+03 0.604E+03 -.794E+03   0.591E+03 -.602E+03 0.791E+03   0.156E+01 -.156E+01 0.220E+01   -.869E-03 0.657E-02 -.641E-02
   0.580E+03 -.579E+03 0.815E+03   -.577E+03 0.576E+03 -.812E+03   -.156E+01 0.155E+01 -.220E+01   0.134E-02 0.554E-02 -.363E-02
   0.612E+03 -.596E+03 -.785E+03   -.609E+03 0.593E+03 0.782E+03   -.155E+01 0.155E+01 0.220E+01   0.103E-01 0.349E-02 -.226E-03
   0.579E+03 0.580E+03 0.814E+03   -.577E+03 -.577E+03 -.811E+03   -.156E+01 -.156E+01 -.220E+01   -.258E-03 -.602E-02 -.410E-02
   0.594E+03 0.597E+03 -.798E+03   -.592E+03 -.595E+03 0.795E+03   -.156E+01 -.156E+01 0.220E+01   0.561E-02 -.955E-03 0.439E-02
   -.579E+03 -.579E+03 0.815E+03   0.577E+03 0.576E+03 -.812E+03   0.156E+01 0.155E+01 -.220E+01   0.356E-02 -.189E-03 0.355E-02
   -.616E+03 -.607E+03 -.769E+03   0.614E+03 0.604E+03 0.765E+03   0.153E+01 0.154E+01 0.219E+01   -.599E-02 -.417E-02 -.467E-02
   0.398E+03 0.983E+03 -.405E+03   -.396E+03 -.980E+03 0.404E+03   -.150E+01 -.183E+01 0.212E+00   0.118E-01 -.115E-02 0.116E-02
   -.988E+03 -.395E+03 -.395E+03   0.985E+03 0.393E+03 0.394E+03   0.183E+01 0.151E+01 0.223E+00   -.905E-02 -.188E-02 0.377E-02
   -.322E+03 0.324E+03 0.461E+03   0.322E+03 -.324E+03 -.462E+03   -.366E+00 0.366E+00 0.518E+00   0.104E-01 0.159E-02 0.805E-02
   0.974E+03 0.396E+03 0.421E+03   -.971E+03 -.393E+03 -.421E+03   -.183E+01 -.150E+01 -.227E+00   -.240E-02 -.380E-02 -.273E-02
   -.395E+03 -.974E+03 0.423E+03   0.392E+03 0.971E+03 -.423E+03   0.150E+01 0.182E+01 -.204E+00   0.667E-02 -.941E-03 0.469E-02
   -.396E+03 0.984E+03 -.404E+03   0.394E+03 -.981E+03 0.403E+03   0.150E+01 -.183E+01 0.214E+00   0.704E-02 0.703E-02 -.862E-03
   0.986E+03 -.395E+03 -.401E+03   -.983E+03 0.392E+03 0.400E+03   -.183E+01 0.150E+01 0.218E+00   0.453E-02 0.732E-02 0.539E-02
   -.974E+03 0.396E+03 0.422E+03   0.971E+03 -.394E+03 -.422E+03   0.183E+01 -.150E+01 -.219E+00   -.151E-02 0.134E-02 0.396E-02
   0.396E+03 -.974E+03 0.423E+03   -.393E+03 0.971E+03 -.423E+03   -.150E+01 0.182E+01 -.208E+00   0.870E-02 0.535E-02 0.620E-02
   0.323E+03 0.323E+03 0.461E+03   -.323E+03 -.324E+03 -.461E+03   0.368E+00 0.368E+00 0.512E+00   0.874E-02 -.266E-02 0.319E-02
   0.999E+00 0.646E+03 0.125E+02   -.102E+01 -.647E+03 -.126E+02   0.934E-03 0.732E+00 0.540E-02   0.148E-01 -.287E-03 0.772E-02
   -.587E+03 0.828E+00 0.967E+03   0.587E+03 -.831E+00 -.964E+03   0.306E+00 -.582E-03 -.235E+01   0.475E-02 0.476E-02 0.226E-02
   -.634E+03 0.210E+02 -.915E+03   0.633E+03 -.210E+02 0.911E+03   0.175E+00 0.252E-01 0.235E+01   -.424E-02 0.190E-02 -.593E-02
   0.588E+03 0.772E+00 0.967E+03   -.587E+03 -.769E+00 -.963E+03   -.304E+00 -.465E-03 -.236E+01   0.122E-02 -.111E-02 -.635E-02
   0.625E+03 0.122E+02 -.935E+03   -.624E+03 -.122E+02 0.931E+03   -.265E+00 0.374E-02 0.237E+01   0.935E-02 0.700E-02 0.273E-02
   0.765E+03 0.765E+03 0.922E+01   -.763E+03 -.763E+03 -.925E+01   -.114E+01 -.114E+01 0.226E-01   0.593E-02 -.505E-02 0.178E-02
   -.765E+03 -.764E+03 0.153E+02   0.763E+03 0.762E+03 -.153E+02   0.114E+01 0.114E+01 -.178E-01   -.310E-02 -.704E-03 0.485E-02
   -.764E+03 0.766E+03 0.107E+02   0.762E+03 -.764E+03 -.107E+02   0.114E+01 -.114E+01 0.137E-01   0.716E-03 0.242E-02 0.827E-02
   0.766E+03 -.763E+03 0.128E+02   -.765E+03 0.761E+03 -.129E+02   -.114E+01 0.114E+01 -.172E-02   0.714E-02 0.628E-02 0.919E-02
   0.400E+00 0.885E+00 0.107E+04   -.406E+00 -.877E+00 -.107E+04   -.281E-02 -.645E-02 -.162E+01   0.104E-01 0.286E-02 -.135E-02
   0.282E+02 0.610E+02 -.937E+03   -.280E+02 -.607E+02 0.936E+03   0.282E-01 0.753E-01 0.938E+00   0.122E-01 0.625E-02 -.429E-02
   0.983E+03 0.400E+03 -.404E+03   -.980E+03 -.398E+03 0.403E+03   -.183E+01 -.151E+01 0.208E+00   -.124E-03 0.915E-03 0.462E-02
   -.398E+03 -.988E+03 -.391E+03   0.396E+03 0.985E+03 0.391E+03   0.152E+01 0.183E+01 0.222E+00   -.135E-03 -.712E-02 0.293E-02
   -.327E+03 0.338E+03 -.422E+03   0.327E+03 -.338E+03 0.423E+03   -.315E+00 0.328E+00 -.553E+00   0.805E-02 0.343E-02 0.309E-02
   0.323E+03 -.321E+03 0.462E+03   -.323E+03 0.321E+03 -.462E+03   0.362E+00 -.363E+00 0.523E+00   0.110E-01 0.419E-02 0.607E-02
   0.332E+03 0.335E+03 -.427E+03   -.332E+03 -.335E+03 0.427E+03   0.280E+00 0.290E+00 -.615E+00   0.175E-01 0.547E-02 0.419E-02
   -.984E+03 0.403E+03 -.399E+03   0.981E+03 -.400E+03 0.399E+03   0.183E+01 -.151E+01 0.203E+00   -.833E-02 0.988E-03 0.166E-02
   0.403E+03 -.986E+03 -.394E+03   -.400E+03 0.983E+03 0.394E+03   -.153E+01 0.183E+01 0.202E+00   0.102E-01 -.314E-02 0.418E-02
   -.322E+03 -.321E+03 0.462E+03   0.322E+03 0.321E+03 -.463E+03   -.361E+00 -.362E+00 0.529E+00   0.106E-01 0.464E-02 0.428E-02
   0.645E+03 0.240E+01 0.138E+02   -.646E+03 -.241E+01 -.138E+02   0.731E+00 0.111E-02 -.482E-02   0.886E-02 0.508E-02 0.808E-02
   -.644E+03 0.287E+01 0.166E+02   0.645E+03 -.287E+01 -.166E+02   -.728E+00 -.929E-03 -.220E-01   -.684E-03 -.520E-03 0.885E-02
   0.392E+00 -.587E+03 0.968E+03   -.403E+00 0.586E+03 -.964E+03   -.785E-03 0.307E+00 -.235E+01   0.121E-01 0.355E-02 0.142E-02
   0.151E+02 -.643E+03 -.888E+03   -.151E+02 0.643E+03 0.884E+03   0.300E-01 0.587E-01 0.232E+01   0.705E-02 -.241E-02 -.517E-02
   0.159E+01 0.346E+01 0.202E+02   -.160E+01 -.346E+01 -.202E+02   0.422E-03 0.171E-02 -.725E-02   0.137E-01 0.351E-02 0.125E-01
   0.337E+03 -.324E+03 -.416E+03   -.337E+03 0.324E+03 0.416E+03   0.359E+00 -.346E+00 -.479E+00   0.156E-01 0.668E-02 0.683E-02
   -.330E+03 -.324E+03 -.408E+03   0.331E+03 0.325E+03 0.408E+03   -.377E+00 -.365E+00 -.417E+00   0.207E-02 0.930E-03 0.684E-02
   0.147E+01 -.643E+03 0.186E+02   -.148E+01 0.644E+03 -.186E+02   -.783E-03 -.727E+00 -.376E-01   0.106E-01 0.257E-02 0.112E-01
   -.125E+02 -.230E+02 -.206E+03   0.104E+02 0.184E+02 0.179E+03   0.169E+01 0.374E+01 0.235E+02   0.174E-02 0.781E-03 -.394E-02
   -.493E+02 -.105E+03 -.716E+03   0.540E+02 0.116E+03 0.779E+03   -.448E+01 -.978E+01 -.599E+02   0.180E-02 0.690E-03 -.465E-02
 -----------------------------------------------------------------------------------------------
   0.263E+01 0.622E+01 0.370E+02   0.334E-12 -.119E-11 -.341E-12   -.291E+01 -.629E+01 -.372E+02   0.268E+00 0.765E-01 0.139E+00
 
 
 POSITION                                       TOTAL-FORCE (eV/Angst)
 -----------------------------------------------------------------------------------
     13.37281      9.84801     12.50759         0.702278      1.107432      0.294218
     20.15199     16.62719     12.50759        -1.107935     -0.701513      0.290595
     16.62719      9.84801     12.50759        -0.701416      1.106602      0.292210
      9.84801     16.62719     12.50759         1.106633     -0.701380      0.291056
     15.00000     11.47521     10.20639         0.000615      0.407524      1.281035
     15.00000     11.47521     19.79360        -0.001081      0.403751     -1.301247
     15.00000      8.28283     15.00000         0.000478      1.515205      0.000153
      8.28283     15.00000     15.00000         1.514497      0.000687      0.001107
     21.71717     15.00000     15.00000        -1.512641      0.001029      0.002980
     15.00000     21.71717     15.00000         0.001987     -1.512856      0.006233
     18.35858     11.64142     10.25025        -0.753458      0.755273      1.073709
     18.35858     11.64142     19.74975        -0.756218      0.754878     -1.073399
     11.64142     18.35858     10.25025         0.755921     -0.753358      1.073499
     11.64142     18.35858     19.74975         0.750111     -0.755795     -1.075137
     11.64142     11.64142     10.25025         0.754292      0.754749      1.073476
     11.64142     11.64142     19.74975         0.755433      0.755568     -1.070935
     18.35858     18.35858     10.25025        -0.755611     -0.754545      1.073246
     18.35858     18.35858     19.74975        -0.742426     -0.749742     -1.078368
     13.37281      9.84801     17.49241         0.700943      1.107381     -0.290700
     20.15199     16.62719     17.49241        -1.101373     -0.700024     -0.296364
     16.73751     13.26249     12.54279         0.113441     -0.113409     -0.154675
      9.84801     13.37281     12.50759         1.108514      0.701467      0.294229
     16.62719     20.15199     12.50759        -0.701397     -1.109614      0.289781
     16.62719      9.84801     17.49241        -0.699019      1.107535     -0.291285
      9.84801     16.62719     17.49241         1.105881     -0.699003     -0.294007
     20.15199     13.37281     12.50759        -1.108864      0.700470      0.291385
     13.37281     20.15199     12.50759         0.700740     -1.109613      0.288996
     13.26249     13.26249     12.54279        -0.112668     -0.112822     -0.154764
     15.00000     11.52498     15.00000        -0.001046     -0.223522      0.000680
     18.52479     15.00000     10.20639        -0.409457      0.000811      1.281477
     18.52479     15.00000     19.79360        -0.372226     -0.008365     -1.313110
     11.47521     15.00000     10.20640         0.408969      0.000432      1.281166
     11.47521     15.00000     19.79360         0.391572     -0.004992     -1.306067
     11.49535     11.49535     15.00000         0.822649      0.820626     -0.011359
     18.50465     18.50465     15.00000        -0.827975     -0.828711      0.001145
     18.50465     11.49535     15.00000        -0.823686      0.820611     -0.011210
     11.49535     18.50465     15.00000         0.824024     -0.826494     -0.005187
     15.00000     15.00000     10.04368         0.002132      0.004284      1.182625
     15.00000     15.00000     19.95633         0.198703      0.415042     -0.117039
      9.84801     13.37281     17.49241         1.108342      0.703214     -0.288827
     16.62719     20.15199     17.49241        -0.702825     -1.099351     -0.297163
     16.73751     13.26249     17.45721         0.104830     -0.124168      0.153794
     13.26249     16.73751     12.54279        -0.113678      0.112916     -0.155454
     13.26249     13.26249     17.45721        -0.079014     -0.087632      0.184852
     20.15199     13.37281     17.49241        -1.109549      0.706112     -0.286882
     13.37281     20.15199     17.49241         0.707164     -1.105861     -0.288684
     16.73751     16.73751     12.54279         0.113995      0.113117     -0.155453
     11.52498     15.00000     15.00000        -0.223728     -0.003220     -0.001364
     18.47502     15.00000     15.00000         0.223326     -0.001690     -0.002590
     15.00000     18.52480     10.20639         0.000882     -0.409578      1.281234
     15.00000     18.52480     19.79360         0.009960     -0.420461     -1.245287
     15.00000     15.00000     15.00000         0.000709      0.000381      0.005467
     13.26249     16.73751     17.45721        -0.143361      0.122213      0.139032
     16.73751     16.73751     17.45721         0.142410      0.132452      0.132886
     15.00000     18.47502     15.00000         0.000436      0.223222     -0.003571
     15.54739     16.18545     22.23330        -0.506559     -0.922202     -3.858817
     15.63140     16.36738     23.34336         0.235340      0.484940      2.866682
 -----------------------------------------------------------------------------------
    total drift:                               -0.009983      0.007086     -0.004027


--------------------------------------------------------------------------------------------------------



  FREE ENERGIE OF THE ION-ELECTRON SYSTEM (eV)
  ---------------------------------------------------
  free  energy   TOTEN  =      -173.94619992 eV

  energy  without entropy=     -173.87108105  energy(sigma->0) =     -173.92742020
 


--------------------------------------------------------------------------------------------------------


    POTLOK:  cpu time   13.9859: real time   13.9862


--------------------------------------------------------------------------------------------------------


     LOOP+:  cpu time17683.8647: real time17684.9928
    4ORBIT:  cpu time    0.0000: real time    0.0000

 total amount of memory used by VASP MPI-rank0  5486941. kBytes
=======================================================================

   base      :      30000. kBytes
   nonlr-proj:      17126. kBytes
   fftplans  :     924480. kBytes
   grid      :    1872000. kBytes
   one-center:        886. kBytes
   wavefun   :    2642449. kBytes
 
  
  
 General timing and accounting informations for this job:
 ========================================================
  
                  Total CPU time used (sec):    17759.295
                            User time (sec):    16796.958
                          System time (sec):      962.336
                         Elapsed time (sec):    17760.538
  
                   Maximum memory used (kb):     7179016.
                   Average memory used (kb):           0.
  
                          Minor page faults:    786608888
                          Major page faults:            0
                 Voluntary context switches:          574
