 vasp.5.4.4.18Apr17-6-g9f103f2a35 (build Sep 03 2018 23:53:05) complex          
  
 executed on             LinuxIFC date 2021.12.02  10:48:55
 running on    1 total cores
 distrk:  each k-point on    1 cores,    1 groups
 distr:  one band on NCORES_PER_BAND=   1 cores,    1 groups


--------------------------------------------------------------------------------------------------------


 INCAR:
 POTCAR:    PAW_PBE Pd 04Jan2005                  
 POTCAR:    PAW_PBE C 08Apr2002                   
 POTCAR:    PAW_PBE O 08Apr2002                   
 POTCAR:    PAW_PBE Pd 04Jan2005                  
   VRHFIN =Pd : s1 d9                                                           
   LEXCH  = PE                                                                  
   EATOM  =   809.7530 eV,   59.5152 Ry                                         
                                                                                
   TITEL  = PAW_PBE Pd 04Jan2005                                                
   LULTRA =        F    use ultrasoft PP ?                                      
   IUNSCR =        1    unscreen: 0-lin 1-nonlin 2-no                           
   RPACOR =    2.000    partial core radius                                     
   POMASS =  106.420; ZVAL   =   10.000    mass and valenz                      
   RCORE  =    2.600    outmost cutoff radius                                   
   RWIGS  =    2.710; RWIGS  =    1.434    wigner-seitz radius (au A)           
   ENMAX  =  250.925; ENMIN  =  188.194 eV                                      
   ICORE  =        3    local potential                                         
   LCOR   =        T    correct aug charges                                     
   LPAW   =        T    paw PP                                                  
   EAUG   =  416.230                                                            
   DEXC   =    0.000                                                            
   RMAX   =    2.653    core radius for proj-oper                               
   RAUG   =    1.300    factor for augmentation sphere                          
   RDEP   =    2.734    radius for radial grids                                 
   RDEPT  =    2.103    core radius for aug-charge                              
                                                                                
   Atomic configuration                                                         
   12 entries                                                                   
     n  l   j            E        occ.                                          
     1  0  0.50    -24164.6631   2.0000                                         
     2  0  0.50     -3530.9218   2.0000                                         
     2  1  1.50     -3165.6822   6.0000                                         
     3  0  0.50      -639.4577   2.0000                                         
     3  1  1.50      -519.4532   6.0000                                         
     3  2  2.50      -328.9757  10.0000                                         
     4  0  0.50       -88.7014   2.0000                                         
     4  1  1.50       -54.4540   6.0000                                         
     4  2  2.50        -6.6878   9.0000                                         
     5  0  0.50        -4.3543   1.0000                                         
     5  1  0.50        -1.3606   0.0000                                         
     4  3  2.50        -1.3606   0.0000                                         
   Description                                                                  
     l       E           TYP  RCUT    TYP  RCUT                                 
     2     -6.6878251     23  2.400                                             
     2     -8.0484077     23  2.400                                             
     0     -4.3542939     23  2.400                                             
     0      4.3406793     23  2.400                                             
     1     -4.0817478     23  2.600                                             
     1     15.8380318     23  2.600                                             
     3     -4.0817478     23  2.400                                             
  local pseudopotential read in
  partial core-charges read in
  partial kinetic energy density read in
  atomic valenz-charges read in
  non local Contribution for L=           2  read in
    real space projection operators read in
  non local Contribution for L=           2  read in
    real space projection operators read in
  non local Contribution for L=           0  read in
    real space projection operators read in
  non local Contribution for L=           0  read in
    real space projection operators read in
  non local Contribution for L=           1  read in
    real space projection operators read in
  non local Contribution for L=           1  read in
    real space projection operators read in
    PAW grid and wavefunctions read in
 
   number of l-projection  operators is LMAX  =           6
   number of lm-projection operators is LMMAX =          18
 
 POTCAR:    PAW_PBE C 08Apr2002                   
   VRHFIN =C: s2p2                                                              
   LEXCH  = PE                                                                  
   EATOM  =   147.1560 eV,   10.8157 Ry                                         
                                                                                
   TITEL  = PAW_PBE C 08Apr2002                                                 
   LULTRA =        F    use ultrasoft PP ?                                      
   IUNSCR =        1    unscreen: 0-lin 1-nonlin 2-no                           
   RPACOR =    1.200    partial core radius                                     
   POMASS =   12.011; ZVAL   =    4.000    mass and valenz                      
   RCORE  =    1.500    outmost cutoff radius                                   
   RWIGS  =    1.630; RWIGS  =    0.863    wigner-seitz radius (au A)           
   ENMAX  =  400.000; ENMIN  =  300.000 eV                                      
   ICORE  =        2    local potential                                         
   LCOR   =        T    correct aug charges                                     
   LPAW   =        T    paw PP                                                  
   EAUG   =  644.873                                                            
   DEXC   =    0.000                                                            
   RMAX   =    1.529    core radius for proj-oper                               
   RAUG   =    1.300    factor for augmentation sphere                          
   RDEP   =    1.501    radius for radial grids                                 
   RDEPT  =    1.300    core radius for aug-charge                              
                                                                                
   Atomic configuration                                                         
    4 entries                                                                   
     n  l   j            E        occ.                                          
     1  0  0.50      -273.3789   2.0000                                         
     2  0  0.50       -13.7508   2.0000                                         
     2  1  0.50        -5.2854   2.0000                                         
     3  2  1.50        -5.4423   0.0000                                         
   Description                                                                  
     l       E           TYP  RCUT    TYP  RCUT                                 
     0    -13.7508458     23  1.200                                             
     0     -8.2022199     23  1.200                                             
     1     -5.2854383     23  1.500                                             
     1     34.0145650     23  1.500                                             
     2     -5.4423304      7  1.500                                             
  local pseudopotential read in
  partial core-charges read in
  partial kinetic energy density read in
  atomic valenz-charges read in
  non local Contribution for L=           0  read in
    real space projection operators read in
  non local Contribution for L=           0  read in
    real space projection operators read in
  non local Contribution for L=           1  read in
    real space projection operators read in
  non local Contribution for L=           1  read in
    real space projection operators read in
    PAW grid and wavefunctions read in
 
   number of l-projection  operators is LMAX  =           4
   number of lm-projection operators is LMMAX =           8
 
 POTCAR:    PAW_PBE O 08Apr2002                   
   VRHFIN =O: s2p4                                                              
   LEXCH  = PE                                                                  
   EATOM  =   432.3788 eV,   31.7789 Ry                                         
                                                                                
   TITEL  = PAW_PBE O 08Apr2002                                                 
   LULTRA =        F    use ultrasoft PP ?                                      
   IUNSCR =        1    unscreen: 0-lin 1-nonlin 2-no                           
   RPACOR =    1.200    partial core radius                                     
   POMASS =   16.000; ZVAL   =    6.000    mass and valenz                      
   RCORE  =    1.520    outmost cutoff radius                                   
   RWIGS  =    1.550; RWIGS  =    0.820    wigner-seitz radius (au A)           
   ENMAX  =  400.000; ENMIN  =  300.000 eV                                      
   ICORE  =        2    local potential                                         
   LCOR   =        T    correct aug charges                                     
   LPAW   =        T    paw PP                                                  
   EAUG   =  605.392                                                            
   DEXC   =    0.000                                                            
   RMAX   =    1.553    core radius for proj-oper                               
   RAUG   =    1.300    factor for augmentation sphere                          
   RDEP   =    1.550    radius for radial grids                                 
   RDEPT  =    1.329    core radius for aug-charge                              
                                                                                
   Atomic configuration                                                         
    4 entries                                                                   
     n  l   j            E        occ.                                          
     1  0  0.50      -514.6923   2.0000                                         
     2  0  0.50       -23.9615   2.0000                                         
     2  1  0.50        -9.0305   4.0000                                         
     3  2  1.50        -9.5241   0.0000                                         
   Description                                                                  
     l       E           TYP  RCUT    TYP  RCUT                                 
     0    -23.9615318     23  1.200                                             
     0     -9.5240782     23  1.200                                             
     1     -9.0304911     23  1.520                                             
     1      8.1634956     23  1.520                                             
     2     -9.5240782      7  1.500                                             
  local pseudopotential read in
  partial core-charges read in
  partial kinetic energy density read in
  kinetic energy density of atom read in
  atomic valenz-charges read in
  non local Contribution for L=           0  read in
    real space projection operators read in
  non local Contribution for L=           0  read in
    real space projection operators read in
  non local Contribution for L=           1  read in
    real space projection operators read in
  non local Contribution for L=           1  read in
    real space projection operators read in
    PAW grid and wavefunctions read in
 
   number of l-projection  operators is LMAX  =           4
   number of lm-projection operators is LMMAX =           8
 
 Optimization of the real space projectors (new method)

 maximal supplied QI-value         = 14.36
 optimisation between [QCUT,QGAM] = [ 10.20, 20.39] = [ 29.12,116.47] Ry 
 Optimized for a Real-space Cutoff    1.51 Angstroem

   l    n(q)    QCUT    max X(q) W(low)/X(q) W(high)/X(q)  e(spline) 
   2      8    10.197    59.108    0.26E-03    0.14E-03    0.96E-07
   2      8    10.197    58.101    0.27E-03    0.14E-03    0.98E-07
   0      9    10.197   102.235    0.54E-04    0.60E-05    0.72E-07
   0      9    10.197    58.388    0.52E-04    0.60E-05    0.68E-07
   1      9    10.197    22.191    0.18E-03    0.25E-03    0.79E-07
   1      9    10.197    15.590    0.15E-03    0.21E-03    0.69E-07
 Optimization of the real space projectors (new method)

 maximal supplied QI-value         = 25.13
 optimisation between [QCUT,QGAM] = [ 10.05, 20.36] = [ 28.30,116.06] Ry 
 Optimized for a Real-space Cutoff    1.30 Angstroem

   l    n(q)    QCUT    max X(q) W(low)/X(q) W(high)/X(q)  e(spline) 
   0      8    10.053   115.676    0.49E-03    0.72E-03    0.18E-06
   0      8    10.053    87.132    0.49E-03    0.71E-03    0.18E-06
   1      7    10.053     4.429    0.32E-03    0.31E-03    0.18E-06
   1      7    10.053     2.733    0.23E-03    0.19E-03    0.20E-06
 Optimization of the real space projectors (new method)

 maximal supplied QI-value         = 24.76
 optimisation between [QCUT,QGAM] = [ 10.15, 20.30] = [ 28.85,115.39] Ry 
 Optimized for a Real-space Cutoff    1.38 Angstroem

   l    n(q)    QCUT    max X(q) W(low)/X(q) W(high)/X(q)  e(spline) 
   0      8    10.150    20.381    0.22E-03    0.32E-03    0.29E-06
   0      8    10.150    15.268    0.23E-03    0.35E-03    0.30E-06
   1      8    10.150     5.964    0.46E-03    0.53E-03    0.21E-06
   1      8    10.150     5.382    0.38E-03    0.45E-03    0.19E-06

 ----------------------------------------------------------------------------- 
|                                                                             |
|  ADVICE TO THIS USER RUNNING 'VASP/VAMP'   (HEAR YOUR MASTER'S VOICE ...):  |
|                                                                             |
|      You enforced a specific xc-type in the INCAR file,                     |
|      a different type was found on the POTCAR file                          |
|          I HOPE YOU KNOW, WHAT YOU ARE  DOING                               |
|                                                                             |
 ----------------------------------------------------------------------------- 

  PAW_PBE Pd 04Jan2005                  :
 energy of atom  1       EATOM= -809.7530
 kinetic energy error for atom=    0.0091 (will be added to EATOM!!)
  PAW_PBE C 08Apr2002                   :
 energy of atom  2       EATOM= -147.1560
 kinetic energy error for atom=    0.0288 (will be added to EATOM!!)
  PAW_PBE O 08Apr2002                   :
 energy of atom  3       EATOM= -432.3788
 kinetic energy error for atom=    0.1156 (will be added to EATOM!!)
 
 
 POSCAR: Pd55PES                                 
  positions in cartesian coordinates
  No initial velocities read in
 exchange correlation table for  LEXCH =        9
   RHO(1)=    0.500       N(1)  =     2000
   RHO(2)=  100.500       N(2)  =     4000
 


--------------------------------------------------------------------------------------------------------


 ion  position               nearest neighbor table
   1  0.446  0.328  0.417-   3 3.25   5 3.25   7 3.36  15 3.36  29 3.42  28 3.42
   2  0.672  0.554  0.417-  26 3.25  30 3.25  17 3.36   9 3.36  47 3.42  49 3.42
   3  0.554  0.328  0.417-   1 3.25   5 3.25   7 3.36  11 3.36  29 3.42  21 3.42
   4  0.328  0.554  0.417-  32 3.25  22 3.25  13 3.36   8 3.36  43 3.42  48 3.42
   5  0.500  0.383  0.340-   1 3.25   3 3.25  11 3.36  15 3.36  21 3.42  28 3.42
   6  0.500  0.383  0.660-  24 3.25  19 3.25  16 3.36  12 3.36  42 3.42  44 3.42
   7  0.500  0.276  0.500-  29 3.24   3 3.36   1 3.36  19 3.36  24 3.36
   8  0.276  0.500  0.500-  48 3.24  22 3.36  40 3.36   4 3.36  25 3.36
   9  0.724  0.500  0.500-  56 2.61  49 3.24  26 3.36  45 3.36   2 3.36  20 3.36
  10  0.500  0.724  0.500-  55 3.24  27 3.36  23 3.36  46 3.36  41 3.36
  11  0.612  0.388  0.342-  21 3.24   5 3.36   3 3.36  30 3.36  26 3.36
  12  0.612  0.388  0.658-  42 3.24  24 3.36  45 3.36   6 3.36  31 3.36
  13  0.388  0.612  0.342-  43 3.24  32 3.36  50 3.36   4 3.36  27 3.36
  14  0.388  0.612  0.658-  53 3.24  25 3.36  33 3.36  51 3.36  46 3.36
  15  0.388  0.388  0.342-  28 3.24   5 3.36   1 3.36  32 3.36  22 3.36
  16  0.388  0.388  0.658-  44 3.24  19 3.36  40 3.36   6 3.36  33 3.36
  17  0.612  0.612  0.342-  47 3.24  30 3.36  50 3.36   2 3.36  23 3.36
  18  0.612  0.612  0.658-  54 3.24  31 3.36  20 3.36  51 3.36  41 3.36
  19  0.446  0.328  0.583-   6 3.25  24 3.25  16 3.36   7 3.36  44 3.42  29 3.42
  20  0.672  0.554  0.583-  31 3.25  45 3.25  18 3.36   9 3.36  54 3.42  49 3.42
  21  0.558  0.442  0.418-  11 3.24   5 3.42   3 3.42  30 3.42  26 3.42
  22  0.328  0.446  0.417-   4 3.25  32 3.25   8 3.36  15 3.36  48 3.42  28 3.42
  23  0.554  0.672  0.417-  27 3.25  50 3.25  10 3.36  17 3.36  55 3.42  47 3.42
  24  0.554  0.328  0.583-   6 3.25  19 3.25  12 3.36   7 3.36  42 3.42  29 3.42
  25  0.328  0.554  0.583-  33 3.25  40 3.25  14 3.36   8 3.36  53 3.42  48 3.42
  26  0.672  0.446  0.417-   2 3.25  30 3.25   9 3.36  11 3.36  49 3.42  21 3.42
  27  0.446  0.672  0.417-  23 3.25  50 3.25  10 3.36  13 3.36  55 3.42  43 3.42
  28  0.442  0.442  0.418-  15 3.24   5 3.42   1 3.42  32 3.42  22 3.42
  29  0.500  0.384  0.500-   7 3.24   3 3.42   1 3.42  24 3.42  19 3.42
  30  0.617  0.500  0.340-   2 3.25  26 3.25  17 3.36  11 3.36  47 3.42  21 3.42
  31  0.617  0.500  0.660-  20 3.25  45 3.25  18 3.36  12 3.36  54 3.42  42 3.42
  32  0.383  0.500  0.340-   4 3.25  22 3.25  13 3.36  15 3.36  43 3.42  28 3.42
  33  0.383  0.500  0.660-  25 3.25  40 3.25  14 3.36  16 3.36  53 3.42  44 3.42
  34  0.383  0.383  0.500-
  35  0.617  0.617  0.500-
  36  0.617  0.383  0.500-
  37  0.383  0.617  0.500-
  38  0.500  0.500  0.335-
  39  0.500  0.500  0.665-
  40  0.328  0.446  0.583-  33 3.25  25 3.25  16 3.36   8 3.36  44 3.42  48 3.42
  41  0.554  0.672  0.583-  46 3.25  51 3.25  10 3.36  18 3.36  54 3.42  55 3.42
  42  0.558  0.442  0.582-  12 3.24   6 3.42  24 3.42  31 3.42  45 3.42
  43  0.442  0.558  0.418-  13 3.24   4 3.42  32 3.42  27 3.42  50 3.42
  44  0.442  0.442  0.582-  16 3.24   6 3.42  19 3.42  33 3.42  40 3.42
  45  0.672  0.446  0.583-  20 3.25  31 3.25   9 3.36  12 3.36  49 3.42  42 3.42
  46  0.446  0.672  0.583-  41 3.25  51 3.25  10 3.36  14 3.36  53 3.42  55 3.42
  47  0.558  0.558  0.418-  17 3.24   2 3.42  30 3.42  23 3.42  50 3.42
  48  0.384  0.500  0.500-   8 3.24   4 3.42  22 3.42  25 3.42  40 3.42
  49  0.616  0.500  0.500-   9 3.24   2 3.42  26 3.42  20 3.42  45 3.42
  50  0.500  0.617  0.340-  27 3.25  23 3.25  13 3.36  17 3.36  43 3.42  47 3.42
  51  0.500  0.617  0.660-  41 3.25  46 3.25  14 3.36  18 3.36  53 3.42  54 3.42
  52  0.500  0.500  0.500-
  53  0.442  0.558  0.582-  14 3.24  25 3.42  33 3.42  51 3.42  46 3.42
  54  0.558  0.558  0.582-  18 3.24  31 3.42  20 3.42  51 3.42  41 3.42
  55  0.500  0.616  0.500-  10 3.24  23 3.42  27 3.42  41 3.42  46 3.42
  56  0.806  0.476  0.513-  57 1.13   9 2.61
  57  0.844  0.473  0.515-  56 1.13
 
  LATTYP: Found a simple cubic cell.
 ALAT       =    30.0000000000
  
  Lattice vectors:
  
 A1 = (  30.0000000000,   0.0000000000,   0.0000000000)
 A2 = (   0.0000000000,  30.0000000000,   0.0000000000)
 A3 = (   0.0000000000,   0.0000000000,  30.0000000000)


Analysis of symmetry for initial positions (statically):
=====================================================================
 Subroutine PRICEL returns:
 Original cell was already a primitive cell.
 

 Routine SETGRP: Setting up the symmetry group for a 
 simple cubic supercell.


 Subroutine GETGRP returns: Found  1 space group operations
 (whereof  1 operations were pure point group operations)
 out of a pool of 48 trial point group operations.


The static configuration has the point symmetry C_1 .


Analysis of symmetry for dynamics (positions and initial velocities):
=====================================================================
 Subroutine PRICEL returns:
 Original cell was already a primitive cell.
 

 Routine SETGRP: Setting up the symmetry group for a 
 simple cubic supercell.


 Subroutine GETGRP returns: Found  1 space group operations
 (whereof  1 operations were pure point group operations)
 out of a pool of 48 trial point group operations.


The dynamic configuration has the point symmetry C_1 .


Analysis of constrained symmetry for selective dynamics:
=====================================================================
 Subroutine PRICEL returns:
 Original cell was already a primitive cell.
 

 Routine SETGRP: Setting up the symmetry group for a 
 simple cubic supercell.


 Subroutine GETGRP returns: Found  1 space group operations
 (whereof  1 operations were pure point group operations)
 out of a pool of 48 trial point group operations.


The constrained configuration has the point symmetry C_1 .


 Subroutine INISYM returns: Found  1 space group operations
 (whereof  1 operations are pure point group operations),
 and found     1 'primitive' translations

 
 
 KPOINTS: K-points                                

Automatic generation of k-mesh.
Space group operators:
 irot       det(A)        alpha          n_x          n_y          n_z        tau_x        tau_y        tau_z
    1     1.000000     0.000000     1.000000     0.000000     0.000000     0.000000     0.000000     0.000000
 
 Subroutine IBZKPT returns following result:
 ===========================================
 
 Found      1 irreducible k-points:
 
 Following reciprocal coordinates:
            Coordinates               Weight
  0.000000  0.000000  0.000000      1.000000
 
 Following cartesian coordinates:
            Coordinates               Weight
  0.000000  0.000000  0.000000      1.000000
 


--------------------------------------------------------------------------------------------------------




 Dimension of arrays:
   k-points           NKPTS =      1   k-points in BZ     NKDIM =      1   number of bands    NBANDS=    336
   number of dos      NEDOS =    301   number of ions     NIONS =     57
   non local maximal  LDIM  =      6   non local SUM 2l+1 LMDIM =     18
   total plane-waves  NPLWV = ******
   max r-space proj   IRMAX =   1847   max aug-charges    IRDMAX=   6262
   dimension x,y,z NGX =   150 NGY =  150 NGZ =  150
   dimension x,y,z NGXF=   300 NGYF=  300 NGZF=  300
   support grid    NGXF=   300 NGYF=  300 NGZF=  300
   ions per type =              55   1   1
   NGX,Y,Z   is equivalent  to a cutoff of   8.31,  8.31,  8.31 a.u.
   NGXF,Y,Z  is equivalent  to a cutoff of  16.62, 16.62, 16.62 a.u.

 SYSTEM =  6_Pd100_top_free_z(O)                   
 POSCAR =  Pd55PES                                 

 Startparameter for this run:
   NWRITE =      2    write-flag & timer
   PREC   = normal    normal or accurate (medium, high low for compatibility)
   ISTART =      0    job   : 0-new  1-cont  2-samecut
   ICHARG =      2    charge: 1-file 2-atom 10-const
   ISPIN  =      1    spin polarized calculation?
   LNONCOLLINEAR =      F non collinear calculations
   LSORBIT =      F    spin-orbit coupling
   INIWAV =      1    electr: 0-lowe 1-rand  2-diag
   LASPH  =      F    aspherical Exc in radial PAW
   METAGGA=      F    non-selfconsistent MetaGGA calc.

 Electronic Relaxation 1
   ENCUT  =  400.0 eV  29.40 Ry    5.42 a.u.  48.92 48.92 48.92*2*pi/ulx,y,z
   ENINI  =  400.0     initial cutoff
   ENAUG  =  644.9 eV  augmentation charge cutoff
   NELM   =    100;   NELMIN=  6; NELMDL= -5     # of ELM steps 
   EDIFF  = 0.1E-03   stopping-criterion for ELM
   LREAL  =      T    real-space projection
   NLSPLINE    = F    spline interpolate recip. space projectors
   LCOMPAT=      F    compatible to vasp.4.4
   GGA_COMPAT  = T    GGA compatible to vasp.4.4-vasp.4.6
   LMAXPAW     = -100 max onsite density
   LMAXMIX     =    2 max onsite mixed and CHGCAR
   VOSKOWN=      0    Vosko Wilk Nusair interpolation
   ROPT   =   -0.00050  -0.00050  -0.00050
 Ionic relaxation
   EDIFFG = -.5E-01   stopping-criterion for IOM
   NSW    =      0    number of steps for IOM
   NBLOCK =      1;   KBLOCK =      1    inner block; outer block 
   IBRION =     -1    ionic relax: 0-MD 1-quasi-New 2-CG
   NFREE  =      1    steps in history (QN), initial steepest desc. (CG)
   ISIF   =      2    stress and relaxation
   IWAVPR =     10    prediction:  0-non 1-charg 2-wave 3-comb
   ISYM   =      2    0-nonsym 1-usesym 2-fastsym
   LCORR  =      T    Harris-Foulkes like correction to forces

   POTIM  = 0.5000    time-step for ionic-motion
   TEIN   =    0.0    initial temperature
   TEBEG  =    0.0;   TEEND  =   0.0 temperature during run
   SMASS  =  -3.00    Nose mass-parameter (am)
   estimated Nose-frequenzy (Omega)   =  0.10E-29 period in steps =****** mass=  -0.206E-25a.u.
   SCALEE = 1.0000    scale energy and forces
   NPACO  =    256;   APACO  = 16.0  distance and # of slots for P.C.
   PSTRESS=    0.0 pullay stress

  Mass of Ions in am
   POMASS = 106.42 12.01 16.00
  Ionic Valenz
   ZVAL   =  10.00  4.00  6.00
  Atomic Wigner-Seitz radii
   RWIGS  =  -1.00 -1.00 -1.00
  virtual crystal weights 
   VCA    =   1.00  1.00  1.00
   NELECT =     560.0000    total number of electrons
   NUPDOWN=      -1.0000    fix difference up-down

 DOS related values:
   EMIN   =  10.00;   EMAX   =-10.00  energy-range for DOS
   EFERMI =   0.00
   ISMEAR =     2;   SIGMA  =   0.20  broadening in eV -4-tet -1-fermi 0-gaus

 Electronic relaxation 2 (details)
   IALGO  =     68    algorithm
   LDIAG  =      T    sub-space diagonalisation (order eigenvalues)
   LSUBROT=      F    optimize rotation matrix (better conditioning)
   TURBO    =      0    0=normal 1=particle mesh
   IRESTART =      0    0=no restart 2=restart with 2 vectors
   NREBOOT  =      0    no. of reboots
   NMIN     =      0    reboot dimension
   EREF     =   0.00    reference energy to select bands
   IMIX   =      4    mixing-type and parameters
     AMIX     =   0.40;   BMIX     =  1.00
     AMIX_MAG =   1.60;   BMIX_MAG =  1.00
     AMIN     =   0.10
     WC   =   100.;   INIMIX=   1;  MIXPRE=   1;  MAXMIX= -45

 Intra band minimization:
   WEIMIN = 0.0000     energy-eigenvalue tresh-hold
   EBREAK =  0.74E-07  absolut break condition
   DEPER  =   0.30     relativ break condition  

   TIME   =   0.40     timestep for ELM

  volume/ion in A,a.u.               =     473.68      3196.58
  Fermi-wavevector in a.u.,A,eV,Ry     =   0.449797  0.849992  2.752691  0.202317
  Thomas-Fermi vector in A             =   1.430086
 
 Write flags
   LWAVE        =      F    write WAVECAR
   LDOWNSAMPLE  =      F    k-point downsampling of WAVECAR
   LCHARG       =      F    write CHGCAR
   LVTOT        =      F    write LOCPOT, total local potential
   LVHAR        =      F    write LOCPOT, Hartree potential only
   LELF         =      F    write electronic localiz. function (ELF)
   LORBIT       =      0    0 simple, 1 ext, 2 COOP (PROOUT), +10 PAW based schemes


 Dipole corrections
   LMONO  =      F    monopole corrections only (constant potential shift)
   LDIPOL =      F    correct potential (dipole corrections)
   IDIPOL =      0    1-x, 2-y, 3-z, 4-all directions 
   EPSILON=  1.0000000 bulk dielectric constant

 Exchange correlation treatment:
   GGA     =    RP    GGA type
   LEXCH   =     9    internal setting for exchange type
   VOSKOWN=      0    Vosko Wilk Nusair interpolation
   LHFCALC =     F    Hartree Fock is set to
   LHFONE  =     F    Hartree Fock one center treatment
   AEXX    =    0.0000 exact exchange contribution

 Linear response parameters
   LEPSILON=     F    determine dielectric tensor
   LRPA    =     F    only Hartree local field effects (RPA)
   LNABLA  =     F    use nabla operator in PAW spheres
   LVEL    =     F    velocity operator in full k-point grid
   LINTERFAST=   F  fast interpolation
   KINTER  =     0    interpolate to denser k-point grid
   CSHIFT  =0.1000    complex shift for real part using Kramers Kronig
   OMEGAMAX=  -1.0    maximum frequency
   DEG_THRESHOLD= 0.2000000E-02 threshold for treating states as degnerate
   RTIME   =   -0.100 relaxation time in fs
  (WPLASMAI=    0.000 imaginary part of plasma frequency in eV, 0.658/RTIME)
   DFIELD  = 0.0000000 0.0000000 0.0000000 field for delta impulse in time
 
 Orbital magnetization related:
   ORBITALMAG=     F  switch on orbital magnetization
   LCHIMAG   =     F  perturbation theory with respect to B field
   DQ        =  0.001000  dq finite difference perturbation B field
   LLRAUG    =     F  two centre corrections for induced B field



--------------------------------------------------------------------------------------------------------


 Static calculation
 charge density and potential will be updated during run
 non-spin polarized calculation
 RMM-DIIS sequential band-by-band and
  variant of blocked Davidson during initial phase
 perform sub-space diagonalisation
    before iterative eigenvector-optimisation
 modified Broyden-mixing scheme, WC =      100.0
 initial mixing is a Kerker type mixing with AMIX =  0.4000 and BMIX =      1.0000
 Hartree-type preconditioning will be used
 using additional bands           56
 real space projection scheme for non local part
 use partial core corrections
 calculate Harris-corrections to forces 
   (improved forces if not selfconsistent)
 use gradient corrections 
 use of overlap-Matrix (Vanderbilt PP)
 Methfessel and Paxton  Order N= 2 SIGMA  =   0.20


--------------------------------------------------------------------------------------------------------


  energy-cutoff  :      400.00
  volume of cell :    27000.00
      direct lattice vectors                 reciprocal lattice vectors
    30.000000000  0.000000000  0.000000000     0.033333333  0.000000000  0.000000000
     0.000000000 30.000000000  0.000000000     0.000000000  0.033333333  0.000000000
     0.000000000  0.000000000 30.000000000     0.000000000  0.000000000  0.033333333

  length of vectors
    30.000000000 30.000000000 30.000000000     0.033333333  0.033333333  0.033333333


 
 k-points in units of 2pi/SCALE and weight: K-points                                
   0.00000000  0.00000000  0.00000000       1.000
 
 k-points in reciprocal lattice and weights: K-points                                
   0.00000000  0.00000000  0.00000000       1.000
 
 position of ions in fractional coordinates (direct lattice) 
   0.44576020  0.32826710  0.41691983
   0.67173288  0.55423978  0.41691983
   0.55423980  0.32826710  0.41691983
   0.32826712  0.55423978  0.41691983
   0.50000000  0.38250690  0.34021317
   0.50000000  0.38250690  0.65978680
   0.50000000  0.27609440  0.50000000
   0.27609443  0.49999998  0.50000000
   0.72390557  0.49999998  0.50000000
   0.50000000  0.72390555  0.50000000
   0.61195280  0.38804720  0.34167483
   0.61195280  0.38804720  0.65832513
   0.38804722  0.61195278  0.34167483
   0.38804722  0.61195278  0.65832513
   0.38804720  0.38804720  0.34167483
   0.38804720  0.38804720  0.65832513
   0.61195278  0.61195278  0.34167483
   0.61195278  0.61195278  0.65832513
   0.44576020  0.32826710  0.58308023
   0.67173288  0.55423978  0.58308023
   0.55791699  0.44208301  0.41809300
   0.32826705  0.44576024  0.41691983
   0.55423973  0.67173293  0.41691983
   0.55423980  0.32826710  0.58308023
   0.32826712  0.55423978  0.58308023
   0.67173295  0.44576024  0.41691983
   0.44576027  0.67173293  0.41691983
   0.44208301  0.44208301  0.41809300
   0.50000000  0.38416601  0.50000000
   0.61749315  0.50000005  0.34021317
   0.61749315  0.50000005  0.65978680
   0.38250685  0.50000005  0.34021317
   0.38250685  0.50000005  0.65978680
   0.38317830  0.38317830  0.50000000
   0.61682172  0.61682172  0.50000000
   0.61682170  0.38317830  0.50000000
   0.38317828  0.61682172  0.50000000
   0.50000000  0.50000000  0.33478917
   0.50000000  0.50000000  0.66521087
   0.32826705  0.44576024  0.58308023
   0.55423973  0.67173293  0.58308023
   0.55791699  0.44208301  0.58190703
   0.44208298  0.55791702  0.41809300
   0.44208301  0.44208301  0.58190703
   0.67173295  0.44576024  0.58308023
   0.44576027  0.67173293  0.58308023
   0.55791702  0.55791702  0.41809300
   0.38416599  0.50000002  0.50000000
   0.61583401  0.50000002  0.50000000
   0.50000000  0.61749319  0.34021317
   0.50000000  0.61749319  0.65978680
   0.50000000  0.50000000  0.50000000
   0.44208298  0.55791702  0.58190703
   0.55791702  0.55791702  0.58190703
   0.50000000  0.61583404  0.50000000
   0.80645540  0.47550547  0.51329260
   0.84390090  0.47251250  0.51491683
 
 position of ions in cartesian coordinates  (Angst):
  13.37280588  9.84801292 12.50759500
  20.15198637 16.62719342 12.50759500
  16.62719412  9.84801292 12.50759500
   9.84801363 16.62719342 12.50759500
  15.00000000 11.47520705 10.20639500
  15.00000000 11.47520705 19.79360400
  15.00000000  8.28283206 15.00000000
   8.28283277 14.99999929 15.00000000
  21.71716723 14.99999929 15.00000000
  15.00000000 21.71716652 14.99999999
  18.35858397 11.64141603 10.25024500
  18.35858397 11.64141603 19.74975399
  11.64141674 18.35858326 10.25024500
  11.64141674 18.35858326 19.74975400
  11.64141603 11.64141603 10.25024500
  11.64141603 11.64141603 19.74975400
  18.35858326 18.35858326 10.25024500
  18.35858326 18.35858326 19.74975400
  13.37280588  9.84801291 17.49240700
  20.15198638 16.62719341 17.49240700
  16.73750985 13.26249015 12.54279000
   9.84801151 13.37280729 12.50759500
  16.62719200 20.15198779 12.50759500
  16.62719412  9.84801292 17.49240700
   9.84801363 16.62719342 17.49240700
  20.15198849 13.37280729 12.50759500
  13.37280800 20.15198779 12.50759500
  13.26249015 13.26249015 12.54279000
  15.00000000 11.52498029 15.00000000
  18.52479437 15.00000140 10.20639500
  18.52479437 15.00000141 19.79360400
  11.47520562 15.00000141 10.20639501
  11.47520563 15.00000141 19.79360400
  11.49534898 11.49534898 15.00000000
  18.50465172 18.50465172 15.00000000
  18.50465102 11.49534898 15.00000000
  11.49534828 18.50465172 15.00000000
  15.00000000 15.00000000 10.04367500
  15.00000000 15.00000000 19.95632599
   9.84801151 13.37280729 17.49240700
  16.62719200 20.15198779 17.49240700
  16.73750985 13.26249015 17.45721100
  13.26248944 16.73751056 12.54279001
  13.26249015 13.26249015 17.45721100
  20.15198849 13.37280729 17.49240699
  13.37280800 20.15198779 17.49240700
  16.73751056 16.73751056 12.54279000
  11.52497959 15.00000071 15.00000000
  18.47502041 15.00000071 15.00000000
  14.99999999 18.52479579 10.20639500
  15.00000000 18.52479578 19.79360400
  15.00000000 15.00000000 15.00000000
  13.26248944 16.73751057 17.45721101
  16.73751056 16.73751057 17.45721100
  15.00000000 18.47502112 15.00000000
  24.19366200 14.26516400 15.39877800
  25.31702700 14.17537500 15.44750500
 


--------------------------------------------------------------------------------------------------------


 k-point  1 :   0.0000 0.0000 0.0000  plane waves:  490521

 maximum and minimum number of plane-waves per node :    490521   490521

 maximum number of plane-waves:    490521
 maximum index in each direction: 
   IXMAX=   48   IYMAX=   48   IZMAX=   48
   IXMIN=  -48   IYMIN=  -48   IZMIN=  -48


 serial   3D FFT for wavefunctions
 parallel 3D FFT for charge:
    minimum data exchange during FFTs selected (reduces bandwidth)


 total amount of memory used by VASP MPI-rank0  5486941. kBytes
=======================================================================

   base      :      30000. kBytes
   nonlr-proj:      17126. kBytes
   fftplans  :     924480. kBytes
   grid      :    1872000. kBytes
   one-center:        886. kBytes
   wavefun   :    2642449. kBytes
 
     INWAV:  cpu time    0.0001: real time    0.0005
 Broyden mixing: mesh for mixing (old mesh)
   NGX = 97   NGY = 97   NGZ = 97
  (NGX  =300   NGY  =300   NGZ  =300)
  gives a total of 912673 points

 initial charge density was supplied:
 charge density of overlapping atoms calculated
 number of electron     560.0000000 magnetization 
 keeping initial charge density in first step


--------------------------------------------------------------------------------------------------------


 Maximum index for non-local projection operator         1763
 Maximum index for augmentation-charges         5898 (set IRDMAX)


--------------------------------------------------------------------------------------------------------


 First call to EWALD:  gamma=   0.059
 Maximum number of real-space cells 3x 3x 3
 Maximum number of reciprocal cells 3x 3x 3

    FEWALD:  cpu time    0.0151: real time    0.0150


--------------------------------------- Iteration      1(   1)  ---------------------------------------


    POTLOK:  cpu time   14.4272: real time   14.4299
    SETDIJ:  cpu time    0.1217: real time    0.1217
     EDDAV:  cpu time  365.6190: real time  365.6957
       DOS:  cpu time    0.0013: real time    0.0013
    --------------------------------------------
      LOOP:  cpu time  380.1692: real time  380.2486

 eigenvalue-minimisations  :   688
 total energy-change (2. order) : 0.4379148E+04  (-0.1005003E+05)
 number of electron     560.0000000 magnetization 
 augmentation part      560.0000000 magnetization 

 Free energy of the ion-electron system (eV)
  ---------------------------------------------------
  alpha Z        PSCENC =        75.25431677
  Ewald energy   TEWEN  =    136850.87177628
  -Hartree energ DENC   =   -180218.75006649
  -exchange      EXHF   =         0.00000000
  -V(xc)+E(xc)   XCENC  =     -1704.00303907
  PAW double counting   =     44873.02882129   -41398.84523641
  entropy T*S    EENTRO =         0.01607437
  eigenvalues    EBANDS =       815.06971975
  atomic energy  EATOM  =     45086.50549395
  Solvation  Ediel_sol  =         0.00000000
  ---------------------------------------------------
  free energy    TOTEN  =      4379.14786045 eV

  energy without entropy =     4379.13178608  energy(sigma->0) =     4379.14384186


--------------------------------------------------------------------------------------------------------




--------------------------------------- Iteration      1(   2)  ---------------------------------------


     EDDAV:  cpu time  583.4322: real time  583.4467
       DOS:  cpu time    0.0011: real time    0.0011
    --------------------------------------------
      LOOP:  cpu time  583.4334: real time  583.4478

 eigenvalue-minimisations  :  1224
 total energy-change (2. order) :-0.2366979E+04  (-0.2130297E+04)
 number of electron     560.0000000 magnetization 
 augmentation part      560.0000000 magnetization 

 Free energy of the ion-electron system (eV)
  ---------------------------------------------------
  alpha Z        PSCENC =        75.25431677
  Ewald energy   TEWEN  =    136850.87177628
  -Hartree energ DENC   =   -180218.75006649
  -exchange      EXHF   =         0.00000000
  -V(xc)+E(xc)   XCENC  =     -1704.00303907
  PAW double counting   =     44873.02882129   -41398.84523641
  entropy T*S    EENTRO =         0.00802083
  eigenvalues    EBANDS =     -1551.90095823
  atomic energy  EATOM  =     45086.50549395
  Solvation  Ediel_sol  =         0.00000000
  ---------------------------------------------------
  free energy    TOTEN  =      2012.16912893 eV

  energy without entropy =     2012.16110810  energy(sigma->0) =     2012.16712372


--------------------------------------------------------------------------------------------------------




--------------------------------------- Iteration      1(   3)  ---------------------------------------


     EDDAV:  cpu time  490.4369: real time  490.4522
       DOS:  cpu time    0.0011: real time    0.0011
    --------------------------------------------
      LOOP:  cpu time  490.4380: real time  490.4533

 eigenvalue-minimisations  :   992
 total energy-change (2. order) :-0.1777992E+04  (-0.1670866E+04)
 number of electron     560.0000000 magnetization 
 augmentation part      560.0000000 magnetization 

 Free energy of the ion-electron system (eV)
  ---------------------------------------------------
  alpha Z        PSCENC =        75.25431677
  Ewald energy   TEWEN  =    136850.87177628
  -Hartree energ DENC   =   -180218.75006649
  -exchange      EXHF   =         0.00000000
  -V(xc)+E(xc)   XCENC  =     -1704.00303907
  PAW double counting   =     44873.02882129   -41398.84523641
  entropy T*S    EENTRO =         0.00026797
  eigenvalues    EBANDS =     -3329.88567575
  atomic energy  EATOM  =     45086.50549395
  Solvation  Ediel_sol  =         0.00000000
  ---------------------------------------------------
  free energy    TOTEN  =       234.17665856 eV

  energy without entropy =      234.17639058  energy(sigma->0) =      234.17659156


--------------------------------------------------------------------------------------------------------




--------------------------------------- Iteration      1(   4)  ---------------------------------------


     EDDAV:  cpu time  424.7949: real time  424.8057
       DOS:  cpu time    0.0012: real time    0.0012
    --------------------------------------------
      LOOP:  cpu time  424.7961: real time  424.8069

 eigenvalue-minimisations  :   832
 total energy-change (2. order) :-0.3679167E+03  (-0.3130023E+03)
 number of electron     560.0000000 magnetization 
 augmentation part      560.0000000 magnetization 

 Free energy of the ion-electron system (eV)
  ---------------------------------------------------
  alpha Z        PSCENC =        75.25431677
  Ewald energy   TEWEN  =    136850.87177628
  -Hartree energ DENC   =   -180218.75006649
  -exchange      EXHF   =         0.00000000
  -V(xc)+E(xc)   XCENC  =     -1704.00303907
  PAW double counting   =     44873.02882129   -41398.84523641
  entropy T*S    EENTRO =        -0.01508208
  eigenvalues    EBANDS =     -3697.78699558
  atomic energy  EATOM  =     45086.50549395
  Solvation  Ediel_sol  =         0.00000000
  ---------------------------------------------------
  free energy    TOTEN  =      -133.74001133 eV

  energy without entropy =     -133.72492925  energy(sigma->0) =     -133.73624081


--------------------------------------------------------------------------------------------------------




--------------------------------------- Iteration      1(   5)  ---------------------------------------


     EDDAV:  cpu time  503.6630: real time  503.6707
       DOS:  cpu time    0.0014: real time    0.0014
    CHARGE:  cpu time   25.2475: real time   25.2477
    MIXING:  cpu time    0.4403: real time    0.4403
    --------------------------------------------
      LOOP:  cpu time  529.3522: real time  529.3601

 eigenvalue-minimisations  :  1040
 total energy-change (2. order) :-0.4500206E+02  (-0.3726090E+02)
 number of electron     559.9999852 magnetization 
 augmentation part      245.2779366 magnetization 

 Broyden mixing:
  rms(total) = 0.13808E+01    rms(broyden)= 0.13798E+01
  rms(prec ) = 0.14856E+01
  weight for this iteration     100.00

 Free energy of the ion-electron system (eV)
  ---------------------------------------------------
  alpha Z        PSCENC =        75.25431677
  Ewald energy   TEWEN  =    136850.87177628
  -Hartree energ DENC   =   -180218.75006649
  -exchange      EXHF   =         0.00000000
  -V(xc)+E(xc)   XCENC  =     -1704.00303907
  PAW double counting   =     44873.02882129   -41398.84523641
  entropy T*S    EENTRO =         0.52942637
  eigenvalues    EBANDS =     -3743.33356000
  atomic energy  EATOM  =     45086.50549395
  Solvation  Ediel_sol  =         0.00000000
  ---------------------------------------------------
  free energy    TOTEN  =      -178.74206730 eV

  energy without entropy =     -179.27149367  energy(sigma->0) =     -178.87442389


--------------------------------------------------------------------------------------------------------




--------------------------------------- Iteration      1(   6)  ---------------------------------------


    POTLOK:  cpu time   13.3127: real time   13.3182
    SETDIJ:  cpu time    0.1206: real time    0.1206
    EDDIAG:  cpu time   67.4926: real time   67.4935
  RMM-DIIS:  cpu time  187.9554: real time  187.9552
    ORTHCH:  cpu time   13.3215: real time   13.3214
       DOS:  cpu time    0.0013: real time    0.0013
    CHARGE:  cpu time   25.2536: real time   25.2541
    MIXING:  cpu time    0.4642: real time    0.4642
    --------------------------------------------
      LOOP:  cpu time  307.9219: real time  307.9286

 eigenvalue-minimisations  :   724
 total energy-change (2. order) : 0.1003131E+00  (-0.5126701E+01)
 number of electron     559.9999889 magnetization 
 augmentation part      240.6683075 magnetization 

 Broyden mixing:
  rms(total) = 0.22623E+01    rms(broyden)= 0.22621E+01
  rms(prec ) = 0.26689E+01
  weight for this iteration     100.00

 eigenvalues of (default mixing * dielectric matrix)
  average eigenvalue GAMMA=   0.3127
  0.3127

 Free energy of the ion-electron system (eV)
  ---------------------------------------------------
  alpha Z        PSCENC =        75.25431677
  Ewald energy   TEWEN  =    136850.87177628
  -Hartree energ DENC   =   -180632.01135477
  -exchange      EXHF   =         0.00000000
  -V(xc)+E(xc)   XCENC  =     -1697.70695188
  PAW double counting   =     45620.89936713   -42119.37459062
  entropy T*S    EENTRO =        -0.25468024
  eigenvalues    EBANDS =     -3362.82513079
  atomic energy  EATOM  =     45086.50549395
  Solvation  Ediel_sol  =         0.00000000
  ---------------------------------------------------
  free energy    TOTEN  =      -178.64175417 eV

  energy without entropy =     -178.38707393  energy(sigma->0) =     -178.57808411


--------------------------------------------------------------------------------------------------------




--------------------------------------- Iteration      1(   7)  ---------------------------------------


    POTLOK:  cpu time   13.0923: real time   13.0955
    SETDIJ:  cpu time    0.1211: real time    0.1211
    EDDIAG:  cpu time   67.9793: real time   67.9798
  RMM-DIIS:  cpu time  222.6318: real time  222.6398
    ORTHCH:  cpu time   13.5057: real time   13.5056
       DOS:  cpu time    0.0015: real time    0.0015
    CHARGE:  cpu time   25.0463: real time   25.0461
    MIXING:  cpu time    0.4823: real time    0.4823
    --------------------------------------------
      LOOP:  cpu time  342.8602: real time  342.8717

 eigenvalue-minimisations  :   863
 total energy-change (2. order) :-0.2915823E+01  (-0.1769306E+01)
 number of electron     559.9999849 magnetization 
 augmentation part      240.3493504 magnetization 

 Broyden mixing:
  rms(total) = 0.24538E+01    rms(broyden)= 0.24535E+01
  rms(prec ) = 0.30227E+01
  weight for this iteration     100.00

 eigenvalues of (default mixing * dielectric matrix)
  average eigenvalue GAMMA=   0.2941
  0.4624  0.1258

 Free energy of the ion-electron system (eV)
  ---------------------------------------------------
  alpha Z        PSCENC =        75.25431677
  Ewald energy   TEWEN  =    136850.87177628
  -Hartree energ DENC   =   -180709.62460707
  -exchange      EXHF   =         0.00000000
  -V(xc)+E(xc)   XCENC  =     -1697.85494889
  PAW double counting   =     45674.63770878   -42170.68192231
  entropy T*S    EENTRO =        -0.03355051
  eigenvalues    EBANDS =     -3290.63184454
  atomic energy  EATOM  =     45086.50549395
  Solvation  Ediel_sol  =         0.00000000
  ---------------------------------------------------
  free energy    TOTEN  =      -181.55757752 eV

  energy without entropy =     -181.52402702  energy(sigma->0) =     -181.54918990


--------------------------------------------------------------------------------------------------------




--------------------------------------- Iteration      1(   8)  ---------------------------------------


    POTLOK:  cpu time   13.1205: real time   13.1227
    SETDIJ:  cpu time    0.1188: real time    0.1188
    EDDIAG:  cpu time   67.4489: real time   67.4490
  RMM-DIIS:  cpu time  202.5373: real time  202.5396
    ORTHCH:  cpu time   13.4281: real time   13.4281
       DOS:  cpu time    0.0014: real time    0.0014
    CHARGE:  cpu time   25.0553: real time   25.0552
    MIXING:  cpu time    0.5134: real time    0.5134
    --------------------------------------------
      LOOP:  cpu time  322.2238: real time  322.2282

 eigenvalue-minimisations  :   787
 total energy-change (2. order) :-0.1056274E+01  (-0.6339071E+00)
 number of electron     559.9999832 magnetization 
 augmentation part      240.0856060 magnetization 

 Broyden mixing:
  rms(total) = 0.24672E+01    rms(broyden)= 0.24669E+01
  rms(prec ) = 0.28621E+01
  weight for this iteration     100.00

 eigenvalues of (default mixing * dielectric matrix)
  average eigenvalue GAMMA=   0.3072
  0.6707  0.1255  0.1255

 Free energy of the ion-electron system (eV)
  ---------------------------------------------------
  alpha Z        PSCENC =        75.25431677
  Ewald energy   TEWEN  =    136850.87177628
  -Hartree energ DENC   =   -180756.78193641
  -exchange      EXHF   =         0.00000000
  -V(xc)+E(xc)   XCENC  =     -1697.91288599
  PAW double counting   =     45722.60648899   -42216.41821183
  entropy T*S    EENTRO =        -0.06667848
  eigenvalues    EBANDS =     -3246.67221495
  atomic energy  EATOM  =     45086.50549395
  Solvation  Ediel_sol  =         0.00000000
  ---------------------------------------------------
  free energy    TOTEN  =      -182.61385166 eV

  energy without entropy =     -182.54717318  energy(sigma->0) =     -182.59718204


--------------------------------------------------------------------------------------------------------




--------------------------------------- Iteration      1(   9)  ---------------------------------------


    POTLOK:  cpu time   13.2331: real time   13.2336
    SETDIJ:  cpu time    0.1225: real time    0.1225
    EDDIAG:  cpu time   67.4543: real time   67.4549
  RMM-DIIS:  cpu time  185.8876: real time  185.8905
    ORTHCH:  cpu time   13.1243: real time   13.1242
       DOS:  cpu time    0.0014: real time    0.0014
    CHARGE:  cpu time   24.4944: real time   24.4945
    MIXING:  cpu time    0.5289: real time    0.5289
    --------------------------------------------
      LOOP:  cpu time  304.8465: real time  304.8505

 eigenvalue-minimisations  :   732
 total energy-change (2. order) : 0.8396967E+00  (-0.5349934E+00)
 number of electron     559.9999811 magnetization 
 augmentation part      240.8672176 magnetization 

 Broyden mixing:
  rms(total) = 0.26791E+01    rms(broyden)= 0.26788E+01
  rms(prec ) = 0.31664E+01
  weight for this iteration     100.00

 eigenvalues of (default mixing * dielectric matrix)
  average eigenvalue GAMMA=   0.2781
  0.7450  0.1353  0.1353  0.0967

 Free energy of the ion-electron system (eV)
  ---------------------------------------------------
  alpha Z        PSCENC =        75.25431677
  Ewald energy   TEWEN  =    136850.87177628
  -Hartree energ DENC   =   -180774.90205337
  -exchange      EXHF   =         0.00000000
  -V(xc)+E(xc)   XCENC  =     -1697.88730140
  PAW double counting   =     45784.15720149   -42275.03091672
  entropy T*S    EENTRO =        -0.00581091
  eigenvalues    EBANDS =     -3230.73686107
  atomic energy  EATOM  =     45086.50549395
  Solvation  Ediel_sol  =         0.00000000
  ---------------------------------------------------
  free energy    TOTEN  =      -181.77415497 eV

  energy without entropy =     -181.76834406  energy(sigma->0) =     -181.77270224


--------------------------------------------------------------------------------------------------------




--------------------------------------- Iteration      1(  10)  ---------------------------------------


    POTLOK:  cpu time   12.9238: real time   12.9265
    SETDIJ:  cpu time    0.1217: real time    0.1217
    EDDIAG:  cpu time   67.5434: real time   67.5454
  RMM-DIIS:  cpu time  192.5196: real time  192.5208
    ORTHCH:  cpu time   13.5134: real time   13.5132
       DOS:  cpu time    0.0015: real time    0.0015
    CHARGE:  cpu time   25.0887: real time   25.0884
    MIXING:  cpu time    0.5737: real time    0.5737
    --------------------------------------------
      LOOP:  cpu time  312.2857: real time  312.2911

 eigenvalue-minimisations  :   748
 total energy-change (2. order) : 0.1292822E+01  (-0.2465880E+00)
 number of electron     559.9999862 magnetization 
 augmentation part      241.1287104 magnetization 

 Broyden mixing:
  rms(total) = 0.23516E+01    rms(broyden)= 0.23513E+01
  rms(prec ) = 0.27408E+01
  weight for this iteration     100.00

 eigenvalues of (default mixing * dielectric matrix)
  average eigenvalue GAMMA=   0.2610
  0.8173  0.1522  0.1522  0.1030  0.0802

 Free energy of the ion-electron system (eV)
  ---------------------------------------------------
  alpha Z        PSCENC =        75.25431677
  Ewald energy   TEWEN  =    136850.87177628
  -Hartree energ DENC   =   -180795.17052735
  -exchange      EXHF   =         0.00000000
  -V(xc)+E(xc)   XCENC  =     -1697.78704055
  PAW double counting   =     45815.47117502   -42304.95665625
  entropy T*S    EENTRO =        -0.21329592
  eigenvalues    EBANDS =     -3210.45657470
  atomic energy  EATOM  =     45086.50549395
  Solvation  Ediel_sol  =         0.00000000
  ---------------------------------------------------
  free energy    TOTEN  =      -180.48133274 eV

  energy without entropy =     -180.26803683  energy(sigma->0) =     -180.42800876


--------------------------------------------------------------------------------------------------------




--------------------------------------- Iteration      1(  11)  ---------------------------------------


    POTLOK:  cpu time   12.9890: real time   12.9897
    SETDIJ:  cpu time    0.1187: real time    0.1187
    EDDIAG:  cpu time   67.3442: real time   67.3453
  RMM-DIIS:  cpu time  184.0697: real time  184.0708
    ORTHCH:  cpu time   12.9242: real time   12.9242
       DOS:  cpu time    0.0014: real time    0.0014
    CHARGE:  cpu time   24.3479: real time   24.3479
    MIXING:  cpu time    0.5854: real time    0.5854
    --------------------------------------------
      LOOP:  cpu time  302.3807: real time  302.3835

 eigenvalue-minimisations  :   728
 total energy-change (2. order) : 0.2553771E+01  (-0.2030506E+00)
 number of electron     559.9999850 magnetization 
 augmentation part      241.3910831 magnetization 

 Broyden mixing:
  rms(total) = 0.19049E+01    rms(broyden)= 0.19045E+01
  rms(prec ) = 0.22081E+01
  weight for this iteration     100.00

 eigenvalues of (default mixing * dielectric matrix)
  average eigenvalue GAMMA=   0.2583
  0.9066  0.1903  0.1903  0.0984  0.0984  0.0657

 Free energy of the ion-electron system (eV)
  ---------------------------------------------------
  alpha Z        PSCENC =        75.25431677
  Ewald energy   TEWEN  =    136850.87177628
  -Hartree energ DENC   =   -180821.56013353
  -exchange      EXHF   =         0.00000000
  -V(xc)+E(xc)   XCENC  =     -1697.67766910
  PAW double counting   =     45847.31864503   -42335.32733266
  entropy T*S    EENTRO =        -0.08671821
  eigenvalues    EBANDS =     -3183.22594010
  atomic energy  EATOM  =     45086.50549395
  Solvation  Ediel_sol  =         0.00000000
  ---------------------------------------------------
  free energy    TOTEN  =      -177.92756156 eV

  energy without entropy =     -177.84084335  energy(sigma->0) =     -177.90588200


--------------------------------------------------------------------------------------------------------




--------------------------------------- Iteration      1(  12)  ---------------------------------------


    POTLOK:  cpu time   12.6607: real time   12.6641
    SETDIJ:  cpu time    0.1181: real time    0.1181
    EDDIAG:  cpu time   66.0376: real time   66.0377
  RMM-DIIS:  cpu time  176.5363: real time  176.5378
    ORTHCH:  cpu time   12.6917: real time   12.6918
       DOS:  cpu time    0.0014: real time    0.0014
    CHARGE:  cpu time   24.0002: real time   24.0001
    MIXING:  cpu time    0.6052: real time    0.6052
    --------------------------------------------
      LOOP:  cpu time  292.6512: real time  292.6562

 eigenvalue-minimisations  :   711
 total energy-change (2. order) : 0.1556902E+01  (-0.1682430E+00)
 number of electron     559.9999853 magnetization 
 augmentation part      241.6911833 magnetization 

 Broyden mixing:
  rms(total) = 0.12761E+01    rms(broyden)= 0.12758E+01
  rms(prec ) = 0.14758E+01
  weight for this iteration     100.00

 eigenvalues of (default mixing * dielectric matrix)
  average eigenvalue GAMMA=   0.2567
  0.9509  0.2327  0.2327  0.1056  0.1056  0.1080  0.0610

 Free energy of the ion-electron system (eV)
  ---------------------------------------------------
  alpha Z        PSCENC =        75.25431677
  Ewald energy   TEWEN  =    136850.87177628
  -Hartree energ DENC   =   -180835.32808195
  -exchange      EXHF   =         0.00000000
  -V(xc)+E(xc)   XCENC  =     -1697.46924423
  PAW double counting   =     45881.81356927   -42368.10486433
  entropy T*S    EENTRO =        -0.12104687
  eigenvalues    EBANDS =     -3169.79257839
  atomic energy  EATOM  =     45086.50549395
  Solvation  Ediel_sol  =         0.00000000
  ---------------------------------------------------
  free energy    TOTEN  =      -176.37065950 eV

  energy without entropy =     -176.24961263  energy(sigma->0) =     -176.34039779


--------------------------------------------------------------------------------------------------------




--------------------------------------- Iteration      1(  13)  ---------------------------------------


    POTLOK:  cpu time   12.1602: real time   12.1609
    SETDIJ:  cpu time    0.1143: real time    0.1143
    EDDIAG:  cpu time   64.6292: real time   64.6295
  RMM-DIIS:  cpu time  180.1430: real time  180.1457
    ORTHCH:  cpu time   13.6570: real time   13.6614
       DOS:  cpu time    0.0015: real time    0.0015
    CHARGE:  cpu time   25.2461: real time   25.2461
    MIXING:  cpu time    0.6857: real time    0.6857
    --------------------------------------------
      LOOP:  cpu time  296.6370: real time  296.6451

 eigenvalue-minimisations  :   726
 total energy-change (2. order) : 0.3983806E+00  (-0.9584073E-01)
 number of electron     559.9999843 magnetization 
 augmentation part      241.6768880 magnetization 

 Broyden mixing:
  rms(total) = 0.13813E+01    rms(broyden)= 0.13810E+01
  rms(prec ) = 0.16652E+01
  weight for this iteration     100.00

 eigenvalues of (default mixing * dielectric matrix)
  average eigenvalue GAMMA=   0.2496
  0.9711  0.2745  0.2745  0.1308  0.1006  0.1006  0.0859  0.0585

 Free energy of the ion-electron system (eV)
  ---------------------------------------------------
  alpha Z        PSCENC =        75.25431677
  Ewald energy   TEWEN  =    136850.87177628
  -Hartree energ DENC   =   -180856.85546205
  -exchange      EXHF   =         0.00000000
  -V(xc)+E(xc)   XCENC  =     -1697.18257673
  PAW double counting   =     45911.46009486   -42396.16410728
  entropy T*S    EENTRO =        -0.10657856
  eigenvalues    EBANDS =     -3149.75523614
  atomic energy  EATOM  =     45086.50549395
  Solvation  Ediel_sol  =         0.00000000
  ---------------------------------------------------
  free energy    TOTEN  =      -175.97227889 eV

  energy without entropy =     -175.86570033  energy(sigma->0) =     -175.94563425


--------------------------------------------------------------------------------------------------------




--------------------------------------- Iteration      1(  14)  ---------------------------------------


    POTLOK:  cpu time   13.2706: real time   13.2712
    SETDIJ:  cpu time    0.1231: real time    0.1231
    EDDIAG:  cpu time   68.0033: real time   68.0064
  RMM-DIIS:  cpu time  185.5559: real time  185.5584
    ORTHCH:  cpu time   13.3874: real time   13.3874
       DOS:  cpu time    0.0015: real time    0.0015
    CHARGE:  cpu time   25.3113: real time   25.3110
    MIXING:  cpu time    0.7161: real time    0.7160
    --------------------------------------------
      LOOP:  cpu time  306.3690: real time  306.3750

 eigenvalue-minimisations  :   724
 total energy-change (2. order) : 0.1988850E+00  (-0.5797684E-01)
 number of electron     559.9999839 magnetization 
 augmentation part      241.6036500 magnetization 

 Broyden mixing:
  rms(total) = 0.16610E+01    rms(broyden)= 0.16607E+01
  rms(prec ) = 0.19642E+01
  weight for this iteration     100.00

 eigenvalues of (default mixing * dielectric matrix)
  average eigenvalue GAMMA=   0.2636
  1.0577  0.3618  0.3618  0.1647  0.1032  0.1032  0.1105  0.0624  0.0472

 Free energy of the ion-electron system (eV)
  ---------------------------------------------------
  alpha Z        PSCENC =        75.25431677
  Ewald energy   TEWEN  =    136850.87177628
  -Hartree energ DENC   =   -180874.26873340
  -exchange      EXHF   =         0.00000000
  -V(xc)+E(xc)   XCENC  =     -1696.92810421
  PAW double counting   =     45933.97927530   -42417.41195404
  entropy T*S    EENTRO =        -0.05078385
  eigenvalues    EBANDS =     -3133.72468073
  atomic energy  EATOM  =     45086.50549395
  Solvation  Ediel_sol  =         0.00000000
  ---------------------------------------------------
  free energy    TOTEN  =      -175.77339392 eV

  energy without entropy =     -175.72261008  energy(sigma->0) =     -175.76069796


--------------------------------------------------------------------------------------------------------




--------------------------------------- Iteration      1(  15)  ---------------------------------------


    POTLOK:  cpu time   13.1458: real time   13.1469
    SETDIJ:  cpu time    0.1219: real time    0.1219
    EDDIAG:  cpu time   67.5842: real time   67.5843
  RMM-DIIS:  cpu time  180.5408: real time  180.5410
    ORTHCH:  cpu time   13.2497: real time   13.2496
       DOS:  cpu time    0.0015: real time    0.0015
    CHARGE:  cpu time   25.1467: real time   25.1466
    MIXING:  cpu time    0.7594: real time    0.7594
    --------------------------------------------
      LOOP:  cpu time  300.5500: real time  300.5511

 eigenvalue-minimisations  :   711
 total energy-change (2. order) : 0.2210155E+00  (-0.1033641E+00)
 number of electron     559.9999858 magnetization 
 augmentation part      241.3262746 magnetization 

 Broyden mixing:
  rms(total) = 0.17222E+01    rms(broyden)= 0.17219E+01
  rms(prec ) = 0.19658E+01
  weight for this iteration     100.00

 eigenvalues of (default mixing * dielectric matrix)
  average eigenvalue GAMMA=   0.2852
  1.2641  0.6213  0.2660  0.1475  0.1475  0.1081  0.1081  0.0839  0.0615  0.0443

 Free energy of the ion-electron system (eV)
  ---------------------------------------------------
  alpha Z        PSCENC =        75.25431677
  Ewald energy   TEWEN  =    136850.87177628
  -Hartree energ DENC   =   -180915.77423286
  -exchange      EXHF   =         0.00000000
  -V(xc)+E(xc)   XCENC  =     -1696.32610422
  PAW double counting   =     45985.77311318   -42466.22963841
  entropy T*S    EENTRO =        -0.06812927
  eigenvalues    EBANDS =     -3095.55897383
  atomic energy  EATOM  =     45086.50549395
  Solvation  Ediel_sol  =         0.00000000
  ---------------------------------------------------
  free energy    TOTEN  =      -175.55237840 eV

  energy without entropy =     -175.48424913  energy(sigma->0) =     -175.53534608


--------------------------------------------------------------------------------------------------------




--------------------------------------- Iteration      1(  16)  ---------------------------------------


    POTLOK:  cpu time   13.1796: real time   13.1805
    SETDIJ:  cpu time    0.1235: real time    0.1235
    EDDIAG:  cpu time   67.7141: real time   67.7161
  RMM-DIIS:  cpu time  184.9553: real time  184.9601
    ORTHCH:  cpu time   13.2943: real time   13.2946
       DOS:  cpu time    0.0015: real time    0.0015
    CHARGE:  cpu time   24.9916: real time   24.9923
    MIXING:  cpu time    0.8109: real time    0.8109
    --------------------------------------------
      LOOP:  cpu time  305.0709: real time  305.0794

 eigenvalue-minimisations  :   716
 total energy-change (2. order) : 0.1877944E+00  (-0.9910509E-01)
 number of electron     559.9999852 magnetization 
 augmentation part      241.1236836 magnetization 

 Broyden mixing:
  rms(total) = 0.15430E+01    rms(broyden)= 0.15428E+01
  rms(prec ) = 0.17539E+01
  weight for this iteration     100.00

 eigenvalues of (default mixing * dielectric matrix)
  average eigenvalue GAMMA=   0.2929
  1.4336  0.7328  0.1959  0.1959  0.1791  0.1053  0.1053  0.0909  0.0767  0.0611
  0.0450

 Free energy of the ion-electron system (eV)
  ---------------------------------------------------
  alpha Z        PSCENC =        75.25431677
  Ewald energy   TEWEN  =    136850.87177628
  -Hartree energ DENC   =   -180957.15518503
  -exchange      EXHF   =         0.00000000
  -V(xc)+E(xc)   XCENC  =     -1695.69447600
  PAW double counting   =     46039.61270983   -42516.95015447
  entropy T*S    EENTRO =        -0.08207252
  eigenvalues    EBANDS =     -3057.72699284
  atomic energy  EATOM  =     45086.50549395
  Solvation  Ediel_sol  =         0.00000000
  ---------------------------------------------------
  free energy    TOTEN  =      -175.36458402 eV

  energy without entropy =     -175.28251150  energy(sigma->0) =     -175.34406589


--------------------------------------------------------------------------------------------------------




--------------------------------------- Iteration      1(  17)  ---------------------------------------


    POTLOK:  cpu time   13.0858: real time   13.0870
    SETDIJ:  cpu time    0.1240: real time    0.1240
    EDDIAG:  cpu time   67.5370: real time   67.5425
  RMM-DIIS:  cpu time  183.7299: real time  183.7335
    ORTHCH:  cpu time   13.2535: real time   13.2535
       DOS:  cpu time    0.0015: real time    0.0015
    CHARGE:  cpu time   24.8315: real time   24.8315
    MIXING:  cpu time    0.8719: real time    0.8719
    --------------------------------------------
      LOOP:  cpu time  303.4352: real time  303.4456

 eigenvalue-minimisations  :   713
 total energy-change (2. order) : 0.3725317E+00  (-0.7083177E-01)
 number of electron     559.9999847 magnetization 
 augmentation part      240.9993015 magnetization 

 Broyden mixing:
  rms(total) = 0.12242E+01    rms(broyden)= 0.12240E+01
  rms(prec ) = 0.14183E+01
  weight for this iteration     100.00

 eigenvalues of (default mixing * dielectric matrix)
  average eigenvalue GAMMA=   0.3020
  1.5405  0.8157  0.2656  0.2656  0.1665  0.1070  0.1070  0.0874  0.0874  0.0778
  0.0589  0.0447

 Free energy of the ion-electron system (eV)
  ---------------------------------------------------
  alpha Z        PSCENC =        75.25431677
  Ewald energy   TEWEN  =    136850.87177628
  -Hartree energ DENC   =   -180982.94970912
  -exchange      EXHF   =         0.00000000
  -V(xc)+E(xc)   XCENC  =     -1695.33176366
  PAW double counting   =     46070.30652875   -42545.80380741
  entropy T*S    EENTRO =        -0.05996541
  eigenvalues    EBANDS =     -3033.78492246
  atomic energy  EATOM  =     45086.50549395
  Solvation  Ediel_sol  =         0.00000000
  ---------------------------------------------------
  free energy    TOTEN  =      -174.99205230 eV

  energy without entropy =     -174.93208689  energy(sigma->0) =     -174.97706095


--------------------------------------------------------------------------------------------------------




--------------------------------------- Iteration      1(  18)  ---------------------------------------


    POTLOK:  cpu time   13.1652: real time   13.1679
    SETDIJ:  cpu time    0.1216: real time    0.1216
    EDDIAG:  cpu time   67.5484: real time   67.5495
  RMM-DIIS:  cpu time  187.1327: real time  187.1353
    ORTHCH:  cpu time   13.5001: real time   13.5001
       DOS:  cpu time    0.0015: real time    0.0015
    CHARGE:  cpu time   24.8762: real time   24.8765
    MIXING:  cpu time    0.9106: real time    0.9106
    --------------------------------------------
      LOOP:  cpu time  307.2564: real time  307.2631

 eigenvalue-minimisations  :   716
 total energy-change (2. order) :-0.6251209E-02  (-0.4787898E-01)
 number of electron     559.9999862 magnetization 
 augmentation part      240.9955013 magnetization 

 Broyden mixing:
  rms(total) = 0.11340E+01    rms(broyden)= 0.11337E+01
  rms(prec ) = 0.13125E+01
  weight for this iteration     100.00

 eigenvalues of (default mixing * dielectric matrix)
  average eigenvalue GAMMA=   0.3058
  1.5926  0.9102  0.3257  0.3257  0.1304  0.1304  0.1096  0.1096  0.0858  0.0762
  0.0762  0.0581  0.0444

 Free energy of the ion-electron system (eV)
  ---------------------------------------------------
  alpha Z        PSCENC =        75.25431677
  Ewald energy   TEWEN  =    136850.87177628
  -Hartree energ DENC   =   -180998.04626165
  -exchange      EXHF   =         0.00000000
  -V(xc)+E(xc)   XCENC  =     -1695.13399453
  PAW double counting   =     46084.73888907   -42559.14214190
  entropy T*S    EENTRO =        -0.01739783
  eigenvalues    EBANDS =     -3020.02898368
  atomic energy  EATOM  =     45086.50549395
  Solvation  Ediel_sol  =         0.00000000
  ---------------------------------------------------
  free energy    TOTEN  =      -174.99830351 eV

  energy without entropy =     -174.98090568  energy(sigma->0) =     -174.99395405


--------------------------------------------------------------------------------------------------------




--------------------------------------- Iteration      1(  19)  ---------------------------------------


    POTLOK:  cpu time   13.2113: real time   13.2151
    SETDIJ:  cpu time    0.1324: real time    0.1324
    EDDIAG:  cpu time   67.2344: real time   67.2367
  RMM-DIIS:  cpu time  188.5744: real time  188.5773
    ORTHCH:  cpu time   13.4240: real time   13.4240
       DOS:  cpu time    0.0015: real time    0.0015
    CHARGE:  cpu time   25.1785: real time   25.1786
    MIXING:  cpu time    0.9490: real time    0.9490
    --------------------------------------------
      LOOP:  cpu time  308.7054: real time  308.7146

 eigenvalue-minimisations  :   720
 total energy-change (2. order) : 0.1059207E+00  (-0.3365647E-01)
 number of electron     559.9999865 magnetization 
 augmentation part      241.0179819 magnetization 

 Broyden mixing:
  rms(total) = 0.10719E+01    rms(broyden)= 0.10717E+01
  rms(prec ) = 0.12211E+01
  weight for this iteration     100.00

 eigenvalues of (default mixing * dielectric matrix)
  average eigenvalue GAMMA=   0.3111
  1.6386  1.0436  0.3693  0.3693  0.1493  0.1493  0.1079  0.1079  0.0915  0.0915
  0.0686  0.0686  0.0565  0.0443

 Free energy of the ion-electron system (eV)
  ---------------------------------------------------
  alpha Z        PSCENC =        75.25431677
  Ewald energy   TEWEN  =    136850.87177628
  -Hartree energ DENC   =   -181010.84864176
  -exchange      EXHF   =         0.00000000
  -V(xc)+E(xc)   XCENC  =     -1695.04260958
  PAW double counting   =     46089.47810543   -42563.20535353
  entropy T*S    EENTRO =        -0.04219550
  eigenvalues    EBANDS =     -3007.86327489
  atomic energy  EATOM  =     45086.50549395
  Solvation  Ediel_sol  =         0.00000000
  ---------------------------------------------------
  free energy    TOTEN  =      -174.89238283 eV

  energy without entropy =     -174.85018733  energy(sigma->0) =     -174.88183395


--------------------------------------------------------------------------------------------------------




--------------------------------------- Iteration      1(  20)  ---------------------------------------


    POTLOK:  cpu time   13.3280: real time   13.3289
    SETDIJ:  cpu time    0.1251: real time    0.1251
    EDDIAG:  cpu time   67.4831: real time   67.4874
  RMM-DIIS:  cpu time  186.9219: real time  186.9264
    ORTHCH:  cpu time   14.3763: real time   14.4079
       DOS:  cpu time    0.0015: real time    0.0015
    CHARGE:  cpu time   25.5895: real time   25.5905
    MIXING:  cpu time    1.0092: real time    1.0092
    --------------------------------------------
      LOOP:  cpu time  308.8346: real time  308.8769

 eigenvalue-minimisations  :   717
 total energy-change (2. order) : 0.2572778E+00  (-0.3116269E-01)
 number of electron     559.9999879 magnetization 
 augmentation part      241.0693827 magnetization 

 Broyden mixing:
  rms(total) = 0.91681E+00    rms(broyden)= 0.91666E+00
  rms(prec ) = 0.10768E+01
  weight for this iteration     100.00

 eigenvalues of (default mixing * dielectric matrix)
  average eigenvalue GAMMA=   0.3148
  1.7566  1.0805  0.3941  0.3941  0.1787  0.1787  0.1089  0.1089  0.0982  0.0982
  0.0813  0.0721  0.0721  0.0442  0.0555

 Free energy of the ion-electron system (eV)
  ---------------------------------------------------
  alpha Z        PSCENC =        75.25431677
  Ewald energy   TEWEN  =    136850.87177628
  -Hartree energ DENC   =   -181025.69982603
  -exchange      EXHF   =         0.00000000
  -V(xc)+E(xc)   XCENC  =     -1694.93502653
  PAW double counting   =     46092.40070391   -42565.41785278
  entropy T*S    EENTRO =        -0.01882211
  eigenvalues    EBANDS =     -2993.59586847
  atomic energy  EATOM  =     45086.50549395
  Solvation  Ediel_sol  =         0.00000000
  ---------------------------------------------------
  free energy    TOTEN  =      -174.63510501 eV

  energy without entropy =     -174.61628290  energy(sigma->0) =     -174.63039948


--------------------------------------------------------------------------------------------------------




--------------------------------------- Iteration      1(  21)  ---------------------------------------


    POTLOK:  cpu time   13.2872: real time   13.2910
    SETDIJ:  cpu time    0.1204: real time    0.1204
    EDDIAG:  cpu time   67.9299: real time   67.9372
  RMM-DIIS:  cpu time  184.9763: real time  184.9909
    ORTHCH:  cpu time   13.5170: real time   13.5192
       DOS:  cpu time    0.0014: real time    0.0014
    CHARGE:  cpu time   25.5577: real time   25.5603
    MIXING:  cpu time    1.1431: real time    1.1431
    --------------------------------------------
      LOOP:  cpu time  306.5330: real time  306.5637

 eigenvalue-minimisations  :   711
 total energy-change (2. order) : 0.1451493E+00  (-0.2401431E-01)
 number of electron     559.9999869 magnetization 
 augmentation part      241.1758190 magnetization 

 Broyden mixing:
  rms(total) = 0.79852E+00    rms(broyden)= 0.79837E+00
  rms(prec ) = 0.92635E+00
  weight for this iteration     100.00

 eigenvalues of (default mixing * dielectric matrix)
  average eigenvalue GAMMA=   0.3229
  1.8465  1.1789  0.4291  0.4291  0.2122  0.2122  0.1337  0.1093  0.1093  0.0992
  0.0992  0.0719  0.0719  0.0650  0.0442  0.0541

 Free energy of the ion-electron system (eV)
  ---------------------------------------------------
  alpha Z        PSCENC =        75.25431677
  Ewald energy   TEWEN  =    136850.87177628
  -Hartree energ DENC   =   -181035.49277312
  -exchange      EXHF   =         0.00000000
  -V(xc)+E(xc)   XCENC  =     -1694.82853693
  PAW double counting   =     46095.23838947   -42567.68003626
  entropy T*S    EENTRO =        -0.00885184
  eigenvalues    EBANDS =     -2984.34973404
  atomic energy  EATOM  =     45086.50549395
  Solvation  Ediel_sol  =         0.00000000
  ---------------------------------------------------
  free energy    TOTEN  =      -174.48995572 eV

  energy without entropy =     -174.48110387  energy(sigma->0) =     -174.48774276


--------------------------------------------------------------------------------------------------------




--------------------------------------- Iteration      1(  22)  ---------------------------------------


    POTLOK:  cpu time   13.6259: real time   13.6293
    SETDIJ:  cpu time    0.1223: real time    0.1223
    EDDIAG:  cpu time   69.3836: real time   69.3914
  RMM-DIIS:  cpu time  188.3979: real time  188.4095
    ORTHCH:  cpu time   13.6441: real time   13.6445
       DOS:  cpu time    0.0015: real time    0.0015
    CHARGE:  cpu time   25.4718: real time   25.4743
    MIXING:  cpu time    1.1956: real time    1.1956
    --------------------------------------------
      LOOP:  cpu time  311.8427: real time  311.8685

 eigenvalue-minimisations  :   715
 total energy-change (2. order) : 0.1522363E+00  (-0.2197969E-01)
 number of electron     559.9999857 magnetization 
 augmentation part      241.1653972 magnetization 

 Broyden mixing:
  rms(total) = 0.62434E+00    rms(broyden)= 0.62420E+00
  rms(prec ) = 0.70266E+00
  weight for this iteration     100.00

 eigenvalues of (default mixing * dielectric matrix)
  average eigenvalue GAMMA=   0.3338
  2.0216  1.1895  0.4330  0.4330  0.4113  0.1686  0.1686  0.1102  0.1102  0.1229
  0.0996  0.0996  0.0715  0.0715  0.0649  0.0442  0.0539

 Free energy of the ion-electron system (eV)
  ---------------------------------------------------
  alpha Z        PSCENC =        75.25431677
  Ewald energy   TEWEN  =    136850.87177628
  -Hartree energ DENC   =   -181054.81732633
  -exchange      EXHF   =         0.00000000
  -V(xc)+E(xc)   XCENC  =     -1694.63974331
  PAW double counting   =     46099.40508009   -42571.01862141
  entropy T*S    EENTRO =        -0.06965034
  eigenvalues    EBANDS =     -2965.82904517
  atomic energy  EATOM  =     45086.50549395
  Solvation  Ediel_sol  =         0.00000000
  ---------------------------------------------------
  free energy    TOTEN  =      -174.33771946 eV

  energy without entropy =     -174.26806912  energy(sigma->0) =     -174.32030688


--------------------------------------------------------------------------------------------------------




--------------------------------------- Iteration      1(  23)  ---------------------------------------


    POTLOK:  cpu time   13.6069: real time   13.6105
    SETDIJ:  cpu time    0.1249: real time    0.1249
    EDDIAG:  cpu time   70.0840: real time   70.0905
  RMM-DIIS:  cpu time  190.0782: real time  190.0977
    ORTHCH:  cpu time   13.3745: real time   13.3757
       DOS:  cpu time    0.0015: real time    0.0015
    CHARGE:  cpu time   25.2356: real time   25.2380
    MIXING:  cpu time    1.2519: real time    1.2530
    --------------------------------------------
      LOOP:  cpu time  313.7577: real time  313.7918

 eigenvalue-minimisations  :   716
 total energy-change (2. order) : 0.8939543E-01  (-0.2151535E-01)
 number of electron     559.9999854 magnetization 
 augmentation part      241.1461699 magnetization 

 Broyden mixing:
  rms(total) = 0.57139E+00    rms(broyden)= 0.57121E+00
  rms(prec ) = 0.66056E+00
  weight for this iteration     100.00

 eigenvalues of (default mixing * dielectric matrix)
  average eigenvalue GAMMA=   0.3379
  2.1084  1.1992  0.6688  0.3872  0.3872  0.1749  0.1749  0.1607  0.1095  0.1095
[...]
 -0.006  -0.012   0.004   0.004   0.005  -0.006  -0.011   0.004
 -0.011  -0.020   0.006   0.007   0.009  -0.010  -0.019   0.006
 -0.015  -0.005   0.013   0.000   0.022  -0.014  -0.005   0.012
  0.000  -0.023  -0.006  -0.015  -0.000   0.000  -0.022  -0.006
 -0.022   0.000   0.009  -0.005  -0.016  -0.022   0.000   0.008
 -0.017  -0.006   0.015   0.000   0.027  -0.017  -0.006   0.015
  0.000  -0.027  -0.007  -0.018   0.000   0.000  -0.027  -0.007
 -0.027   0.000   0.010  -0.006  -0.019  -0.026   0.000   0.010
 total augmentation occupancy for first ion, spin component:           1
  1.538  -0.031   0.005   0.017   0.024   0.075  -0.008  -0.002   0.035  -0.010   0.093  -0.031   0.012   0.002   0.003  -0.019
 -0.031   1.402   0.029   0.070   0.000  -0.007   0.070   0.011  -0.014  -0.008   0.217  -0.065   0.019   0.001   0.002  -0.006
  0.005   0.029   1.544   0.002   0.002  -0.002   0.013   0.073  -0.013   0.017  -0.054   0.018  -0.003  -0.007  -0.005   0.016
  0.017   0.070   0.002   1.339   0.044   0.033  -0.013  -0.012   0.091  -0.023  -0.083   0.021  -0.001  -0.008  -0.004   0.001
  0.024   0.000   0.002   0.044   1.441  -0.010  -0.008   0.016  -0.022   0.067  -0.094   0.031  -0.003  -0.010  -0.010   0.026
  0.075  -0.007  -0.002   0.033  -0.010   0.217   0.019  -0.002  -0.045   0.004  -0.048   0.002   0.017  -0.010   0.034  -0.004
 -0.008   0.070   0.013  -0.013  -0.008   0.019   0.262  -0.023  -0.003   0.006  -0.109   0.007  -0.001   0.051  -0.010  -0.000
 -0.002   0.011   0.073  -0.012   0.016  -0.002  -0.023   0.215   0.014  -0.020   0.028  -0.001  -0.012   0.009  -0.018   0.003
  0.035  -0.014  -0.013   0.091  -0.022  -0.045  -0.003   0.014   0.260   0.007   0.043  -0.004  -0.009   0.036   0.004   0.000
 -0.010  -0.008   0.017  -0.023   0.067   0.004   0.006  -0.020   0.007   0.258   0.046  -0.003  -0.038   0.002   0.049   0.007
  0.093   0.217  -0.054  -0.083  -0.094  -0.048  -0.109   0.028   0.043   0.046   0.951  -0.141   0.084   0.014   0.064  -0.013
 -0.031  -0.065   0.018   0.021   0.031   0.002   0.007  -0.001  -0.004  -0.003  -0.141   0.023  -0.014  -0.003  -0.010   0.003
  0.012   0.019  -0.003  -0.001  -0.003   0.017  -0.001  -0.012  -0.009  -0.038   0.084  -0.014   0.029  -0.008  -0.004  -0.003
  0.002   0.001  -0.007  -0.008  -0.010  -0.010   0.051   0.009   0.036   0.002   0.014  -0.003  -0.008   0.036   0.004   0.000
  0.003   0.002  -0.005  -0.004  -0.010   0.034  -0.010  -0.018   0.004   0.049   0.064  -0.010  -0.004   0.004   0.034  -0.000
 -0.019  -0.006   0.016   0.001   0.026  -0.004  -0.000   0.003   0.000   0.007  -0.013   0.003  -0.003   0.000  -0.000   0.001
  0.001  -0.028  -0.007  -0.018   0.001   0.001  -0.008  -0.001  -0.006  -0.000  -0.003   0.001   0.000  -0.003  -0.000   0.000
 -0.028   0.001   0.012  -0.005  -0.019  -0.006   0.001   0.003  -0.001  -0.007  -0.008   0.001  -0.000  -0.000  -0.003   0.000


------------------------ aborting loop because EDIFF is reached ----------------------------------------


    CHARGE:  cpu time   25.5837: real time   25.5836
    FORLOC:  cpu time    6.7963: real time    6.7963
    FORNL :  cpu time   66.1545: real time   66.1542
    STRESS:  cpu time  204.9003: real time  204.9016
    FORCOR:  cpu time   22.2858: real time   22.2858
    FORHAR:  cpu time    9.7584: real time    9.7584
    MIXING:  cpu time    3.5593: real time    3.5594
    OFIELD:  cpu time    0.0000: real time    0.0000

  FORCE on cell =-STRESS in cart. coord.  units (eV):
  Direction    XX          YY          ZZ          XY          YZ          ZX
  --------------------------------------------------------------------------------------
  Alpha Z    75.25432    75.25432    75.25432
  Ewald   50275.53795 43238.85302 43336.37532  -402.84895   -28.56072   193.32224
  Hartree 64809.96784 58159.43763 58255.13541  -358.24856   -24.62126   171.61637
  E(xc)   -2902.58664 -2904.76552 -2904.88624    -0.36329    -0.04527     0.18567
  Local  ************************************   757.02775    52.82371  -363.03456
  n-local  -893.40096  -881.73207  -881.29436     1.94260     0.28779    -0.86613
  augment  4102.78143  4104.11198  4104.46085     0.22349    -0.00127    -0.08295
  Kinetic  7788.15968  7809.67028  7810.61984     2.83431     0.27151    -1.43566
  Fock        0.00000     0.00000     0.00000     0.00000     0.00000     0.00000
  -------------------------------------------------------------------------------------
  Total    -113.36781  -114.15894  -113.80478     0.56735     0.15450    -0.29502
  in kB      -6.72723    -6.77418    -6.75316     0.03367     0.00917    -0.01751
  external pressure =       -6.75 kB  Pullay stress =        0.00 kB


 VOLUME and BASIS-vectors are now :
 -----------------------------------------------------------------------------
  energy-cutoff  :      400.00
  volume of cell :    27000.00
      direct lattice vectors                 reciprocal lattice vectors
    30.000000000  0.000000000  0.000000000     0.033333333  0.000000000  0.000000000
     0.000000000 30.000000000  0.000000000     0.000000000  0.033333333  0.000000000
     0.000000000  0.000000000 30.000000000     0.000000000  0.000000000  0.033333333

  length of vectors
    30.000000000 30.000000000 30.000000000     0.033333333  0.033333333  0.033333333


 FORCES acting on ions
    electron-ion (+dipol)            ewald-force                    non-local-force                 convergence-correction
 -----------------------------------------------------------------------------------------------
   0.398E+03 0.973E+03 0.418E+03   -.396E+03 -.970E+03 -.417E+03   -.149E+01 -.182E+01 -.223E+00   -.189E-02 0.180E-02 -.118E-01
   -.940E+03 -.409E+03 0.435E+03   0.937E+03 0.407E+03 -.434E+03   0.190E+01 0.151E+01 -.263E+00   -.780E-02 -.398E-03 0.122E-01
   -.383E+03 0.976E+03 0.420E+03   0.381E+03 -.973E+03 -.419E+03   0.149E+01 -.182E+01 -.227E+00   0.128E-01 0.635E-02 -.100E-01
   0.970E+03 -.395E+03 0.417E+03   -.967E+03 0.393E+03 -.417E+03   -.182E+01 0.150E+01 -.224E+00   0.269E-02 0.449E-02 -.595E-02
   0.685E+01 0.588E+03 0.968E+03   -.687E+01 -.587E+03 -.964E+03   0.619E-02 -.307E+00 -.234E+01   0.646E-02 0.113E-01 -.726E-02
   0.769E+01 0.588E+03 -.967E+03   -.772E+01 -.587E+03 0.964E+03   0.420E-02 -.308E+00 0.234E+01   0.166E-01 -.142E-02 0.812E-02
   0.681E+01 0.114E+04 0.365E+00   -.681E+01 -.113E+04 -.366E+00   -.998E-03 -.311E+01 0.398E-04   0.424E-02 -.896E-02 0.814E-03
   0.113E+04 -.508E+00 0.275E+00   -.112E+04 0.506E+00 -.275E+00   -.311E+01 0.380E-03 0.143E-02   -.477E-02 0.154E-02 -.188E-02
   -.990E+03 -.378E+02 0.205E+02   0.988E+03 0.374E+02 -.203E+02   0.194E+01 0.177E-01 -.465E-01   -.176E-01 0.580E-02 -.175E-02
   0.519E+01 -.114E+04 0.284E+00   -.521E+01 0.113E+04 -.290E+00   -.914E-03 0.311E+01 -.965E-03   0.149E-01 -.925E-02 0.740E-02
   -.565E+03 0.583E+03 0.822E+03   0.562E+03 -.580E+03 -.819E+03   0.155E+01 -.156E+01 -.220E+01   0.369E-02 0.951E-02 0.406E-03
   -.562E+03 0.584E+03 -.822E+03   0.560E+03 -.581E+03 0.819E+03   0.155E+01 -.157E+01 0.221E+01   0.948E-02 0.723E-02 0.572E-03
   0.579E+03 -.579E+03 0.814E+03   -.577E+03 0.577E+03 -.810E+03   -.156E+01 0.156E+01 -.220E+01   0.132E-01 0.495E-02 -.723E-02
   0.580E+03 -.579E+03 -.814E+03   -.577E+03 0.577E+03 0.810E+03   -.156E+01 0.156E+01 0.220E+01   0.163E-01 0.186E-01 -.630E-03
   0.580E+03 0.579E+03 0.814E+03   -.577E+03 -.576E+03 -.811E+03   -.156E+01 -.156E+01 -.220E+01   0.299E-02 0.570E-03 -.663E-02
   0.580E+03 0.579E+03 -.814E+03   -.578E+03 -.576E+03 0.810E+03   -.156E+01 -.156E+01 0.220E+01   0.454E-02 -.129E-01 0.748E-02
   -.567E+03 -.584E+03 0.820E+03   0.565E+03 0.582E+03 -.817E+03   0.155E+01 0.155E+01 -.219E+01   -.379E-02 -.139E-02 0.129E-01
   -.565E+03 -.585E+03 -.820E+03   0.563E+03 0.583E+03 0.817E+03   0.155E+01 0.156E+01 0.220E+01   -.946E-02 0.319E-02 -.133E-01
   0.399E+03 0.973E+03 -.417E+03   -.397E+03 -.970E+03 0.417E+03   -.149E+01 -.182E+01 0.225E+00   0.113E-02 -.671E-02 0.762E-02
   -.934E+03 -.413E+03 -.432E+03   0.931E+03 0.410E+03 0.432E+03   0.191E+01 0.145E+01 0.205E+00   -.123E-01 -.149E-03 -.104E-01
   -.304E+03 0.322E+03 0.458E+03   0.305E+03 -.323E+03 -.459E+03   -.388E+00 0.363E+00 0.512E+00   0.145E-01 0.206E-01 -.337E-02
   0.970E+03 0.394E+03 0.417E+03   -.967E+03 -.392E+03 -.417E+03   -.182E+01 -.150E+01 -.225E+00   0.164E-02 -.786E-02 -.822E-02
   -.385E+03 -.976E+03 0.419E+03   0.383E+03 0.973E+03 -.418E+03   0.150E+01 0.182E+01 -.226E+00   0.693E-02 -.663E-02 0.868E-02
   -.382E+03 0.977E+03 -.419E+03   0.380E+03 -.974E+03 0.418E+03   0.149E+01 -.182E+01 0.226E+00   0.144E-01 0.461E-02 0.114E-01
   0.970E+03 -.395E+03 -.417E+03   -.967E+03 0.393E+03 0.416E+03   -.182E+01 0.149E+01 0.224E+00   0.548E-03 0.189E-01 0.211E-02
   -.932E+03 0.401E+03 0.440E+03   0.929E+03 -.398E+03 -.439E+03   0.191E+01 -.148E+01 -.175E+00   -.364E-02 0.161E-01 0.796E-02
   0.398E+03 -.973E+03 0.417E+03   -.395E+03 0.970E+03 -.417E+03   -.149E+01 0.182E+01 -.221E+00   0.231E-01 0.101E-02 0.297E-02
   0.326E+03 0.321E+03 0.455E+03   -.327E+03 -.322E+03 -.455E+03   0.369E+00 0.367E+00 0.520E+00   0.113E-01 0.863E-02 -.116E-01
   0.105E+02 0.641E+03 0.540E+00   -.105E+02 -.642E+03 -.536E+00   0.125E-02 0.728E+00 0.186E-03   0.121E-01 0.123E-01 -.407E-02
   -.571E+03 -.193E+01 0.976E+03   0.570E+03 0.191E+01 -.972E+03   0.308E+00 0.115E-01 -.236E+01   -.571E-03 0.625E-02 0.117E-01
   -.567E+03 -.236E+01 -.976E+03   0.567E+03 0.234E+01 0.973E+03   0.318E+00 0.956E-02 0.235E+01   0.622E-02 0.629E-02 -.989E-02
   0.588E+03 -.398E+00 0.966E+03   -.587E+03 0.401E+00 -.962E+03   -.319E+00 -.569E-03 -.235E+01   0.118E-01 -.195E-02 -.694E-02
   0.588E+03 -.441E+00 -.966E+03   -.587E+03 0.428E+00 0.962E+03   -.318E+00 -.103E-02 0.235E+01   0.551E-02 0.145E-01 0.390E-02
   0.762E+03 0.761E+03 0.266E+00   -.760E+03 -.759E+03 -.258E+00   -.115E+01 -.114E+01 -.126E-02   -.415E-02 -.332E-02 -.672E-02
   -.741E+03 -.772E+03 0.130E+01   0.739E+03 0.770E+03 -.130E+01   0.114E+01 0.116E+01 0.163E-02   -.564E-02 -.526E-02 0.165E-02
   -.733E+03 0.771E+03 0.181E+01   0.731E+03 -.769E+03 -.181E+01   0.115E+01 -.114E+01 0.195E-02   0.162E-01 0.195E-01 0.171E-03
   0.762E+03 -.762E+03 0.229E+00   -.760E+03 0.760E+03 -.235E+00   -.115E+01 0.114E+01 -.164E-02   0.152E-01 0.106E-01 0.763E-02
   0.738E+01 -.733E+00 0.107E+04   -.740E+01 0.725E+00 -.107E+04   0.693E-02 0.939E-04 -.161E+01   0.124E-01 0.709E-02 0.658E-03
   0.836E+01 -.827E+00 -.107E+04   -.838E+01 0.809E+00 0.107E+04   -.556E-03 -.943E-04 0.160E+01   0.228E-01 0.170E-01 -.178E-02
   0.970E+03 0.394E+03 -.417E+03   -.967E+03 -.392E+03 0.416E+03   -.182E+01 -.149E+01 0.225E+00   -.639E-02 -.404E-02 -.332E-02
   -.385E+03 -.977E+03 -.418E+03   0.383E+03 0.974E+03 0.418E+03   0.149E+01 0.182E+01 0.227E+00   0.742E-03 -.849E-02 -.232E-02
   -.303E+03 0.323E+03 -.457E+03   0.303E+03 -.323E+03 0.458E+03   -.384E+00 0.364E+00 -.518E+00   0.255E-01 0.173E-01 -.112E-03
   0.326E+03 -.322E+03 0.455E+03   -.326E+03 0.323E+03 -.455E+03   0.365E+00 -.368E+00 0.521E+00   0.266E-01 0.457E-02 -.404E-02
   0.327E+03 0.321E+03 -.454E+03   -.327E+03 -.322E+03 0.455E+03   0.373E+00 0.367E+00 -.518E+00   0.157E-01 0.496E-02 -.339E-02
   -.923E+03 0.402E+03 -.437E+03   0.920E+03 -.400E+03 0.437E+03   0.192E+01 -.144E+01 0.139E+00   -.268E-02 0.108E-01 -.500E-02
   0.398E+03 -.973E+03 -.417E+03   -.396E+03 0.970E+03 0.416E+03   -.149E+01 0.182E+01 0.224E+00   0.239E-01 0.111E-03 0.415E-02
   -.306E+03 -.325E+03 0.458E+03   0.307E+03 0.326E+03 -.458E+03   -.393E+00 -.357E+00 0.506E+00   0.129E-01 0.624E-02 0.701E-02
   0.641E+03 -.514E+00 0.279E+00   -.642E+03 0.507E+00 -.275E+00   0.736E+00 0.180E-02 0.394E-03   0.138E-01 0.575E-02 -.486E-02
   -.604E+03 -.417E+01 0.225E+01   0.605E+03 0.422E+01 -.229E+01   -.871E+00 -.382E-01 0.264E-01   0.800E-02 0.151E-01 -.162E-02
   0.590E+01 -.589E+03 0.967E+03   -.592E+01 0.588E+03 -.964E+03   0.611E-02 0.308E+00 -.234E+01   0.146E-01 -.181E-02 0.316E-02
   0.657E+01 -.589E+03 -.967E+03   -.660E+01 0.588E+03 0.963E+03   0.694E-02 0.307E+00 0.234E+01   0.141E-01 0.117E-01 -.103E-01
   0.117E+02 -.112E+01 0.601E+00   -.118E+02 0.110E+01 -.596E+00   0.237E-01 -.249E-03 -.451E-03   0.269E-01 0.210E-01 -.418E-02
   0.326E+03 -.322E+03 -.454E+03   -.327E+03 0.323E+03 0.455E+03   0.370E+00 -.367E+00 -.519E+00   0.259E-01 0.257E-01 -.144E-02
   -.305E+03 -.326E+03 -.457E+03   0.305E+03 0.326E+03 0.457E+03   -.393E+00 -.358E+00 -.510E+00   0.127E-01 0.182E-01 -.736E-02
   0.874E+01 -.642E+03 0.450E+00   -.877E+01 0.643E+03 -.457E+00   0.242E-02 -.729E+00 -.956E-03   0.260E-01 0.853E-02 0.802E-02
   -.104E+03 0.272E+02 -.113E+02   0.763E+02 -.248E+02 0.100E+02   0.240E+02 -.175E+01 0.933E+00   -.468E-02 0.158E-02 -.339E-03
   -.562E+03 0.588E+02 -.293E+02   0.626E+03 -.639E+02 0.321E+02   -.609E+02 0.477E+01 -.261E+01   -.377E-02 0.135E-02 -.276E-03
 -----------------------------------------------------------------------------------------------
   0.374E+02 -.338E+01 0.182E+01   0.114E-12 -.142E-13 -.135E-11   -.379E+02 0.307E+01 -.179E+01   0.442E+00 0.311E+00 -.393E-01
 
 
 POSITION                                       TOTAL-FORCE (eV/Angst)
 -----------------------------------------------------------------------------------
     13.37281      9.84801     12.50759         0.701980      1.108190      0.292755
     20.15199     16.62719     12.50759        -1.127512     -0.704851      0.270361
     16.62719      9.84801     12.50759        -0.702912      1.108725      0.292610
      9.84801     16.62719     12.50759         1.107655     -0.703381      0.292854
     15.00000     11.47521     10.20639        -0.001506      0.414292      1.282502
     15.00000     11.47521     19.79360        -0.000666      0.415373     -1.281411
     15.00000      8.28283     15.00000         0.000768      1.515493      0.000195
      8.28283     15.00000     15.00000         1.519485     -0.000447     -0.000283
     21.71717     15.00000     15.00000        -0.347120     -0.406930      0.189994
     15.00000     21.71717     15.00000         0.000113     -1.516542      0.000588
     18.35858     11.64142     10.25025        -0.755854      0.754478      1.070572
     18.35858     11.64142     19.74975        -0.751514      0.757566     -1.074435
     11.64142     18.35858     10.25025         0.757445     -0.756394      1.072333
     11.64142     18.35858     19.74975         0.757326     -0.756476     -1.072259
     11.64142     11.64142     10.25025         0.757014      0.756026      1.072915
     11.64142     11.64142     19.74975         0.756679      0.755943     -1.072453
     18.35858     18.35858     10.25025        -0.760456     -0.749453      1.067790
     18.35858     18.35858     19.74975        -0.752837     -0.753464     -1.073556
     13.37281      9.84801     17.49241         0.701977      1.108552     -0.292860
     20.15199     16.62719     17.49241        -1.132495     -0.693690     -0.250491
     16.73751     13.26249     12.54279         0.114902     -0.111101     -0.154798
      9.84801     13.37281     12.50759         1.108371      0.702644      0.293471
     16.62719     20.15199     12.50759        -0.704807     -1.108843      0.292090
     16.62719      9.84801     17.49241        -0.702549      1.108684     -0.292391
      9.84801     16.62719     17.49241         1.108830     -0.702135     -0.292241
     20.15199     13.37281     12.50759        -1.136020      0.703901      0.259178
     13.37281     20.15199     12.50759         0.702906     -1.107992      0.291992
     13.26249     13.26249     12.54279        -0.113811     -0.114123     -0.158189
     15.00000     11.52498     15.00000         0.001678     -0.227823      0.000055
     18.52479     15.00000     10.20639        -0.408310     -0.003342      1.285774
     18.52479     15.00000     19.79360        -0.414328     -0.001963     -1.282851
     11.47521     15.00000     10.20640         0.414791      0.000241      1.278026
     11.47521     15.00000     19.79360         0.413778      0.000527     -1.276713
     11.49535     11.49535     15.00000         0.830187      0.828726      0.000121
     18.50465     18.50465     15.00000        -0.832454     -0.833836      0.000193
     18.50465     11.49535     15.00000        -0.835169      0.828977     -0.000721
     11.49535     18.50465     15.00000         0.830519     -0.828909      0.000324
     15.00000     15.00000     10.04368        -0.001492     -0.001101      1.181828
     15.00000     15.00000     19.95633         0.002150     -0.001062     -1.181115
      9.84801     13.37281     17.49241         1.108709      0.701268     -0.293048
     16.62719     20.15199     17.49241        -0.704697     -1.109054     -0.292079
     16.73751     13.26249     17.45721         0.113593     -0.111572      0.155926
     13.26249     16.73751     12.54279        -0.112810      0.113834     -0.158914
     13.26249     13.26249     17.45721        -0.113784     -0.113848      0.158524
     20.15199     13.37281     17.49241        -1.141661      0.695231     -0.253571
     13.37281     20.15199     17.49241         0.702892     -1.108428     -0.292151
     16.73751     16.73751     12.54279         0.122124      0.109583     -0.150395
     11.52498     15.00000     15.00000        -0.231013      0.000368     -0.000501
     18.47502     15.00000     15.00000         0.279361      0.026663     -0.015742
     15.00000     18.52480     10.20639        -0.002379     -0.412714      1.283228
     15.00000     18.52480     19.79360        -0.002967     -0.413453     -1.281988
     15.00000     15.00000     15.00000        -0.028429     -0.001905      0.000623
     13.26249     16.73751     17.45721        -0.113701      0.113839      0.159165
     16.73751     16.73751     17.45721         0.116947      0.110849      0.151826
     15.00000     18.47502     15.00000         0.001210      0.227803      0.000060
     24.19366     14.26516     15.39878        -3.788684      0.645428     -0.328109
     25.31703     14.17538     15.44750         2.688550     -0.258371      0.125394
 -----------------------------------------------------------------------------------
    total drift:                               -0.016000      0.005714     -0.010262


--------------------------------------------------------------------------------------------------------



  FREE ENERGIE OF THE ION-ELECTRON SYSTEM (eV)
  ---------------------------------------------------
  free  energy   TOTEN  =      -174.01491360 eV

  energy  without entropy=     -173.91550064  energy(sigma->0) =     -173.99006036
 


--------------------------------------------------------------------------------------------------------


    POTLOK:  cpu time   14.0295: real time   14.0295


--------------------------------------------------------------------------------------------------------


     LOOP+:  cpu time17565.5076: real time17566.2394
    4ORBIT:  cpu time    0.0000: real time    0.0000

 total amount of memory used by VASP MPI-rank0  5486941. kBytes
=======================================================================

   base      :      30000. kBytes
   nonlr-proj:      17126. kBytes
   fftplans  :     924480. kBytes
   grid      :    1872000. kBytes
   one-center:        886. kBytes
   wavefun   :    2642449. kBytes
 
  
  
 General timing and accounting informations for this job:
 ========================================================
  
                  Total CPU time used (sec):    17640.453
                            User time (sec):    16650.437
                          System time (sec):      990.016
                         Elapsed time (sec):    17641.229
  
                   Maximum memory used (kb):     7179212.
                   Average memory used (kb):           0.
  
                          Minor page faults:    782012508
                          Major page faults:            0
                 Voluntary context switches:          430
