 running on    1 total cores
 distrk:  each k-point on    1 cores,    1 groups
 distr:  one band on    1 cores,    1 groups
 using from now: INCAR     
 vasp.5.4.4.18Apr17-6-g9f103f2a35 (build Sep 03 2018 23:53:05) complex          
  
 POSCAR found type information on POSCAR  Pd C  O 
 POSCAR found :  3 types and      57 ions
 scaLAPACK will be used

 ----------------------------------------------------------------------------- 
|                                                                             |
|  ADVICE TO THIS USER RUNNING 'VASP/VAMP'   (HEAR YOUR MASTER'S VOICE ...):  |
|                                                                             |
|      You enforced a specific xc-type in the INCAR file,                     |
|      a different type was found on the POTCAR file                          |
|          I HOPE YOU KNOW, WHAT YOU ARE  DOING                               |
|                                                                             |
 ----------------------------------------------------------------------------- 

 LDA part: xc-table for Pade appr. of Perdew
 POSCAR, INCAR and KPOINTS ok, starting setup
 FFT: planning ...
 WAVECAR not read
 entering main loop
       N       E                     dE             d eps       ncg     rms          rms(c)
DAV:   1     0.439140340772E+04    0.43914E+04   -0.10052E+05   688   0.815E+02
DAV:   2     0.200952903277E+04   -0.23819E+04   -0.21410E+04  1224   0.105E+02
DAV:   3     0.232712900120E+03   -0.17768E+04   -0.16729E+04  1000   0.919E+01
DAV:   4    -0.135218238163E+03   -0.36793E+03   -0.31227E+03   824   0.435E+01
DAV:   5    -0.180055420337E+03   -0.44837E+02   -0.37042E+02  1064   0.145E+01    0.154E+01
RMM:   6    -0.180764333438E+03   -0.70891E+00   -0.62710E+01   724   0.918E+00    0.233E+01
RMM:   7    -0.182450229459E+03   -0.16859E+01   -0.21344E+01   850   0.488E+00    0.249E+01
RMM:   8    -0.184586289797E+03   -0.21361E+01   -0.67954E+00   820   0.328E+00    0.266E+01
RMM:   9    -0.183134935916E+03    0.14514E+01   -0.55038E+00   734   0.325E+00    0.229E+01
RMM:  10    -0.180352211820E+03    0.27827E+01   -0.37689E+00   731   0.290E+00    0.228E+01
RMM:  11    -0.178627920876E+03    0.17243E+01   -0.17903E+00   730   0.197E+00    0.197E+01
RMM:  12    -0.177728199424E+03    0.89972E+00   -0.15092E+00   723   0.179E+00    0.155E+01
RMM:  13    -0.177546600326E+03    0.18160E+00   -0.10986E+00   726   0.153E+00    0.164E+01
RMM:  14    -0.177118434888E+03    0.42817E+00   -0.16151E+00   713   0.187E+00    0.159E+01
RMM:  15    -0.176727048828E+03    0.39139E+00   -0.11625E+00   707   0.160E+00    0.169E+01
RMM:  16    -0.176567113967E+03    0.15993E+00   -0.81893E-01   707   0.130E+00    0.136E+01
RMM:  17    -0.176281650863E+03    0.28546E+00   -0.43959E-01   722   0.977E-01    0.105E+01
RMM:  18    -0.176239599491E+03    0.42051E-01   -0.49507E-01   709   0.106E+00    0.120E+01
RMM:  19    -0.176162502515E+03    0.77097E-01   -0.40887E-01   709   0.985E-01    0.117E+01
RMM:  20    -0.176072346829E+03    0.90156E-01   -0.39713E-01   699   0.962E-01    0.106E+01
RMM:  21    -0.175770776432E+03    0.30157E+00   -0.27958E-01   699   0.816E-01    0.693E+00
RMM:  22    -0.175621406907E+03    0.14937E+00   -0.19471E-01   694   0.683E-01    0.695E+00
RMM:  23    -0.175516397834E+03    0.10501E+00   -0.18557E-01   695   0.653E-01    0.604E+00
RMM:  24    -0.175398995731E+03    0.11740E+00   -0.12347E-01   695   0.554E-01    0.385E+00
RMM:  25    -0.175363134833E+03    0.35861E-01   -0.73214E-02   696   0.430E-01    0.394E+00
RMM:  26    -0.175318179224E+03    0.44956E-01   -0.47727E-02   695   0.348E-01    0.280E+00
RMM:  27    -0.175306909644E+03    0.11270E-01   -0.39420E-02   694   0.323E-01    0.248E+00
RMM:  28    -0.175301819646E+03    0.50900E-02   -0.28407E-02   695   0.275E-01    0.249E+00
RMM:  29    -0.175274351795E+03    0.27468E-01   -0.19312E-02   694   0.236E-01    0.162E+00
RMM:  30    -0.175266609197E+03    0.77426E-02   -0.12450E-02   696   0.183E-01    0.119E+00
RMM:  31    -0.175263126867E+03    0.34823E-02   -0.86704E-03   695   0.152E-01    0.105E+00
RMM:  32    -0.175261376917E+03    0.17499E-02   -0.64676E-03   693   0.129E-01    0.109E+00
RMM:  33    -0.175256624538E+03    0.47524E-02   -0.35444E-03   693   0.102E-01    0.620E-01
RMM:  34    -0.175256933907E+03   -0.30937E-03   -0.27700E-03   691   0.836E-02    0.604E-01
RMM:  35    -0.175257586924E+03   -0.65302E-03   -0.16408E-03   691   0.660E-02    0.597E-01
RMM:  36    -0.175258319997E+03   -0.73307E-03   -0.13490E-03   689   0.590E-02    0.480E-01
RMM:  37    -0.175258982033E+03   -0.66204E-03   -0.87547E-04   687   0.485E-02    0.349E-01
RMM:  38    -0.175261412019E+03   -0.24300E-02   -0.86125E-04   689   0.460E-02    0.336E-01
RMM:  39    -0.175263652532E+03   -0.22405E-02   -0.65395E-04   658   0.405E-02    0.263E-01
RMM:  40    -0.175265783171E+03   -0.21306E-02   -0.54448E-04   586   0.352E-02    0.253E-01
RMM:  41    -0.175268880431E+03   -0.30973E-02   -0.62701E-04   599   0.356E-02    0.211E-01
RMM:  42    -0.175270908780E+03   -0.20283E-02   -0.40031E-04   489   0.289E-02    0.202E-01
RMM:  43    -0.175273607993E+03   -0.26992E-02   -0.44104E-04   508   0.281E-02    0.172E-01
RMM:  44    -0.175275458370E+03   -0.18504E-02   -0.32951E-04   452   0.241E-02    0.119E-01
RMM:  45    -0.175276898832E+03   -0.14405E-02   -0.21568E-04   422   0.192E-02    0.125E-01
RMM:  46    -0.175278251910E+03   -0.13531E-02   -0.17896E-04   413   0.169E-02    0.656E-02
RMM:  47    -0.175278934713E+03   -0.68280E-03   -0.94887E-05   415   0.123E-02    0.593E-02
RMM:  48    -0.175280432872E+03   -0.14982E-02   -0.10524E-04   408   0.123E-02    0.606E-02
RMM:  49    -0.175281015398E+03   -0.58253E-03   -0.62454E-05   408   0.954E-03    0.400E-02
RMM:  50    -0.175281886897E+03   -0.87150E-03   -0.48912E-05   409   0.823E-03    0.436E-02
RMM:  51    -0.175282424066E+03   -0.53717E-03   -0.31779E-05   388   0.685E-03    0.227E-02
RMM:  52    -0.175282930912E+03   -0.50685E-03   -0.20265E-05   327   0.552E-03    0.290E-02
RMM:  53    -0.175283487128E+03   -0.55622E-03   -0.19787E-05   334   0.531E-03    0.163E-02
RMM:  54    -0.175283768014E+03   -0.28089E-03   -0.54526E-06   170   0.396E-03    0.180E-02
RMM:  55    -0.175284148450E+03   -0.38044E-03   -0.11481E-05   239   0.426E-03    0.115E-02
RMM:  56    -0.175284300442E+03   -0.15199E-03   -0.30233E-06   130   0.366E-03    0.136E-02
RMM:  57    -0.175284619352E+03   -0.31891E-03   -0.16624E-05   271   0.464E-03    0.118E-02
RMM:  58    -0.175284753987E+03   -0.13464E-03   -0.72703E-06   167   0.366E-03    0.599E-03
RMM:  59    -0.175284882970E+03   -0.12898E-03   -0.77626E-06   172   0.377E-03    0.728E-03
RMM:  60    -0.175284975169E+03   -0.92200E-04   -0.69167E-06   155   0.361E-03
   1 F= -.17528498E+03 E0= -.17527585E+03  d E =-.365207E-01
================================= SLURM INFO ===================================
Command: run-cluster -n 1 -m 10000 -j 000077_vasp --same-node /opt/VASP/vasp
Exit code: 0
Job name: 000077_vasp
Job time: 0 days 6h:0m:39s
MPI task count: 1
Working dir: /home/pashkov/pyFitIt/pyfitit/data/adaptive_pd_co_new_2/sample/000077
Job was running on nodes: b3
Task per node: 1
       JobID     MaxRSS  MaxDiskRead MaxDiskWrite    Elapsed    JobName 
------------ ---------- ------------ ------------ ---------- ---------- 
106548                                              06:00:40 000077_va+ 
106548.batch                                        06:00:40      batch 
