  57  57   0   0
  0.4736842E+03  0.3000000E-08  0.3000000E-08  0.3000000E-08  0.5000000E-15
  1.000000000000000E-004
  CAR 
 6_Pd100_top_free_z(O)                   
      1.41691717    -31.17170681  301     -4.12452347      1.00000000
    -31.172  0.0000E+00  0.0000E+00
    -31.063  0.0000E+00  0.0000E+00
    -30.954  0.0000E+00  0.0000E+00
    -30.846  0.5383E-27  0.5847E-28
    -30.737  0.2891E-23  0.3141E-24
    -30.629  0.8469E-20  0.9203E-21
    -30.520  0.1349E-16  0.1466E-17
    -30.411  0.1163E-13  0.1265E-14
    -30.303  0.5417E-11  0.5897E-12
    -30.194  0.1347E-08  0.1469E-09
    -30.085  0.1773E-06  0.1940E-07
    -29.977  0.1212E-04  0.1336E-05
    -29.868  0.4179E-03  0.4674E-04
    -29.760  0.6815E-02  0.7871E-03
    -29.651  0.4401E-01  0.5568E-02
    -29.542  0.1921E-01  0.7655E-02
    -29.434 -0.5733E+00 -0.5463E-01
    -29.325 -0.1563E+00 -0.7161E-01
    -29.216  0.5678E+01  0.5452E+00
    -29.108  0.9945E+01  0.1626E+01
    -28.999  0.4333E+01  0.2096E+01
    -28.891 -0.5458E+00  0.2037E+01
    -28.782 -0.4274E+00  0.1990E+01
    -28.673  0.4858E-01  0.1996E+01
    -28.565  0.3446E-01  0.1999E+01
    -28.456  0.4409E-02  0.2000E+01
    -28.347  0.2350E-03  0.2000E+01
    -28.239  0.6018E-05  0.2000E+01
    -28.130  0.7821E-07  0.2000E+01
    -28.021  0.5304E-09  0.2000E+01
    -27.913  0.1907E-11  0.2000E+01
    -27.804  0.4088E-14  0.2000E+01
    -27.696  0.0000E+00  0.2000E+01
    -27.587  0.0000E+00  0.2000E+01
    -27.478  0.0000E+00  0.2000E+01
    -27.370  0.0000E+00  0.2000E+01
    -27.261  0.0000E+00  0.2000E+01
    -27.152  0.0000E+00  0.2000E+01
    -27.044  0.0000E+00  0.2000E+01
    -26.935  0.0000E+00  0.2000E+01
    -26.827  0.0000E+00  0.2000E+01
    -26.718  0.0000E+00  0.2000E+01
    -26.609  0.0000E+00  0.2000E+01
    -26.501  0.0000E+00  0.2000E+01
    -26.392  0.0000E+00  0.2000E+01
    -26.283  0.0000E+00  0.2000E+01
    -26.175  0.0000E+00  0.2000E+01
    -26.066  0.0000E+00  0.2000E+01
    -25.958  0.0000E+00  0.2000E+01
    -25.849  0.0000E+00  0.2000E+01
    -25.740  0.0000E+00  0.2000E+01
    -25.632  0.0000E+00  0.2000E+01
    -25.523  0.0000E+00  0.2000E+01
    -25.414  0.0000E+00  0.2000E+01
    -25.306  0.0000E+00  0.2000E+01
    -25.197  0.0000E+00  0.2000E+01
    -25.088  0.0000E+00  0.2000E+01
    -24.980  0.0000E+00  0.2000E+01
    -24.871  0.0000E+00  0.2000E+01
    -24.763  0.0000E+00  0.2000E+01
    -24.654  0.0000E+00  0.2000E+01
    -24.545  0.0000E+00  0.2000E+01
    -24.437  0.0000E+00  0.2000E+01
    -24.328  0.0000E+00  0.2000E+01
    -24.219  0.0000E+00  0.2000E+01
    -24.111  0.0000E+00  0.2000E+01
    -24.002  0.0000E+00  0.2000E+01
    -23.894  0.0000E+00  0.2000E+01
    -23.785  0.0000E+00  0.2000E+01
    -23.676  0.0000E+00  0.2000E+01
    -23.568  0.0000E+00  0.2000E+01
    -23.459  0.0000E+00  0.2000E+01
    -23.350  0.0000E+00  0.2000E+01
    -23.242  0.0000E+00  0.2000E+01
    -23.133  0.0000E+00  0.2000E+01
    -23.025  0.0000E+00  0.2000E+01
    -22.916  0.0000E+00  0.2000E+01
    -22.807  0.0000E+00  0.2000E+01
    -22.699  0.0000E+00  0.2000E+01
    -22.590  0.0000E+00  0.2000E+01
    -22.481  0.0000E+00  0.2000E+01
    -22.373  0.0000E+00  0.2000E+01
    -22.264  0.0000E+00  0.2000E+01
    -22.156  0.0000E+00  0.2000E+01
    -22.047  0.0000E+00  0.2000E+01
    -21.938  0.0000E+00  0.2000E+01
    -21.830  0.0000E+00  0.2000E+01
    -21.721  0.0000E+00  0.2000E+01
    -21.612  0.0000E+00  0.2000E+01
    -21.504  0.0000E+00  0.2000E+01
    -21.395  0.0000E+00  0.2000E+01
    -21.286  0.0000E+00  0.2000E+01
    -21.178  0.0000E+00  0.2000E+01
    -21.069  0.0000E+00  0.2000E+01
    -20.961  0.0000E+00  0.2000E+01
    -20.852  0.0000E+00  0.2000E+01
    -20.743  0.0000E+00  0.2000E+01
    -20.635  0.0000E+00  0.2000E+01
    -20.526  0.0000E+00  0.2000E+01
    -20.417  0.0000E+00  0.2000E+01
    -20.309  0.0000E+00  0.2000E+01
    -20.200  0.0000E+00  0.2000E+01
    -20.092  0.0000E+00  0.2000E+01
    -19.983  0.0000E+00  0.2000E+01
    -19.874  0.0000E+00  0.2000E+01
    -19.766  0.0000E+00  0.2000E+01
    -19.657  0.0000E+00  0.2000E+01
    -19.548  0.0000E+00  0.2000E+01
    -19.440  0.0000E+00  0.2000E+01
    -19.331  0.0000E+00  0.2000E+01
    -19.223  0.0000E+00  0.2000E+01
    -19.114  0.0000E+00  0.2000E+01
    -19.005  0.0000E+00  0.2000E+01
    -18.897  0.0000E+00  0.2000E+01
    -18.788  0.0000E+00  0.2000E+01
    -18.679  0.0000E+00  0.2000E+01
    -18.571  0.0000E+00  0.2000E+01
    -18.462  0.0000E+00  0.2000E+01
    -18.354  0.0000E+00  0.2000E+01
    -18.245  0.0000E+00  0.2000E+01
    -18.136  0.0000E+00  0.2000E+01
    -18.028  0.0000E+00  0.2000E+01
    -17.919  0.0000E+00  0.2000E+01
    -17.810  0.0000E+00  0.2000E+01
    -17.702  0.0000E+00  0.2000E+01
    -17.593  0.0000E+00  0.2000E+01
    -17.484  0.0000E+00  0.2000E+01
    -17.376  0.0000E+00  0.2000E+01
    -17.267  0.0000E+00  0.2000E+01
    -17.159  0.0000E+00  0.2000E+01
    -17.050  0.0000E+00  0.2000E+01
    -16.941  0.0000E+00  0.2000E+01
    -16.833  0.0000E+00  0.2000E+01
    -16.724  0.0000E+00  0.2000E+01
    -16.615  0.0000E+00  0.2000E+01
    -16.507  0.0000E+00  0.2000E+01
    -16.398  0.0000E+00  0.2000E+01
    -16.290  0.0000E+00  0.2000E+01
    -16.181  0.0000E+00  0.2000E+01
    -16.072  0.0000E+00  0.2000E+01
    -15.964  0.0000E+00  0.2000E+01
    -15.855  0.0000E+00  0.2000E+01
    -15.746  0.0000E+00  0.2000E+01
    -15.638  0.0000E+00  0.2000E+01
    -15.529  0.0000E+00  0.2000E+01
    -15.421  0.0000E+00  0.2000E+01
    -15.312  0.1006E-24  0.2000E+01
    -15.203  0.3756E-21  0.2000E+01
    -15.095  0.7633E-18  0.2000E+01
    -14.986  0.8416E-15  0.2000E+01
    -14.877  0.5021E-12  0.2000E+01
    -14.769  0.1605E-09  0.2000E+01
    -14.660  0.2727E-07  0.2000E+01
    -14.552  0.2429E-05  0.2000E+01
    -14.443  0.1106E-03  0.2000E+01
    -14.334  0.2461E-02  0.2000E+01
    -14.226  0.2391E-01  0.2003E+01
    -14.117  0.6311E-01  0.2010E+01
    -14.008 -0.2563E+00  0.1982E+01
    -13.900 -0.7800E+00  0.1897E+01
    -13.791  0.2743E+01  0.2195E+01
    -13.682  0.9395E+01  0.3216E+01
    -13.574  0.7304E+01  0.4009E+01
    -13.465  0.6299E+00  0.4078E+01
    -13.357 -0.7335E+00  0.3998E+01
    -13.248 -0.4800E-01  0.3993E+01
    -13.139  0.5566E-01  0.3999E+01
    -13.031  0.1130E-01  0.4000E+01
    -12.922  0.8316E-03  0.4000E+01
    -12.813  0.2828E-04  0.4000E+01
    -12.705  0.4798E-06  0.4000E+01
    -12.596  0.4225E-08  0.4000E+01
    -12.488  0.3586E-08  0.4000E+01
    -12.379  0.4532E-06  0.4000E+01
    -12.270  0.2989E-04  0.4000E+01
    -12.162  0.9917E-03  0.4000E+01
    -12.053  0.1548E-01  0.4002E+01
    -11.944  0.9395E-01  0.4012E+01
    -11.836  0.1249E-01  0.4013E+01
    -11.727 -0.1233E+01  0.3879E+01
    -11.619  0.6865E-02  0.3880E+01
    -11.510  0.1217E+02  0.5203E+01
    -11.401  0.1973E+02  0.7346E+01
    -11.293  0.7861E+01  0.8200E+01
    -11.184 -0.1253E+01  0.8064E+01
    -11.075 -0.7671E+00  0.7980E+01
    -10.967  0.1081E+00  0.7992E+01
    -10.858  0.6341E-01  0.7999E+01
    -10.750  0.7680E-02  0.8000E+01
    -10.641  0.3925E-03  0.8000E+01
    -10.532  0.9734E-05  0.8000E+01
    -10.424  0.4522E-05  0.8000E+01
    -10.315  0.1814E-03  0.8000E+01
    -10.206  0.3614E-02  0.8000E+01
    -10.098  0.3054E-01  0.8004E+01
     -9.989  0.5603E-01  0.8010E+01
     -9.880 -0.3649E+00  0.7970E+01
     -9.772 -0.6566E+00  0.7899E+01
     -9.663  0.3759E+01  0.8307E+01
     -9.555  0.9821E+01  0.9374E+01
     -9.446  0.6262E+01  0.1005E+02
     -9.337  0.7900E-01  0.1006E+02
     -9.229 -0.6344E+00  0.9994E+01
     -9.120 -0.2540E-04  0.9994E+01
     -9.011  0.4825E-01  0.9999E+01
     -8.903  0.8173E-02  0.1000E+02
     -8.794  0.5337E-03  0.1000E+02
     -8.686  0.1636E-04  0.1000E+02
     -8.577  0.2519E-06  0.1000E+02
     -8.468  0.2013E-08  0.1000E+02
     -8.360  0.8501E-11  0.1000E+02
     -8.251  0.1840E-13  0.1000E+02
     -8.142  0.9321E-22  0.1000E+02
     -8.034  0.2107E-18  0.1000E+02
     -7.925  0.2586E-15  0.1000E+02
     -7.817  0.1715E-12  0.1000E+02
     -7.708  0.6128E-10  0.1000E+02
     -7.599  0.1164E-07  0.1000E+02
     -7.491  0.1162E-05  0.1000E+02
     -7.382  0.5967E-04  0.1000E+02
     -7.273  0.1512E-02  0.1000E+02
     -7.165  0.1723E-01  0.1000E+02
     -7.056  0.6297E-01  0.1001E+02
     -6.947 -0.1451E+00  0.9993E+01
     -6.839 -0.8106E+00  0.9905E+01
     -6.730  0.1662E+01  0.1009E+02
     -6.622  0.8656E+01  0.1103E+02
     -6.513  0.8602E+01  0.1196E+02
     -6.404  0.6410E+00  0.1203E+02
     -6.296 -0.2945E+01  0.1171E+02
     -6.187  0.9339E+01  0.1272E+02
     -6.078  0.2815E+02  0.1578E+02
     -5.970  0.1861E+02  0.1780E+02
     -5.861  0.8387E+01  0.1872E+02
     -5.753  0.3269E+02  0.2227E+02
     -5.644  0.8447E+02  0.3144E+02
     -5.535  0.1936E+03  0.5248E+02
     -5.427  0.3026E+03  0.8534E+02
     -5.318  0.2791E+03  0.1157E+03
     -5.209  0.2060E+03  0.1380E+03
     -5.101  0.2418E+03  0.1643E+03
     -4.992  0.3450E+03  0.2018E+03
     -4.884  0.3633E+03  0.2412E+03
     -4.775  0.2994E+03  0.2738E+03
     -4.666  0.3280E+03  0.3094E+03
     -4.558  0.4132E+03  0.3543E+03
     -4.449  0.4171E+03  0.3996E+03
     -4.340  0.4585E+03  0.4494E+03
     -4.232  0.5602E+03  0.5103E+03
     -4.123  0.4620E+03  0.5604E+03
     -4.015  0.1763E+03  0.5796E+03
     -3.906  0.1930E+02  0.5817E+03
     -3.797  0.2568E+02  0.5845E+03
     -3.689  0.2738E+02  0.5875E+03
     -3.580  0.7711E+01  0.5883E+03
     -3.471  0.1915E+02  0.5904E+03
     -3.363  0.2692E+02  0.5933E+03
     -3.254  0.5267E+01  0.5939E+03
     -3.145 -0.7147E+00  0.5938E+03
     -3.037  0.3822E+02  0.5980E+03
     -2.928  0.6780E+02  0.6053E+03
     -2.820  0.3922E+02  0.6096E+03
     -2.711  0.4042E+01  0.6100E+03
     -2.602  0.7461E+01  0.6108E+03
     -2.494  0.2722E+02  0.6138E+03
     -2.385  0.1984E+02  0.6159E+03
     -2.276  0.6712E+01  0.6167E+03
     -2.168  0.1816E+02  0.6186E+03
     -2.059  0.3106E+02  0.6220E+03
     -1.951  0.3445E+02  0.6258E+03
     -1.842  0.4975E+02  0.6312E+03
     -1.733  0.5423E+02  0.6371E+03
     -1.625  0.3710E+02  0.6411E+03
     -1.516  0.3767E+02  0.6452E+03
     -1.407  0.3590E+02  0.6491E+03
     -1.299  0.9927E+01  0.6502E+03
     -1.190  0.4704E+01  0.6507E+03
     -1.082  0.2764E+02  0.6537E+03
     -0.973  0.5606E+02  0.6598E+03
     -0.864  0.5780E+02  0.6660E+03
     -0.756  0.2209E+02  0.6684E+03
     -0.647  0.8952E+01  0.6694E+03
     -0.538  0.1694E+02  0.6712E+03
     -0.430  0.8321E+01  0.6721E+03
     -0.321 -0.7636E+00  0.6721E+03
     -0.213 -0.7635E+00  0.6720E+03
     -0.104  0.8466E-01  0.6720E+03
      0.005  0.6557E-01  0.6720E+03
      0.113  0.8913E-02  0.6720E+03
      0.222  0.5082E-03  0.6720E+03
      0.331  0.1403E-04  0.6720E+03
      0.439  0.1978E-06  0.6720E+03
      0.548  0.1464E-08  0.6720E+03
      0.657  0.5768E-11  0.6720E+03
      0.765  0.1226E-13  0.6720E+03
      0.874  0.0000E+00  0.6720E+03
      0.982  0.0000E+00  0.6720E+03
      1.091  0.0000E+00  0.6720E+03
      1.200  0.0000E+00  0.6720E+03
      1.308  0.0000E+00  0.6720E+03
      1.417  0.0000E+00  0.6720E+03
