  57  57   0   0
  0.4736842E+03  0.3000000E-08  0.3000000E-08  0.3000000E-08  0.5000000E-15
  1.000000000000000E-004
  CAR 
 6_Pd100_top_free_z(O)                   
      1.32624462    -31.23599505  301     -4.12385549      1.00000000
    -31.236  0.0000E+00  0.0000E+00
    -31.127  0.0000E+00  0.0000E+00
    -31.019  0.0000E+00  0.0000E+00
    -30.910  0.5272E-27  0.5722E-28
    -30.802  0.2817E-23  0.3058E-24
    -30.693  0.8216E-20  0.8921E-21
    -30.585  0.1304E-16  0.1417E-17
    -30.476  0.1123E-13  0.1220E-14
    -30.368  0.5221E-11  0.5679E-12
    -30.259  0.1298E-08  0.1415E-09
    -30.151  0.1710E-06  0.1870E-07
    -30.042  0.1172E-04  0.1291E-05
    -29.934  0.4055E-03  0.4530E-04
    -29.825  0.6651E-02  0.7672E-03
    -29.716  0.4341E-01  0.5479E-02
    -29.608  0.2180E-01  0.7845E-02
    -29.499 -0.5632E+00 -0.5328E-01
    -29.391 -0.1932E+00 -0.7425E-01
    -29.282  0.5570E+01  0.5304E+00
    -29.174  0.9962E+01  0.1612E+01
    -29.065  0.4451E+01  0.2095E+01
    -28.957 -0.5181E+00  0.2039E+01
    -28.848 -0.4417E+00  0.1991E+01
    -28.740  0.4643E-01  0.1996E+01
    -28.631  0.3545E-01  0.1999E+01
    -28.522  0.4634E-02  0.2000E+01
    -28.414  0.2514E-03  0.2000E+01
    -28.305  0.6552E-05  0.2000E+01
    -28.197  0.8668E-07  0.2000E+01
    -28.088  0.5987E-09  0.2000E+01
    -27.980  0.2195E-11  0.2000E+01
    -27.871  0.4091E-14  0.2000E+01
    -27.763  0.0000E+00  0.2000E+01
    -27.654  0.0000E+00  0.2000E+01
    -27.546  0.0000E+00  0.2000E+01
    -27.437  0.0000E+00  0.2000E+01
    -27.329  0.0000E+00  0.2000E+01
    -27.220  0.0000E+00  0.2000E+01
    -27.111  0.0000E+00  0.2000E+01
    -27.003  0.0000E+00  0.2000E+01
    -26.894  0.0000E+00  0.2000E+01
    -26.786  0.0000E+00  0.2000E+01
    -26.677  0.0000E+00  0.2000E+01
    -26.569  0.0000E+00  0.2000E+01
    -26.460  0.0000E+00  0.2000E+01
    -26.352  0.0000E+00  0.2000E+01
    -26.243  0.0000E+00  0.2000E+01
    -26.135  0.0000E+00  0.2000E+01
    -26.026  0.0000E+00  0.2000E+01
    -25.917  0.0000E+00  0.2000E+01
    -25.809  0.0000E+00  0.2000E+01
    -25.700  0.0000E+00  0.2000E+01
    -25.592  0.0000E+00  0.2000E+01
    -25.483  0.0000E+00  0.2000E+01
    -25.375  0.0000E+00  0.2000E+01
    -25.266  0.0000E+00  0.2000E+01
    -25.158  0.0000E+00  0.2000E+01
    -25.049  0.0000E+00  0.2000E+01
    -24.941  0.0000E+00  0.2000E+01
    -24.832  0.0000E+00  0.2000E+01
    -24.724  0.0000E+00  0.2000E+01
    -24.615  0.0000E+00  0.2000E+01
    -24.506  0.0000E+00  0.2000E+01
    -24.398  0.0000E+00  0.2000E+01
    -24.289  0.0000E+00  0.2000E+01
    -24.181  0.0000E+00  0.2000E+01
    -24.072  0.0000E+00  0.2000E+01
    -23.964  0.0000E+00  0.2000E+01
    -23.855  0.0000E+00  0.2000E+01
    -23.747  0.0000E+00  0.2000E+01
    -23.638  0.0000E+00  0.2000E+01
    -23.530  0.0000E+00  0.2000E+01
    -23.421  0.0000E+00  0.2000E+01
    -23.313  0.0000E+00  0.2000E+01
    -23.204  0.0000E+00  0.2000E+01
    -23.095  0.0000E+00  0.2000E+01
    -22.987  0.0000E+00  0.2000E+01
    -22.878  0.0000E+00  0.2000E+01
    -22.770  0.0000E+00  0.2000E+01
    -22.661  0.0000E+00  0.2000E+01
    -22.553  0.0000E+00  0.2000E+01
    -22.444  0.0000E+00  0.2000E+01
    -22.336  0.0000E+00  0.2000E+01
    -22.227  0.0000E+00  0.2000E+01
    -22.119  0.0000E+00  0.2000E+01
    -22.010  0.0000E+00  0.2000E+01
    -21.901  0.0000E+00  0.2000E+01
    -21.793  0.0000E+00  0.2000E+01
    -21.684  0.0000E+00  0.2000E+01
    -21.576  0.0000E+00  0.2000E+01
    -21.467  0.0000E+00  0.2000E+01
    -21.359  0.0000E+00  0.2000E+01
    -21.250  0.0000E+00  0.2000E+01
    -21.142  0.0000E+00  0.2000E+01
    -21.033  0.0000E+00  0.2000E+01
    -20.925  0.0000E+00  0.2000E+01
    -20.816  0.0000E+00  0.2000E+01
    -20.708  0.0000E+00  0.2000E+01
    -20.599  0.0000E+00  0.2000E+01
    -20.490  0.0000E+00  0.2000E+01
    -20.382  0.0000E+00  0.2000E+01
    -20.273  0.0000E+00  0.2000E+01
    -20.165  0.0000E+00  0.2000E+01
    -20.056  0.0000E+00  0.2000E+01
    -19.948  0.0000E+00  0.2000E+01
    -19.839  0.0000E+00  0.2000E+01
    -19.731  0.0000E+00  0.2000E+01
    -19.622  0.0000E+00  0.2000E+01
    -19.514  0.0000E+00  0.2000E+01
    -19.405  0.0000E+00  0.2000E+01
    -19.297  0.0000E+00  0.2000E+01
    -19.188  0.0000E+00  0.2000E+01
    -19.079  0.0000E+00  0.2000E+01
    -18.971  0.0000E+00  0.2000E+01
    -18.862  0.0000E+00  0.2000E+01
    -18.754  0.0000E+00  0.2000E+01
    -18.645  0.0000E+00  0.2000E+01
    -18.537  0.0000E+00  0.2000E+01
    -18.428  0.0000E+00  0.2000E+01
    -18.320  0.0000E+00  0.2000E+01
    -18.211  0.0000E+00  0.2000E+01
    -18.103  0.0000E+00  0.2000E+01
    -17.994  0.0000E+00  0.2000E+01
    -17.885  0.0000E+00  0.2000E+01
    -17.777  0.0000E+00  0.2000E+01
    -17.668  0.0000E+00  0.2000E+01
    -17.560  0.0000E+00  0.2000E+01
    -17.451  0.0000E+00  0.2000E+01
    -17.343  0.0000E+00  0.2000E+01
    -17.234  0.0000E+00  0.2000E+01
    -17.126  0.0000E+00  0.2000E+01
    -17.017  0.0000E+00  0.2000E+01
    -16.909  0.0000E+00  0.2000E+01
    -16.800  0.0000E+00  0.2000E+01
    -16.692  0.0000E+00  0.2000E+01
    -16.583  0.0000E+00  0.2000E+01
    -16.474  0.0000E+00  0.2000E+01
    -16.366  0.0000E+00  0.2000E+01
    -16.257  0.0000E+00  0.2000E+01
    -16.149  0.0000E+00  0.2000E+01
    -16.040  0.0000E+00  0.2000E+01
    -15.932  0.0000E+00  0.2000E+01
    -15.823  0.0000E+00  0.2000E+01
    -15.715  0.3299E-25  0.2000E+01
    -15.606  0.1324E-21  0.2000E+01
    -15.498  0.2897E-18  0.2000E+01
    -15.389  0.3445E-15  0.2000E+01
    -15.280  0.2215E-12  0.2000E+01
    -15.172  0.7677E-10  0.2000E+01
    -15.063  0.1416E-07  0.2000E+01
    -14.955  0.1373E-05  0.2000E+01
    -14.846  0.6843E-04  0.2000E+01
    -14.738  0.1682E-02  0.2000E+01
    -14.629  0.1851E-01  0.2002E+01
    -14.521  0.6361E-01  0.2009E+01
    -14.412 -0.1655E+00  0.1991E+01
    -14.304 -0.8136E+00  0.1903E+01
    -14.195  0.1849E+01  0.2104E+01
    -14.087  0.8755E+01  0.3054E+01
    -13.978  0.8230E+01  0.3947E+01
    -13.869  0.1322E+01  0.4091E+01
    -13.761 -0.7988E+00  0.4004E+01
    -13.652 -0.1135E+00  0.3992E+01
    -13.544  0.6195E-01  0.3998E+01
    -13.435  0.2270E-01  0.4001E+01
    -13.327  0.4694E-01  0.4006E+01
    -13.218  0.1261E-01  0.4007E+01
    -13.110 -0.5960E+00  0.3942E+01
    -13.001 -0.7838E-01  0.3934E+01
    -12.893  0.5879E+01  0.4572E+01
    -12.784  0.9913E+01  0.5648E+01
    -12.676  0.4148E+01  0.6098E+01
    -12.567 -0.5618E+00  0.6037E+01
    -12.458 -0.3446E+00  0.6000E+01
    -12.350 -0.1818E+00  0.5980E+01
    -12.241 -0.7622E+00  0.5898E+01
    -12.133  0.2512E+01  0.6170E+01
    -12.024  0.9252E+01  0.7174E+01
    -11.916  0.7557E+01  0.7995E+01
    -11.807  0.7982E+00  0.8081E+01
    -11.699 -0.7552E+00  0.7999E+01
    -11.590 -0.6401E-01  0.7992E+01
    -11.482  0.5750E-01  0.7999E+01
    -11.373  0.1234E-01  0.8000E+01
    -11.264  0.9730E-03  0.8000E+01
    -11.156  0.9120E-03  0.8000E+01
    -11.047  0.1174E-01  0.8001E+01
    -10.939  0.5645E-01  0.8008E+01
    -10.830 -0.5433E-01  0.8002E+01
    -10.722 -0.7425E+00  0.7921E+01
    -10.613  0.6927E+00  0.7996E+01
    -10.505  0.7398E+01  0.8799E+01
    -10.396  0.9346E+01  0.9814E+01
    -10.288  0.2662E+01  0.1010E+02
    -10.179 -0.7858E+00  0.1002E+02
    -10.071 -0.2490E+00  0.9990E+01
     -9.962  0.6333E-01  0.9997E+01
     -9.853  0.2354E-01  0.1000E+02
     -9.745  0.2407E-02  0.1000E+02
     -9.636  0.1078E-03  0.1000E+02
     -9.528  0.2363E-05  0.1000E+02
     -9.419  0.2652E-07  0.1000E+02
     -9.311  0.1561E-09  0.1000E+02
     -9.202  0.4889E-12  0.1000E+02
     -9.094  0.2874E-19  0.1000E+02
     -8.985  0.4127E-16  0.1000E+02
     -8.877  0.3210E-13  0.1000E+02
     -8.768  0.1348E-10  0.1000E+02
     -8.660  0.3023E-08  0.1000E+02
     -8.551  0.3582E-06  0.1000E+02
     -8.442  0.2200E-04  0.1000E+02
     -8.334  0.6773E-03  0.1000E+02
     -8.225  0.9720E-02  0.1000E+02
     -8.117  0.5225E-01  0.1001E+02
     -8.008 -0.2273E-01  0.1000E+02
     -7.900 -0.6883E+00  0.9930E+01
     -7.791  0.3388E+00  0.9966E+01
     -7.683  0.6794E+01  0.1070E+02
     -7.574  0.9641E+01  0.1175E+02
     -7.466  0.3251E+01  0.1210E+02
     -7.357 -0.7290E+00  0.1202E+02
     -7.248 -0.3072E+00  0.1199E+02
     -7.140  0.9599E-01  0.1200E+02
     -7.031  0.1059E+00  0.1201E+02
     -6.923 -0.3322E+00  0.1198E+02
     -6.814 -0.8716E+00  0.1188E+02
     -6.706  0.3389E+01  0.1225E+02
     -6.597  0.1285E+02  0.1364E+02
     -6.489  0.1494E+02  0.1527E+02
     -6.380  0.8440E+01  0.1618E+02
     -6.272  0.6939E+01  0.1694E+02
     -6.163  0.1795E+02  0.1888E+02
     -6.055  0.3669E+02  0.2287E+02
     -5.946  0.3435E+02  0.2659E+02
     -5.837  0.2335E+02  0.2913E+02
     -5.729  0.4698E+02  0.3423E+02
     -5.620  0.1078E+03  0.4593E+02
     -5.512  0.2118E+03  0.6892E+02
     -5.403  0.2925E+03  0.1007E+03
     -5.295  0.2587E+03  0.1287E+03
     -5.186  0.2090E+03  0.1514E+03
     -5.078  0.2559E+03  0.1792E+03
     -4.969  0.3430E+03  0.2164E+03
     -4.861  0.3474E+03  0.2541E+03
     -4.752  0.2988E+03  0.2866E+03
     -4.643  0.3348E+03  0.3229E+03
     -4.535  0.4044E+03  0.3668E+03
     -4.426  0.4145E+03  0.4118E+03
     -4.318  0.4764E+03  0.4635E+03
     -4.209  0.5525E+03  0.5235E+03
     -4.101  0.3959E+03  0.5665E+03
     -3.992  0.1231E+03  0.5798E+03
     -3.884  0.1586E+02  0.5815E+03
     -3.775  0.2341E+02  0.5841E+03
     -3.667  0.2100E+02  0.5864E+03
     -3.558  0.1610E+02  0.5881E+03
     -3.450  0.2217E+02  0.5905E+03
     -3.341  0.1913E+02  0.5926E+03
     -3.232  0.6696E+01  0.5933E+03
     -3.124  0.1297E+02  0.5947E+03
     -3.015  0.4912E+02  0.6001E+03
     -2.907  0.5630E+02  0.6062E+03
     -2.798  0.2220E+02  0.6086E+03
     -2.690  0.6032E+01  0.6092E+03
     -2.581  0.1303E+02  0.6107E+03
     -2.473  0.2043E+02  0.6129E+03
     -2.364  0.1816E+02  0.6148E+03
     -2.256  0.1592E+02  0.6166E+03
     -2.147  0.2373E+02  0.6191E+03
     -2.039  0.3486E+02  0.6229E+03
     -1.930  0.3976E+02  0.6272E+03
     -1.821  0.4185E+02  0.6318E+03
     -1.713  0.3658E+02  0.6358E+03
     -1.604  0.3488E+02  0.6395E+03
     -1.496  0.3424E+02  0.6433E+03
     -1.387  0.2248E+02  0.6457E+03
     -1.279  0.1995E+02  0.6479E+03
     -1.170  0.2165E+02  0.6502E+03
     -1.062  0.2441E+02  0.6529E+03
     -0.953  0.5048E+02  0.6583E+03
     -0.845  0.6467E+02  0.6654E+03
     -0.736  0.4215E+02  0.6699E+03
     -0.627  0.1684E+02  0.6718E+03
     -0.519  0.3255E+01  0.6721E+03
     -0.410 -0.9281E+00  0.6720E+03
     -0.302 -0.3404E+00  0.6720E+03
     -0.193  0.1239E+00  0.6720E+03
     -0.085  0.5666E-01  0.6720E+03
      0.024  0.7414E-02  0.6720E+03
      0.132  0.4272E-03  0.6720E+03
      0.241  0.1204E-04  0.6720E+03
      0.349  0.1734E-06  0.6720E+03
      0.458  0.1308E-08  0.6720E+03
      0.566  0.5245E-11  0.6720E+03
      0.675  0.1023E-13  0.6720E+03
      0.784  0.0000E+00  0.6720E+03
      0.892  0.0000E+00  0.6720E+03
      1.001  0.0000E+00  0.6720E+03
      1.109  0.0000E+00  0.6720E+03
      1.218  0.0000E+00  0.6720E+03
      1.326  0.0000E+00  0.6720E+03
