<?xml version="1.0" encoding="ISO-8859-1"?>
<modeling>
 <generator>
  <i name="program" type="string">vasp </i>
  <i name="version" type="string">5.4.4.18Apr17-6-g9f103f2a35  </i>
  <i name="subversion" type="string">(build Sep 03 2018 23:53:05) complex            parallel </i>
  <i name="platform" type="string">LinuxIFC </i>
  <i name="date" type="string">2021 11 28 </i>
  <i name="time" type="string">00:36:31 </i>
 </generator>
 <incar>
  <i type="string" name="SYSTEM"> 6_Pd100_top_free_z(O)</i>
  <i type="int" name="ISTART">     0</i>
  <i type="string" name="PREC">normal   			! encut=max(enmax), ngx,y,z</i>
  <i type="string" name="ALGO"> Fast     			! Mix RMM-DIIS and Dav</i>
  <i type="logical" name="ADDGRID"> F  </i>
  <i type="int" name="ISPIN">     1</i>
  <i type="int" name="ICHARG">     2</i>
  <i type="int" name="NELM">   100</i>
  <i type="int" name="NELMIN">     6</i>
  <i type="int" name="IBRION">     2</i>
  <i name="EDIFF">      0.00010000</i>
  <i name="EDIFFG">     -0.05000000</i>
  <i type="int" name="NSW">     0</i>
  <i type="int" name="ISIF">     2</i>
  <i type="int" name="ISYM">     2</i>
  <i name="ENCUT">    400.00000000</i>
  <i type="string" name="LREAL"> Auto     			! Auto or A projection done</i>
  <i type="int" name="ISMEAR">     2</i>
  <i name="SIGMA">      0.20000000</i>
  <i type="logical" name="LWAVE"> F  </i>
  <i type="logical" name="LCHARG"> F  </i>
  <v type="int" name="KPOINT_BSE">    -1     0     0     0</v>
  <i type="int" name="MAXMEM"> 10000</i>
  <i type="int" name="NELM">   100</i>
  <i type="string" name="GGA"> RP         			! Revised PBE</i>
 </incar>
 <structure name="primitive_cell" >
  <crystal>
   <varray name="basis" >
    <v>      30.00000000       0.00000000       0.00000000 </v>
    <v>       0.00000000      30.00000000       0.00000000 </v>
    <v>       0.00000000       0.00000000      30.00000000 </v>
   </varray>
   <i name="volume">  27000.00000000 </i>
   <varray name="rec_basis" >
    <v>       0.03333333       0.00000000       0.00000000 </v>
    <v>       0.00000000       0.03333333       0.00000000 </v>
    <v>       0.00000000       0.00000000       0.03333333 </v>
   </varray>
  </crystal>
  <varray name="positions" >
   <v>       0.44576020       0.32826710       0.41691983 </v>
   <v>      -0.44576020       0.32826710       0.41691983 </v>
   <v>      -0.50000000       0.38250690       0.34021317 </v>
   <v>      -0.50000000       0.27609440      -0.50000000 </v>
   <v>       0.38804720       0.38804720       0.34167483 </v>
   <v>      -0.50000000       0.38416601      -0.50000000 </v>
   <v>       0.44208300       0.44208300       0.41809300 </v>
   <v>       0.38317830       0.38317830      -0.50000000 </v>
   <v>      -0.44208300       0.44208300       0.41809300 </v>
   <v>       0.44576020       0.32826710      -0.41691977 </v>
   <v>       0.32826705       0.44576024       0.41691983 </v>
   <v>      -0.38804720       0.38804720       0.34167483 </v>
   <v>      -0.38317830       0.38317830      -0.50000000 </v>
   <v>      -0.50000000      -0.50000000       0.33478917 </v>
   <v>      -0.50000000      -0.50000000      -0.50000000 </v>
   <v>      -0.44576020       0.32826710      -0.41691977 </v>
   <v>       0.38250685      -0.49999995       0.34021317 </v>
   <v>       0.44208300       0.44208300      -0.41809297 </v>
   <v>       0.38416599      -0.49999998      -0.50000000 </v>
   <v>      -0.44208300       0.44208300      -0.41809297 </v>
   <v>       0.44208298      -0.44208298       0.41809300 </v>
   <v>       0.32826705       0.44576024      -0.41691977 </v>
   <v>      -0.50000000       0.38250690      -0.34021320 </v>
   <v>       0.32826712      -0.44576022       0.41691983 </v>
   <v>      -0.38250685      -0.49999995       0.34021317 </v>
   <v>      -0.32826705       0.44576024       0.41691983 </v>
   <v>       0.27609443       0.49999998      -0.50000000 </v>
   <v>       0.38804720       0.38804720      -0.34167487 </v>
   <v>      -0.38416599      -0.49999998      -0.50000000 </v>
   <v>      -0.44208298      -0.44208298       0.41809300 </v>
   <v>       0.44208298      -0.44208298      -0.41809297 </v>
   <v>      -0.38804720       0.38804720      -0.34167487 </v>
   <v>       0.38804722      -0.38804722       0.34167483 </v>
   <v>       0.38250685      -0.49999995      -0.34021320 </v>
   <v>       0.32826712      -0.44576022      -0.41691977 </v>
   <v>      -0.32826705       0.44576024      -0.41691977 </v>
   <v>       0.50000000      -0.38250681       0.34021317 </v>
   <v>      -0.50000000      -0.38416596      -0.50000000 </v>
   <v>      -0.44208298      -0.44208298      -0.41809297 </v>
   <v>      -0.50000000      -0.50000000      -0.33478913 </v>
   <v>       0.38317828      -0.38317828      -0.50000000 </v>
   <v>      -0.32826712      -0.44576022       0.41691983 </v>
   <v>      -0.27609443       0.49999998      -0.50000000 </v>
   <v>      -0.38804722      -0.38804722       0.34167483 </v>
   <v>      -0.38250685      -0.49999995      -0.34021320 </v>
   <v>       0.44576027      -0.32826707       0.41691983 </v>
   <v>      -0.38317828      -0.38317828      -0.50000000 </v>
   <v>      -0.32826712      -0.44576022      -0.41691977 </v>
   <v>      -0.44576027      -0.32826707       0.41691983 </v>
   <v>       0.38804722      -0.38804722      -0.34167487 </v>
   <v>      -0.50000000      -0.38250681      -0.34021320 </v>
   <v>       0.44576027      -0.32826707      -0.41691977 </v>
   <v>      -0.44576027      -0.32826707      -0.41691977 </v>
   <v>      -0.50000000      -0.27609445       0.50000000 </v>
   <v>      -0.38804722      -0.38804722      -0.34167487 </v>
   <v>      -0.48592927      -0.32088130      -0.32920473 </v>
   <v>      -0.48379507      -0.29371320      -0.30329913 </v>
  </varray>
 </structure>
 <varray name="primitive_index" >
  <v type="int" >        1 </v>
  <v type="int" >        3 </v>
  <v type="int" >        5 </v>
  <v type="int" >        7 </v>
  <v type="int" >       15 </v>
  <v type="int" >       29 </v>
  <v type="int" >       28 </v>
  <v type="int" >       34 </v>
  <v type="int" >       21 </v>
  <v type="int" >       19 </v>
  <v type="int" >       22 </v>
  <v type="int" >       11 </v>
  <v type="int" >       36 </v>
  <v type="int" >       38 </v>
  <v type="int" >       52 </v>
  <v type="int" >       24 </v>
  <v type="int" >       32 </v>
  <v type="int" >       44 </v>
  <v type="int" >       48 </v>
  <v type="int" >       42 </v>
  <v type="int" >       43 </v>
  <v type="int" >       40 </v>
  <v type="int" >        6 </v>
  <v type="int" >        4 </v>
  <v type="int" >       30 </v>
  <v type="int" >       26 </v>
  <v type="int" >        8 </v>
  <v type="int" >       16 </v>
  <v type="int" >       49 </v>
  <v type="int" >       47 </v>
  <v type="int" >       53 </v>
  <v type="int" >       12 </v>
  <v type="int" >       13 </v>
  <v type="int" >       33 </v>
  <v type="int" >       25 </v>
  <v type="int" >       45 </v>
  <v type="int" >       50 </v>
  <v type="int" >       55 </v>
  <v type="int" >       54 </v>
  <v type="int" >       39 </v>
  <v type="int" >       37 </v>
  <v type="int" >        2 </v>
  <v type="int" >        9 </v>
  <v type="int" >       17 </v>
  <v type="int" >       31 </v>
  <v type="int" >       27 </v>
  <v type="int" >       35 </v>
  <v type="int" >       20 </v>
  <v type="int" >       23 </v>
  <v type="int" >       14 </v>
  <v type="int" >       51 </v>
  <v type="int" >       46 </v>
  <v type="int" >       41 </v>
  <v type="int" >       10 </v>
  <v type="int" >       18 </v>
  <v type="int" >       56 </v>
  <v type="int" >       57 </v>
 </varray>
 <kpoints>
  <generation param="Monkhorst-Pack">
   <v type="int" name="divisions">       1        1        1 </v>
   <v name="usershift">      0.00000000       0.00000000       0.00000000 </v>
   <v name="genvec1">      1.00000000       0.00000000       0.00000000 </v>
   <v name="genvec2">      0.00000000       1.00000000       0.00000000 </v>
   <v name="genvec3">      0.00000000       0.00000000       1.00000000 </v>
   <v name="shift">      0.00000000       0.00000000       0.00000000 </v>
  </generation>
  <varray name="kpointlist" >
   <v>       0.00000000       0.00000000       0.00000000 </v>
  </varray>
  <varray name="weights" >
   <v>       1.00000000 </v>
  </varray>
 </kpoints>
 <parameters>
  <separator name="general" >
   <i type="string" name="SYSTEM">6_Pd100_top_free_z(O)</i>
   <i type="logical" name="LCOMPAT"> F  </i>
  </separator>
  <separator name="electronic" >
   <i type="string" name="PREC">normal</i>
   <i name="ENMAX">    400.00000000</i>
   <i name="ENAUG">    644.87300000</i>
   <i name="EDIFF">      0.00010000</i>
   <i type="int" name="IALGO">    68</i>
   <i type="int" name="IWAVPR">    10</i>
   <i type="int" name="NBANDS">   336</i>
   <i name="NELECT">    560.00000000</i>
   <i type="int" name="TURBO">     0</i>
   <i type="int" name="IRESTART">     0</i>
   <i type="int" name="NREBOOT">     0</i>
   <i type="int" name="NMIN">     0</i>
   <i name="EREF">      0.00000000</i>
   <separator name="electronic smearing" >
    <i type="int" name="ISMEAR">     2</i>
    <i name="SIGMA">      0.20000000</i>
    <i name="KSPACING">      0.50000000</i>
    <i type="logical" name="KGAMMA"> T  </i>
   </separator>
   <separator name="electronic projectors" >
    <i type="logical" name="LREAL"> T  </i>
    <v name="ROPT">     -0.00050000     -0.00050000     -0.00050000</v>
    <i type="int" name="LMAXPAW">  -100</i>
    <i type="int" name="LMAXMIX">     2</i>
    <i type="logical" name="NLSPLINE"> F  </i>
   </separator>
   <separator name="electronic startup" >
    <i type="int" name="ISTART">     0</i>
    <i type="int" name="ICHARG">     2</i>
    <i type="int" name="INIWAV">     1</i>
   </separator>
   <separator name="electronic spin" >
    <i type="int" name="ISPIN">     1</i>
    <i type="logical" name="LNONCOLLINEAR"> F  </i>
    <v name="MAGMOM">      1.00000000      1.00000000      1.00000000      1.00000000      1.00000000      1.00000000      1.00000000      1.00000000      1.00000000      1.00000000      1.00000000      1.00000000      1.00000000      1.00000000      1.00000000      1.00000000      1.00000000      1.00000000      1.00000000      1.00000000
      1.00000000      1.00000000      1.00000000      1.00000000      1.00000000      1.00000000      1.00000000      1.00000000      1.00000000      1.00000000      1.00000000      1.00000000      1.00000000      1.00000000      1.00000000      1.00000000      1.00000000      1.00000000      1.00000000      1.00000000
      1.00000000      1.00000000      1.00000000      1.00000000      1.00000000      1.00000000      1.00000000      1.00000000      1.00000000      1.00000000      1.00000000      1.00000000      1.00000000      1.00000000      1.00000000      1.00000000      1.00000000</v>
    <i name="NUPDOWN">     -1.00000000</i>
    <i type="logical" name="LSORBIT"> F  </i>
    <v name="SAXIS">      0.00000000      0.00000000      1.00000000</v>
    <i type="logical" name="LSPIRAL"> F  </i>
    <v name="QSPIRAL">      0.00000000      0.00000000      0.00000000</v>
    <i type="logical" name="LZEROZ"> F  </i>
   </separator>
   <separator name="electronic exchange-correlation" >
    <i type="logical" name="LASPH"> F  </i>
    <i type="logical" name="LMETAGGA"> F  </i>
   </separator>
   <separator name="electronic convergence" >
    <i type="int" name="NELM">   100</i>
    <i type="int" name="NELMDL">    -5</i>
    <i type="int" name="NELMIN">     6</i>
    <i name="ENINI">    400.00000000</i>
    <separator name="electronic convergence detail" >
     <i type="logical" name="LDIAG"> T  </i>
     <i type="logical" name="LSUBROT"> F  </i>
     <i name="WEIMIN">      0.00000000</i>
     <i name="EBREAK">      0.00000007</i>
     <i name="DEPER">      0.30000000</i>
     <i type="int" name="NRMM">     4</i>
     <i name="TIME">      0.40000000</i>
    </separator>
   </separator>
   <separator name="electronic mixer" >
    <i name="AMIX">      0.40000000</i>
    <i name="BMIX">      1.00000000</i>
    <i name="AMIN">      0.10000000</i>
    <i name="AMIX_MAG">      1.60000000</i>
    <i name="BMIX_MAG">      1.00000000</i>
    <separator name="electronic mixer details" >
     <i type="int" name="IMIX">     4</i>
     <i type="logical" name="MIXFIRST"> F  </i>
     <i type="int" name="MAXMIX">   -45</i>
     <i name="WC">    100.00000000</i>
     <i type="int" name="INIMIX">     1</i>
     <i type="int" name="MIXPRE">     1</i>
     <i type="int" name="MREMOVE">     5</i>
    </separator>
   </separator>
   <separator name="electronic dipolcorrection" >
    <i type="logical" name="LDIPOL"> F  </i>
    <i type="logical" name="LMONO"> F  </i>
    <i type="int" name="IDIPOL">     0</i>
    <i name="EPSILON">      1.00000000</i>
    <v name="DIPOL">   -100.00000000   -100.00000000   -100.00000000</v>
    <i name="EFIELD">      0.00000000</i>
   </separator>
  </separator>
  <separator name="grids" >
   <i type="int" name="NGX">   150</i>
   <i type="int" name="NGY">   150</i>
   <i type="int" name="NGZ">   150</i>
   <i type="int" name="NGXF">   300</i>
   <i type="int" name="NGYF">   300</i>
   <i type="int" name="NGZF">   300</i>
   <i type="logical" name="ADDGRID"> F  </i>
  </separator>
  <separator name="ionic" >
   <i type="int" name="NSW">     0</i>
   <i type="int" name="IBRION">    -1</i>
   <i type="int" name="MDALGO">     0</i>
   <i type="int" name="ISIF">     2</i>
   <i name="PSTRESS">      0.00000000</i>
   <i name="EDIFFG">     -0.05000000</i>
   <i type="int" name="NFREE">     1</i>
   <i name="POTIM">      0.50000000</i>
   <i name="SMASS">     -3.00000000</i>
   <i name="SCALEE">      1.00000000</i>
  </separator>
  <separator name="ionic md" >
   <i name="TEBEG">      0.00010000</i>
   <i name="TEEND">      0.00010000</i>
   <i type="int" name="NBLOCK">     1</i>
   <i type="int" name="KBLOCK">     1</i>
   <i type="int" name="NPACO">   256</i>
   <i name="APACO">     16.00000000</i>
  </separator>
  <separator name="symmetry" >
   <i type="int" name="ISYM">     2</i>
   <i name="SYMPREC">      0.00001000</i>
  </separator>
  <separator name="dos" >
   <i type="int" name="LORBIT">     0</i>
   <v name="RWIGS">     -1.00000000     -1.00000000     -1.00000000</v>
   <i type="int" name="NEDOS">   301</i>
   <i name="EMIN">     10.00000000</i>
   <i name="EMAX">    -10.00000000</i>
   <i name="EFERMI">      0.00000000</i>
  </separator>
  <separator name="writing" >
   <i type="int" name="NWRITE">     2</i>
   <i type="logical" name="LWAVE"> F  </i>
   <i type="logical" name="LDOWNSAMPLE"> F  </i>
   <i type="logical" name="LCHARG"> F  </i>
   <i type="logical" name="LPARD"> F  </i>
   <i type="logical" name="LVTOT"> F  </i>
   <i type="logical" name="LVHAR"> F  </i>
   <i type="logical" name="LELF"> F  </i>
   <i type="logical" name="LOPTICS"> F  </i>
   <v name="STM">      0.00000000      0.00000000      0.00000000      0.00000000      0.00000000      0.00000000      0.00000000</v>
  </separator>
  <separator name="performance" >
   <i type="int" name="NPAR">     1</i>
   <i type="int" name="NSIM">     4</i>
   <i type="int" name="NBLK">    -1</i>
   <i type="logical" name="LPLANE"> T  </i>
   <i type="logical" name="LSCALAPACK"> T  </i>
   <i type="logical" name="LSCAAWARE"> F  </i>
   <i type="logical" name="LSCALU"> F  </i>
   <i type="logical" name="LASYNC"> F  </i>
   <i type="logical" name="LORBITALREAL"> F  </i>
  </separator>
  <separator name="miscellaneous" >
   <i type="int" name="IDIOT">     3</i>
   <i type="int" name="ISPECIAL">     0</i>
   <i type="logical" name="LMUSIC"> F  </i>
   <v name="POMASS">    106.42000000     12.01100000     16.00000000</v>
   <v name="DARWINR">      0.00000000      0.00000000      0.00000000</v>
   <v name="DARWINV">      1.00000000      1.00000000      1.00000000</v>
   <i type="logical" name="LCORR"> T  </i>
  </separator>
  <i type="logical" name="GGA_COMPAT"> T  </i>
  <i type="logical" name="LBERRY"> F  </i>
  <i type="int" name="ICORELEVEL">     0</i>
  <i type="logical" name="LDAU"> F  </i>
  <i type="int" name="I_CONSTRAINED_M">     0</i>
  <separator name="electronic exchange-correlation" >
   <i type="string" name="GGA">RP</i>
   <i type="int" name="VOSKOWN">     0</i>
   <i type="logical" name="LHFCALC"> F  </i>
   <i type="string" name="PRECFOCK"></i>
   <i type="logical" name="LSYMGRAD"> F  </i>
   <i type="logical" name="LHFONE"> F  </i>
   <i type="logical" name="LRHFCALC"> F  </i>
   <i type="logical" name="LTHOMAS"> F  </i>
   <i type="logical" name="LMODELHF"> F  </i>
   <i name="ENCUT4O">     -1.00000000</i>
   <i type="int" name="EXXOEP">     0</i>
   <i type="int" name="FOURORBIT">     0</i>
   <i name="AEXX">      0.00000000</i>
   <i name="HFALPHA">      0.00000000</i>
   <i name="MCALPHA">      0.00000000</i>
   <i name="ALDAX">      1.00000000</i>
   <i name="AGGAX">      1.00000000</i>
   <i name="ALDAC">      1.00000000</i>
   <i name="AGGAC">      1.00000000</i>
   <i type="int" name="NKREDX">     1</i>
   <i type="int" name="NKREDY">     1</i>
   <i type="int" name="NKREDZ">     1</i>
   <i type="logical" name="SHIFTRED"> F  </i>
   <i type="logical" name="ODDONLY"> F  </i>
   <i type="logical" name="EVENONLY"> F  </i>
   <i type="int" name="LMAXFOCK">     0</i>
   <i type="int" name="NMAXFOCKAE">     0</i>
   <i type="logical" name="LFOCKAEDFT"> F  </i>
   <i name="HFSCREEN">      0.00000000</i>
   <i name="HFSCREENC">      0.00000000</i>
   <i type="int" name="NBANDSGWLOW">     0</i>
  </separator>
  <separator name="vdW DFT" >
   <i type="logical" name="LUSE_VDW"> F  </i>
   <i name="Zab_VDW">     -0.84910000</i>
   <i name="PARAM1">      0.12340000</i>
   <i name="PARAM2">      1.00000000</i>
   <i name="PARAM3">      0.00000000</i>
  </separator>
  <separator name="model GW" >
   <i type="int" name="MODEL_GW">     0</i>
   <i name="MODEL_EPS0">    284.21052632</i>
   <i name="MODEL_ALPHA">      1.00000000</i>
  </separator>
  <separator name="linear response parameters" >
   <i type="logical" name="LEPSILON"> F  </i>
   <i type="logical" name="LRPA"> F  </i>
   <i type="logical" name="LNABLA"> F  </i>
   <i type="logical" name="LVEL"> F  </i>
   <i type="int" name="KINTER">     0</i>
   <i name="CSHIFT">      0.10000000</i>
   <i name="OMEGAMAX">     -1.00000000</i>
   <i name="DEG_THRESHOLD">      0.00200000</i>
   <i name="RTIME">     -0.10000000</i>
   <i name="WPLASMAI">      0.00000000</i>
   <v name="DFIELD">      0.00000000      0.00000000      0.00000000</v>
   <v name="WPLASMA">      0.00000000      0.00000000      0.00000000      0.00000000      0.00000000      0.00000000      0.00000000      0.00000000      0.00000000</v>
  </separator>
  <separator name="orbital magnetization" >
   <i type="logical" name="NUCIND"> F  </i>
   <v name="MAGPOS">      0.00000000      0.00000000      0.00000000</v>
   <i type="logical" name="LNICSALL"> T  </i>
   <i type="logical" name="ORBITALMAG"> F  </i>
   <i type="logical" name="LMAGBLOCH"> F  </i>
   <i type="logical" name="LCHIMAG"> F  </i>
   <i type="logical" name="LGAUGE"> T  </i>
   <i type="int" name="MAGATOM">     0</i>
   <v name="MAGDIPOL">      0.00000000      0.00000000      0.00000000</v>
   <v name="AVECCONST">      0.00000000      0.00000000      0.00000000</v>
  </separator>
  <separator name="response functions" >
   <i type="logical" name="LADDER"> F  </i>
   <i type="logical" name="LRPAFORCE"> F  </i>
   <i type="logical" name="LFXC"> F  </i>
   <i type="logical" name="LHARTREE"> T  </i>
   <i type="int" name="IBSE">     0</i>
   <v type="int" name="KPOINT">    -1     0     0     0</v>
   <i type="logical" name="LTCTE"> F  </i>
   <i type="logical" name="LTETE"> F  </i>
   <i type="logical" name="LTRIPLET"> F  </i>
   <i type="logical" name="LFXCEPS"> F  </i>
   <i type="logical" name="LFXHEG"> F  </i>
   <i type="int" name="NATURALO">     2</i>
   <i type="logical" name="L2ORDER"> F  </i>
   <i type="logical" name="LMP2LT"> F  </i>
   <i type="logical" name="LUSEW"> F  </i>
   <i name="ENCUTGW">     -2.00000000</i>
   <i name="ENCUTGWSOFT">     -2.00000000</i>
   <i name="ENCUTLF">     -1.00000000</i>
   <i type="int" name="LMAXMP2">    -1</i>
   <i name="SCISSOR">      0.00000000</i>
   <i type="int" name="NOMEGA">     0</i>
   <i type="int" name="NOMEGAR">     0</i>
   <i type="int" name="NBANDSGW">    -1</i>
   <i type="int" name="NBANDSO">    -1</i>
   <i type="int" name="NBANDSV">    -1</i>
   <i type="int" name="NELM">   100</i>
   <i type="int" name="NELMHF">     1</i>
   <i type="int" name="DIM">     3</i>
   <i type="int" name="ANTIRES">     0</i>
   <i name="OMEGAMAX">    -30.00000000</i>
   <i name="OMEGAMIN">    -30.00000000</i>
   <i name="OMEGATL">   -200.00000000</i>
   <i type="int" name="OMEGAGRID">   140</i>
   <i name="CSHIFT">     -0.10000000</i>
   <i type="logical" name="SELFENERGY"> F  </i>
   <i type="logical" name="LSPECTRAL"> F  </i>
   <i type="logical" name="LSPECTRALGW"> F  </i>
   <i type="logical" name="LSINGLES"> F  </i>
   <i type="logical" name="LFERMIGW"> F  </i>
   <i type="logical" name="ODDONLYGW"> F  </i>
   <i type="logical" name="EVENONLYGW"> F  </i>
   <i type="int" name="NKREDLFX">     1</i>
   <i type="int" name="NKREDLFY">     1</i>
   <i type="int" name="NKREDLFZ">     1</i>
   <i type="int" name="MAXMEM"> 10000</i>
   <i type="int" name="TELESCOPE">     0</i>
   <i type="int" name="TAUPAR">     1</i>
   <i type="int" name="OMEGAPAR">    -1</i>
   <i name="LAMBDA">      1.00000000</i>
  </separator>
  <separator name="External order field" >
   <i name="OFIELD_KAPPA">      0.00000000</i>
   <v name="OFIELD_K">      0.00000000      0.00000000      0.00000000</v>
   <i name="OFIELD_Q6_NEAR">      0.00000000</i>
   <i name="OFIELD_Q6_FAR">      0.00000000</i>
   <i name="OFIELD_A">      0.00000000</i>
  </separator>
 </parameters>
 <atominfo>
  <atoms>      57 </atoms>
  <types>       3 </types>
  <array name="atoms" >
   <dimension dim="1">ion</dimension>
   <field type="string">element</field>
   <field type="int">atomtype</field>
   <set>
    <rc><c>Pd</c><c>   1</c></rc>
    <rc><c>Pd</c><c>   1</c></rc>
    <rc><c>Pd</c><c>   1</c></rc>
    <rc><c>Pd</c><c>   1</c></rc>
    <rc><c>Pd</c><c>   1</c></rc>
    <rc><c>Pd</c><c>   1</c></rc>
    <rc><c>Pd</c><c>   1</c></rc>
    <rc><c>Pd</c><c>   1</c></rc>
    <rc><c>Pd</c><c>   1</c></rc>
    <rc><c>Pd</c><c>   1</c></rc>
    <rc><c>Pd</c><c>   1</c></rc>
    <rc><c>Pd</c><c>   1</c></rc>
    <rc><c>Pd</c><c>   1</c></rc>
    <rc><c>Pd</c><c>   1</c></rc>
    <rc><c>Pd</c><c>   1</c></rc>
    <rc><c>Pd</c><c>   1</c></rc>
    <rc><c>Pd</c><c>   1</c></rc>
    <rc><c>Pd</c><c>   1</c></rc>
    <rc><c>Pd</c><c>   1</c></rc>
    <rc><c>Pd</c><c>   1</c></rc>
    <rc><c>Pd</c><c>   1</c></rc>
    <rc><c>Pd</c><c>   1</c></rc>
    <rc><c>Pd</c><c>   1</c></rc>
    <rc><c>Pd</c><c>   1</c></rc>
    <rc><c>Pd</c><c>   1</c></rc>
    <rc><c>Pd</c><c>   1</c></rc>
    <rc><c>Pd</c><c>   1</c></rc>
    <rc><c>Pd</c><c>   1</c></rc>
    <rc><c>Pd</c><c>   1</c></rc>
    <rc><c>Pd</c><c>   1</c></rc>
    <rc><c>Pd</c><c>   1</c></rc>
    <rc><c>Pd</c><c>   1</c></rc>
    <rc><c>Pd</c><c>   1</c></rc>
    <rc><c>Pd</c><c>   1</c></rc>
    <rc><c>Pd</c><c>   1</c></rc>
    <rc><c>Pd</c><c>   1</c></rc>
    <rc><c>Pd</c><c>   1</c></rc>
    <rc><c>Pd</c><c>   1</c></rc>
    <rc><c>Pd</c><c>   1</c></rc>
    <rc><c>Pd</c><c>   1</c></rc>
    <rc><c>Pd</c><c>   1</c></rc>
    <rc><c>Pd</c><c>   1</c></rc>
    <rc><c>Pd</c><c>   1</c></rc>
    <rc><c>Pd</c><c>   1</c></rc>
    <rc><c>Pd</c><c>   1</c></rc>
    <rc><c>Pd</c><c>   1</c></rc>
    <rc><c>Pd</c><c>   1</c></rc>
    <rc><c>Pd</c><c>   1</c></rc>
    <rc><c>Pd</c><c>   1</c></rc>
    <rc><c>Pd</c><c>   1</c></rc>
    <rc><c>Pd</c><c>   1</c></rc>
    <rc><c>Pd</c><c>   1</c></rc>
    <rc><c>Pd</c><c>   1</c></rc>
    <rc><c>Pd</c><c>   1</c></rc>
    <rc><c>Pd</c><c>   1</c></rc>
    <rc><c>C </c><c>   2</c></rc>
    <rc><c>O </c><c>   3</c></rc>
   </set>
  </array>
  <array name="atomtypes" >
   <dimension dim="1">type</dimension>
   <field type="int">atomspertype</field>
   <field type="string">element</field>
   <field>mass</field>
   <field>valence</field>
   <field type="string">pseudopotential</field>
   <set>
    <rc><c>  55</c><c>Pd</c><c>    106.42000000</c><c>     10.00000000</c><c>  PAW_PBE Pd 04Jan2005                  </c></rc>
    <rc><c>   1</c><c>C </c><c>     12.01100000</c><c>      4.00000000</c><c>  PAW_PBE C 08Apr2002                   </c></rc>
    <rc><c>   1</c><c>O </c><c>     16.00000000</c><c>      6.00000000</c><c>  PAW_PBE O 08Apr2002                   </c></rc>
   </set>
  </array>
 </atominfo>
 <structure name="initialpos" >
  <crystal>
   <varray name="basis" >
    <v>      30.00000000       0.00000000       0.00000000 </v>
    <v>       0.00000000      30.00000000       0.00000000 </v>
    <v>       0.00000000       0.00000000      30.00000000 </v>
   </varray>
   <i name="volume">  27000.00000000 </i>
   <varray name="rec_basis" >
    <v>       0.03333333       0.00000000       0.00000000 </v>
    <v>       0.00000000       0.03333333       0.00000000 </v>
    <v>       0.00000000       0.00000000       0.03333333 </v>
   </varray>
  </crystal>
  <varray name="positions" >
   <v>       0.44576020       0.32826710       0.41691983 </v>
   <v>       0.67173288       0.55423978       0.41691983 </v>
   <v>       0.55423980       0.32826710       0.41691983 </v>
   <v>       0.32826712       0.55423978       0.41691983 </v>
   <v>       0.50000000       0.38250690       0.34021317 </v>
   <v>       0.50000000       0.38250690       0.65978680 </v>
   <v>       0.50000000       0.27609440       0.50000000 </v>
   <v>       0.27609443       0.49999998       0.50000000 </v>
   <v>       0.72390557       0.49999998       0.50000000 </v>
   <v>       0.50000000       0.72390555       0.50000000 </v>
   <v>       0.61195280       0.38804720       0.34167483 </v>
   <v>       0.61195280       0.38804720       0.65832513 </v>
   <v>       0.38804722       0.61195278       0.34167483 </v>
   <v>       0.38804722       0.61195278       0.65832513 </v>
   <v>       0.38804720       0.38804720       0.34167483 </v>
   <v>       0.38804720       0.38804720       0.65832513 </v>
   <v>       0.61195278       0.61195278       0.34167483 </v>
   <v>       0.61195278       0.61195278       0.65832513 </v>
   <v>       0.44576020       0.32826710       0.58308023 </v>
   <v>       0.67173288       0.55423978       0.58308023 </v>
   <v>       0.55791699       0.44208301       0.41809300 </v>
   <v>       0.32826705       0.44576024       0.41691983 </v>
   <v>       0.55423973       0.67173293       0.41691983 </v>
   <v>       0.55423980       0.32826710       0.58308023 </v>
   <v>       0.32826712       0.55423978       0.58308023 </v>
   <v>       0.67173295       0.44576024       0.41691983 </v>
   <v>       0.44576027       0.67173293       0.41691983 </v>
   <v>       0.44208301       0.44208301       0.41809300 </v>
   <v>       0.50000000       0.38416601       0.50000000 </v>
   <v>       0.61749315       0.50000005       0.34021317 </v>
   <v>       0.61749315       0.50000005       0.65978680 </v>
   <v>       0.38250685       0.50000005       0.34021317 </v>
   <v>       0.38250685       0.50000005       0.65978680 </v>
   <v>       0.38317830       0.38317830       0.50000000 </v>
   <v>       0.61682172       0.61682172       0.50000000 </v>
   <v>       0.61682170       0.38317830       0.50000000 </v>
   <v>       0.38317828       0.61682172       0.50000000 </v>
   <v>       0.50000000       0.50000000       0.33478917 </v>
   <v>       0.50000000       0.50000000       0.66521087 </v>
   <v>       0.32826705       0.44576024       0.58308023 </v>
   <v>       0.55423973       0.67173293       0.58308023 </v>
   <v>       0.55791699       0.44208301       0.58190703 </v>
   <v>       0.44208298       0.55791702       0.41809300 </v>
   <v>       0.44208301       0.44208301       0.58190703 </v>
   <v>       0.67173295       0.44576024       0.58308023 </v>
   <v>       0.44576027       0.67173293       0.58308023 </v>
   <v>       0.55791702       0.55791702       0.41809300 </v>
   <v>       0.38416599       0.50000002       0.50000000 </v>
   <v>       0.61583401       0.50000002       0.50000000 </v>
   <v>       0.50000000       0.61749319       0.34021317 </v>
   <v>       0.50000000       0.61749319       0.65978680 </v>
   <v>       0.50000000       0.50000000       0.50000000 </v>
   <v>       0.44208298       0.55791702       0.58190703 </v>
   <v>       0.55791702       0.55791702       0.58190703 </v>
   <v>       0.50000000       0.61583404       0.50000000 </v>
   <v>       0.51407073       0.67911870       0.67079527 </v>
   <v>       0.51620493       0.70628680       0.69670087 </v>
  </varray>
  <varray name="selective"  type="logical" >
   <v type="logical" >  F  F  F </v>
   <v type="logical" >  F  F  F </v>
   <v type="logical" >  F  F  F </v>
   <v type="logical" >  F  F  F </v>
   <v type="logical" >  F  F  F </v>
   <v type="logical" >  F  F  F </v>
   <v type="logical" >  F  F  F </v>
   <v type="logical" >  F  F  F </v>
   <v type="logical" >  F  F  F </v>
   <v type="logical" >  F  F  F </v>
   <v type="logical" >  F  F  F </v>
   <v type="logical" >  F  F  F </v>
   <v type="logical" >  F  F  F </v>
   <v type="logical" >  F  F  F </v>
   <v type="logical" >  F  F  F </v>
   <v type="logical" >  F  F  F </v>
   <v type="logical" >  F  F  F </v>
   <v type="logical" >  F  F  F </v>
   <v type="logical" >  F  F  F </v>
   <v type="logical" >  F  F  F </v>
   <v type="logical" >  F  F  F </v>
   <v type="logical" >  F  F  F </v>
   <v type="logical" >  F  F  F </v>
   <v type="logical" >  F  F  F </v>
   <v type="logical" >  F  F  F </v>
   <v type="logical" >  F  F  F </v>
   <v type="logical" >  F  F  F </v>
   <v type="logical" >  F  F  F </v>
   <v type="logical" >  F  F  F </v>
   <v type="logical" >  F  F  F </v>
   <v type="logical" >  F  F  F </v>
   <v type="logical" >  F  F  F </v>
   <v type="logical" >  F  F  F </v>
   <v type="logical" >  F  F  F </v>
   <v type="logical" >  F  F  F </v>
   <v type="logical" >  F  F  F </v>
   <v type="logical" >  F  F  F </v>
   <v type="logical" >  F  F  F </v>
   <v type="logical" >  F  F  F </v>
   <v type="logical" >  F  F  F </v>
   <v type="logical" >  F  F  F </v>
   <v type="logical" >  F  F  F </v>
   <v type="logical" >  F  F  F </v>
   <v type="logical" >  F  F  F </v>
   <v type="logical" >  F  F  F </v>
   <v type="logical" >  F  F  F </v>
   <v type="logical" >  F  F  F </v>
   <v type="logical" >  F  F  F </v>
   <v type="logical" >  F  F  F </v>
   <v type="logical" >  F  F  F </v>
   <v type="logical" >  F  F  F </v>
   <v type="logical" >  F  F  F </v>
   <v type="logical" >  F  F  F </v>
   <v type="logical" >  F  F  F </v>
   <v type="logical" >  F  F  F </v>
   <v type="logical" >  F  F  F </v>
   <v type="logical" >  F  F  F </v>
  </varray>
  <nose>
   <v>      -3.00000000       0.00000000       0.00010000       0.00010000 </v>
  </nose>
 </structure>
 <calculation>
  <scstep>
   <time name="dav">  356.06  356.16</time>
   <time name="total">  369.91  370.01</time>
   <energy>
    <i name="alphaZ">     75.25431677 </i>
    <i name="ewald"> 138316.55564886 </i>
    <i name="hartreedc">-181676.12006373 </i>
    <i name="XCdc">  -1702.89028623 </i>
    <i name="pawpsdc">  44873.02882129 </i>
    <i name="pawaedc"> -41398.84523641 </i>
    <i name="eentropy">     -0.01400323 </i>
    <i name="bandstr">    816.99771663 </i>
    <i name="atom">  45086.50549395 </i>
    <i name="e_fr_energy">   4390.47240791 </i>
    <i name="e_wo_entrp">   4390.48641114 </i>
    <i name="e_0_energy">   4390.47590872 </i>
   </energy>
  </scstep>
  <scstep>
   <time name="dav">  567.14  567.17</time>
   <time name="total">  567.14  567.17</time>
   <energy>
    <i name="e_fr_energy">   2009.35161577 </i>
    <i name="e_wo_entrp">   2009.40273745 </i>
    <i name="e_0_energy">   2009.36439619 </i>
   </energy>
  </scstep>
  <scstep>
   <time name="dav">  487.69  487.70</time>
   <time name="total">  487.69  487.71</time>
   <energy>
    <i name="e_fr_energy">    230.81823333 </i>
    <i name="e_wo_entrp">    230.76314571 </i>
    <i name="e_0_energy">    230.80446143 </i>
   </energy>
  </scstep>
  <scstep>
   <time name="dav">  419.52  419.52</time>
   <time name="total">  419.52  419.52</time>
   <energy>
    <i name="e_fr_energy">   -136.29432638 </i>
    <i name="e_wo_entrp">   -136.34177703 </i>
    <i name="e_0_energy">   -136.30618905 </i>
   </energy>
  </scstep>
  <scstep>
   <time name="dav">  502.69  502.69</time>
   <time name="total">  528.60  528.60</time>
   <energy>
    <i name="e_fr_energy">   -180.36914654 </i>
    <i name="e_wo_entrp">   -180.86455360 </i>
    <i name="e_0_energy">   -180.49299830 </i>
   </energy>
  </scstep>
  <scstep>
   <time name="diag">   65.41   65.41</time>
   <time name="diis">  187.53  187.53</time>
   <time name="orth">   12.74   12.73</time>
   <time name="total">  304.87  304.87</time>
   <energy>
    <i name="e_fr_energy">   -179.25712723 </i>
    <i name="e_wo_entrp">   -179.07948410 </i>
    <i name="e_0_energy">   -179.21271645 </i>
   </energy>
  </scstep>
  <scstep>
   <time name="diag">   65.93   65.93</time>
   <time name="diis">  214.49  214.49</time>
   <time name="orth">   12.70   12.70</time>
   <time name="total">  332.31  332.31</time>
   <energy>
    <i name="e_fr_energy">   -180.95642499 </i>
    <i name="e_wo_entrp">   -180.79329526 </i>
    <i name="e_0_energy">   -180.91564256 </i>
   </energy>
  </scstep>
  <scstep>
   <time name="diag">   65.45   65.45</time>
   <time name="diis">  196.52  196.53</time>
   <time name="orth">   13.03   13.03</time>
   <time name="total">  314.76  314.77</time>
   <energy>
    <i name="e_fr_energy">   -181.82730668 </i>
    <i name="e_wo_entrp">   -181.65907489 </i>
    <i name="e_0_energy">   -181.78524873 </i>
   </energy>
  </scstep>
  <scstep>
   <time name="diag">   66.19   66.19</time>
   <time name="diis">  195.89  195.90</time>
   <time name="orth">   12.89   12.89</time>
   <time name="total">  315.13  315.14</time>
   <energy>
    <i name="e_fr_energy">   -179.95068142 </i>
    <i name="e_wo_entrp">   -179.71566163 </i>
    <i name="e_0_energy">   -179.89192647 </i>
   </energy>
  </scstep>
  <scstep>
   <time name="diag">   66.27   66.27</time>
   <time name="diis">  192.36  192.36</time>
   <time name="orth">   13.20   13.20</time>
   <time name="total">  312.66  312.67</time>
   <energy>
    <i name="e_fr_energy">   -177.76993297 </i>
    <i name="e_wo_entrp">   -177.71733773 </i>
    <i name="e_0_energy">   -177.75678416 </i>
   </energy>
  </scstep>
  <scstep>
   <time name="diag">   67.14   67.15</time>
   <time name="diis">  192.83  192.85</time>
   <time name="orth">   13.11   13.11</time>
   <time name="total">  313.89  313.91</time>
   <energy>
    <i name="e_fr_energy">   -177.58289972 </i>
    <i name="e_wo_entrp">   -177.46504476 </i>
    <i name="e_0_energy">   -177.55343598 </i>
   </energy>
  </scstep>
  <scstep>
   <time name="diag">   67.37   67.37</time>
   <time name="diis">  193.00  193.02</time>
   <time name="orth">   12.85   12.85</time>
   <time name="total">  313.57  313.59</time>
   <energy>
    <i name="e_fr_energy">   -177.81159886 </i>
    <i name="e_wo_entrp">   -177.71511542 </i>
    <i name="e_0_energy">   -177.78747800 </i>
   </energy>
  </scstep>
  <scstep>
   <time name="diag">   67.01   67.02</time>
   <time name="diis">  198.45  198.46</time>
   <time name="orth">   12.79   12.79</time>
   <time name="total">  318.04  318.06</time>
   <energy>
    <i name="e_fr_energy">   -178.10946070 </i>
    <i name="e_wo_entrp">   -178.15352757 </i>
    <i name="e_0_energy">   -178.12047742 </i>
   </energy>
  </scstep>
  <scstep>
   <time name="diag">   66.66   66.67</time>
   <time name="diis">  195.92  195.94</time>
   <time name="orth">   13.12   13.12</time>
   <time name="total">  315.36  315.39</time>
   <energy>
    <i name="e_fr_energy">   -176.54277888 </i>
    <i name="e_wo_entrp">   -176.40683749 </i>
    <i name="e_0_energy">   -176.50879354 </i>
   </energy>
  </scstep>
  <scstep>
   <time name="diag">   66.41   66.41</time>
   <time name="diis">  196.02  196.03</time>
   <time name="orth">   13.19   13.20</time>
   <time name="total">  316.02  316.04</time>
   <energy>
    <i name="e_fr_energy">   -176.08278234 </i>
    <i name="e_wo_entrp">   -176.04160522 </i>
    <i name="e_0_energy">   -176.07248806 </i>
   </energy>
  </scstep>
  <scstep>
   <time name="diag">   66.50   66.51</time>
   <time name="diis">  195.80  195.82</time>
   <time name="orth">   13.24   13.25</time>
   <time name="total">  315.74  315.77</time>
   <energy>
    <i name="e_fr_energy">   -176.26468382 </i>
    <i name="e_wo_entrp">   -176.31167798 </i>
    <i name="e_0_energy">   -176.27643236 </i>
   </energy>
  </scstep>
  <scstep>
   <time name="diag">   66.47   66.48</time>
   <time name="diis">  193.90  193.91</time>
   <time name="orth">   13.19   13.19</time>
   <time name="total">  313.64  313.66</time>
   <energy>
    <i name="e_fr_energy">   -175.93381959 </i>
    <i name="e_wo_entrp">   -175.92391485 </i>
    <i name="e_0_energy">   -175.93134341 </i>
   </energy>
  </scstep>
  <scstep>
   <time name="diag">   66.32   66.32</time>
   <time name="diis">  190.70  190.72</time>
   <time name="orth">   13.17   13.17</time>
   <time name="total">  310.16  310.18</time>
   <energy>
    <i name="e_fr_energy">   -175.92539962 </i>
    <i name="e_wo_entrp">   -175.85893409 </i>
    <i name="e_0_energy">   -175.90878324 </i>
   </energy>
  </scstep>
  <scstep>
   <time name="diag">   66.05   66.05</time>
   <time name="diis">  193.18  193.18</time>
   <time name="orth">   13.10   13.10</time>
   <time name="total">  312.46  312.46</time>
   <energy>
    <i name="e_fr_energy">   -175.80881523 </i>
    <i name="e_wo_entrp">   -175.69883203 </i>
    <i name="e_0_energy">   -175.78131943 </i>
   </energy>
  </scstep>
  <scstep>
   <time name="diag">   66.06   66.06</time>
   <time name="diis">  190.83  190.84</time>
   <time name="orth">   13.20   13.20</time>
   <time name="total">  310.40  310.42</time>
   <energy>
    <i name="e_fr_energy">   -175.50586652 </i>
    <i name="e_wo_entrp">   -175.43695905 </i>
    <i name="e_0_energy">   -175.48863965 </i>
   </energy>
  </scstep>
  <scstep>
   <time name="diag">   66.04   66.05</time>
   <time name="diis">  190.41  190.43</time>
   <time name="orth">   13.19   13.19</time>
   <time name="total">  309.96  309.99</time>
   <energy>
    <i name="e_fr_energy">   -175.36353692 </i>
    <i name="e_wo_entrp">   -175.23422958 </i>
    <i name="e_0_energy">   -175.33121009 </i>
   </energy>
  </scstep>
  <scstep>
   <time name="diag">   66.87   66.88</time>
   <time name="diis">  190.08  190.10</time>
   <time name="orth">   13.13   13.13</time>
   <time name="total">  310.53  310.56</time>
   <energy>
    <i name="e_fr_energy">   -175.22555441 </i>
    <i name="e_wo_entrp">   -175.10805636 </i>
    <i name="e_0_energy">   -175.19617990 </i>
   </energy>
  </scstep>
  <scstep>
   <time name="diag">   66.43   66.43</time>
   <time name="diis">  191.06  191.08</time>
   <time name="orth">   13.14   13.15</time>
   <time name="total">  310.79  310.81</time>
   <energy>
    <i name="e_fr_energy">   -175.16245596 </i>
    <i name="e_wo_entrp">   -175.05220290 </i>
    <i name="e_0_energy">   -175.13489269 </i>
   </energy>
  </scstep>
  <scstep>
   <time name="diag">   66.14   66.15</time>
   <time name="diis">  190.48  190.49</time>
   <time name="orth">   13.23   13.23</time>
   <time name="total">  310.25  310.27</time>
   <energy>
    <i name="e_fr_energy">   -175.13813627 </i>
    <i name="e_wo_entrp">   -175.03279498 </i>
    <i name="e_0_energy">   -175.11180095 </i>
   </energy>
  </scstep>
  <scstep>
   <time name="diag">   66.15   66.16</time>
   <time name="diis">  190.73  190.74</time>
   <time name="orth">   13.16   13.16</time>
   <time name="total">  310.63  310.65</time>
   <energy>
    <i name="e_fr_energy">   -175.12123192 </i>
    <i name="e_wo_entrp">   -175.00724697 </i>
    <i name="e_0_energy">   -175.09273568 </i>
   </energy>
  </scstep>
  <scstep>
   <time name="diag">   66.25   66.25</time>
   <time name="diis">  190.21  190.22</time>
   <time name="orth">   13.14   13.14</time>
   <time name="total">  310.22  310.23</time>
   <energy>
    <i name="e_fr_energy">   -175.05595336 </i>
    <i name="e_wo_entrp">   -174.93343886 </i>
    <i name="e_0_energy">   -175.02532474 </i>
   </energy>
  </scstep>
  <scstep>
   <time name="diag">   66.55   66.56</time>
   <time name="diis">  189.51  189.52</time>
   <time name="orth">   13.16   13.16</time>
   <time name="total">  309.88  309.91</time>
   <energy>
    <i name="e_fr_energy">   -175.06871662 </i>
    <i name="e_wo_entrp">   -174.93869465 </i>
    <i name="e_0_energy">   -175.03621112 </i>
   </energy>
  </scstep>
  <scstep>
   <time name="diag">   66.41   66.41</time>
   <time name="diis">  188.30  188.31</time>
   <time name="orth">   13.20   13.20</time>
   <time name="total">  308.68  308.70</time>
   <energy>
    <i name="e_fr_energy">   -175.03679738 </i>
    <i name="e_wo_entrp">   -174.92087474 </i>
    <i name="e_0_energy">   -175.00781672 </i>
   </energy>
  </scstep>
  <scstep>
   <time name="diag">   66.37   66.37</time>
   <time name="diis">  188.41  188.42</time>
   <time name="orth">   13.04   13.04</time>
   <time name="total">  308.59  308.60</time>
   <energy>
    <i name="e_fr_energy">   -175.01641134 </i>
    <i name="e_wo_entrp">   -174.89517752 </i>
    <i name="e_0_energy">   -174.98610288 </i>
   </energy>
  </scstep>
  <scstep>
   <time name="diag">   66.65   66.65</time>
   <time name="diis">  188.23  188.23</time>
   <time name="orth">   13.17   13.17</time>
   <time name="total">  308.85  308.85</time>
   <energy>
    <i name="e_fr_energy">   -175.00995601 </i>
    <i name="e_wo_entrp">   -174.88875897 </i>
    <i name="e_0_energy">   -174.97965675 </i>
   </energy>
  </scstep>
  <scstep>
   <time name="diag">   66.17   66.17</time>
   <time name="diis">  189.02  189.02</time>
   <time name="orth">   13.14   13.14</time>
   <time name="total">  309.23  309.23</time>
   <energy>
    <i name="e_fr_energy">   -174.99672600 </i>
    <i name="e_wo_entrp">   -174.87233290 </i>
    <i name="e_0_energy">   -174.96562772 </i>
   </energy>
  </scstep>
  <scstep>
   <time name="diag">   66.11   66.11</time>
   <time name="diis">  189.38  189.38</time>
   <time name="orth">   13.18   13.18</time>
   <time name="total">  309.59  309.59</time>
   <energy>
    <i name="e_fr_energy">   -174.99381431 </i>
    <i name="e_wo_entrp">   -174.86436197 </i>
    <i name="e_0_energy">   -174.96145123 </i>
   </energy>
  </scstep>
  <scstep>
   <time name="diag">   66.23   66.23</time>
   <time name="diis">  188.36  188.36</time>
   <time name="orth">   13.13   13.13</time>
   <time name="total">  308.60  308.61</time>
   <energy>
    <i name="e_fr_energy">   -174.99378741 </i>
    <i name="e_wo_entrp">   -174.86876182 </i>
    <i name="e_0_energy">   -174.96253102 </i>
   </energy>
  </scstep>
  <scstep>
   <time name="diag">   66.16   66.16</time>
   <time name="diis">  187.72  187.72</time>
   <time name="orth">   12.63   12.63</time>
   <time name="total">  307.72  307.73</time>
   <energy>
    <i name="e_fr_energy">   -174.99208574 </i>
    <i name="e_wo_entrp">   -174.87091836 </i>
    <i name="e_0_energy">   -174.96179390 </i>
   </energy>
  </scstep>
  <scstep>
   <time name="diag">   65.91   65.91</time>
   <time name="diis">  186.53  186.53</time>
   <time name="orth">   13.02   13.02</time>
   <time name="total">  306.60  306.60</time>
   <energy>
    <i name="e_fr_energy">   -174.99390752 </i>
    <i name="e_wo_entrp">   -174.86662491 </i>
    <i name="e_0_energy">   -174.96208687 </i>
   </energy>
  </scstep>
  <scstep>
   <time name="diag">   66.62   66.62</time>
   <time name="diis">  186.07  186.07</time>
   <time name="orth">   12.88   12.88</time>
   <time name="total">  306.64  306.64</time>
   <energy>
    <i name="e_fr_energy">   -174.99462569 </i>
    <i name="e_wo_entrp">   -174.86924043 </i>
    <i name="e_0_energy">   -174.96327937 </i>
   </energy>
  </scstep>
  <scstep>
   <time name="diag">   67.07   67.07</time>
   <time name="diis">  187.15  187.15</time>
   <time name="orth">   12.94   12.94</time>
   <time name="total">  308.54  308.55</time>
   <energy>
    <i name="e_fr_energy">   -174.99510860 </i>
    <i name="e_wo_entrp">   -174.86953259 </i>
    <i name="e_0_energy">   -174.96371460 </i>
   </energy>
  </scstep>
  <scstep>
   <time name="diag">   67.29   67.29</time>
   <time name="diis">  169.05  169.05</time>
   <time name="orth">   13.11   13.11</time>
   <time name="total">  291.72  291.72</time>
   <energy>
    <i name="e_fr_energy">   -174.99647410 </i>
    <i name="e_wo_entrp">   -174.87020641 </i>
    <i name="e_0_energy">   -174.96490718 </i>
   </energy>
  </scstep>
  <scstep>
   <time name="diag">   67.87   67.87</time>
   <time name="diis">  131.57  131.58</time>
   <time name="orth">   12.94   12.94</time>
   <time name="total">  255.28  255.28</time>
   <energy>
    <i name="e_fr_energy">   -174.99770221 </i>
    <i name="e_wo_entrp">   -174.87140362 </i>
    <i name="e_0_energy">   -174.96612757 </i>
   </energy>
  </scstep>
  <scstep>
   <time name="diag">   67.75   67.75</time>
   <time name="diis">  120.67  120.67</time>
   <time name="orth">   12.83   12.83</time>
   <time name="total">  244.18  244.18</time>
   <energy>
    <i name="e_fr_energy">   -174.99919259 </i>
    <i name="e_wo_entrp">   -174.87311627 </i>
    <i name="e_0_energy">   -174.96767351 </i>
   </energy>
  </scstep>
  <scstep>
   <time name="diag">   67.88   67.88</time>
   <time name="diis">  155.81  155.81</time>
   <time name="orth">   12.93   12.93</time>
   <time name="total">  279.46  279.46</time>
   <energy>
    <i name="e_fr_energy">   -175.00271591 </i>
    <i name="e_wo_entrp">   -174.87611771 </i>
    <i name="e_0_energy">   -174.97106636 </i>
   </energy>
  </scstep>
  <scstep>
   <time name="diag">   67.83   67.83</time>
   <time name="diis">  138.89  138.90</time>
   <time name="orth">   12.84   12.84</time>
   <time name="total">  262.52  262.52</time>
   <energy>
    <i name="e_fr_energy">   -175.00490469 </i>
    <i name="e_wo_entrp">   -174.87958620 </i>
    <i name="e_0_energy">   -174.97357507 </i>
   </energy>
  </scstep>
  <scstep>
   <time name="diag">   67.41   67.41</time>
   <time name="diis">  138.35  138.35</time>
   <time name="orth">   12.50   12.50</time>
   <time name="total">  261.32  261.32</time>
   <energy>
    <i name="e_fr_energy">   -175.00759841 </i>
    <i name="e_wo_entrp">   -174.88084596 </i>
    <i name="e_0_energy">   -174.97591030 </i>
   </energy>
  </scstep>
  <scstep>
   <time name="diag">   66.04   66.04</time>
   <time name="diis">  150.06  150.06</time>
   <time name="orth">   12.70   12.70</time>
   <time name="total">  269.81  269.81</time>
   <energy>
    <i name="e_fr_energy">   -175.01043614 </i>
    <i name="e_wo_entrp">   -174.88311722 </i>
    <i name="e_0_energy">   -174.97860641 </i>
   </energy>
  </scstep>
  <scstep>
   <time name="diag">   65.70   65.70</time>
   <time name="diis">  125.16  125.16</time>
   <time name="orth">   12.21   12.21</time>
   <time name="total">  244.70  244.70</time>
   <energy>
    <i name="e_fr_energy">   -175.01174164 </i>
    <i name="e_wo_entrp">   -174.88549760 </i>
    <i name="e_0_energy">   -174.98018063 </i>
   </energy>
  </scstep>
  <scstep>
   <time name="diag">   64.98   64.98</time>
   <time name="diis">  123.57  123.58</time>
   <time name="orth">   12.26   12.26</time>
   <time name="total">  243.25  243.25</time>
   <energy>
    <i name="e_fr_energy">   -175.01336356 </i>
    <i name="e_wo_entrp">   -174.88726129 </i>
    <i name="e_0_energy">   -174.98183799 </i>
   </energy>
  </scstep>
  <scstep>
   <time name="diag">   64.88   64.88</time>
   <time name="diis">  120.56  120.56</time>
   <time name="orth">   12.78   12.78</time>
   <time name="total">  240.21  240.22</time>
   <energy>
    <i name="e_fr_energy">   -175.01396881 </i>
    <i name="e_wo_entrp">   -174.88831614 </i>
    <i name="e_0_energy">   -174.98255564 </i>
   </energy>
  </scstep>
  <scstep>
   <time name="diag">   65.53   65.53</time>
   <time name="diis">  119.67  119.67</time>
   <time name="orth">   12.27   12.27</time>
   <time name="total">  238.90  238.90</time>
   <energy>
    <i name="e_fr_energy">   -175.01514630 </i>
    <i name="e_wo_entrp">   -174.88968810 </i>
    <i name="e_0_energy">   -174.98378175 </i>
   </energy>
  </scstep>
  <scstep>
   <time name="diag">   65.63   65.63</time>
   <time name="diis">  118.42  118.42</time>
   <time name="orth">   12.22   12.22</time>
   <time name="total">  237.65  237.65</time>
   <energy>
    <i name="e_fr_energy">   -175.01602965 </i>
    <i name="e_wo_entrp">   -174.89025271 </i>
    <i name="e_0_energy">   -174.98458541 </i>
   </energy>
  </scstep>
  <scstep>
   <time name="diag">   65.61   65.61</time>
   <time name="diis">  117.45  117.45</time>
   <time name="orth">   12.20   12.20</time>
   <time name="total">  236.28  236.28</time>
   <energy>
    <i name="e_fr_energy">   -175.01664215 </i>
    <i name="e_wo_entrp">   -174.89082710 </i>
    <i name="e_0_energy">   -174.98518839 </i>
   </energy>
  </scstep>
  <scstep>
   <time name="diag">   65.25   65.25</time>
   <time name="diis">  117.01  117.01</time>
   <time name="orth">   12.27   12.27</time>
   <time name="total">  235.76  235.76</time>
   <energy>
    <i name="e_fr_energy">   -175.01739904 </i>
    <i name="e_wo_entrp">   -174.89157929 </i>
    <i name="e_0_energy">   -174.98594410 </i>
   </energy>
  </scstep>
  <scstep>
   <time name="diag">   65.12   65.12</time>
   <time name="diis">  103.45  103.45</time>
   <time name="orth">   12.83   12.83</time>
   <time name="total">  222.81  222.81</time>
   <energy>
    <i name="e_fr_energy">   -175.01769471 </i>
    <i name="e_wo_entrp">   -174.89192025 </i>
    <i name="e_0_energy">   -174.98625110 </i>
   </energy>
  </scstep>
  <scstep>
   <time name="diag">   64.92   64.92</time>
   <time name="diis">  104.38  104.38</time>
   <time name="orth">   12.84   12.84</time>
   <time name="total">  224.52  224.52</time>
   <energy>
    <i name="e_fr_energy">   -175.01826497 </i>
    <i name="e_wo_entrp">   -174.89250925 </i>
    <i name="e_0_energy">   -174.98682604 </i>
   </energy>
  </scstep>
  <scstep>
   <time name="diag">   64.51   64.51</time>
   <time name="diis">   85.45   85.45</time>
   <time name="orth">   12.26   12.26</time>
   <time name="total">  203.39  203.40</time>
   <energy>
    <i name="e_fr_energy">   -175.01845649 </i>
    <i name="e_wo_entrp">   -174.89267258 </i>
    <i name="e_0_energy">   -174.98701051 </i>
   </energy>
  </scstep>
  <scstep>
   <time name="diag">   62.18   62.18</time>
   <time name="diis">   89.41   89.41</time>
   <time name="orth">   12.25   12.25</time>
   <time name="total">  204.50  204.50</time>
   <energy>
    <i name="e_fr_energy">   -175.01889746 </i>
    <i name="e_wo_entrp">   -174.89304961 </i>
    <i name="e_0_energy">   -174.98743550 </i>
   </energy>
  </scstep>
  <scstep>
   <time name="diag">   63.11   63.11</time>
   <time name="diis">   76.39   76.39</time>
   <time name="orth">   12.12   12.12</time>
   <time name="total">  192.45  192.45</time>
   <energy>
    <i name="e_fr_energy">   -175.01910631 </i>
    <i name="e_wo_entrp">   -174.89330253 </i>
    <i name="e_0_energy">   -174.98765536 </i>
   </energy>
  </scstep>
  <scstep>
   <time name="diag">   62.80   62.80</time>
   <time name="diis">   85.40   85.39</time>
   <time name="orth">   11.94   11.94</time>
   <time name="total">  200.68  200.68</time>
   <energy>
    <i name="e_fr_energy">   -175.01935690 </i>
    <i name="e_wo_entrp">   -174.89350094 </i>
    <i name="e_0_energy">   -174.98789291 </i>
   </energy>
  </scstep>
  <scstep>
   <time name="diag">   63.08   63.08</time>
   <time name="diis">   78.84   78.85</time>
   <time name="orth">   11.98   11.98</time>
   <time name="total">  194.56  194.57</time>
   <energy>
    <i name="e_fr_energy">   -175.01954648 </i>
    <i name="e_wo_entrp">   -174.89376530 </i>
    <i name="e_0_energy">   -174.98810119 </i>
   </energy>
  </scstep>
  <scstep>
   <time name="diag">   63.33   63.33</time>
   <time name="diis">   74.60   74.60</time>
   <time name="orth">   11.80   11.80</time>
   <time name="total">  190.15  190.15</time>
   <energy>
    <i name="e_fr_energy">   -175.01964758 </i>
    <i name="e_wo_entrp">   -174.89387035 </i>
    <i name="e_0_energy">   -174.98820327 </i>
   </energy>
  </scstep>
  <scstep>
   <time name="diag">   61.87   61.87</time>
   <time name="diis">   75.79   75.79</time>
   <time name="orth">   11.68   11.68</time>
   <time name="total">  188.05  188.05</time>
   <energy>
    <i name="e_fr_energy">   -175.01976054 </i>
    <i name="e_wo_entrp">   -174.89393675 </i>
    <i name="e_0_energy">   -174.98830459 </i>
   </energy>
  </scstep>
  <scstep>
   <time name="diag">   60.65   60.65</time>
   <time name="diis">   65.72   65.72</time>
   <time name="orth">   11.34   11.34</time>
   <time name="total">  150.16  150.16</time>
   <energy>
    <i name="alphaZ">     75.25431677 </i>
    <i name="ewald"> 138316.55564886 </i>
    <i name="hartreedc">-182665.31246865 </i>
    <i name="XCdc">  -1692.34266199 </i>
    <i name="pawpsdc">  46179.84093660 </i>
    <i name="pawaedc"> -42651.06254942 </i>
    <i name="eentropy">     -0.12585782 </i>
    <i name="bandstr">  -2824.33267387 </i>
    <i name="atom">  45086.50549395 </i>
    <i name="e_fr_energy">   -175.01981556 </i>
    <i name="e_wo_entrp">   -174.89395775 </i>
    <i name="e_0_energy">   -174.98835111 </i>
   </energy>
  </scstep>
  <structure>
   <crystal>
    <varray name="basis" >
     <v>      30.00000000       0.00000000       0.00000000 </v>
     <v>       0.00000000      30.00000000       0.00000000 </v>
     <v>       0.00000000       0.00000000      30.00000000 </v>
    </varray>
    <i name="volume">  27000.00000000 </i>
    <varray name="rec_basis" >
     <v>       0.03333333       0.00000000       0.00000000 </v>
     <v>       0.00000000       0.03333333       0.00000000 </v>
     <v>       0.00000000       0.00000000       0.03333333 </v>
    </varray>
   </crystal>
   <varray name="positions" >
    <v>       0.44576020       0.32826710       0.41691983 </v>
    <v>       0.67173288       0.55423978       0.41691983 </v>
    <v>       0.55423980       0.32826710       0.41691983 </v>
    <v>       0.32826712       0.55423978       0.41691983 </v>
    <v>       0.50000000       0.38250690       0.34021317 </v>
    <v>       0.50000000       0.38250690       0.65978680 </v>
    <v>       0.50000000       0.27609440       0.50000000 </v>
    <v>       0.27609443       0.49999998       0.50000000 </v>
    <v>       0.72390557       0.49999998       0.50000000 </v>
    <v>       0.50000000       0.72390555       0.50000000 </v>
    <v>       0.61195280       0.38804720       0.34167483 </v>
    <v>       0.61195280       0.38804720       0.65832513 </v>
    <v>       0.38804722       0.61195278       0.34167483 </v>
    <v>       0.38804722       0.61195278       0.65832513 </v>
    <v>       0.38804720       0.38804720       0.34167483 </v>
    <v>       0.38804720       0.38804720       0.65832513 </v>
    <v>       0.61195278       0.61195278       0.34167483 </v>
    <v>       0.61195278       0.61195278       0.65832513 </v>
    <v>       0.44576020       0.32826710       0.58308023 </v>
    <v>       0.67173288       0.55423978       0.58308023 </v>
    <v>       0.55791699       0.44208301       0.41809300 </v>
    <v>       0.32826705       0.44576024       0.41691983 </v>
    <v>       0.55423973       0.67173293       0.41691983 </v>
    <v>       0.55423980       0.32826710       0.58308023 </v>
    <v>       0.32826712       0.55423978       0.58308023 </v>
    <v>       0.67173295       0.44576024       0.41691983 </v>
    <v>       0.44576027       0.67173293       0.41691983 </v>
    <v>       0.44208301       0.44208301       0.41809300 </v>
    <v>       0.50000000       0.38416601       0.50000000 </v>
    <v>       0.61749315       0.50000005       0.34021317 </v>
    <v>       0.61749315       0.50000005       0.65978680 </v>
    <v>       0.38250685       0.50000005       0.34021317 </v>
    <v>       0.38250685       0.50000005       0.65978680 </v>
    <v>       0.38317830       0.38317830       0.50000000 </v>
    <v>       0.61682172       0.61682172       0.50000000 </v>
    <v>       0.61682170       0.38317830       0.50000000 </v>
    <v>       0.38317828       0.61682172       0.50000000 </v>
    <v>       0.50000000       0.50000000       0.33478917 </v>
    <v>       0.50000000       0.50000000       0.66521087 </v>
    <v>       0.32826705       0.44576024       0.58308023 </v>
    <v>       0.55423973       0.67173293       0.58308023 </v>
    <v>       0.55791699       0.44208301       0.58190703 </v>
    <v>       0.44208298       0.55791702       0.41809300 </v>
    <v>       0.44208301       0.44208301       0.58190703 </v>
    <v>       0.67173295       0.44576024       0.58308023 </v>
    <v>       0.44576027       0.67173293       0.58308023 </v>
    <v>       0.55791702       0.55791702       0.41809300 </v>
    <v>       0.38416599       0.50000002       0.50000000 </v>
    <v>       0.61583401       0.50000002       0.50000000 </v>
    <v>       0.50000000       0.61749319       0.34021317 </v>
    <v>       0.50000000       0.61749319       0.65978680 </v>
    <v>       0.50000000       0.50000000       0.50000000 </v>
    <v>       0.44208298       0.55791702       0.58190703 </v>
    <v>       0.55791702       0.55791702       0.58190703 </v>
    <v>       0.50000000       0.61583404       0.50000000 </v>
    <v>       0.51407073       0.67911870       0.67079527 </v>
    <v>       0.51620493       0.70628680       0.69670087 </v>
   </varray>
  </structure>
  <varray name="forces" >
   <v>       0.70928574       1.11054631       0.28816673 </v>
   <v>      -1.10720124      -0.72798445       0.27432371 </v>
   <v>      -0.70861390       1.10870666       0.28774828 </v>
   <v>       1.10514043      -0.72129083       0.27979563 </v>
   <v>       0.00000546       0.40784018       1.28656003 </v>
   <v>      -0.00095163       0.36406549      -1.30914251 </v>
   <v>       0.00015557       1.52162056       0.00967416 </v>
   <v>       1.52397374      -0.00387850      -0.01514169 </v>
   <v>      -1.52125020      -0.00548312      -0.01617601 </v>
   <v>       0.00311454      -1.54496990      -0.01693229 </v>
   <v>      -0.75418681       0.76303596       1.07623508 </v>
   <v>      -0.76038546       0.75032997      -1.07922495 </v>
   <v>       0.75256143      -0.76711974       1.07541211 </v>
   <v>       0.71287920      -0.79745723      -1.08744809 </v>
   <v>       0.75528584       0.75945137       1.07421072 </v>
   <v>       0.76063085       0.74946188      -1.07890793 </v>
   <v>      -0.75295342      -0.76753052       1.07471822 </v>
   <v>      -0.70762684      -0.77592849      -1.06226981 </v>
   <v>       0.71571281       1.11188680      -0.28258296 </v>
   <v>      -1.10210863      -0.71434067      -0.28041547 </v>
   <v>       0.11022573      -0.11344727      -0.15708857 </v>
   <v>       1.10316890       0.71970959       0.30042747 </v>
   <v>      -0.70696190      -1.10110474       0.29963527 </v>
   <v>      -0.71653277       1.11289795      -0.28271577 </v>
   <v>       1.11176105      -0.70090985      -0.27753659 </v>
   <v>      -1.10601331       0.71944442       0.29460741 </v>
   <v>       0.70830445      -1.10073920       0.29952548 </v>
   <v>      -0.10586648      -0.11583197      -0.15516794 </v>
   <v>      -0.00043262      -0.22808717       0.00299648 </v>
   <v>      -0.40547125       0.00839607       1.29171525 </v>
   <v>      -0.39885066      -0.00528385      -1.28326668 </v>
   <v>       0.40995760       0.01440786       1.29102593 </v>
   <v>       0.41233076       0.01026288      -1.28003582 </v>
   <v>       0.82716753       0.82482328       0.00192492 </v>
   <v>      -0.84193062      -0.81263791      -0.00301905 </v>
   <v>      -0.82613296       0.82469196       0.00012259 </v>
   <v>       0.84200751      -0.80999455       0.01094682 </v>
   <v>       0.00138075       0.00043250       1.17451656 </v>
   <v>      -0.02231438       0.04961773      -1.20429383 </v>
   <v>       1.11082049       0.70545910      -0.28933632 </v>
   <v>      -0.79189003      -0.96447397       0.00481297 </v>
   <v>       0.11242226      -0.10627525       0.16275047 </v>
   <v>      -0.11960530       0.10642982      -0.16337324 </v>
   <v>      -0.11131587      -0.10409917       0.16614124 </v>
   <v>      -1.11165710       0.71155183      -0.28599042 </v>
   <v>       0.62714342      -1.06312145      -0.35544457 </v>
   <v>       0.11564718       0.11368767      -0.15644966 </v>
   <v>      -0.24702140      -0.00931197      -0.02262879 </v>
   <v>       0.23851271      -0.00497748      -0.01558234 </v>
   <v>       0.00029880      -0.41592658       1.28080797 </v>
   <v>       0.17205624       0.24488587      -1.21204026 </v>
   <v>       0.00065741       0.01973693       0.00991884 </v>
   <v>      -0.11428824       0.05540881       0.15384972 </v>
   <v>       0.12555527       0.02488252       0.10490558 </v>
   <v>      -0.00134000       0.21674602      -0.02608930 </v>
   <v>      -0.40684072      -4.54601991      -3.20787071 </v>
   <v>       0.38158007       3.89780774       3.02869592 </v>
  </varray>
  <varray name="stress" >
   <v>      -6.74193647       0.00133329       0.03671823 </v>
   <v>       0.00133328      -6.61998076       0.16286563 </v>
   <v>       0.03671819       0.16286565      -6.64726934 </v>
  </varray>
  <energy>
   <i name="e_fr_energy">   -175.01981556 </i>
   <i name="e_wo_entrp">   -174.98835111 </i>
   <i name="e_0_energy">     -0.12585782 </i>
  </energy>
  <time name="totalsc">18162.3818163.04</time>
  <eigenvalues>
   <array>
    <dimension dim="1">band</dimension>
    <dimension dim="2">kpoint</dimension>
    <dimension dim="3">spin</dimension>
    <field>eigene</field>
    <field>occ</field>
    <set>
     <set comment="spin 1">
      <set comment="kpoint 1">
       <r>  -28.4765    1.0000 </r>
       <r>  -13.3967    1.0000 </r>
       <r>  -11.1775    1.0000 </r>
       <r>  -10.9582    1.0000 </r>
       <r>  -10.5040    1.0000 </r>
       <r>   -6.6663    1.0000 </r>
       <r>   -6.3237    1.0000 </r>
       <r>   -6.2524    1.0000 </r>
       <r>   -6.1596    1.0000 </r>
       <r>   -6.1379    1.0000 </r>
       <r>   -6.1344    1.0000 </r>
       <r>   -5.8801    1.0000 </r>
       <r>   -5.8514    1.0000 </r>
       <r>   -5.8235    1.0000 </r>
       <r>   -5.7808    1.0000 </r>
       <r>   -5.7560    1.0000 </r>
       <r>   -5.7301    1.0000 </r>
       <r>   -5.7066    1.0000 </r>
       <r>   -5.6986    1.0000 </r>
       <r>   -5.6914    1.0000 </r>
       <r>   -5.6801    1.0000 </r>
       <r>   -5.6390    1.0000 </r>
       <r>   -5.6342    1.0000 </r>
       <r>   -5.6225    1.0000 </r>
       <r>   -5.6105    1.0000 </r>
       <r>   -5.5926    1.0000 </r>
       <r>   -5.5915    1.0000 </r>
       <r>   -5.5683    1.0000 </r>
       <r>   -5.5637    1.0000 </r>
       <r>   -5.5633    1.0000 </r>
       <r>   -5.5534    1.0000 </r>
       <r>   -5.5420    1.0000 </r>
       <r>   -5.5345    1.0000 </r>
       <r>   -5.5329    1.0000 </r>
       <r>   -5.5287    1.0000 </r>
       <r>   -5.5275    1.0000 </r>
       <r>   -5.5238    1.0000 </r>
       <r>   -5.5082    1.0000 </r>
       <r>   -5.5044    1.0000 </r>
       <r>   -5.4949    1.0000 </r>
       <r>   -5.4890    1.0000 </r>
       <r>   -5.4874    1.0000 </r>
       <r>   -5.4849    1.0000 </r>
       <r>   -5.4823    1.0000 </r>
       <r>   -5.4803    1.0000 </r>
       <r>   -5.4646    1.0000 </r>
       <r>   -5.4476    1.0000 </r>
       <r>   -5.4448    1.0000 </r>
       <r>   -5.4437    1.0000 </r>
       <r>   -5.4419    1.0000 </r>
       <r>   -5.4375    1.0000 </r>
       <r>   -5.4289    1.0000 </r>
       <r>   -5.4232    1.0000 </r>
       <r>   -5.4205    1.0000 </r>
       <r>   -5.4184    1.0000 </r>
       <r>   -5.4140    1.0000 </r>
       <r>   -5.3991    1.0000 </r>
       <r>   -5.3549    1.0000 </r>
       <r>   -5.3474    1.0000 </r>
       <r>   -5.3417    1.0000 </r>
       <r>   -5.3407    1.0000 </r>
       <r>   -5.3337    1.0000 </r>
       <r>   -5.3313    1.0000 </r>
       <r>   -5.3184    1.0000 </r>
       <r>   -5.3153    1.0000 </r>
       <r>   -5.3106    1.0000 </r>
       <r>   -5.3100    1.0000 </r>
       <r>   -5.2989    1.0000 </r>
       <r>   -5.2851    1.0000 </r>
       <r>   -5.2316    1.0000 </r>
       <r>   -5.2262    1.0000 </r>
       <r>   -5.2192    1.0000 </r>
       <r>   -5.2087    1.0000 </r>
       <r>   -5.2007    1.0000 </r>
       <r>   -5.1985    1.0000 </r>
       <r>   -5.1967    1.0000 </r>
       <r>   -5.1883    1.0000 </r>
       <r>   -5.1857    1.0000 </r>
       <r>   -5.1808    1.0000 </r>
       <r>   -5.1774    1.0000 </r>
       <r>   -5.1714    1.0000 </r>
       <r>   -5.1552    1.0000 </r>
       <r>   -5.1463    1.0000 </r>
       <r>   -5.1444    1.0000 </r>
       <r>   -5.1387    1.0000 </r>
       <r>   -5.1291    1.0000 </r>
       <r>   -5.1276    1.0000 </r>
       <r>   -5.1171    1.0000 </r>
       <r>   -5.1042    1.0000 </r>
       <r>   -5.0957    1.0000 </r>
       <r>   -5.0842    1.0000 </r>
       <r>   -5.0727    1.0000 </r>
       <r>   -5.0684    1.0000 </r>
       <r>   -5.0674    1.0000 </r>
       <r>   -5.0645    1.0000 </r>
       <r>   -5.0629    1.0000 </r>
       <r>   -5.0594    1.0000 </r>
       <r>   -5.0522    1.0000 </r>
       <r>   -5.0452    1.0000 </r>
       <r>   -5.0430    1.0000 </r>
       <r>   -5.0404    1.0000 </r>
       <r>   -5.0367    1.0000 </r>
       <r>   -5.0270    1.0000 </r>
       <r>   -5.0183    1.0000 </r>
       <r>   -5.0170    1.0000 </r>
       <r>   -5.0113    1.0000 </r>
       <r>   -5.0097    1.0000 </r>
       <r>   -5.0066    1.0000 </r>
       <r>   -5.0018    1.0000 </r>
       <r>   -4.9940    1.0000 </r>
       <r>   -4.9932    1.0000 </r>
       <r>   -4.9816    1.0000 </r>
       <r>   -4.9766    1.0000 </r>
       <r>   -4.9747    1.0000 </r>
       <r>   -4.9719    1.0000 </r>
       <r>   -4.9672    1.0000 </r>
       <r>   -4.9581    1.0000 </r>
       <r>   -4.9492    1.0000 </r>
       <r>   -4.9468    1.0000 </r>
       <r>   -4.9421    1.0000 </r>
       <r>   -4.9281    1.0000 </r>
       <r>   -4.9244    1.0000 </r>
       <r>   -4.9232    1.0000 </r>
       <r>   -4.9181    1.0000 </r>
       <r>   -4.9172    1.0000 </r>
       <r>   -4.9143    1.0000 </r>
       <r>   -4.8978    1.0000 </r>
       <r>   -4.8880    1.0000 </r>
       <r>   -4.8673    1.0000 </r>
       <r>   -4.8591    1.0000 </r>
       <r>   -4.8572    1.0000 </r>
       <r>   -4.8537    1.0000 </r>
       <r>   -4.8517    1.0000 </r>
       <r>   -4.8477    1.0000 </r>
       <r>   -4.8441    1.0000 </r>
       <r>   -4.8268    0.9999 </r>
       <r>   -4.8151    0.9999 </r>
       <r>   -4.8103    0.9999 </r>
       <r>   -4.7973    0.9999 </r>
       <r>   -4.7932    0.9998 </r>
       <r>   -4.7900    0.9998 </r>
       <r>   -4.7808    0.9998 </r>
       <r>   -4.7687    0.9997 </r>
       <r>   -4.7629    0.9997 </r>
       <r>   -4.7544    0.9996 </r>
       <r>   -4.7514    0.9996 </r>
       <r>   -4.7450    0.9995 </r>
       <r>   -4.7390    0.9995 </r>
       <r>   -4.7285    0.9993 </r>
       <r>   -4.7168    0.9992 </r>
       <r>   -4.7042    0.9989 </r>
       <r>   -4.7022    0.9989 </r>
       <r>   -4.6960    0.9988 </r>
       <r>   -4.6900    0.9986 </r>
       <r>   -4.6859    0.9985 </r>
       <r>   -4.6855    0.9985 </r>
       <r>   -4.6836    0.9985 </r>
       <r>   -4.6811    0.9984 </r>
       <r>   -4.6793    0.9983 </r>
       <r>   -4.6709    0.9981 </r>
       <r>   -4.6648    0.9979 </r>
       <r>   -4.6629    0.9979 </r>
       <r>   -4.6624    0.9978 </r>
       <r>   -4.6599    0.9978 </r>
       <r>   -4.6579    0.9977 </r>
       <r>   -4.6575    0.9977 </r>
       <r>   -4.6559    0.9976 </r>
       <r>   -4.6484    0.9974 </r>
       <r>   -4.6482    0.9974 </r>
       <r>   -4.6358    0.9969 </r>
       <r>   -4.6278    0.9966 </r>
       <r>   -4.6219    0.9964 </r>
       <r>   -4.6153    0.9961 </r>
       <r>   -4.6117    0.9960 </r>
       <r>   -4.6090    0.9959 </r>
       <r>   -4.6069    0.9958 </r>
       <r>   -4.6049    0.9958 </r>
       <r>   -4.6024    0.9957 </r>
       <r>   -4.6005    0.9956 </r>
       <r>   -4.5894    0.9953 </r>
       <r>   -4.5881    0.9953 </r>
       <r>   -4.5821    0.9952 </r>
       <r>   -4.5757    0.9951 </r>
       <r>   -4.5725    0.9951 </r>
       <r>   -4.5706    0.9951 </r>
       <r>   -4.5664    0.9951 </r>
       <r>   -4.5642    0.9951 </r>
       <r>   -4.5630    0.9951 </r>
       <r>   -4.5618    0.9951 </r>
       <r>   -4.5533    0.9953 </r>
       <r>   -4.5434    0.9957 </r>
       <r>   -4.5308    0.9966 </r>
       <r>   -4.5216    0.9975 </r>
       <r>   -4.5212    0.9976 </r>
       <r>   -4.5196    0.9978 </r>
       <r>   -4.5132    0.9987 </r>
       <r>   -4.5068    0.9997 </r>
       <r>   -4.5054    0.9999 </r>
       <r>   -4.4906    1.0031 </r>
       <r>   -4.4888    1.0036 </r>
       <r>   -4.4844    1.0047 </r>
       <r>   -4.4833    1.0051 </r>
       <r>   -4.4723    1.0084 </r>
       <r>   -4.4700    1.0092 </r>
       <r>   -4.4684    1.0097 </r>
       <r>   -4.4655    1.0107 </r>
       <r>   -4.4598    1.0129 </r>
       <r>   -4.4588    1.0133 </r>
       <r>   -4.4533    1.0155 </r>
       <r>   -4.4487    1.0174 </r>
       <r>   -4.4400    1.0212 </r>
       <r>   -4.4362    1.0230 </r>
       <r>   -4.4333    1.0243 </r>
       <r>   -4.4234    1.0290 </r>
       <r>   -4.4216    1.0299 </r>
       <r>   -4.4205    1.0304 </r>
       <r>   -4.4184    1.0314 </r>
       <r>   -4.4175    1.0318 </r>
       <r>   -4.4140    1.0336 </r>
       <r>   -4.3967    1.0415 </r>
       <r>   -4.3888    1.0447 </r>
       <r>   -4.3843    1.0463 </r>
       <r>   -4.3778    1.0484 </r>
       <r>   -4.3755    1.0490 </r>
       <r>   -4.3650    1.0511 </r>
       <r>   -4.3582    1.0516 </r>
       <r>   -4.3528    1.0515 </r>
       <r>   -4.3509    1.0513 </r>
       <r>   -4.3488    1.0511 </r>
       <r>   -4.3471    1.0508 </r>
       <r>   -4.3457    1.0505 </r>
       <r>   -4.3449    1.0503 </r>
       <r>   -4.3409    1.0493 </r>
       <r>   -4.3403    1.0491 </r>
       <r>   -4.3392    1.0487 </r>
       <r>   -4.3375    1.0481 </r>
       <r>   -4.3358    1.0474 </r>
       <r>   -4.3350    1.0470 </r>
       <r>   -4.3336    1.0464 </r>
       <r>   -4.3229    1.0396 </r>
       <r>   -4.3210    1.0381 </r>
       <r>   -4.3170    1.0346 </r>
       <r>   -4.3136    1.0312 </r>
       <r>   -4.3070    1.0235 </r>
       <r>   -4.3020    1.0167 </r>
       <r>   -4.3010    1.0153 </r>
       <r>   -4.2970    1.0092 </r>
       <r>   -4.2950    1.0058 </r>
       <r>   -4.2928    1.0020 </r>
       <r>   -4.2866    0.9904 </r>
       <r>   -4.2816    0.9800 </r>
       <r>   -4.2759    0.9672 </r>
       <r>   -4.2752    0.9653 </r>
       <r>   -4.2718    0.9569 </r>
       <r>   -4.2711    0.9551 </r>
       <r>   -4.2651    0.9389 </r>
       <r>   -4.2633    0.9337 </r>
       <r>   -4.2616    0.9289 </r>
       <r>   -4.2589    0.9208 </r>
       <r>   -4.2574    0.9162 </r>
       <r>   -4.2561    0.9120 </r>
       <r>   -4.2542    0.9060 </r>
       <r>   -4.2518    0.8980 </r>
       <r>   -4.2511    0.8958 </r>
       <r>   -4.2497    0.8910 </r>
       <r>   -4.2404    0.8579 </r>
       <r>   -4.2379    0.8484 </r>
       <r>   -4.2364    0.8427 </r>
       <r>   -4.2332    0.8301 </r>
       <r>   -4.2317    0.8239 </r>
       <r>   -4.2289    0.8123 </r>
       <r>   -4.2188    0.7689 </r>
       <r>   -4.2152    0.7528 </r>
       <r>   -4.2047    0.7035 </r>
       <r>   -4.1965    0.6630 </r>
       <r>   -4.1955    0.6583 </r>
       <r>   -4.1909    0.6352 </r>
       <r>   -4.1895    0.6281 </r>
       <r>   -4.1876    0.6180 </r>
       <r>   -4.1843    0.6013 </r>
       <r>   -4.1740    0.5476 </r>
       <r>   -4.1735    0.5446 </r>
       <r>   -4.1514    0.4283 </r>
       <r>   -4.1430    0.3846 </r>
       <r>   -4.1427    0.3830 </r>
       <r>   -4.1411    0.3746 </r>
       <r>   -4.1395    0.3668 </r>
       <r>   -4.1302    0.3202 </r>
       <r>   -4.1258    0.2984 </r>
       <r>   -3.9742   -0.0516 </r>
       <r>   -3.8514   -0.0064 </r>
       <r>   -3.8410   -0.0035 </r>
       <r>   -3.8274   -0.0005 </r>
       <r>   -3.7321    0.0044 </r>
       <r>   -3.5156    0.0001 </r>
       <r>   -3.5003    0.0001 </r>
       <r>   -3.3626    0.0000 </r>
       <r>   -3.0898    0.0000 </r>
       <r>   -3.0716    0.0000 </r>
       <r>   -3.0690    0.0000 </r>
       <r>   -3.0429    0.0000 </r>
       <r>   -3.0349    0.0000 </r>
       <r>   -2.9528    0.0000 </r>
       <r>   -2.9492    0.0000 </r>
       <r>   -2.7836    0.0000 </r>
       <r>   -2.5848    0.0000 </r>
       <r>   -2.5383    0.0000 </r>
       <r>   -2.5291    0.0000 </r>
       <r>   -2.3100    0.0000 </r>
       <r>   -2.1255    0.0000 </r>
       <r>   -2.1234    0.0000 </r>
       <r>   -2.0721    0.0000 </r>
       <r>   -2.0374    0.0000 </r>
       <r>   -1.9945    0.0000 </r>
       <r>   -1.9444    0.0000 </r>
       <r>   -1.8901    0.0000 </r>
       <r>   -1.8047    0.0000 </r>
       <r>   -1.6962    0.0000 </r>
       <r>   -1.6620    0.0000 </r>
       <r>   -1.6544    0.0000 </r>
       <r>   -1.6494    0.0000 </r>
       <r>   -1.6235    0.0000 </r>
       <r>   -1.5608    0.0000 </r>
       <r>   -1.3797    0.0000 </r>
       <r>   -1.2572    0.0000 </r>
       <r>   -1.1773    0.0000 </r>
       <r>   -1.1317    0.0000 </r>
       <r>   -1.0519    0.0000 </r>
       <r>   -0.9912    0.0000 </r>
       <r>   -0.9798    0.0000 </r>
       <r>   -0.9526    0.0000 </r>
       <r>   -0.9380    0.0000 </r>
       <r>   -0.9271    0.0000 </r>
       <r>   -0.9142    0.0000 </r>
       <r>   -0.8322    0.0000 </r>
       <r>   -0.6936    0.0000 </r>
      </set>
     </set>
    </set>
   </array>
  </eigenvalues>
  <separator name="orbital magnetization" >
   <v name="MAGDIPOLOUT">      0.00000000      0.00000000      0.00000000</v>
  </separator>
  <dos>
   <i name="efermi">     -4.16502882 </i>
   <total>
    <array>
     <dimension dim="1">gridpoints</dimension>
     <dimension dim="2">spin</dimension>
     <field>energy</field>
     <field>total</field>
     <field>integrated</field>
     <set>
      <set comment="spin 1">
       <r>   -30.4765     0.0000     0.0000 </r>
       <r>   -30.3706     0.0000     0.0000 </r>
       <r>   -30.2646     0.0000     0.0000 </r>
       <r>   -30.1587     0.0000     0.0000 </r>
       <r>   -30.0527     0.0000     0.0000 </r>
       <r>   -29.9468     0.0000     0.0000 </r>
       <r>   -29.8409     0.0000     0.0000 </r>
       <r>   -29.7349     0.0000     0.0000 </r>
       <r>   -29.6290     0.0000     0.0000 </r>
       <r>   -29.5230     0.0000     0.0000 </r>
       <r>   -29.4171     0.0000     0.0000 </r>
       <r>   -29.3111     0.0000     0.0000 </r>
       <r>   -29.2052     0.0002     0.0000 </r>
       <r>   -29.0993     0.0031     0.0003 </r>
       <r>   -28.9933     0.0267     0.0032 </r>
       <r>   -28.8874     0.0626     0.0098 </r>
       <r>   -28.7814    -0.2662    -0.0184 </r>
       <r>   -28.6755    -0.7928    -0.1024 </r>
       <r>   -28.5695     2.5110     0.1636 </r>
       <r>   -28.4636     9.1800     1.1362 </r>
       <r>   -28.3577     7.8697     1.9699 </r>
       <r>   -28.2517     1.1197     2.0886 </r>
       <r>   -28.1458    -0.7998     2.0038 </r>
       <r>   -28.0398    -0.1177     1.9913 </r>
       <r>   -27.9339     0.0628     1.9980 </r>
       <r>   -27.8279     0.0172     1.9998 </r>
       <r>   -27.7220     0.0016     2.0000 </r>
       <r>   -27.6161     0.0001     2.0000 </r>
       <r>   -27.5101     0.0000     2.0000 </r>
       <r>   -27.4042     0.0000     2.0000 </r>
       <r>   -27.2982     0.0000     2.0000 </r>
       <r>   -27.1923     0.0000     2.0000 </r>
       <r>   -27.0863     0.0000     2.0000 </r>
       <r>   -26.9804     0.0000     2.0000 </r>
       <r>   -26.8745     0.0000     2.0000 </r>
       <r>   -26.7685     0.0000     2.0000 </r>
       <r>   -26.6626     0.0000     2.0000 </r>
       <r>   -26.5566     0.0000     2.0000 </r>
       <r>   -26.4507     0.0000     2.0000 </r>
       <r>   -26.3447     0.0000     2.0000 </r>
       <r>   -26.2388     0.0000     2.0000 </r>
       <r>   -26.1329     0.0000     2.0000 </r>
       <r>   -26.0269     0.0000     2.0000 </r>
       <r>   -25.9210     0.0000     2.0000 </r>
       <r>   -25.8150     0.0000     2.0000 </r>
       <r>   -25.7091     0.0000     2.0000 </r>
       <r>   -25.6031     0.0000     2.0000 </r>
       <r>   -25.4972     0.0000     2.0000 </r>
       <r>   -25.3913     0.0000     2.0000 </r>
       <r>   -25.2853     0.0000     2.0000 </r>
       <r>   -25.1794     0.0000     2.0000 </r>
       <r>   -25.0734     0.0000     2.0000 </r>
       <r>   -24.9675     0.0000     2.0000 </r>
       <r>   -24.8615     0.0000     2.0000 </r>
       <r>   -24.7556     0.0000     2.0000 </r>
       <r>   -24.6497     0.0000     2.0000 </r>
       <r>   -24.5437     0.0000     2.0000 </r>
       <r>   -24.4378     0.0000     2.0000 </r>
       <r>   -24.3318     0.0000     2.0000 </r>
       <r>   -24.2259     0.0000     2.0000 </r>
       <r>   -24.1199     0.0000     2.0000 </r>
       <r>   -24.0140     0.0000     2.0000 </r>
       <r>   -23.9081     0.0000     2.0000 </r>
       <r>   -23.8021     0.0000     2.0000 </r>
       <r>   -23.6962     0.0000     2.0000 </r>
       <r>   -23.5902     0.0000     2.0000 </r>
       <r>   -23.4843     0.0000     2.0000 </r>
       <r>   -23.3783     0.0000     2.0000 </r>
       <r>   -23.2724     0.0000     2.0000 </r>
       <r>   -23.1665     0.0000     2.0000 </r>
       <r>   -23.0605     0.0000     2.0000 </r>
       <r>   -22.9546     0.0000     2.0000 </r>
       <r>   -22.8486     0.0000     2.0000 </r>
       <r>   -22.7427     0.0000     2.0000 </r>
       <r>   -22.6367     0.0000     2.0000 </r>
       <r>   -22.5308     0.0000     2.0000 </r>
       <r>   -22.4249     0.0000     2.0000 </r>
       <r>   -22.3189     0.0000     2.0000 </r>
       <r>   -22.2130     0.0000     2.0000 </r>
       <r>   -22.1070     0.0000     2.0000 </r>
       <r>   -22.0011     0.0000     2.0000 </r>
       <r>   -21.8951     0.0000     2.0000 </r>
       <r>   -21.7892     0.0000     2.0000 </r>
       <r>   -21.6833     0.0000     2.0000 </r>
       <r>   -21.5773     0.0000     2.0000 </r>
       <r>   -21.4714     0.0000     2.0000 </r>
       <r>   -21.3654     0.0000     2.0000 </r>
       <r>   -21.2595     0.0000     2.0000 </r>
       <r>   -21.1535     0.0000     2.0000 </r>
       <r>   -21.0476     0.0000     2.0000 </r>
       <r>   -20.9417     0.0000     2.0000 </r>
       <r>   -20.8357     0.0000     2.0000 </r>
       <r>   -20.7298     0.0000     2.0000 </r>
       <r>   -20.6238     0.0000     2.0000 </r>
       <r>   -20.5179     0.0000     2.0000 </r>
       <r>   -20.4119     0.0000     2.0000 </r>
       <r>   -20.3060     0.0000     2.0000 </r>
       <r>   -20.2001     0.0000     2.0000 </r>
       <r>   -20.0941     0.0000     2.0000 </r>
       <r>   -19.9882     0.0000     2.0000 </r>
       <r>   -19.8822     0.0000     2.0000 </r>
       <r>   -19.7763     0.0000     2.0000 </r>
       <r>   -19.6703     0.0000     2.0000 </r>
       <r>   -19.5644     0.0000     2.0000 </r>
       <r>   -19.4585     0.0000     2.0000 </r>
       <r>   -19.3525     0.0000     2.0000 </r>
       <r>   -19.2466     0.0000     2.0000 </r>
       <r>   -19.1406     0.0000     2.0000 </r>
       <r>   -19.0347     0.0000     2.0000 </r>
       <r>   -18.9287     0.0000     2.0000 </r>
       <r>   -18.8228     0.0000     2.0000 </r>
       <r>   -18.7169     0.0000     2.0000 </r>
       <r>   -18.6109     0.0000     2.0000 </r>
       <r>   -18.5050     0.0000     2.0000 </r>
       <r>   -18.3990     0.0000     2.0000 </r>
       <r>   -18.2931     0.0000     2.0000 </r>
       <r>   -18.1871     0.0000     2.0000 </r>
       <r>   -18.0812     0.0000     2.0000 </r>
       <r>   -17.9753     0.0000     2.0000 </r>
       <r>   -17.8693     0.0000     2.0000 </r>
       <r>   -17.7634     0.0000     2.0000 </r>
       <r>   -17.6574     0.0000     2.0000 </r>
       <r>   -17.5515     0.0000     2.0000 </r>
       <r>   -17.4455     0.0000     2.0000 </r>
       <r>   -17.3396     0.0000     2.0000 </r>
       <r>   -17.2336     0.0000     2.0000 </r>
       <r>   -17.1277     0.0000     2.0000 </r>
       <r>   -17.0218     0.0000     2.0000 </r>
       <r>   -16.9158     0.0000     2.0000 </r>
       <r>   -16.8099     0.0000     2.0000 </r>
       <r>   -16.7039     0.0000     2.0000 </r>
       <r>   -16.5980     0.0000     2.0000 </r>
       <r>   -16.4920     0.0000     2.0000 </r>
       <r>   -16.3861     0.0000     2.0000 </r>
       <r>   -16.2802     0.0000     2.0000 </r>
       <r>   -16.1742     0.0000     2.0000 </r>
       <r>   -16.0683     0.0000     2.0000 </r>
       <r>   -15.9623     0.0000     2.0000 </r>
       <r>   -15.8564     0.0000     2.0000 </r>
       <r>   -15.7504     0.0000     2.0000 </r>
       <r>   -15.6445     0.0000     2.0000 </r>
       <r>   -15.5386     0.0000     2.0000 </r>
       <r>   -15.4326     0.0000     2.0000 </r>
       <r>   -15.3267     0.0000     2.0000 </r>
       <r>   -15.2207     0.0000     2.0000 </r>
       <r>   -15.1148     0.0000     2.0000 </r>
       <r>   -15.0088     0.0000     2.0000 </r>
       <r>   -14.9029     0.0000     2.0000 </r>
       <r>   -14.7970     0.0000     2.0000 </r>
       <r>   -14.6910     0.0000     2.0000 </r>
       <r>   -14.5851     0.0000     2.0000 </r>
       <r>   -14.4791     0.0000     2.0000 </r>
       <r>   -14.3732     0.0000     2.0000 </r>
       <r>   -14.2672     0.0000     2.0000 </r>
       <r>   -14.1613     0.0001     2.0000 </r>
       <r>   -14.0554     0.0012     2.0001 </r>
       <r>   -13.9494     0.0143     2.0016 </r>
       <r>   -13.8435     0.0597     2.0080 </r>
       <r>   -13.7375    -0.0729     2.0003 </r>
       <r>   -13.6316    -0.7589     1.9198 </r>
       <r>   -13.5256     0.6785     1.9917 </r>
       <r>   -13.4197     7.2443     2.7592 </r>
       <r>   -13.3138     9.5437     3.7703 </r>
       <r>   -13.2078     3.1414     4.1031 </r>
       <r>   -13.1019    -0.7306     4.0257 </r>
       <r>   -12.9959    -0.3357     3.9901 </r>
       <r>   -12.8900     0.0577     3.9963 </r>
       <r>   -12.7840     0.0311     3.9996 </r>
       <r>   -12.6781     0.0039     4.0000 </r>
       <r>   -12.5722     0.0002     4.0000 </r>
       <r>   -12.4662     0.0000     4.0000 </r>
       <r>   -12.3603     0.0000     4.0000 </r>
       <r>   -12.2543     0.0000     4.0000 </r>
       <r>   -12.1484     0.0000     4.0000 </r>
       <r>   -12.0424     0.0000     4.0000 </r>
       <r>   -11.9365     0.0001     4.0000 </r>
       <r>   -11.8306     0.0014     4.0002 </r>
       <r>   -11.7246     0.0159     4.0018 </r>
       <r>   -11.6187     0.0627     4.0085 </r>
       <r>   -11.5127    -0.0829     3.9997 </r>
       <r>   -11.4068    -0.7247     3.9229 </r>
       <r>   -11.3008     0.8486     4.0128 </r>
       <r>   -11.1949     6.8459     4.7381 </r>
       <r>   -11.0890     9.9677     5.7941 </r>
       <r>   -10.9830     9.9604     6.8493 </r>
       <r>   -10.8771     8.8521     7.7872 </r>
       <r>   -10.7711     2.4174     8.0433 </r>
       <r>   -10.6652    -0.9778     7.9397 </r>
       <r>   -10.5592     4.7138     8.4391 </r>
       <r>   -10.4533    10.0799     9.5070 </r>
       <r>   -10.3474     5.3800    10.0769 </r>
       <r>   -10.2414    -0.2170    10.0539 </r>
       <r>   -10.1355    -0.5785     9.9927 </r>
       <r>   -10.0295     0.0136     9.9941 </r>
       <r>    -9.9236     0.0471     9.9991 </r>
       <r>    -9.8176     0.0081     9.9999 </r>
       <r>    -9.7117     0.0006    10.0000 </r>
       <r>    -9.6058     0.0000    10.0000 </r>
       <r>    -9.4998     0.0000    10.0000 </r>
       <r>    -9.3939     0.0000    10.0000 </r>
       <r>    -9.2879     0.0000    10.0000 </r>
       <r>    -9.1820     0.0000    10.0000 </r>
       <r>    -9.0760     0.0000    10.0000 </r>
       <r>    -8.9701     0.0000    10.0000 </r>
       <r>    -8.8642     0.0000    10.0000 </r>
       <r>    -8.7582     0.0000    10.0000 </r>
       <r>    -8.6523     0.0000    10.0000 </r>
       <r>    -8.5463     0.0000    10.0000 </r>
       <r>    -8.4404     0.0000    10.0000 </r>
       <r>    -8.3344     0.0000    10.0000 </r>
       <r>    -8.2285     0.0000    10.0000 </r>
       <r>    -8.1226     0.0000    10.0000 </r>
       <r>    -8.0166     0.0000    10.0000 </r>
       <r>    -7.9107     0.0000    10.0000 </r>
       <r>    -7.8047     0.0000    10.0000 </r>
       <r>    -7.6988     0.0000    10.0000 </r>
       <r>    -7.5928     0.0000    10.0000 </r>
       <r>    -7.4869     0.0000    10.0000 </r>
       <r>    -7.3810     0.0002    10.0000 </r>
       <r>    -7.2750     0.0043    10.0005 </r>
       <r>    -7.1691     0.0330    10.0040 </r>
       <r>    -7.0631     0.0549    10.0098 </r>
       <r>    -6.9572    -0.3617     9.9715 </r>
       <r>    -6.8512    -0.6659     9.9009 </r>
       <r>    -6.7453     3.5185    10.2737 </r>
       <r>    -6.6394     9.6167    11.2925 </r>
       <r>    -6.5334     5.8651    11.9139 </r>
       <r>    -6.4275     0.6068    11.9782 </r>
       <r>    -6.3215    10.4758    13.0880 </r>
       <r>    -6.2156    30.2753    16.2955 </r>
       <r>    -6.1096    36.0569    20.1154 </r>
       <r>    -6.0037    17.1488    21.9322 </r>
       <r>    -5.8978    13.0706    23.3170 </r>
       <r>    -5.7918    43.4001    27.9149 </r>
       <r>    -5.6859    92.4125    37.7053 </r>
       <r>    -5.5799   182.8930    57.0816 </r>
       <r>    -5.4740   280.1291    86.7593 </r>
       <r>    -5.3680   272.9702   115.6785 </r>
       <r>    -5.2621   210.5428   137.9841 </r>
       <r>    -5.1562   233.7943   162.7529 </r>
       <r>    -5.0502   326.2262   197.3143 </r>
       <r>    -4.9443   357.4108   235.1794 </r>
       <r>    -4.8383   299.3948   266.8982 </r>
       <r>    -4.7324   301.3926   298.8286 </r>
       <r>    -4.6264   396.4076   340.8252 </r>
       <r>    -4.5205   431.0042   386.4870 </r>
       <r>    -4.4146   439.2740   433.0250 </r>
       <r>    -4.3086   533.1576   489.5093 </r>
       <r>    -4.2027   528.8871   545.5411 </r>
       <r>    -4.0967   285.4636   575.7840 </r>
       <r>    -3.9908    49.7250   581.0520 </r>
       <r>    -3.8848     5.2738   581.6107 </r>
       <r>    -3.7789    32.1812   585.0201 </r>
       <r>    -3.6730    24.1735   587.5811 </r>
       <r>    -3.5670    12.9612   588.9542 </r>
       <r>    -3.4611    20.7076   591.1481 </r>
       <r>    -3.3551    18.1536   593.0713 </r>
       <r>    -3.2492     4.3901   593.5364 </r>
       <r>    -3.1432    15.2287   595.1498 </r>
       <r>    -3.0373    51.4972   600.6056 </r>
       <r>    -2.9314    54.2801   606.3562 </r>
       <r>    -2.8254    23.2662   608.8210 </r>
       <r>    -2.7195     7.1421   609.5777 </r>
       <r>    -2.6135    15.8582   611.2577 </r>
       <r>    -2.5076    28.0246   614.2268 </r>
       <r>    -2.4016    18.9958   616.2392 </r>
       <r>    -2.2957     7.0933   616.9907 </r>
       <r>    -2.1898    14.0682   618.4811 </r>
       <r>    -2.0838    36.5854   622.3571 </r>
       <r>    -1.9779    47.8931   627.4310 </r>
       <r>    -1.8719    34.3513   631.0703 </r>
       <r>    -1.7660    27.8573   634.0216 </r>
       <r>    -1.6600    47.9051   639.0968 </r>
       <r>    -1.5541    49.8699   644.3802 </r>
       <r>    -1.4482    20.9509   646.5998 </r>
       <r>    -1.3422     9.3720   647.5927 </r>
       <r>    -1.2363    17.4548   649.4419 </r>
       <r>    -1.1303    26.7721   652.2782 </r>
       <r>    -1.0244    46.1646   657.1690 </r>
       <r>    -0.9184    66.3145   664.1945 </r>
       <r>    -0.8125    48.8963   669.3748 </r>
       <r>    -0.7066    17.8253   671.2632 </r>
       <r>    -0.6006     6.0642   671.9057 </r>
       <r>    -0.4947     1.4397   672.0582 </r>
       <r>    -0.3887    -0.5421   672.0008 </r>
       <r>    -0.2828    -0.1242   671.9876 </r>
       <r>    -0.1768     0.0851   671.9966 </r>
       <r>    -0.0709     0.0284   671.9996 </r>
       <r>     0.0350     0.0032   672.0000 </r>
       <r>     0.1410     0.0002   672.0000 </r>
       <r>     0.2469     0.0000   672.0000 </r>
       <r>     0.3529     0.0000   672.0000 </r>
       <r>     0.4588     0.0000   672.0000 </r>
       <r>     0.5648     0.0000   672.0000 </r>
       <r>     0.6707     0.0000   672.0000 </r>
       <r>     0.7766     0.0000   672.0000 </r>
       <r>     0.8826     0.0000   672.0000 </r>
       <r>     0.9885     0.0000   672.0000 </r>
       <r>     1.0945     0.0000   672.0000 </r>
       <r>     1.2004     0.0000   672.0000 </r>
       <r>     1.3064     0.0000   672.0000 </r>
      </set>
     </set>
    </array>
   </total>
  </dos>
 </calculation>
 <structure name="finalpos" >
  <crystal>
   <varray name="basis" >
    <v>      30.00000000       0.00000000       0.00000000 </v>
    <v>       0.00000000      30.00000000       0.00000000 </v>
    <v>       0.00000000       0.00000000      30.00000000 </v>
   </varray>
   <i name="volume">  27000.00000000 </i>
   <varray name="rec_basis" >
    <v>       0.03333333       0.00000000       0.00000000 </v>
    <v>       0.00000000       0.03333333       0.00000000 </v>
    <v>       0.00000000       0.00000000       0.03333333 </v>
   </varray>
  </crystal>
  <varray name="positions" >
   <v>       0.44576020       0.32826710       0.41691983 </v>
   <v>       0.67173288       0.55423978       0.41691983 </v>
   <v>       0.55423980       0.32826710       0.41691983 </v>
   <v>       0.32826712       0.55423978       0.41691983 </v>
   <v>       0.50000000       0.38250690       0.34021317 </v>
   <v>       0.50000000       0.38250690       0.65978680 </v>
   <v>       0.50000000       0.27609440       0.50000000 </v>
   <v>       0.27609443       0.49999998       0.50000000 </v>
   <v>       0.72390557       0.49999998       0.50000000 </v>
   <v>       0.50000000       0.72390555       0.50000000 </v>
   <v>       0.61195280       0.38804720       0.34167483 </v>
   <v>       0.61195280       0.38804720       0.65832513 </v>
   <v>       0.38804722       0.61195278       0.34167483 </v>
   <v>       0.38804722       0.61195278       0.65832513 </v>
   <v>       0.38804720       0.38804720       0.34167483 </v>
   <v>       0.38804720       0.38804720       0.65832513 </v>
   <v>       0.61195278       0.61195278       0.34167483 </v>
   <v>       0.61195278       0.61195278       0.65832513 </v>
   <v>       0.44576020       0.32826710       0.58308023 </v>
   <v>       0.67173288       0.55423978       0.58308023 </v>
   <v>       0.55791699       0.44208301       0.41809300 </v>
   <v>       0.32826705       0.44576024       0.41691983 </v>
   <v>       0.55423973       0.67173293       0.41691983 </v>
   <v>       0.55423980       0.32826710       0.58308023 </v>
   <v>       0.32826712       0.55423978       0.58308023 </v>
   <v>       0.67173295       0.44576024       0.41691983 </v>
   <v>       0.44576027       0.67173293       0.41691983 </v>
   <v>       0.44208301       0.44208301       0.41809300 </v>
   <v>       0.50000000       0.38416601       0.50000000 </v>
   <v>       0.61749315       0.50000005       0.34021317 </v>
   <v>       0.61749315       0.50000005       0.65978680 </v>
   <v>       0.38250685       0.50000005       0.34021317 </v>
   <v>       0.38250685       0.50000005       0.65978680 </v>
   <v>       0.38317830       0.38317830       0.50000000 </v>
   <v>       0.61682172       0.61682172       0.50000000 </v>
   <v>       0.61682170       0.38317830       0.50000000 </v>
   <v>       0.38317828       0.61682172       0.50000000 </v>
   <v>       0.50000000       0.50000000       0.33478917 </v>
   <v>       0.50000000       0.50000000       0.66521087 </v>
   <v>       0.32826705       0.44576024       0.58308023 </v>
   <v>       0.55423973       0.67173293       0.58308023 </v>
   <v>       0.55791699       0.44208301       0.58190703 </v>
   <v>       0.44208298       0.55791702       0.41809300 </v>
   <v>       0.44208301       0.44208301       0.58190703 </v>
   <v>       0.67173295       0.44576024       0.58308023 </v>
   <v>       0.44576027       0.67173293       0.58308023 </v>
   <v>       0.55791702       0.55791702       0.41809300 </v>
   <v>       0.38416599       0.50000002       0.50000000 </v>
   <v>       0.61583401       0.50000002       0.50000000 </v>
   <v>       0.50000000       0.61749319       0.34021317 </v>
   <v>       0.50000000       0.61749319       0.65978680 </v>
   <v>       0.50000000       0.50000000       0.50000000 </v>
   <v>       0.44208298       0.55791702       0.58190703 </v>
   <v>       0.55791702       0.55791702       0.58190703 </v>
   <v>       0.50000000       0.61583404       0.50000000 </v>
   <v>       0.51407073       0.67911870       0.67079527 </v>
   <v>       0.51620493       0.70628680       0.69670087 </v>
  </varray>
  <varray name="selective"  type="logical" >
   <v type="logical" >  F  F  F </v>
   <v type="logical" >  F  F  F </v>
   <v type="logical" >  F  F  F </v>
   <v type="logical" >  F  F  F </v>
   <v type="logical" >  F  F  F </v>
   <v type="logical" >  F  F  F </v>
   <v type="logical" >  F  F  F </v>
   <v type="logical" >  F  F  F </v>
   <v type="logical" >  F  F  F </v>
   <v type="logical" >  F  F  F </v>
   <v type="logical" >  F  F  F </v>
   <v type="logical" >  F  F  F </v>
   <v type="logical" >  F  F  F </v>
   <v type="logical" >  F  F  F </v>
   <v type="logical" >  F  F  F </v>
   <v type="logical" >  F  F  F </v>
   <v type="logical" >  F  F  F </v>
   <v type="logical" >  F  F  F </v>
   <v type="logical" >  F  F  F </v>
   <v type="logical" >  F  F  F </v>
   <v type="logical" >  F  F  F </v>
   <v type="logical" >  F  F  F </v>
   <v type="logical" >  F  F  F </v>
   <v type="logical" >  F  F  F </v>
   <v type="logical" >  F  F  F </v>
   <v type="logical" >  F  F  F </v>
   <v type="logical" >  F  F  F </v>
   <v type="logical" >  F  F  F </v>
   <v type="logical" >  F  F  F </v>
   <v type="logical" >  F  F  F </v>
   <v type="logical" >  F  F  F </v>
   <v type="logical" >  F  F  F </v>
   <v type="logical" >  F  F  F </v>
   <v type="logical" >  F  F  F </v>
   <v type="logical" >  F  F  F </v>
   <v type="logical" >  F  F  F </v>
   <v type="logical" >  F  F  F </v>
   <v type="logical" >  F  F  F </v>
   <v type="logical" >  F  F  F </v>
   <v type="logical" >  F  F  F </v>
   <v type="logical" >  F  F  F </v>
   <v type="logical" >  F  F  F </v>
   <v type="logical" >  F  F  F </v>
   <v type="logical" >  F  F  F </v>
   <v type="logical" >  F  F  F </v>
   <v type="logical" >  F  F  F </v>
   <v type="logical" >  F  F  F </v>
   <v type="logical" >  F  F  F </v>
   <v type="logical" >  F  F  F </v>
   <v type="logical" >  F  F  F </v>
   <v type="logical" >  F  F  F </v>
   <v type="logical" >  F  F  F </v>
   <v type="logical" >  F  F  F </v>
   <v type="logical" >  F  F  F </v>
   <v type="logical" >  F  F  F </v>
   <v type="logical" >  F  F  F </v>
   <v type="logical" >  F  F  F </v>
  </varray>
  <nose>
   <v>      -3.00000000       0.00000000       0.00010000       0.00010000 </v>
  </nose>
 </structure>
</modeling>
