   57   57    1    1
  0.4736842E+03  0.3000000E-08  0.3000000E-08  0.3000000E-08  0.5000000E-15
  1.000000000000000E-004
  CAR 
 6_Pd100_top_free_z(O)                   
    560      1    336
 
  0.0000000E+00  0.0000000E+00  0.0000000E+00  0.1000000E+01
    1      -28.060721   1.000000
    2      -13.657787   1.000000
    3      -11.336263   1.000000
    4      -10.906651   1.000000
    5      -10.730048   1.000000
    6       -6.842966   1.000000
    7       -6.800443   1.000000
    8       -6.659699   1.000000
    9       -6.268804   1.000000
   10       -6.163788   1.000000
   11       -6.142094   1.000000
   12       -6.028579   1.000000
   13       -6.008659   1.000000
   14       -5.934076   1.000000
   15       -5.827706   1.000000
   16       -5.798067   1.000000
   17       -5.779190   1.000000
   18       -5.740098   1.000000
   19       -5.707685   1.000000
   20       -5.700058   1.000000
   21       -5.692957   1.000000
   22       -5.658004   1.000000
   23       -5.642763   1.000000
   24       -5.628894   1.000000
   25       -5.626298   1.000000
   26       -5.610097   1.000000
   27       -5.600676   1.000000
   28       -5.598612   1.000000
   29       -5.568783   1.000000
   30       -5.564668   1.000000
   31       -5.561847   1.000000
   32       -5.550342   1.000000
   33       -5.539048   1.000000
   34       -5.535576   1.000000
   35       -5.532837   1.000000
   36       -5.529549   1.000000
   37       -5.528205   1.000000
   38       -5.517472   1.000000
   39       -5.511268   1.000000
   40       -5.508033   1.000000
   41       -5.491143   1.000000
   42       -5.489629   1.000000
   43       -5.487117   1.000000
   44       -5.484022   1.000000
   45       -5.482317   1.000000
   46       -5.479599   1.000000
   47       -5.463684   1.000000
   48       -5.455421   1.000000
   49       -5.447235   1.000000
   50       -5.445312   1.000000
   51       -5.442192   1.000000
   52       -5.436732   1.000000
   53       -5.425374   1.000000
   54       -5.421877   1.000000
   55       -5.419316   1.000000
   56       -5.418335   1.000000
   57       -5.409187   1.000000
   58       -5.392932   1.000000
   59       -5.362521   1.000000
   60       -5.352380   1.000000
   61       -5.347957   1.000000
   62       -5.341669   1.000000
   63       -5.331989   1.000000
   64       -5.331720   1.000000
   65       -5.324831   1.000000
   66       -5.317427   1.000000
   67       -5.313817   1.000000
   68       -5.313420   1.000000
   69       -5.305502   1.000000
   70       -5.301841   1.000000
   71       -5.250261   1.000000
   72       -5.243288   1.000000
   73       -5.220892   1.000000
   74       -5.216001   1.000000
   75       -5.213026   1.000000
   76       -5.205479   1.000000
   77       -5.193495   1.000000
   78       -5.192660   1.000000
   79       -5.191378   1.000000
   80       -5.182143   1.000000
   81       -5.180299   1.000000
   82       -5.176887   1.000000
   83       -5.165709   1.000000
   84       -5.159822   1.000000
   85       -5.152085   1.000000
   86       -5.142295   1.000000
   87       -5.133652   1.000000
   88       -5.122100   1.000000
   89       -5.117492   1.000000
   90       -5.102503   1.000000
   91       -5.096473   1.000000
   92       -5.080742   1.000000
   93       -5.070547   1.000000
   94       -5.069286   1.000000
   95       -5.067167   1.000000
   96       -5.066046   1.000000
   97       -5.064848   1.000000
   98       -5.054818   1.000000
   99       -5.051904   1.000000
  100       -5.049685   1.000000
  101       -5.046271   1.000000
  102       -5.042420   1.000000
  103       -5.033374   1.000000
  104       -5.024573   1.000000
  105       -5.020341   1.000000
  106       -5.018775   1.000000
  107       -5.013864   1.000000
  108       -5.010730   1.000000
  109       -5.006207   1.000000
  110       -4.998301   1.000000
  111       -4.995837   1.000000
  112       -4.989438   1.000000
  113       -4.980140   1.000000
  114       -4.977730   0.999999
  115       -4.973925   0.999999
  116       -4.969147   0.999999
  117       -4.961864   0.999999
  118       -4.954825   0.999999
  119       -4.952629   0.999999
  120       -4.942568   0.999998
  121       -4.930453   0.999997
  122       -4.927111   0.999997
  123       -4.924148   0.999997
  124       -4.922585   0.999996
  125       -4.918255   0.999996
  126       -4.915968   0.999996
  127       -4.908074   0.999994
  128       -4.901644   0.999993
  129       -4.874374   0.999984
  130       -4.862253   0.999977
  131       -4.861923   0.999976
  132       -4.858132   0.999974
  133       -4.855354   0.999971
  134       -4.849913   0.999967
  135       -4.846960   0.999964
  136       -4.838305   0.999953
  137       -4.823057   0.999929
  138       -4.821080   0.999925
  139       -4.811167   0.999903
  140       -4.803951   0.999883
  141       -4.797445   0.999862
  142       -4.784190   0.999808
  143       -4.779439   0.999784
  144       -4.767427   0.999713
  145       -4.760377   0.999662
  146       -4.757725   0.999641
  147       -4.753592   0.999606
  148       -4.748023   0.999554
  149       -4.738698   0.999455
  150       -4.719439   0.999191
  151       -4.717949   0.999167
  152       -4.708503   0.999000
  153       -4.702443   0.998880
  154       -4.697405   0.998773
  155       -4.693473   0.998683
  156       -4.689358   0.998585
  157       -4.685197   0.998481
  158       -4.682117   0.998400
  159       -4.680650   0.998360
  160       -4.679410   0.998326
  161       -4.674145   0.998177
  162       -4.669896   0.998051
  163       -4.664026   0.997868
  164       -4.661625   0.997791
  165       -4.659581   0.997723
  166       -4.658851   0.997699
  167       -4.658180   0.997677
  168       -4.656339   0.997615
  169       -4.652006   0.997465
  170       -4.645514   0.997235
  171       -4.633871   0.996804
  172       -4.624169   0.996439
  173       -4.619615   0.996270
  174       -4.617360   0.996187
  175       -4.614782   0.996093
  176       -4.610589   0.995944
  177       -4.609456   0.995905
  178       -4.603512   0.995706
  179       -4.601603   0.995645
  180       -4.595681   0.995470
  181       -4.588579   0.995292
  182       -4.587558   0.995270
  183       -4.585430   0.995227
  184       -4.576103   0.995093
  185       -4.573361   0.995074
  186       -4.570206   0.995065
  187       -4.568772   0.995066
  188       -4.563988   0.995092
  189       -4.561956   0.995115
  190       -4.558920   0.995164
  191       -4.555584   0.995239
  192       -4.541526   0.995828
  193       -4.524873   0.997232
  194       -4.522135   0.997549
  195       -4.520363   0.997769
  196       -4.514876   0.998522
  197       -4.509726   0.999334
  198       -4.508049   0.999621
  199       -4.496144   1.002001
  200       -4.491821   1.003018
  201       -4.490403   1.003369
  202       -4.484531   1.004923
  203       -4.477882   1.006873
  204       -4.473621   1.008228
  205       -4.469746   1.009532
  206       -4.465993   1.010858
  207       -4.464089   1.011555
  208       -4.460197   1.013025
  209       -4.457331   1.014148
  210       -4.451276   1.016626
  211       -4.441489   1.020898
  212       -4.439487   1.021807
  213       -4.437551   1.022697
  214       -4.427656   1.027356
  215       -4.425677   1.028304
  216       -4.420723   1.030688
  217       -4.420130   1.030973
  218       -4.419593   1.031232
  219       -4.417272   1.032348
  220       -4.412941   1.034421
  221       -4.399663   1.040526
  222       -4.390398   1.044356
  223       -4.383966   1.046684
  224       -4.378700   1.048328
  225       -4.370639   1.050284
  226       -4.362880   1.051388
  227       -4.360386   1.051556
  228       -4.354660   1.051554
  229       -4.350787   1.051221
  230       -4.349215   1.051004
  231       -4.348278   1.050852
  232       -4.347459   1.050704
  233       -4.346552   1.050524
  234       -4.341028   1.049049
  235       -4.340883   1.049001
  236       -4.339256   1.048431
  237       -4.337951   1.047929
  238       -4.336729   1.047423
  239       -4.333182   1.045746
  240       -4.325804   1.041217
  241       -4.323574   1.039555
  242       -4.322416   1.038637
  243       -4.308506   1.024439
  244       -4.306973   1.022498
  245       -4.304715   1.019497
  246       -4.303426   1.017706
  247       -4.299149   1.011353
  248       -4.296761   1.007527
  249       -4.291542   0.998454
  250       -4.287897   0.991526
  251       -4.283871   0.983299
  252       -4.279310   0.973237
  253       -4.278541   0.971464
  254       -4.275519   0.964270
  255       -4.273091   0.958235
  256       -4.268314   0.945696
  257       -4.266616   0.941027
  258       -4.263337   0.931691
  259       -4.261061   0.924968
  260       -4.260397   0.922968
  261       -4.258759   0.917962
  262       -4.257375   0.913654
  263       -4.253441   0.901001
  264       -4.253357   0.900726
  265       -4.251563   0.894756
  266       -4.241484   0.858985
  267       -4.240135   0.853913
  268       -4.239639   0.852036
  269       -4.234229   0.830965
  270       -4.232991   0.826002
  271       -4.230234   0.814765
  272       -4.220677   0.773920
  273       -4.213595   0.741893
  274       -4.207527   0.713387
  275       -4.199772   0.675699
  276       -4.196422   0.659032
  277       -4.194298   0.648359
  278       -4.189978   0.626422
  279       -4.189586   0.624419
  280       -4.186742   0.609807
  281       -4.175012   0.548625
  282       -4.156697   0.451910
  283       -4.149444   0.413920
  284       -4.147253   0.402534
  285       -4.144489   0.388249
  286       -4.141741   0.374145
  287       -4.133380   0.331958
  288       -4.130976   0.320063
  289       -4.126610   0.298757
  290       -3.976808  -0.051561
  291       -3.851577  -0.006221
  292       -3.848196  -0.005237
  293       -3.829777  -0.000789
  294       -3.677020   0.002445
  295       -3.528092   0.000118
  296       -3.507102   0.000068
  297       -3.304081   0.000000
  298       -3.100587   0.000000
  299       -3.075601   0.000000
  300       -3.073206   0.000000
  301       -3.046407   0.000000
  302       -3.041636   0.000000
  303       -2.960067   0.000000
  304       -2.954732   0.000000
  305       -2.683525   0.000000
  306       -2.606435   0.000000
  307       -2.545029   0.000000
  308       -2.532519   0.000000
  309       -2.280218   0.000000
  310       -2.128295   0.000000
  311       -2.125970   0.000000
  312       -2.086203   0.000000
  313       -2.024356   0.000000
  314       -1.997772   0.000000
  315       -1.938234   0.000000
  316       -1.893342   0.000000
  317       -1.816134   0.000000
  318       -1.688155   0.000000
  319       -1.661649   0.000000
  320       -1.655203   0.000000
  321       -1.604307   0.000000
  322       -1.601437   0.000000
  323       -1.566175   0.000000
  324       -1.356332   0.000000
  325       -1.260996   0.000000
  326       -1.119853   0.000000
  327       -1.074751   0.000000
  328       -1.007656   0.000000
  329       -0.992475   0.000000
  330       -0.978479   0.000000
  331       -0.957692   0.000000
  332       -0.940328   0.000000
  333       -0.935216   0.000000
  334       -0.881432   0.000000
  335       -0.837443   0.000000
  336       -0.786080   0.000000
