<?xml version="1.0" encoding="ISO-8859-1"?>
<modeling>
 <generator>
  <i name="program" type="string">vasp </i>
  <i name="version" type="string">5.4.4.18Apr17-6-g9f103f2a35  </i>
  <i name="subversion" type="string">(build Sep 03 2018 23:53:05) complex            parallel </i>
  <i name="platform" type="string">LinuxIFC </i>
  <i name="date" type="string">2021 12 02 </i>
  <i name="time" type="string">01:23:34 </i>
 </generator>
 <incar>
  <i type="string" name="SYSTEM"> 6_Pd100_top_free_z(O)</i>
  <i type="int" name="ISTART">     0</i>
  <i type="string" name="PREC">normal   			! encut=max(enmax), ngx,y,z</i>
  <i type="string" name="ALGO"> Fast     			! Mix RMM-DIIS and Dav</i>
  <i type="logical" name="ADDGRID"> F  </i>
  <i type="int" name="ISPIN">     1</i>
  <i type="int" name="ICHARG">     2</i>
  <i type="int" name="NELM">   100</i>
  <i type="int" name="NELMIN">     6</i>
  <i type="int" name="IBRION">     2</i>
  <i name="EDIFF">      0.00010000</i>
  <i name="EDIFFG">     -0.05000000</i>
  <i type="int" name="NSW">     0</i>
  <i type="int" name="ISIF">     2</i>
  <i type="int" name="ISYM">     2</i>
  <i name="ENCUT">    400.00000000</i>
  <i type="string" name="LREAL"> Auto     			! Auto or A projection done</i>
  <i type="int" name="ISMEAR">     2</i>
  <i name="SIGMA">      0.20000000</i>
  <i type="logical" name="LWAVE"> F  </i>
  <i type="logical" name="LCHARG"> F  </i>
  <v type="int" name="KPOINT_BSE">    -1     0     0     0</v>
  <i type="int" name="MAXMEM"> 10000</i>
  <i type="int" name="NELM">   100</i>
  <i type="string" name="GGA"> RP         			! Revised PBE</i>
 </incar>
 <structure name="primitive_cell" >
  <crystal>
   <varray name="basis" >
    <v>      30.00000000       0.00000000       0.00000000 </v>
    <v>       0.00000000      30.00000000       0.00000000 </v>
    <v>       0.00000000       0.00000000      30.00000000 </v>
   </varray>
   <i name="volume">  27000.00000000 </i>
   <varray name="rec_basis" >
    <v>       0.03333333       0.00000000       0.00000000 </v>
    <v>       0.00000000       0.03333333       0.00000000 </v>
    <v>       0.00000000       0.00000000       0.03333333 </v>
   </varray>
  </crystal>
  <varray name="positions" >
   <v>       0.44576020       0.32826710       0.41691983 </v>
   <v>      -0.44576020       0.32826710       0.41691983 </v>
   <v>      -0.50000000       0.38250690       0.34021317 </v>
   <v>      -0.50000000       0.27609440      -0.50000000 </v>
   <v>       0.38804720       0.38804720       0.34167483 </v>
   <v>      -0.50000000       0.38416601      -0.50000000 </v>
   <v>       0.44208300       0.44208300       0.41809300 </v>
   <v>       0.38317830       0.38317830      -0.50000000 </v>
   <v>      -0.44208300       0.44208300       0.41809300 </v>
   <v>       0.44576020       0.32826710      -0.41691977 </v>
   <v>       0.32826705       0.44576024       0.41691983 </v>
   <v>      -0.38804720       0.38804720       0.34167483 </v>
   <v>      -0.38317830       0.38317830      -0.50000000 </v>
   <v>      -0.50000000      -0.50000000       0.33478917 </v>
   <v>      -0.50000000      -0.50000000      -0.50000000 </v>
   <v>      -0.44576020       0.32826710      -0.41691977 </v>
   <v>       0.38250685      -0.49999995       0.34021317 </v>
   <v>       0.44208300       0.44208300      -0.41809297 </v>
   <v>       0.38416599      -0.49999998      -0.50000000 </v>
   <v>      -0.44208300       0.44208300      -0.41809297 </v>
   <v>       0.44208298      -0.44208298       0.41809300 </v>
   <v>       0.32826705       0.44576024      -0.41691977 </v>
   <v>      -0.50000000       0.38250690      -0.34021320 </v>
   <v>       0.32826712      -0.44576022       0.41691983 </v>
   <v>      -0.38250685      -0.49999995       0.34021317 </v>
   <v>      -0.32826705       0.44576024       0.41691983 </v>
   <v>       0.27609443       0.49999998      -0.50000000 </v>
   <v>       0.38804720       0.38804720      -0.34167487 </v>
   <v>      -0.38416599      -0.49999998      -0.50000000 </v>
   <v>      -0.44208298      -0.44208298       0.41809300 </v>
   <v>       0.44208298      -0.44208298      -0.41809297 </v>
   <v>      -0.38804720       0.38804720      -0.34167487 </v>
   <v>       0.38804722      -0.38804722       0.34167483 </v>
   <v>       0.38250685      -0.49999995      -0.34021320 </v>
   <v>       0.32826712      -0.44576022      -0.41691977 </v>
   <v>      -0.32826705       0.44576024      -0.41691977 </v>
   <v>       0.50000000      -0.38250681       0.34021317 </v>
   <v>      -0.50000000      -0.38416596      -0.50000000 </v>
   <v>      -0.44208298      -0.44208298      -0.41809297 </v>
   <v>      -0.50000000      -0.50000000      -0.33478913 </v>
   <v>       0.38317828      -0.38317828      -0.50000000 </v>
   <v>      -0.32826712      -0.44576022       0.41691983 </v>
   <v>      -0.27609443       0.49999998      -0.50000000 </v>
   <v>      -0.38804722      -0.38804722       0.34167483 </v>
   <v>      -0.38250685      -0.49999995      -0.34021320 </v>
   <v>       0.44576027      -0.32826707       0.41691983 </v>
   <v>      -0.38317828      -0.38317828      -0.50000000 </v>
   <v>      -0.31225517       0.46958197      -0.36786030 </v>
   <v>      -0.32826712      -0.44576022      -0.41691977 </v>
   <v>      -0.44576027      -0.32826707       0.41691983 </v>
   <v>       0.38804722      -0.38804722      -0.34167487 </v>
   <v>      -0.50000000      -0.38250681      -0.34021320 </v>
   <v>       0.44576027      -0.32826707      -0.41691977 </v>
   <v>      -0.28177380       0.46464343      -0.34640670 </v>
   <v>      -0.44576027      -0.32826707      -0.41691977 </v>
   <v>      -0.50000000      -0.27609445       0.50000000 </v>
   <v>      -0.38804722      -0.38804722      -0.34167487 </v>
  </varray>
 </structure>
 <varray name="primitive_index" >
  <v type="int" >        1 </v>
  <v type="int" >        3 </v>
  <v type="int" >        5 </v>
  <v type="int" >        7 </v>
  <v type="int" >       15 </v>
  <v type="int" >       29 </v>
  <v type="int" >       28 </v>
  <v type="int" >       34 </v>
  <v type="int" >       21 </v>
  <v type="int" >       19 </v>
  <v type="int" >       22 </v>
  <v type="int" >       11 </v>
  <v type="int" >       36 </v>
  <v type="int" >       38 </v>
  <v type="int" >       52 </v>
  <v type="int" >       24 </v>
  <v type="int" >       32 </v>
  <v type="int" >       44 </v>
  <v type="int" >       48 </v>
  <v type="int" >       42 </v>
  <v type="int" >       43 </v>
  <v type="int" >       40 </v>
  <v type="int" >        6 </v>
  <v type="int" >        4 </v>
  <v type="int" >       30 </v>
  <v type="int" >       26 </v>
  <v type="int" >        8 </v>
  <v type="int" >       16 </v>
  <v type="int" >       49 </v>
  <v type="int" >       47 </v>
  <v type="int" >       53 </v>
  <v type="int" >       12 </v>
  <v type="int" >       13 </v>
  <v type="int" >       33 </v>
  <v type="int" >       25 </v>
  <v type="int" >       45 </v>
  <v type="int" >       50 </v>
  <v type="int" >       55 </v>
  <v type="int" >       54 </v>
  <v type="int" >       39 </v>
  <v type="int" >       37 </v>
  <v type="int" >        2 </v>
  <v type="int" >        9 </v>
  <v type="int" >       17 </v>
  <v type="int" >       31 </v>
  <v type="int" >       27 </v>
  <v type="int" >       35 </v>
  <v type="int" >       56 </v>
  <v type="int" >       20 </v>
  <v type="int" >       23 </v>
  <v type="int" >       14 </v>
  <v type="int" >       51 </v>
  <v type="int" >       46 </v>
  <v type="int" >       57 </v>
  <v type="int" >       41 </v>
  <v type="int" >       10 </v>
  <v type="int" >       18 </v>
 </varray>
 <kpoints>
  <generation param="Monkhorst-Pack">
   <v type="int" name="divisions">       1        1        1 </v>
   <v name="usershift">      0.00000000       0.00000000       0.00000000 </v>
   <v name="genvec1">      1.00000000       0.00000000       0.00000000 </v>
   <v name="genvec2">      0.00000000       1.00000000       0.00000000 </v>
   <v name="genvec3">      0.00000000       0.00000000       1.00000000 </v>
   <v name="shift">      0.00000000       0.00000000       0.00000000 </v>
  </generation>
  <varray name="kpointlist" >
   <v>       0.00000000       0.00000000       0.00000000 </v>
  </varray>
  <varray name="weights" >
   <v>       1.00000000 </v>
  </varray>
 </kpoints>
 <parameters>
  <separator name="general" >
   <i type="string" name="SYSTEM">6_Pd100_top_free_z(O)</i>
   <i type="logical" name="LCOMPAT"> F  </i>
  </separator>
  <separator name="electronic" >
   <i type="string" name="PREC">normal</i>
   <i name="ENMAX">    400.00000000</i>
   <i name="ENAUG">    644.87300000</i>
   <i name="EDIFF">      0.00010000</i>
   <i type="int" name="IALGO">    68</i>
   <i type="int" name="IWAVPR">    10</i>
   <i type="int" name="NBANDS">   336</i>
   <i name="NELECT">    560.00000000</i>
   <i type="int" name="TURBO">     0</i>
   <i type="int" name="IRESTART">     0</i>
   <i type="int" name="NREBOOT">     0</i>
   <i type="int" name="NMIN">     0</i>
   <i name="EREF">      0.00000000</i>
   <separator name="electronic smearing" >
    <i type="int" name="ISMEAR">     2</i>
    <i name="SIGMA">      0.20000000</i>
    <i name="KSPACING">      0.50000000</i>
    <i type="logical" name="KGAMMA"> T  </i>
   </separator>
   <separator name="electronic projectors" >
    <i type="logical" name="LREAL"> T  </i>
    <v name="ROPT">     -0.00050000     -0.00050000     -0.00050000</v>
    <i type="int" name="LMAXPAW">  -100</i>
    <i type="int" name="LMAXMIX">     2</i>
    <i type="logical" name="NLSPLINE"> F  </i>
   </separator>
   <separator name="electronic startup" >
    <i type="int" name="ISTART">     0</i>
    <i type="int" name="ICHARG">     2</i>
    <i type="int" name="INIWAV">     1</i>
   </separator>
   <separator name="electronic spin" >
    <i type="int" name="ISPIN">     1</i>
    <i type="logical" name="LNONCOLLINEAR"> F  </i>
    <v name="MAGMOM">      1.00000000      1.00000000      1.00000000      1.00000000      1.00000000      1.00000000      1.00000000      1.00000000      1.00000000      1.00000000      1.00000000      1.00000000      1.00000000      1.00000000      1.00000000      1.00000000      1.00000000      1.00000000      1.00000000      1.00000000
      1.00000000      1.00000000      1.00000000      1.00000000      1.00000000      1.00000000      1.00000000      1.00000000      1.00000000      1.00000000      1.00000000      1.00000000      1.00000000      1.00000000      1.00000000      1.00000000      1.00000000      1.00000000      1.00000000      1.00000000
      1.00000000      1.00000000      1.00000000      1.00000000      1.00000000      1.00000000      1.00000000      1.00000000      1.00000000      1.00000000      1.00000000      1.00000000      1.00000000      1.00000000      1.00000000      1.00000000      1.00000000</v>
    <i name="NUPDOWN">     -1.00000000</i>
    <i type="logical" name="LSORBIT"> F  </i>
    <v name="SAXIS">      0.00000000      0.00000000      1.00000000</v>
    <i type="logical" name="LSPIRAL"> F  </i>
    <v name="QSPIRAL">      0.00000000      0.00000000      0.00000000</v>
    <i type="logical" name="LZEROZ"> F  </i>
   </separator>
   <separator name="electronic exchange-correlation" >
    <i type="logical" name="LASPH"> F  </i>
    <i type="logical" name="LMETAGGA"> F  </i>
   </separator>
   <separator name="electronic convergence" >
    <i type="int" name="NELM">   100</i>
    <i type="int" name="NELMDL">    -5</i>
    <i type="int" name="NELMIN">     6</i>
    <i name="ENINI">    400.00000000</i>
    <separator name="electronic convergence detail" >
     <i type="logical" name="LDIAG"> T  </i>
     <i type="logical" name="LSUBROT"> F  </i>
     <i name="WEIMIN">      0.00000000</i>
     <i name="EBREAK">      0.00000007</i>
     <i name="DEPER">      0.30000000</i>
     <i type="int" name="NRMM">     4</i>
     <i name="TIME">      0.40000000</i>
    </separator>
   </separator>
   <separator name="electronic mixer" >
    <i name="AMIX">      0.40000000</i>
    <i name="BMIX">      1.00000000</i>
    <i name="AMIN">      0.10000000</i>
    <i name="AMIX_MAG">      1.60000000</i>
    <i name="BMIX_MAG">      1.00000000</i>
    <separator name="electronic mixer details" >
     <i type="int" name="IMIX">     4</i>
     <i type="logical" name="MIXFIRST"> F  </i>
     <i type="int" name="MAXMIX">   -45</i>
     <i name="WC">    100.00000000</i>
     <i type="int" name="INIMIX">     1</i>
     <i type="int" name="MIXPRE">     1</i>
     <i type="int" name="MREMOVE">     5</i>
    </separator>
   </separator>
   <separator name="electronic dipolcorrection" >
    <i type="logical" name="LDIPOL"> F  </i>
    <i type="logical" name="LMONO"> F  </i>
    <i type="int" name="IDIPOL">     0</i>
    <i name="EPSILON">      1.00000000</i>
    <v name="DIPOL">   -100.00000000   -100.00000000   -100.00000000</v>
    <i name="EFIELD">      0.00000000</i>
   </separator>
  </separator>
  <separator name="grids" >
   <i type="int" name="NGX">   150</i>
   <i type="int" name="NGY">   150</i>
   <i type="int" name="NGZ">   150</i>
   <i type="int" name="NGXF">   300</i>
   <i type="int" name="NGYF">   300</i>
   <i type="int" name="NGZF">   300</i>
   <i type="logical" name="ADDGRID"> F  </i>
  </separator>
  <separator name="ionic" >
   <i type="int" name="NSW">     0</i>
   <i type="int" name="IBRION">    -1</i>
   <i type="int" name="MDALGO">     0</i>
   <i type="int" name="ISIF">     2</i>
   <i name="PSTRESS">      0.00000000</i>
   <i name="EDIFFG">     -0.05000000</i>
   <i type="int" name="NFREE">     1</i>
   <i name="POTIM">      0.50000000</i>
   <i name="SMASS">     -3.00000000</i>
   <i name="SCALEE">      1.00000000</i>
  </separator>
  <separator name="ionic md" >
   <i name="TEBEG">      0.00010000</i>
   <i name="TEEND">      0.00010000</i>
   <i type="int" name="NBLOCK">     1</i>
   <i type="int" name="KBLOCK">     1</i>
   <i type="int" name="NPACO">   256</i>
   <i name="APACO">     16.00000000</i>
  </separator>
  <separator name="symmetry" >
   <i type="int" name="ISYM">     2</i>
   <i name="SYMPREC">      0.00001000</i>
  </separator>
  <separator name="dos" >
   <i type="int" name="LORBIT">     0</i>
   <v name="RWIGS">     -1.00000000     -1.00000000     -1.00000000</v>
   <i type="int" name="NEDOS">   301</i>
   <i name="EMIN">     10.00000000</i>
   <i name="EMAX">    -10.00000000</i>
   <i name="EFERMI">      0.00000000</i>
  </separator>
  <separator name="writing" >
   <i type="int" name="NWRITE">     2</i>
   <i type="logical" name="LWAVE"> F  </i>
   <i type="logical" name="LDOWNSAMPLE"> F  </i>
   <i type="logical" name="LCHARG"> F  </i>
   <i type="logical" name="LPARD"> F  </i>
   <i type="logical" name="LVTOT"> F  </i>
   <i type="logical" name="LVHAR"> F  </i>
   <i type="logical" name="LELF"> F  </i>
   <i type="logical" name="LOPTICS"> F  </i>
   <v name="STM">      0.00000000      0.00000000      0.00000000      0.00000000      0.00000000      0.00000000      0.00000000</v>
  </separator>
  <separator name="performance" >
   <i type="int" name="NPAR">     1</i>
   <i type="int" name="NSIM">     4</i>
   <i type="int" name="NBLK">    -1</i>
   <i type="logical" name="LPLANE"> T  </i>
   <i type="logical" name="LSCALAPACK"> T  </i>
   <i type="logical" name="LSCAAWARE"> F  </i>
   <i type="logical" name="LSCALU"> F  </i>
   <i type="logical" name="LASYNC"> F  </i>
   <i type="logical" name="LORBITALREAL"> F  </i>
  </separator>
  <separator name="miscellaneous" >
   <i type="int" name="IDIOT">     3</i>
   <i type="int" name="ISPECIAL">     0</i>
   <i type="logical" name="LMUSIC"> F  </i>
   <v name="POMASS">    106.42000000     12.01100000     16.00000000</v>
   <v name="DARWINR">      0.00000000      0.00000000      0.00000000</v>
   <v name="DARWINV">      1.00000000      1.00000000      1.00000000</v>
   <i type="logical" name="LCORR"> T  </i>
  </separator>
  <i type="logical" name="GGA_COMPAT"> T  </i>
  <i type="logical" name="LBERRY"> F  </i>
  <i type="int" name="ICORELEVEL">     0</i>
  <i type="logical" name="LDAU"> F  </i>
  <i type="int" name="I_CONSTRAINED_M">     0</i>
  <separator name="electronic exchange-correlation" >
   <i type="string" name="GGA">RP</i>
   <i type="int" name="VOSKOWN">     0</i>
   <i type="logical" name="LHFCALC"> F  </i>
   <i type="string" name="PRECFOCK"></i>
   <i type="logical" name="LSYMGRAD"> F  </i>
   <i type="logical" name="LHFONE"> F  </i>
   <i type="logical" name="LRHFCALC"> F  </i>
   <i type="logical" name="LTHOMAS"> F  </i>
   <i type="logical" name="LMODELHF"> F  </i>
   <i name="ENCUT4O">     -1.00000000</i>
   <i type="int" name="EXXOEP">     0</i>
   <i type="int" name="FOURORBIT">     0</i>
   <i name="AEXX">      0.00000000</i>
   <i name="HFALPHA">      0.00000000</i>
   <i name="MCALPHA">      0.00000000</i>
   <i name="ALDAX">      1.00000000</i>
   <i name="AGGAX">      1.00000000</i>
   <i name="ALDAC">      1.00000000</i>
   <i name="AGGAC">      1.00000000</i>
   <i type="int" name="NKREDX">     1</i>
   <i type="int" name="NKREDY">     1</i>
   <i type="int" name="NKREDZ">     1</i>
   <i type="logical" name="SHIFTRED"> F  </i>
   <i type="logical" name="ODDONLY"> F  </i>
   <i type="logical" name="EVENONLY"> F  </i>
   <i type="int" name="LMAXFOCK">     0</i>
   <i type="int" name="NMAXFOCKAE">     0</i>
   <i type="logical" name="LFOCKAEDFT"> F  </i>
   <i name="HFSCREEN">      0.00000000</i>
   <i name="HFSCREENC">      0.00000000</i>
   <i type="int" name="NBANDSGWLOW">     0</i>
  </separator>
  <separator name="vdW DFT" >
   <i type="logical" name="LUSE_VDW"> F  </i>
   <i name="Zab_VDW">     -0.84910000</i>
   <i name="PARAM1">      0.12340000</i>
   <i name="PARAM2">      1.00000000</i>
   <i name="PARAM3">      0.00000000</i>
  </separator>
  <separator name="model GW" >
   <i type="int" name="MODEL_GW">     0</i>
   <i name="MODEL_EPS0">    284.21052632</i>
   <i name="MODEL_ALPHA">      1.00000000</i>
  </separator>
  <separator name="linear response parameters" >
   <i type="logical" name="LEPSILON"> F  </i>
   <i type="logical" name="LRPA"> F  </i>
   <i type="logical" name="LNABLA"> F  </i>
   <i type="logical" name="LVEL"> F  </i>
   <i type="int" name="KINTER">     0</i>
   <i name="CSHIFT">      0.10000000</i>
   <i name="OMEGAMAX">     -1.00000000</i>
   <i name="DEG_THRESHOLD">      0.00200000</i>
   <i name="RTIME">     -0.10000000</i>
   <i name="WPLASMAI">      0.00000000</i>
   <v name="DFIELD">      0.00000000      0.00000000      0.00000000</v>
   <v name="WPLASMA">      0.00000000      0.00000000      0.00000000      0.00000000      0.00000000      0.00000000      0.00000000      0.00000000      0.00000000</v>
  </separator>
  <separator name="orbital magnetization" >
   <i type="logical" name="NUCIND"> F  </i>
   <v name="MAGPOS">      0.00000000      0.00000000      0.00000000</v>
   <i type="logical" name="LNICSALL"> T  </i>
   <i type="logical" name="ORBITALMAG"> F  </i>
   <i type="logical" name="LMAGBLOCH"> F  </i>
   <i type="logical" name="LCHIMAG"> F  </i>
   <i type="logical" name="LGAUGE"> T  </i>
   <i type="int" name="MAGATOM">     0</i>
   <v name="MAGDIPOL">      0.00000000      0.00000000      0.00000000</v>
   <v name="AVECCONST">      0.00000000      0.00000000      0.00000000</v>
  </separator>
  <separator name="response functions" >
   <i type="logical" name="LADDER"> F  </i>
   <i type="logical" name="LRPAFORCE"> F  </i>
   <i type="logical" name="LFXC"> F  </i>
   <i type="logical" name="LHARTREE"> T  </i>
   <i type="int" name="IBSE">     0</i>
   <v type="int" name="KPOINT">    -1     0     0     0</v>
   <i type="logical" name="LTCTE"> F  </i>
   <i type="logical" name="LTETE"> F  </i>
   <i type="logical" name="LTRIPLET"> F  </i>
   <i type="logical" name="LFXCEPS"> F  </i>
   <i type="logical" name="LFXHEG"> F  </i>
   <i type="int" name="NATURALO">     2</i>
   <i type="logical" name="L2ORDER"> F  </i>
   <i type="logical" name="LMP2LT"> F  </i>
   <i type="logical" name="LUSEW"> F  </i>
   <i name="ENCUTGW">     -2.00000000</i>
   <i name="ENCUTGWSOFT">     -2.00000000</i>
   <i name="ENCUTLF">     -1.00000000</i>
   <i type="int" name="LMAXMP2">    -1</i>
   <i name="SCISSOR">      0.00000000</i>
   <i type="int" name="NOMEGA">     0</i>
   <i type="int" name="NOMEGAR">     0</i>
   <i type="int" name="NBANDSGW">    -1</i>
   <i type="int" name="NBANDSO">    -1</i>
   <i type="int" name="NBANDSV">    -1</i>
   <i type="int" name="NELM">   100</i>
   <i type="int" name="NELMHF">     1</i>
   <i type="int" name="DIM">     3</i>
   <i type="int" name="ANTIRES">     0</i>
   <i name="OMEGAMAX">    -30.00000000</i>
   <i name="OMEGAMIN">    -30.00000000</i>
   <i name="OMEGATL">   -200.00000000</i>
   <i type="int" name="OMEGAGRID">   140</i>
   <i name="CSHIFT">     -0.10000000</i>
   <i type="logical" name="SELFENERGY"> F  </i>
   <i type="logical" name="LSPECTRAL"> F  </i>
   <i type="logical" name="LSPECTRALGW"> F  </i>
   <i type="logical" name="LSINGLES"> F  </i>
   <i type="logical" name="LFERMIGW"> F  </i>
   <i type="logical" name="ODDONLYGW"> F  </i>
   <i type="logical" name="EVENONLYGW"> F  </i>
   <i type="int" name="NKREDLFX">     1</i>
   <i type="int" name="NKREDLFY">     1</i>
   <i type="int" name="NKREDLFZ">     1</i>
   <i type="int" name="MAXMEM"> 10000</i>
   <i type="int" name="TELESCOPE">     0</i>
   <i type="int" name="TAUPAR">     1</i>
   <i type="int" name="OMEGAPAR">    -1</i>
   <i name="LAMBDA">      1.00000000</i>
  </separator>
  <separator name="External order field" >
   <i name="OFIELD_KAPPA">      0.00000000</i>
   <v name="OFIELD_K">      0.00000000      0.00000000      0.00000000</v>
   <i name="OFIELD_Q6_NEAR">      0.00000000</i>
   <i name="OFIELD_Q6_FAR">      0.00000000</i>
   <i name="OFIELD_A">      0.00000000</i>
  </separator>
 </parameters>
 <atominfo>
  <atoms>      57 </atoms>
  <types>       3 </types>
  <array name="atoms" >
   <dimension dim="1">ion</dimension>
   <field type="string">element</field>
   <field type="int">atomtype</field>
   <set>
    <rc><c>Pd</c><c>   1</c></rc>
    <rc><c>Pd</c><c>   1</c></rc>
    <rc><c>Pd</c><c>   1</c></rc>
    <rc><c>Pd</c><c>   1</c></rc>
    <rc><c>Pd</c><c>   1</c></rc>
    <rc><c>Pd</c><c>   1</c></rc>
    <rc><c>Pd</c><c>   1</c></rc>
    <rc><c>Pd</c><c>   1</c></rc>
    <rc><c>Pd</c><c>   1</c></rc>
    <rc><c>Pd</c><c>   1</c></rc>
    <rc><c>Pd</c><c>   1</c></rc>
    <rc><c>Pd</c><c>   1</c></rc>
    <rc><c>Pd</c><c>   1</c></rc>
    <rc><c>Pd</c><c>   1</c></rc>
    <rc><c>Pd</c><c>   1</c></rc>
    <rc><c>Pd</c><c>   1</c></rc>
    <rc><c>Pd</c><c>   1</c></rc>
    <rc><c>Pd</c><c>   1</c></rc>
    <rc><c>Pd</c><c>   1</c></rc>
    <rc><c>Pd</c><c>   1</c></rc>
    <rc><c>Pd</c><c>   1</c></rc>
    <rc><c>Pd</c><c>   1</c></rc>
    <rc><c>Pd</c><c>   1</c></rc>
    <rc><c>Pd</c><c>   1</c></rc>
    <rc><c>Pd</c><c>   1</c></rc>
    <rc><c>Pd</c><c>   1</c></rc>
    <rc><c>Pd</c><c>   1</c></rc>
    <rc><c>Pd</c><c>   1</c></rc>
    <rc><c>Pd</c><c>   1</c></rc>
    <rc><c>Pd</c><c>   1</c></rc>
    <rc><c>Pd</c><c>   1</c></rc>
    <rc><c>Pd</c><c>   1</c></rc>
    <rc><c>Pd</c><c>   1</c></rc>
    <rc><c>Pd</c><c>   1</c></rc>
    <rc><c>Pd</c><c>   1</c></rc>
    <rc><c>Pd</c><c>   1</c></rc>
    <rc><c>Pd</c><c>   1</c></rc>
    <rc><c>Pd</c><c>   1</c></rc>
    <rc><c>Pd</c><c>   1</c></rc>
    <rc><c>Pd</c><c>   1</c></rc>
    <rc><c>Pd</c><c>   1</c></rc>
    <rc><c>Pd</c><c>   1</c></rc>
    <rc><c>Pd</c><c>   1</c></rc>
    <rc><c>Pd</c><c>   1</c></rc>
    <rc><c>Pd</c><c>   1</c></rc>
    <rc><c>Pd</c><c>   1</c></rc>
    <rc><c>Pd</c><c>   1</c></rc>
    <rc><c>Pd</c><c>   1</c></rc>
    <rc><c>Pd</c><c>   1</c></rc>
    <rc><c>Pd</c><c>   1</c></rc>
    <rc><c>Pd</c><c>   1</c></rc>
    <rc><c>Pd</c><c>   1</c></rc>
    <rc><c>Pd</c><c>   1</c></rc>
    <rc><c>Pd</c><c>   1</c></rc>
    <rc><c>Pd</c><c>   1</c></rc>
    <rc><c>C </c><c>   2</c></rc>
    <rc><c>O </c><c>   3</c></rc>
   </set>
  </array>
  <array name="atomtypes" >
   <dimension dim="1">type</dimension>
   <field type="int">atomspertype</field>
   <field type="string">element</field>
   <field>mass</field>
   <field>valence</field>
   <field type="string">pseudopotential</field>
   <set>
    <rc><c>  55</c><c>Pd</c><c>    106.42000000</c><c>     10.00000000</c><c>  PAW_PBE Pd 04Jan2005                  </c></rc>
    <rc><c>   1</c><c>C </c><c>     12.01100000</c><c>      4.00000000</c><c>  PAW_PBE C 08Apr2002                   </c></rc>
    <rc><c>   1</c><c>O </c><c>     16.00000000</c><c>      6.00000000</c><c>  PAW_PBE O 08Apr2002                   </c></rc>
   </set>
  </array>
 </atominfo>
 <structure name="initialpos" >
  <crystal>
   <varray name="basis" >
    <v>      30.00000000       0.00000000       0.00000000 </v>
    <v>       0.00000000      30.00000000       0.00000000 </v>
    <v>       0.00000000       0.00000000      30.00000000 </v>
   </varray>
   <i name="volume">  27000.00000000 </i>
   <varray name="rec_basis" >
    <v>       0.03333333       0.00000000       0.00000000 </v>
    <v>       0.00000000       0.03333333       0.00000000 </v>
    <v>       0.00000000       0.00000000       0.03333333 </v>
   </varray>
  </crystal>
  <varray name="positions" >
   <v>       0.44576020       0.32826710       0.41691983 </v>
   <v>       0.67173288       0.55423978       0.41691983 </v>
   <v>       0.55423980       0.32826710       0.41691983 </v>
   <v>       0.32826712       0.55423978       0.41691983 </v>
   <v>       0.50000000       0.38250690       0.34021317 </v>
   <v>       0.50000000       0.38250690       0.65978680 </v>
   <v>       0.50000000       0.27609440       0.50000000 </v>
   <v>       0.27609443       0.49999998       0.50000000 </v>
   <v>       0.72390557       0.49999998       0.50000000 </v>
   <v>       0.50000000       0.72390555       0.50000000 </v>
   <v>       0.61195280       0.38804720       0.34167483 </v>
   <v>       0.61195280       0.38804720       0.65832513 </v>
   <v>       0.38804722       0.61195278       0.34167483 </v>
   <v>       0.38804722       0.61195278       0.65832513 </v>
   <v>       0.38804720       0.38804720       0.34167483 </v>
   <v>       0.38804720       0.38804720       0.65832513 </v>
   <v>       0.61195278       0.61195278       0.34167483 </v>
   <v>       0.61195278       0.61195278       0.65832513 </v>
   <v>       0.44576020       0.32826710       0.58308023 </v>
   <v>       0.67173288       0.55423978       0.58308023 </v>
   <v>       0.55791699       0.44208301       0.41809300 </v>
   <v>       0.32826705       0.44576024       0.41691983 </v>
   <v>       0.55423973       0.67173293       0.41691983 </v>
   <v>       0.55423980       0.32826710       0.58308023 </v>
   <v>       0.32826712       0.55423978       0.58308023 </v>
   <v>       0.67173295       0.44576024       0.41691983 </v>
   <v>       0.44576027       0.67173293       0.41691983 </v>
   <v>       0.44208301       0.44208301       0.41809300 </v>
   <v>       0.50000000       0.38416601       0.50000000 </v>
   <v>       0.61749315       0.50000005       0.34021317 </v>
   <v>       0.61749315       0.50000005       0.65978680 </v>
   <v>       0.38250685       0.50000005       0.34021317 </v>
   <v>       0.38250685       0.50000005       0.65978680 </v>
   <v>       0.38317830       0.38317830       0.50000000 </v>
   <v>       0.61682172       0.61682172       0.50000000 </v>
   <v>       0.61682170       0.38317830       0.50000000 </v>
   <v>       0.38317828       0.61682172       0.50000000 </v>
   <v>       0.50000000       0.50000000       0.33478917 </v>
   <v>       0.50000000       0.50000000       0.66521087 </v>
   <v>       0.32826705       0.44576024       0.58308023 </v>
   <v>       0.55423973       0.67173293       0.58308023 </v>
   <v>       0.55791699       0.44208301       0.58190703 </v>
   <v>       0.44208298       0.55791702       0.41809300 </v>
   <v>       0.44208301       0.44208301       0.58190703 </v>
   <v>       0.67173295       0.44576024       0.58308023 </v>
   <v>       0.44576027       0.67173293       0.58308023 </v>
   <v>       0.55791702       0.55791702       0.41809300 </v>
   <v>       0.38416599       0.50000002       0.50000000 </v>
   <v>       0.61583401       0.50000002       0.50000000 </v>
   <v>       0.50000000       0.61749319       0.34021317 </v>
   <v>       0.50000000       0.61749319       0.65978680 </v>
   <v>       0.50000000       0.50000000       0.50000000 </v>
   <v>       0.44208298       0.55791702       0.58190703 </v>
   <v>       0.55791702       0.55791702       0.58190703 </v>
   <v>       0.50000000       0.61583404       0.50000000 </v>
   <v>       0.68774483       0.46958197       0.63213970 </v>
   <v>       0.71822620       0.46464343       0.65359330 </v>
  </varray>
  <varray name="selective"  type="logical" >
   <v type="logical" >  F  F  F </v>
   <v type="logical" >  F  F  F </v>
   <v type="logical" >  F  F  F </v>
   <v type="logical" >  F  F  F </v>
   <v type="logical" >  F  F  F </v>
   <v type="logical" >  F  F  F </v>
   <v type="logical" >  F  F  F </v>
   <v type="logical" >  F  F  F </v>
   <v type="logical" >  F  F  F </v>
   <v type="logical" >  F  F  F </v>
   <v type="logical" >  F  F  F </v>
   <v type="logical" >  F  F  F </v>
   <v type="logical" >  F  F  F </v>
   <v type="logical" >  F  F  F </v>
   <v type="logical" >  F  F  F </v>
   <v type="logical" >  F  F  F </v>
   <v type="logical" >  F  F  F </v>
   <v type="logical" >  F  F  F </v>
   <v type="logical" >  F  F  F </v>
   <v type="logical" >  F  F  F </v>
   <v type="logical" >  F  F  F </v>
   <v type="logical" >  F  F  F </v>
   <v type="logical" >  F  F  F </v>
   <v type="logical" >  F  F  F </v>
   <v type="logical" >  F  F  F </v>
   <v type="logical" >  F  F  F </v>
   <v type="logical" >  F  F  F </v>
   <v type="logical" >  F  F  F </v>
   <v type="logical" >  F  F  F </v>
   <v type="logical" >  F  F  F </v>
   <v type="logical" >  F  F  F </v>
   <v type="logical" >  F  F  F </v>
   <v type="logical" >  F  F  F </v>
   <v type="logical" >  F  F  F </v>
   <v type="logical" >  F  F  F </v>
   <v type="logical" >  F  F  F </v>
   <v type="logical" >  F  F  F </v>
   <v type="logical" >  F  F  F </v>
   <v type="logical" >  F  F  F </v>
   <v type="logical" >  F  F  F </v>
   <v type="logical" >  F  F  F </v>
   <v type="logical" >  F  F  F </v>
   <v type="logical" >  F  F  F </v>
   <v type="logical" >  F  F  F </v>
   <v type="logical" >  F  F  F </v>
   <v type="logical" >  F  F  F </v>
   <v type="logical" >  F  F  F </v>
   <v type="logical" >  F  F  F </v>
   <v type="logical" >  F  F  F </v>
   <v type="logical" >  F  F  F </v>
   <v type="logical" >  F  F  F </v>
   <v type="logical" >  F  F  F </v>
   <v type="logical" >  F  F  F </v>
   <v type="logical" >  F  F  F </v>
   <v type="logical" >  F  F  F </v>
   <v type="logical" >  F  F  F </v>
   <v type="logical" >  F  F  F </v>
  </varray>
  <nose>
   <v>      -3.00000000       0.00000000       0.00010000       0.00010000 </v>
  </nose>
 </structure>
 <calculation>
  <scstep>
   <time name="dav">  347.08  347.18</time>
   <time name="total">  360.91  361.01</time>
   <energy>
    <i name="alphaZ">     75.25431677 </i>
    <i name="ewald"> 138895.20977049 </i>
    <i name="hartreedc">-182245.19376479 </i>
    <i name="XCdc">  -1702.01944604 </i>
    <i name="pawpsdc">  44873.02882129 </i>
    <i name="pawaedc"> -41398.84523641 </i>
    <i name="eentropy">     -0.01839726 </i>
    <i name="bandstr">    817.06736401 </i>
    <i name="atom">  45086.50549395 </i>
    <i name="e_fr_energy">   4400.98892202 </i>
    <i name="e_wo_entrp">   4401.00731928 </i>
    <i name="e_0_energy">   4400.99352133 </i>
   </energy>
  </scstep>
  <scstep>
   <time name="dav">  553.82  553.86</time>
   <time name="total">  553.83  553.86</time>
   <energy>
    <i name="e_fr_energy">   2033.86274325 </i>
    <i name="e_wo_entrp">   2033.87274552 </i>
    <i name="e_0_energy">   2033.86524382 </i>
   </energy>
  </scstep>
  <scstep>
   <time name="dav">  477.05  477.08</time>
   <time name="total">  477.05  477.08</time>
   <energy>
    <i name="e_fr_energy">    238.80118539 </i>
    <i name="e_wo_entrp">    238.81154480 </i>
    <i name="e_0_energy">    238.80377524 </i>
   </energy>
  </scstep>
  <scstep>
   <time name="dav">  415.09  415.14</time>
   <time name="total">  415.09  415.14</time>
   <energy>
    <i name="e_fr_energy">   -133.03117896 </i>
    <i name="e_wo_entrp">   -133.00405707 </i>
    <i name="e_0_energy">   -133.02439849 </i>
   </energy>
  </scstep>
  <scstep>
   <time name="dav">  481.50  481.52</time>
   <time name="total">  507.03  507.05</time>
   <energy>
    <i name="e_fr_energy">   -180.03041579 </i>
    <i name="e_wo_entrp">   -180.44007803 </i>
    <i name="e_0_energy">   -180.13283135 </i>
   </energy>
  </scstep>
  <scstep>
   <time name="diag">   67.59   67.59</time>
   <time name="diis">  181.67  181.67</time>
   <time name="orth">   13.44   13.44</time>
   <time name="total">  301.81  301.82</time>
   <energy>
    <i name="e_fr_energy">   -180.49178485 </i>
    <i name="e_wo_entrp">   -180.16829153 </i>
    <i name="e_0_energy">   -180.41091152 </i>
   </energy>
  </scstep>
  <scstep>
   <time name="diag">   67.97   67.97</time>
   <time name="diis">  216.72  216.72</time>
   <time name="orth">   13.55   13.55</time>
   <time name="total">  337.55  337.56</time>
   <energy>
    <i name="e_fr_energy">   -184.27377294 </i>
    <i name="e_wo_entrp">   -184.31070702 </i>
    <i name="e_0_energy">   -184.28300646 </i>
   </energy>
  </scstep>
  <scstep>
   <time name="diag">   68.11   68.11</time>
   <time name="diis">  198.76  198.76</time>
   <time name="orth">   13.50   13.50</time>
   <time name="total">  319.68  319.69</time>
   <energy>
    <i name="e_fr_energy">   -187.77243639 </i>
    <i name="e_wo_entrp">   -187.70135391 </i>
    <i name="e_0_energy">   -187.75466577 </i>
   </energy>
  </scstep>
  <scstep>
   <time name="diag">   67.73   67.73</time>
   <time name="diis">  182.62  182.63</time>
   <time name="orth">   13.54   13.54</time>
   <time name="total">  303.34  303.34</time>
   <energy>
    <i name="e_fr_energy">   -186.77037288 </i>
    <i name="e_wo_entrp">   -186.72022418 </i>
    <i name="e_0_energy">   -186.75783571 </i>
   </energy>
  </scstep>
  <scstep>
   <time name="diag">   67.63   67.63</time>
   <time name="diis">  187.41  187.41</time>
   <time name="orth">   13.47   13.47</time>
   <time name="total">  307.95  307.96</time>
   <energy>
    <i name="e_fr_energy">   -184.10741785 </i>
    <i name="e_wo_entrp">   -183.99936671 </i>
    <i name="e_0_energy">   -184.08040507 </i>
   </energy>
  </scstep>
  <scstep>
   <time name="diag">   67.27   67.27</time>
   <time name="diis">  185.05  185.05</time>
   <time name="orth">   13.57   13.57</time>
   <time name="total">  305.17  305.17</time>
   <energy>
    <i name="e_fr_energy">   -181.16423943 </i>
    <i name="e_wo_entrp">   -181.06095868 </i>
    <i name="e_0_energy">   -181.13841924 </i>
   </energy>
  </scstep>
  <scstep>
   <time name="diag">   67.39   67.39</time>
   <time name="diis">  184.32  184.32</time>
   <time name="orth">   13.62   13.62</time>
   <time name="total">  304.63  304.64</time>
   <energy>
    <i name="e_fr_energy">   -179.45107085 </i>
    <i name="e_wo_entrp">   -179.32925960 </i>
    <i name="e_0_energy">   -179.42061804 </i>
   </energy>
  </scstep>
  <scstep>
   <time name="diag">   67.41   67.41</time>
   <time name="diis">  186.92  186.92</time>
   <time name="orth">   14.05   14.05</time>
   <time name="total">  308.28  308.29</time>
   <energy>
    <i name="e_fr_energy">   -178.57351013 </i>
    <i name="e_wo_entrp">   -178.45269363 </i>
    <i name="e_0_energy">   -178.54330601 </i>
   </energy>
  </scstep>
  <scstep>
   <time name="diag">   68.68   68.68</time>
   <time name="diis">  182.79  182.79</time>
   <time name="orth">   13.93   13.93</time>
   <time name="total">  305.65  305.66</time>
   <energy>
    <i name="e_fr_energy">   -177.02880630 </i>
    <i name="e_wo_entrp">   -176.91083467 </i>
    <i name="e_0_energy">   -176.99931339 </i>
   </energy>
  </scstep>
  <scstep>
   <time name="diag">   68.87   68.87</time>
   <time name="diis">  182.05  182.05</time>
   <time name="orth">   13.72   13.72</time>
   <time name="total">  305.23  305.24</time>
   <energy>
    <i name="e_fr_energy">   -176.53436631 </i>
    <i name="e_wo_entrp">   -176.46717797 </i>
    <i name="e_0_energy">   -176.51756922 </i>
   </energy>
  </scstep>
  <scstep>
   <time name="diag">   68.89   68.89</time>
   <time name="diis">  181.74  181.75</time>
   <time name="orth">   13.62   13.62</time>
   <time name="total">  305.15  305.16</time>
   <energy>
    <i name="e_fr_energy">   -175.98682387 </i>
    <i name="e_wo_entrp">   -175.90431466 </i>
    <i name="e_0_energy">   -175.96619657 </i>
   </energy>
  </scstep>
  <scstep>
   <time name="diag">   68.59   68.59</time>
   <time name="diis">  181.31  181.32</time>
   <time name="orth">   13.66   13.66</time>
   <time name="total">  303.98  304.00</time>
   <energy>
    <i name="e_fr_energy">   -175.62141186 </i>
    <i name="e_wo_entrp">   -175.54677699 </i>
    <i name="e_0_energy">   -175.60275314 </i>
   </energy>
  </scstep>
  <scstep>
   <time name="diag">   69.03   69.03</time>
   <time name="diis">  183.29  183.30</time>
   <time name="orth">   13.57   13.57</time>
   <time name="total">  306.69  306.71</time>
   <energy>
    <i name="e_fr_energy">   -175.49819131 </i>
    <i name="e_wo_entrp">   -175.42956253 </i>
    <i name="e_0_energy">   -175.48103412 </i>
   </energy>
  </scstep>
  <scstep>
   <time name="diag">   68.98   68.98</time>
   <time name="diis">  181.45  181.45</time>
   <time name="orth">   13.48   13.48</time>
   <time name="total">  304.84  304.85</time>
   <energy>
    <i name="e_fr_energy">   -175.51536626 </i>
    <i name="e_wo_entrp">   -175.49079773 </i>
    <i name="e_0_energy">   -175.50922413 </i>
   </energy>
  </scstep>
  <scstep>
   <time name="diag">   68.60   68.60</time>
   <time name="diis">  181.26  181.26</time>
   <time name="orth">   13.75   13.75</time>
   <time name="total">  304.08  304.09</time>
   <energy>
    <i name="e_fr_energy">   -175.23594313 </i>
    <i name="e_wo_entrp">   -175.18302084 </i>
    <i name="e_0_energy">   -175.22271255 </i>
   </energy>
  </scstep>
  <scstep>
   <time name="diag">   68.55   68.55</time>
   <time name="diis">  179.41  179.41</time>
   <time name="orth">   13.38   13.38</time>
   <time name="total">  302.07  302.08</time>
   <energy>
    <i name="e_fr_energy">   -175.12429031 </i>
    <i name="e_wo_entrp">   -175.08285822 </i>
    <i name="e_0_energy">   -175.11393229 </i>
   </energy>
  </scstep>
  <scstep>
   <time name="diag">   68.46   68.46</time>
   <time name="diis">  180.08  180.08</time>
   <time name="orth">   13.73   13.73</time>
   <time name="total">  303.01  303.02</time>
   <energy>
    <i name="e_fr_energy">   -175.12083913 </i>
    <i name="e_wo_entrp">   -175.03017251 </i>
    <i name="e_0_energy">   -175.09817248 </i>
   </energy>
  </scstep>
  <scstep>
   <time name="diag">   68.36   68.36</time>
   <time name="diis">  179.00  179.01</time>
   <time name="orth">   13.41   13.41</time>
   <time name="total">  301.59  301.59</time>
   <energy>
    <i name="e_fr_energy">   -175.00387462 </i>
    <i name="e_wo_entrp">   -174.86695989 </i>
    <i name="e_0_energy">   -174.96964594 </i>
   </energy>
  </scstep>
  <scstep>
   <time name="diag">   68.46   68.46</time>
   <time name="diis">  176.76  176.76</time>
   <time name="orth">   13.40   13.40</time>
   <time name="total">  299.79  299.80</time>
   <energy>
    <i name="e_fr_energy">   -175.05151163 </i>
    <i name="e_wo_entrp">   -174.94695623 </i>
    <i name="e_0_energy">   -175.02537278 </i>
   </energy>
  </scstep>
  <scstep>
   <time name="diag">   68.76   68.76</time>
   <time name="diis">  177.15  177.15</time>
   <time name="orth">   13.40   13.40</time>
   <time name="total">  299.84  299.84</time>
   <energy>
    <i name="e_fr_energy">   -174.88540298 </i>
    <i name="e_wo_entrp">   -174.79367306 </i>
    <i name="e_0_energy">   -174.86247050 </i>
   </energy>
  </scstep>
  <scstep>
   <time name="diag">   69.38   69.38</time>
   <time name="diis">  177.52  177.52</time>
   <time name="orth">   13.71   13.71</time>
   <time name="total">  301.07  301.07</time>
   <energy>
    <i name="e_fr_energy">   -174.80692321 </i>
    <i name="e_wo_entrp">   -174.71121426 </i>
    <i name="e_0_energy">   -174.78299597 </i>
   </energy>
  </scstep>
  <scstep>
   <time name="diag">   67.66   67.66</time>
   <time name="diis">  178.29  178.29</time>
   <time name="orth">   13.39   13.39</time>
   <time name="total">  299.49  299.49</time>
   <energy>
    <i name="e_fr_energy">   -174.80555286 </i>
    <i name="e_wo_entrp">   -174.71259954 </i>
    <i name="e_0_energy">   -174.78231453 </i>
   </energy>
  </scstep>
  <scstep>
   <time name="diag">   68.37   68.37</time>
   <time name="diis">  177.34  177.34</time>
   <time name="orth">   13.49   13.49</time>
   <time name="total">  299.53  299.53</time>
   <energy>
    <i name="e_fr_energy">   -174.77267799 </i>
    <i name="e_wo_entrp">   -174.66903973 </i>
    <i name="e_0_energy">   -174.74676842 </i>
   </energy>
  </scstep>
  <scstep>
   <time name="diag">   68.02   68.03</time>
   <time name="diis">  177.75  177.75</time>
   <time name="orth">   13.41   13.41</time>
   <time name="total">  299.46  299.46</time>
   <energy>
    <i name="e_fr_energy">   -174.74979027 </i>
    <i name="e_wo_entrp">   -174.64133419 </i>
    <i name="e_0_energy">   -174.72267625 </i>
   </energy>
  </scstep>
  <scstep>
   <time name="diag">   67.99   67.99</time>
   <time name="diis">  177.33  177.33</time>
   <time name="orth">   13.87   13.87</time>
   <time name="total">  300.35  300.36</time>
   <energy>
    <i name="e_fr_energy">   -174.73986279 </i>
    <i name="e_wo_entrp">   -174.62864925 </i>
    <i name="e_0_energy">   -174.71205941 </i>
   </energy>
  </scstep>
  <scstep>
   <time name="diag">   68.73   68.73</time>
   <time name="diis">  175.43  175.43</time>
   <time name="orth">   13.46   13.46</time>
   <time name="total">  298.74  298.75</time>
   <energy>
    <i name="e_fr_energy">   -174.73549155 </i>
    <i name="e_wo_entrp">   -174.62914901 </i>
    <i name="e_0_energy">   -174.70890591 </i>
   </energy>
  </scstep>
  <scstep>
   <time name="diag">   70.25   70.25</time>
   <time name="diis">  175.19  175.20</time>
   <time name="orth">   13.43   13.43</time>
   <time name="total">  299.96  299.96</time>
   <energy>
    <i name="e_fr_energy">   -174.73035792 </i>
    <i name="e_wo_entrp">   -174.61700300 </i>
    <i name="e_0_energy">   -174.70201919 </i>
   </energy>
  </scstep>
  <scstep>
   <time name="diag">   68.42   68.42</time>
   <time name="diis">  177.69  177.69</time>
   <time name="orth">   13.75   13.75</time>
   <time name="total">  301.60  301.60</time>
   <energy>
    <i name="e_fr_energy">   -174.72759818 </i>
    <i name="e_wo_entrp">   -174.61499908 </i>
    <i name="e_0_energy">   -174.69944841 </i>
   </energy>
  </scstep>
  <scstep>
   <time name="diag">   68.50   68.50</time>
   <time name="diis">  173.86  173.86</time>
   <time name="orth">   13.40   13.40</time>
   <time name="total">  296.95  296.95</time>
   <energy>
    <i name="e_fr_energy">   -174.72671712 </i>
    <i name="e_wo_entrp">   -174.61714539 </i>
    <i name="e_0_energy">   -174.69932419 </i>
   </energy>
  </scstep>
  <scstep>
   <time name="diag">   68.19   68.20</time>
   <time name="diis">  175.82  175.83</time>
   <time name="orth">   13.72   13.72</time>
   <time name="total">  299.67  299.67</time>
   <energy>
    <i name="e_fr_energy">   -174.72653801 </i>
    <i name="e_wo_entrp">   -174.61292204 </i>
    <i name="e_0_energy">   -174.69813401 </i>
   </energy>
  </scstep>
  <scstep>
   <time name="diag">   67.80   67.80</time>
   <time name="diis">  173.94  173.94</time>
   <time name="orth">   13.30   13.30</time>
   <time name="total">  296.26  296.26</time>
   <energy>
    <i name="e_fr_energy">   -174.72576912 </i>
    <i name="e_wo_entrp">   -174.61388224 </i>
    <i name="e_0_energy">   -174.69779740 </i>
   </energy>
  </scstep>
  <scstep>
   <time name="diag">   67.28   67.28</time>
   <time name="diis">  174.53  174.53</time>
   <time name="orth">   13.67   13.67</time>
   <time name="total">  297.02  297.02</time>
   <energy>
    <i name="e_fr_energy">   -174.72717314 </i>
    <i name="e_wo_entrp">   -174.61687007 </i>
    <i name="e_0_energy">   -174.69959738 </i>
   </energy>
  </scstep>
  <scstep>
   <time name="diag">   68.99   68.99</time>
   <time name="diis">  171.66  171.67</time>
   <time name="orth">   13.36   13.36</time>
   <time name="total">  294.91  294.91</time>
   <energy>
    <i name="e_fr_energy">   -174.72908947 </i>
    <i name="e_wo_entrp">   -174.61508651 </i>
    <i name="e_0_energy">   -174.70058873 </i>
   </energy>
  </scstep>
  <scstep>
   <time name="diag">   67.91   67.91</time>
   <time name="diis">  171.98  171.98</time>
   <time name="orth">   13.32   13.32</time>
   <time name="total">  294.12  294.12</time>
   <energy>
    <i name="e_fr_energy">   -174.73026887 </i>
    <i name="e_wo_entrp">   -174.61765450 </i>
    <i name="e_0_energy">   -174.70211527 </i>
   </energy>
  </scstep>
  <scstep>
   <time name="diag">   67.74   67.74</time>
   <time name="diis">  172.25  172.25</time>
   <time name="orth">   13.38   13.38</time>
   <time name="total">  294.68  294.68</time>
   <energy>
    <i name="e_fr_energy">   -174.73312617 </i>
    <i name="e_wo_entrp">   -174.62093497 </i>
    <i name="e_0_energy">   -174.70507837 </i>
   </energy>
  </scstep>
  <scstep>
   <time name="diag">   67.19   67.19</time>
   <time name="diis">  131.29  131.30</time>
   <time name="orth">   13.19   13.19</time>
   <time name="total">  252.77  252.77</time>
   <energy>
    <i name="e_fr_energy">   -174.73462030 </i>
    <i name="e_wo_entrp">   -174.62160715 </i>
    <i name="e_0_energy">   -174.70636701 </i>
   </energy>
  </scstep>
  <scstep>
   <time name="diag">   66.98   66.98</time>
   <time name="diis">  149.12  149.12</time>
   <time name="orth">   13.34   13.34</time>
   <time name="total">  270.17  270.18</time>
   <energy>
    <i name="e_fr_energy">   -174.73796735 </i>
    <i name="e_wo_entrp">   -174.62579775 </i>
    <i name="e_0_energy">   -174.70992495 </i>
   </energy>
  </scstep>
  <scstep>
   <time name="diag">   66.87   66.87</time>
   <time name="diis">  138.07  138.08</time>
   <time name="orth">   13.41   13.41</time>
   <time name="total">  259.61  259.62</time>
   <energy>
    <i name="e_fr_energy">   -174.74046809 </i>
    <i name="e_wo_entrp">   -174.62886912 </i>
    <i name="e_0_energy">   -174.71256835 </i>
   </energy>
  </scstep>
  <scstep>
   <time name="diag">   65.90   65.91</time>
   <time name="diis">  117.78  117.78</time>
   <time name="orth">   13.16   13.16</time>
   <time name="total">  237.46  237.47</time>
   <energy>
    <i name="e_fr_energy">   -174.74228370 </i>
    <i name="e_wo_entrp">   -174.63024950 </i>
    <i name="e_0_energy">   -174.71427515 </i>
   </energy>
  </scstep>
  <scstep>
   <time name="diag">   65.73   65.73</time>
   <time name="diis">  126.55  126.56</time>
   <time name="orth">   13.03   13.03</time>
   <time name="total">  245.99  245.99</time>
   <energy>
    <i name="e_fr_energy">   -174.74461554 </i>
    <i name="e_wo_entrp">   -174.63220434 </i>
    <i name="e_0_energy">   -174.71651274 </i>
   </energy>
  </scstep>
  <scstep>
   <time name="diag">   65.75   65.75</time>
   <time name="diis">  121.17  121.17</time>
   <time name="orth">   13.58   13.58</time>
   <time name="total">  241.91  241.92</time>
   <energy>
    <i name="e_fr_energy">   -174.74667709 </i>
    <i name="e_wo_entrp">   -174.63421000 </i>
    <i name="e_0_energy">   -174.71856032 </i>
   </energy>
  </scstep>
  <scstep>
   <time name="diag">   67.29   67.29</time>
   <time name="diis">  115.36  115.36</time>
   <time name="orth">   13.18   13.18</time>
   <time name="total">  237.04  237.05</time>
   <energy>
    <i name="e_fr_energy">   -174.74773221 </i>
    <i name="e_wo_entrp">   -174.63549371 </i>
    <i name="e_0_energy">   -174.71967259 </i>
   </energy>
  </scstep>
  <scstep>
   <time name="diag">   66.00   66.00</time>
   <time name="diis">  112.70  112.70</time>
   <time name="orth">   13.30   13.30</time>
   <time name="total">  233.23  233.24</time>
   <energy>
    <i name="e_fr_energy">   -174.74893714 </i>
    <i name="e_wo_entrp">   -174.63703050 </i>
    <i name="e_0_energy">   -174.72096048 </i>
   </energy>
  </scstep>
  <scstep>
   <time name="diag">   66.07   66.07</time>
   <time name="diis">  112.43  112.43</time>
   <time name="orth">   13.31   13.31</time>
   <time name="total">  233.48  233.48</time>
   <energy>
    <i name="e_fr_energy">   -174.74947148 </i>
    <i name="e_wo_entrp">   -174.63716527 </i>
    <i name="e_0_energy">   -174.72139493 </i>
   </energy>
  </scstep>
  <scstep>
   <time name="diag">   65.88   65.88</time>
   <time name="diis">  110.43  110.43</time>
   <time name="orth">   13.52   13.52</time>
   <time name="total">  230.82  230.82</time>
   <energy>
    <i name="e_fr_energy">   -174.75050763 </i>
    <i name="e_wo_entrp">   -174.63841821 </i>
    <i name="e_0_energy">   -174.72248528 </i>
   </energy>
  </scstep>
  <scstep>
   <time name="diag">   66.52   66.52</time>
   <time name="diis">  113.98  113.98</time>
   <time name="orth">   13.37   13.37</time>
   <time name="total">  235.13  235.13</time>
   <energy>
    <i name="e_fr_energy">   -174.75099244 </i>
    <i name="e_wo_entrp">   -174.63894353 </i>
    <i name="e_0_energy">   -174.72298021 </i>
   </energy>
  </scstep>
  <scstep>
   <time name="diag">   65.24   65.24</time>
   <time name="diis">  106.62  106.62</time>
   <time name="orth">   13.48   13.48</time>
   <time name="total">  226.61  226.61</time>
   <energy>
    <i name="e_fr_energy">   -174.75138204 </i>
    <i name="e_wo_entrp">   -174.63926111 </i>
    <i name="e_0_energy">   -174.72335181 </i>
   </energy>
  </scstep>
  <scstep>
   <time name="diag">   65.05   65.05</time>
   <time name="diis">  100.65  100.65</time>
   <time name="orth">   13.39   13.39</time>
   <time name="total">  220.56  220.56</time>
   <energy>
    <i name="e_fr_energy">   -174.75202548 </i>
    <i name="e_wo_entrp">   -174.64010312 </i>
    <i name="e_0_energy">   -174.72404489 </i>
   </energy>
  </scstep>
  <scstep>
   <time name="diag">   65.13   65.13</time>
   <time name="diis">   83.23   83.23</time>
   <time name="orth">   13.34   13.34</time>
   <time name="total">  203.26  203.26</time>
   <energy>
    <i name="e_fr_energy">   -174.75223352 </i>
    <i name="e_wo_entrp">   -174.64024325 </i>
    <i name="e_0_energy">   -174.72423595 </i>
   </energy>
  </scstep>
  <scstep>
   <time name="diag">   64.54   64.54</time>
   <time name="diis">   93.30   93.30</time>
   <time name="orth">   13.34   13.34</time>
   <time name="total">  213.03  213.03</time>
   <energy>
    <i name="e_fr_energy">   -174.75270470 </i>
    <i name="e_wo_entrp">   -174.64069238 </i>
    <i name="e_0_energy">   -174.72470162 </i>
   </energy>
  </scstep>
  <scstep>
   <time name="diag">   65.95   65.95</time>
   <time name="diis">   80.24   80.24</time>
   <time name="orth">   13.50   13.50</time>
   <time name="total">  201.84  201.84</time>
   <energy>
    <i name="e_fr_energy">   -174.75296161 </i>
    <i name="e_wo_entrp">   -174.64087093 </i>
    <i name="e_0_energy">   -174.72493894 </i>
   </energy>
  </scstep>
  <scstep>
   <time name="diag">   65.42   65.42</time>
   <time name="diis">   85.49   85.49</time>
   <time name="orth">   13.25   13.25</time>
   <time name="total">  205.89  205.89</time>
   <energy>
    <i name="e_fr_energy">   -174.75318097 </i>
    <i name="e_wo_entrp">   -174.64104522 </i>
    <i name="e_0_energy">   -174.72514703 </i>
   </energy>
  </scstep>
  <scstep>
   <time name="diag">   65.46   65.47</time>
   <time name="diis">   82.48   82.48</time>
   <time name="orth">   13.28   13.27</time>
   <time name="total">  202.82  202.83</time>
   <energy>
    <i name="e_fr_energy">   -174.75341372 </i>
    <i name="e_wo_entrp">   -174.64140735 </i>
    <i name="e_0_energy">   -174.72541213 </i>
   </energy>
  </scstep>
  <scstep>
   <time name="diag">   65.25   65.25</time>
   <time name="diis">   81.29   81.30</time>
   <time name="orth">   13.36   13.36</time>
   <time name="total">  202.03  202.04</time>
   <energy>
    <i name="e_fr_energy">   -174.75360359 </i>
    <i name="e_wo_entrp">   -174.64153048 </i>
    <i name="e_0_energy">   -174.72558531 </i>
   </energy>
  </scstep>
  <scstep>
   <time name="diag">   65.55   65.55</time>
   <time name="diis">   79.04   79.05</time>
   <time name="orth">   13.11   13.11</time>
   <time name="total">  199.08  199.08</time>
   <energy>
    <i name="e_fr_energy">   -174.75378794 </i>
    <i name="e_wo_entrp">   -174.64167735 </i>
    <i name="e_0_energy">   -174.72576029 </i>
   </energy>
  </scstep>
  <scstep>
   <time name="diag">   65.44   65.44</time>
   <time name="diis">   78.42   78.42</time>
   <time name="orth">   12.97   12.97</time>
   <time name="total">  198.22  198.22</time>
   <energy>
    <i name="e_fr_energy">   -174.75389127 </i>
    <i name="e_wo_entrp">   -174.64193741 </i>
    <i name="e_0_energy">   -174.72590281 </i>
   </energy>
  </scstep>
  <scstep>
   <time name="diag">   66.38   66.38</time>
   <time name="diis">   78.14   78.14</time>
   <time name="orth">   13.03   13.03</time>
   <time name="total">  171.08  171.09</time>
   <energy>
    <i name="alphaZ">     75.25431677 </i>
    <i name="ewald"> 138895.20977049 </i>
    <i name="hartreedc">-183236.95503952 </i>
    <i name="XCdc">  -1691.34871527 </i>
    <i name="pawpsdc">  46336.99943147 </i>
    <i name="pawaedc"> -42808.95754334 </i>
    <i name="eentropy">     -0.11205487 </i>
    <i name="bandstr">  -2831.34960654 </i>
    <i name="atom">  45086.50549395 </i>
    <i name="e_fr_energy">   -174.75394685 </i>
    <i name="e_wo_entrp">   -174.64189199 </i>
    <i name="e_0_energy">   -174.72593314 </i>
   </energy>
  </scstep>
  <structure>
   <crystal>
    <varray name="basis" >
     <v>      30.00000000       0.00000000       0.00000000 </v>
     <v>       0.00000000      30.00000000       0.00000000 </v>
     <v>       0.00000000       0.00000000      30.00000000 </v>
    </varray>
    <i name="volume">  27000.00000000 </i>
    <varray name="rec_basis" >
     <v>       0.03333333       0.00000000       0.00000000 </v>
     <v>       0.00000000       0.03333333       0.00000000 </v>
     <v>       0.00000000       0.00000000       0.03333333 </v>
    </varray>
   </crystal>
   <varray name="positions" >
    <v>       0.44576020       0.32826710       0.41691983 </v>
    <v>       0.67173288       0.55423978       0.41691983 </v>
    <v>       0.55423980       0.32826710       0.41691983 </v>
    <v>       0.32826712       0.55423978       0.41691983 </v>
    <v>       0.50000000       0.38250690       0.34021317 </v>
    <v>       0.50000000       0.38250690       0.65978680 </v>
    <v>       0.50000000       0.27609440       0.50000000 </v>
    <v>       0.27609443       0.49999998       0.50000000 </v>
    <v>       0.72390557       0.49999998       0.50000000 </v>
    <v>       0.50000000       0.72390555       0.50000000 </v>
    <v>       0.61195280       0.38804720       0.34167483 </v>
    <v>       0.61195280       0.38804720       0.65832513 </v>
    <v>       0.38804722       0.61195278       0.34167483 </v>
    <v>       0.38804722       0.61195278       0.65832513 </v>
    <v>       0.38804720       0.38804720       0.34167483 </v>
    <v>       0.38804720       0.38804720       0.65832513 </v>
    <v>       0.61195278       0.61195278       0.34167483 </v>
    <v>       0.61195278       0.61195278       0.65832513 </v>
    <v>       0.44576020       0.32826710       0.58308023 </v>
    <v>       0.67173288       0.55423978       0.58308023 </v>
    <v>       0.55791699       0.44208301       0.41809300 </v>
    <v>       0.32826705       0.44576024       0.41691983 </v>
    <v>       0.55423973       0.67173293       0.41691983 </v>
    <v>       0.55423980       0.32826710       0.58308023 </v>
    <v>       0.32826712       0.55423978       0.58308023 </v>
    <v>       0.67173295       0.44576024       0.41691983 </v>
    <v>       0.44576027       0.67173293       0.41691983 </v>
    <v>       0.44208301       0.44208301       0.41809300 </v>
    <v>       0.50000000       0.38416601       0.50000000 </v>
    <v>       0.61749315       0.50000005       0.34021317 </v>
    <v>       0.61749315       0.50000005       0.65978680 </v>
    <v>       0.38250685       0.50000005       0.34021317 </v>
    <v>       0.38250685       0.50000005       0.65978680 </v>
    <v>       0.38317830       0.38317830       0.50000000 </v>
    <v>       0.61682172       0.61682172       0.50000000 </v>
    <v>       0.61682170       0.38317830       0.50000000 </v>
    <v>       0.38317828       0.61682172       0.50000000 </v>
    <v>       0.50000000       0.50000000       0.33478917 </v>
    <v>       0.50000000       0.50000000       0.66521087 </v>
    <v>       0.32826705       0.44576024       0.58308023 </v>
    <v>       0.55423973       0.67173293       0.58308023 </v>
    <v>       0.55791699       0.44208301       0.58190703 </v>
    <v>       0.44208298       0.55791702       0.41809300 </v>
    <v>       0.44208301       0.44208301       0.58190703 </v>
    <v>       0.67173295       0.44576024       0.58308023 </v>
    <v>       0.44576027       0.67173293       0.58308023 </v>
    <v>       0.55791702       0.55791702       0.41809300 </v>
    <v>       0.38416599       0.50000002       0.50000000 </v>
    <v>       0.61583401       0.50000002       0.50000000 </v>
    <v>       0.50000000       0.61749319       0.34021317 </v>
    <v>       0.50000000       0.61749319       0.65978680 </v>
    <v>       0.50000000       0.50000000       0.50000000 </v>
    <v>       0.44208298       0.55791702       0.58190703 </v>
    <v>       0.55791702       0.55791702       0.58190703 </v>
    <v>       0.50000000       0.61583404       0.50000000 </v>
    <v>       0.68774483       0.46958197       0.63213970 </v>
    <v>       0.71822620       0.46464343       0.65359330 </v>
   </varray>
  </structure>
  <varray name="forces" >
   <v>       0.71293816       1.10961132       0.28249954 </v>
   <v>      -1.10453624      -0.70955168       0.29279252 </v>
   <v>      -0.74706052       1.10464054       0.25629261 </v>
   <v>       1.10714484      -0.70896641       0.28917690 </v>
   <v>      -0.00093024       0.40355063       1.28788066 </v>
   <v>      -0.01542002       0.39809955      -1.28881681 </v>
   <v>      -0.00459425       1.51768392      -0.00295061 </v>
   <v>       1.52064145      -0.00079464       0.00869512 </v>
   <v>      -1.49356988       0.00328820      -0.06350318 </v>
   <v>      -0.00225369      -1.52130411      -0.00847484 </v>
   <v>      -0.76341211       0.75654683       1.07032920 </v>
   <v>      -0.76297452       0.68150567      -1.02890354 </v>
   <v>       0.76349512      -0.75196906       1.07357212 </v>
   <v>       0.75097167      -0.76219380      -1.07728808 </v>
   <v>       0.76421106       0.75090587       1.07455394 </v>
   <v>       0.74882174       0.76050436      -1.07620968 </v>
   <v>      -0.76607254      -0.75313250       1.07308723 </v>
   <v>      -0.78625511      -0.73164163      -1.07874812 </v>
   <v>       0.71467443       1.10980332      -0.28746335 </v>
   <v>      -1.04634757      -0.68452637      -0.26604121 </v>
   <v>       0.12096832      -0.11149062      -0.15569926 </v>
   <v>       1.10773681       0.70663559       0.28907476 </v>
   <v>      -0.72431267      -1.10883436       0.27685183 </v>
   <v>      -0.72071943       1.09920723      -0.29155191 </v>
   <v>       1.11034363      -0.71093616      -0.28323867 </v>
   <v>      -1.10525726       0.70646297       0.29942141 </v>
   <v>       0.71594022      -1.10504326       0.29545461 </v>
   <v>      -0.10481354      -0.11285213      -0.15265830 </v>
   <v>       0.00191225      -0.22969540       0.00624207 </v>
   <v>      -0.41244196      -0.00262433       1.28421813 </v>
   <v>       0.44093026      -0.31609094      -1.48893192 </v>
   <v>       0.41024097      -0.00125886       1.28406076 </v>
   <v>       0.38526619       0.00141565      -1.30255917 </v>
   <v>       0.82835026       0.82858103      -0.00057611 </v>
   <v>      -0.82883941      -0.82593807       0.00797666 </v>
   <v>      -0.83712434       0.82712397      -0.03322232 </v>
   <v>       0.82733422      -0.82753939       0.00238187 </v>
   <v>       0.00026420      -0.00215564       1.17635738 </v>
   <v>      -0.02870090       0.01716936      -1.17969452 </v>
   <v>       1.10886068       0.71160343      -0.28463167 </v>
   <v>      -0.69568024      -1.11244091      -0.28327678 </v>
   <v>       0.00620064      -0.12551041       0.09464199 </v>
   <v>      -0.11112148       0.10963886      -0.15613771 </v>
   <v>      -0.11877038      -0.11057762       0.15838340 </v>
   <v>      -2.91373301      -1.27463017      -4.85733505 </v>
   <v>       0.70240572      -1.11043182      -0.29320312 </v>
   <v>       0.10416407       0.12421670      -0.16775082 </v>
   <v>      -0.22658954      -0.00105771       0.00306366 </v>
   <v>       0.18292814      -0.00341910      -0.06553738 </v>
   <v>       0.00957204      -0.40801228       1.28640580 </v>
   <v>       0.01014191      -0.41536711      -1.27962241 </v>
   <v>       0.00862209       0.00309028       0.00889281 </v>
   <v>      -0.11101867       0.11270834       0.16175995 </v>
   <v>       0.07720375       0.13136965       0.14101870 </v>
   <v>      -0.00269813       0.23385224      -0.00775727 </v>
   <v>      -4.43584930       2.62356365       0.36944096 </v>
   <v>       5.62881207      -0.29279265       4.60725723 </v>
  </varray>
  <varray name="stress" >
   <v>      -6.44104526       0.08760123       0.43275279 </v>
   <v>       0.08760123      -6.66291249       0.14315547 </v>
   <v>       0.43275275       0.14315546      -6.15133208 </v>
  </varray>
  <energy>
   <i name="e_fr_energy">   -174.75394685 </i>
   <i name="e_wo_entrp">   -174.72593314 </i>
   <i name="e_0_energy">     -0.11205487 </i>
  </energy>
  <time name="totalsc">18174.5318175.11</time>
  <eigenvalues>
   <array>
    <dimension dim="1">band</dimension>
    <dimension dim="2">kpoint</dimension>
    <dimension dim="3">spin</dimension>
    <field>eigene</field>
    <field>occ</field>
    <set>
     <set comment="spin 1">
      <set comment="kpoint 1">
       <r>  -28.0607    1.0000 </r>
       <r>  -13.6578    1.0000 </r>
       <r>  -11.3363    1.0000 </r>
       <r>  -10.9067    1.0000 </r>
       <r>  -10.7300    1.0000 </r>
       <r>   -6.8430    1.0000 </r>
       <r>   -6.8004    1.0000 </r>
       <r>   -6.6597    1.0000 </r>
       <r>   -6.2688    1.0000 </r>
       <r>   -6.1638    1.0000 </r>
       <r>   -6.1421    1.0000 </r>
       <r>   -6.0286    1.0000 </r>
       <r>   -6.0087    1.0000 </r>
       <r>   -5.9341    1.0000 </r>
       <r>   -5.8277    1.0000 </r>
       <r>   -5.7981    1.0000 </r>
       <r>   -5.7792    1.0000 </r>
       <r>   -5.7401    1.0000 </r>
       <r>   -5.7077    1.0000 </r>
       <r>   -5.7001    1.0000 </r>
       <r>   -5.6930    1.0000 </r>
       <r>   -5.6580    1.0000 </r>
       <r>   -5.6428    1.0000 </r>
       <r>   -5.6289    1.0000 </r>
       <r>   -5.6263    1.0000 </r>
       <r>   -5.6101    1.0000 </r>
       <r>   -5.6007    1.0000 </r>
       <r>   -5.5986    1.0000 </r>
       <r>   -5.5688    1.0000 </r>
       <r>   -5.5647    1.0000 </r>
       <r>   -5.5618    1.0000 </r>
       <r>   -5.5503    1.0000 </r>
       <r>   -5.5390    1.0000 </r>
       <r>   -5.5356    1.0000 </r>
       <r>   -5.5328    1.0000 </r>
       <r>   -5.5295    1.0000 </r>
       <r>   -5.5282    1.0000 </r>
       <r>   -5.5175    1.0000 </r>
       <r>   -5.5113    1.0000 </r>
       <r>   -5.5080    1.0000 </r>
       <r>   -5.4911    1.0000 </r>
       <r>   -5.4896    1.0000 </r>
       <r>   -5.4871    1.0000 </r>
       <r>   -5.4840    1.0000 </r>
       <r>   -5.4823    1.0000 </r>
       <r>   -5.4796    1.0000 </r>
       <r>   -5.4637    1.0000 </r>
       <r>   -5.4554    1.0000 </r>
       <r>   -5.4472    1.0000 </r>
       <r>   -5.4453    1.0000 </r>
       <r>   -5.4422    1.0000 </r>
       <r>   -5.4367    1.0000 </r>
       <r>   -5.4254    1.0000 </r>
       <r>   -5.4219    1.0000 </r>
       <r>   -5.4193    1.0000 </r>
       <r>   -5.4183    1.0000 </r>
       <r>   -5.4092    1.0000 </r>
       <r>   -5.3929    1.0000 </r>
       <r>   -5.3625    1.0000 </r>
       <r>   -5.3524    1.0000 </r>
       <r>   -5.3480    1.0000 </r>
       <r>   -5.3417    1.0000 </r>
       <r>   -5.3320    1.0000 </r>
       <r>   -5.3317    1.0000 </r>
       <r>   -5.3248    1.0000 </r>
       <r>   -5.3174    1.0000 </r>
       <r>   -5.3138    1.0000 </r>
       <r>   -5.3134    1.0000 </r>
       <r>   -5.3055    1.0000 </r>
       <r>   -5.3018    1.0000 </r>
       <r>   -5.2503    1.0000 </r>
       <r>   -5.2433    1.0000 </r>
       <r>   -5.2209    1.0000 </r>
       <r>   -5.2160    1.0000 </r>
       <r>   -5.2130    1.0000 </r>
       <r>   -5.2055    1.0000 </r>
       <r>   -5.1935    1.0000 </r>
       <r>   -5.1927    1.0000 </r>
       <r>   -5.1914    1.0000 </r>
       <r>   -5.1821    1.0000 </r>
       <r>   -5.1803    1.0000 </r>
       <r>   -5.1769    1.0000 </r>
       <r>   -5.1657    1.0000 </r>
       <r>   -5.1598    1.0000 </r>
       <r>   -5.1521    1.0000 </r>
       <r>   -5.1423    1.0000 </r>
       <r>   -5.1337    1.0000 </r>
       <r>   -5.1221    1.0000 </r>
       <r>   -5.1175    1.0000 </r>
       <r>   -5.1025    1.0000 </r>
       <r>   -5.0965    1.0000 </r>
       <r>   -5.0807    1.0000 </r>
       <r>   -5.0705    1.0000 </r>
       <r>   -5.0693    1.0000 </r>
       <r>   -5.0672    1.0000 </r>
       <r>   -5.0660    1.0000 </r>
       <r>   -5.0648    1.0000 </r>
       <r>   -5.0548    1.0000 </r>
       <r>   -5.0519    1.0000 </r>
       <r>   -5.0497    1.0000 </r>
       <r>   -5.0463    1.0000 </r>
       <r>   -5.0424    1.0000 </r>
       <r>   -5.0334    1.0000 </r>
       <r>   -5.0246    1.0000 </r>
       <r>   -5.0203    1.0000 </r>
       <r>   -5.0188    1.0000 </r>
       <r>   -5.0139    1.0000 </r>
       <r>   -5.0107    1.0000 </r>
       <r>   -5.0062    1.0000 </r>
       <r>   -4.9983    1.0000 </r>
       <r>   -4.9958    1.0000 </r>
       <r>   -4.9894    1.0000 </r>
       <r>   -4.9801    1.0000 </r>
       <r>   -4.9777    1.0000 </r>
       <r>   -4.9739    1.0000 </r>
       <r>   -4.9691    1.0000 </r>
       <r>   -4.9619    1.0000 </r>
       <r>   -4.9548    1.0000 </r>
       <r>   -4.9526    1.0000 </r>
       <r>   -4.9426    1.0000 </r>
       <r>   -4.9305    1.0000 </r>
       <r>   -4.9271    1.0000 </r>
       <r>   -4.9241    1.0000 </r>
       <r>   -4.9226    1.0000 </r>
       <r>   -4.9183    1.0000 </r>
       <r>   -4.9160    1.0000 </r>
       <r>   -4.9081    1.0000 </r>
       <r>   -4.9016    1.0000 </r>
       <r>   -4.8744    1.0000 </r>
       <r>   -4.8623    1.0000 </r>
       <r>   -4.8619    1.0000 </r>
       <r>   -4.8581    1.0000 </r>
       <r>   -4.8554    1.0000 </r>
       <r>   -4.8499    1.0000 </r>
       <r>   -4.8470    1.0000 </r>
       <r>   -4.8383    1.0000 </r>
       <r>   -4.8231    0.9999 </r>
       <r>   -4.8211    0.9999 </r>
       <r>   -4.8112    0.9999 </r>
       <r>   -4.8040    0.9999 </r>
       <r>   -4.7974    0.9999 </r>
       <r>   -4.7842    0.9998 </r>
       <r>   -4.7794    0.9998 </r>
       <r>   -4.7674    0.9997 </r>
       <r>   -4.7604    0.9997 </r>
       <r>   -4.7577    0.9996 </r>
       <r>   -4.7536    0.9996 </r>
       <r>   -4.7480    0.9996 </r>
       <r>   -4.7387    0.9995 </r>
       <r>   -4.7194    0.9992 </r>
       <r>   -4.7179    0.9992 </r>
       <r>   -4.7085    0.9990 </r>
       <r>   -4.7024    0.9989 </r>
       <r>   -4.6974    0.9988 </r>
       <r>   -4.6935    0.9987 </r>
       <r>   -4.6894    0.9986 </r>
       <r>   -4.6852    0.9985 </r>
       <r>   -4.6821    0.9984 </r>
       <r>   -4.6806    0.9984 </r>
       <r>   -4.6794    0.9983 </r>
       <r>   -4.6741    0.9982 </r>
       <r>   -4.6699    0.9981 </r>
       <r>   -4.6640    0.9979 </r>
       <r>   -4.6616    0.9978 </r>
       <r>   -4.6596    0.9977 </r>
       <r>   -4.6589    0.9977 </r>
       <r>   -4.6582    0.9977 </r>
       <r>   -4.6563    0.9976 </r>
       <r>   -4.6520    0.9975 </r>
       <r>   -4.6455    0.9972 </r>
       <r>   -4.6339    0.9968 </r>
       <r>   -4.6242    0.9964 </r>
       <r>   -4.6196    0.9963 </r>
       <r>   -4.6174    0.9962 </r>
       <r>   -4.6148    0.9961 </r>
       <r>   -4.6106    0.9959 </r>
       <r>   -4.6095    0.9959 </r>
       <r>   -4.6035    0.9957 </r>
       <r>   -4.6016    0.9956 </r>
       <r>   -4.5957    0.9955 </r>
       <r>   -4.5886    0.9953 </r>
       <r>   -4.5876    0.9953 </r>
       <r>   -4.5854    0.9952 </r>
       <r>   -4.5761    0.9951 </r>
       <r>   -4.5734    0.9951 </r>
       <r>   -4.5702    0.9951 </r>
       <r>   -4.5688    0.9951 </r>
       <r>   -4.5640    0.9951 </r>
       <r>   -4.5620    0.9951 </r>
       <r>   -4.5589    0.9952 </r>
       <r>   -4.5556    0.9952 </r>
       <r>   -4.5415    0.9958 </r>
       <r>   -4.5249    0.9972 </r>
       <r>   -4.5221    0.9975 </r>
       <r>   -4.5204    0.9978 </r>
       <r>   -4.5149    0.9985 </r>
       <r>   -4.5097    0.9993 </r>
       <r>   -4.5080    0.9996 </r>
       <r>   -4.4961    1.0020 </r>
       <r>   -4.4918    1.0030 </r>
       <r>   -4.4904    1.0034 </r>
       <r>   -4.4845    1.0049 </r>
       <r>   -4.4779    1.0069 </r>
       <r>   -4.4736    1.0082 </r>
       <r>   -4.4697    1.0095 </r>
       <r>   -4.4660    1.0109 </r>
       <r>   -4.4641    1.0116 </r>
       <r>   -4.4602    1.0130 </r>
       <r>   -4.4573    1.0141 </r>
       <r>   -4.4513    1.0166 </r>
       <r>   -4.4415    1.0209 </r>
       <r>   -4.4395    1.0218 </r>
       <r>   -4.4376    1.0227 </r>
       <r>   -4.4277    1.0274 </r>
       <r>   -4.4257    1.0283 </r>
       <r>   -4.4207    1.0307 </r>
       <r>   -4.4201    1.0310 </r>
       <r>   -4.4196    1.0312 </r>
       <r>   -4.4173    1.0323 </r>
       <r>   -4.4129    1.0344 </r>
       <r>   -4.3997    1.0405 </r>
       <r>   -4.3904    1.0444 </r>
       <r>   -4.3840    1.0467 </r>
       <r>   -4.3787    1.0483 </r>
       <r>   -4.3706    1.0503 </r>
       <r>   -4.3629    1.0514 </r>
       <r>   -4.3604    1.0516 </r>
       <r>   -4.3547    1.0516 </r>
       <r>   -4.3508    1.0512 </r>
       <r>   -4.3492    1.0510 </r>
       <r>   -4.3483    1.0509 </r>
       <r>   -4.3475    1.0507 </r>
       <r>   -4.3466    1.0505 </r>
       <r>   -4.3410    1.0490 </r>
       <r>   -4.3409    1.0490 </r>
       <r>   -4.3393    1.0484 </r>
       <r>   -4.3380    1.0479 </r>
       <r>   -4.3367    1.0474 </r>
       <r>   -4.3332    1.0457 </r>
       <r>   -4.3258    1.0412 </r>
       <r>   -4.3236    1.0396 </r>
       <r>   -4.3224    1.0386 </r>
       <r>   -4.3085    1.0244 </r>
       <r>   -4.3070    1.0225 </r>
       <r>   -4.3047    1.0195 </r>
       <r>   -4.3034    1.0177 </r>
       <r>   -4.2991    1.0114 </r>
       <r>   -4.2968    1.0075 </r>
       <r>   -4.2915    0.9985 </r>
       <r>   -4.2879    0.9915 </r>
       <r>   -4.2839    0.9833 </r>
       <r>   -4.2793    0.9732 </r>
       <r>   -4.2785    0.9715 </r>
       <r>   -4.2755    0.9643 </r>
       <r>   -4.2731    0.9582 </r>
       <r>   -4.2683    0.9457 </r>
       <r>   -4.2666    0.9410 </r>
       <r>   -4.2633    0.9317 </r>
       <r>   -4.2611    0.9250 </r>
       <r>   -4.2604    0.9230 </r>
       <r>   -4.2588    0.9180 </r>
       <r>   -4.2574    0.9137 </r>
       <r>   -4.2534    0.9010 </r>
       <r>   -4.2534    0.9007 </r>
       <r>   -4.2516    0.8948 </r>
       <r>   -4.2415    0.8590 </r>
       <r>   -4.2401    0.8539 </r>
       <r>   -4.2396    0.8520 </r>
       <r>   -4.2342    0.8310 </r>
       <r>   -4.2330    0.8260 </r>
       <r>   -4.2302    0.8148 </r>
       <r>   -4.2207    0.7739 </r>
       <r>   -4.2136    0.7419 </r>
       <r>   -4.2075    0.7134 </r>
       <r>   -4.1998    0.6757 </r>
       <r>   -4.1964    0.6590 </r>
       <r>   -4.1943    0.6484 </r>
       <r>   -4.1900    0.6264 </r>
       <r>   -4.1896    0.6244 </r>
       <r>   -4.1867    0.6098 </r>
       <r>   -4.1750    0.5486 </r>
       <r>   -4.1567    0.4519 </r>
       <r>   -4.1494    0.4139 </r>
       <r>   -4.1473    0.4025 </r>
       <r>   -4.1445    0.3882 </r>
       <r>   -4.1417    0.3741 </r>
       <r>   -4.1334    0.3320 </r>
       <r>   -4.1310    0.3201 </r>
       <r>   -4.1266    0.2988 </r>
       <r>   -3.9768   -0.0516 </r>
       <r>   -3.8516   -0.0062 </r>
       <r>   -3.8482   -0.0052 </r>
       <r>   -3.8298   -0.0008 </r>
       <r>   -3.6770    0.0024 </r>
       <r>   -3.5281    0.0001 </r>
       <r>   -3.5071    0.0001 </r>
       <r>   -3.3041    0.0000 </r>
       <r>   -3.1006    0.0000 </r>
       <r>   -3.0756    0.0000 </r>
       <r>   -3.0732    0.0000 </r>
       <r>   -3.0464    0.0000 </r>
       <r>   -3.0416    0.0000 </r>
       <r>   -2.9601    0.0000 </r>
       <r>   -2.9547    0.0000 </r>
       <r>   -2.6835    0.0000 </r>
       <r>   -2.6064    0.0000 </r>
       <r>   -2.5450    0.0000 </r>
       <r>   -2.5325    0.0000 </r>
       <r>   -2.2802    0.0000 </r>
       <r>   -2.1283    0.0000 </r>
       <r>   -2.1260    0.0000 </r>
       <r>   -2.0862    0.0000 </r>
       <r>   -2.0244    0.0000 </r>
       <r>   -1.9978    0.0000 </r>
       <r>   -1.9382    0.0000 </r>
       <r>   -1.8933    0.0000 </r>
       <r>   -1.8161    0.0000 </r>
       <r>   -1.6882    0.0000 </r>
       <r>   -1.6616    0.0000 </r>
       <r>   -1.6552    0.0000 </r>
       <r>   -1.6043    0.0000 </r>
       <r>   -1.6014    0.0000 </r>
       <r>   -1.5662    0.0000 </r>
       <r>   -1.3563    0.0000 </r>
       <r>   -1.2610    0.0000 </r>
       <r>   -1.1199    0.0000 </r>
       <r>   -1.0748    0.0000 </r>
       <r>   -1.0077    0.0000 </r>
       <r>   -0.9925    0.0000 </r>
       <r>   -0.9785    0.0000 </r>
       <r>   -0.9577    0.0000 </r>
       <r>   -0.9403    0.0000 </r>
       <r>   -0.9352    0.0000 </r>
       <r>   -0.8814    0.0000 </r>
       <r>   -0.8374    0.0000 </r>
       <r>   -0.7861    0.0000 </r>
      </set>
     </set>
    </set>
   </array>
  </eigenvalues>
  <separator name="orbital magnetization" >
   <v name="MAGDIPOLOUT">      0.00000000      0.00000000      0.00000000</v>
  </separator>
  <dos>
   <i name="efermi">     -4.16580369 </i>
   <total>
    <array>
     <dimension dim="1">gridpoints</dimension>
     <dimension dim="2">spin</dimension>
     <field>energy</field>
     <field>total</field>
     <field>integrated</field>
     <set>
      <set comment="spin 1">
       <r>   -30.0607     0.0000     0.0000 </r>
       <r>   -29.9565     0.0000     0.0000 </r>
       <r>   -29.8522     0.0000     0.0000 </r>
       <r>   -29.7480     0.0000     0.0000 </r>
       <r>   -29.6437     0.0000     0.0000 </r>
       <r>   -29.5395     0.0000     0.0000 </r>
       <r>   -29.4352     0.0000     0.0000 </r>
       <r>   -29.3310     0.0000     0.0000 </r>
       <r>   -29.2267     0.0000     0.0000 </r>
       <r>   -29.1225     0.0000     0.0000 </r>
       <r>   -29.0182     0.0000     0.0000 </r>
       <r>   -28.9140     0.0000     0.0000 </r>
       <r>   -28.8097     0.0001     0.0000 </r>
       <r>   -28.7055     0.0018     0.0002 </r>
       <r>   -28.6012     0.0181     0.0021 </r>
       <r>   -28.4970     0.0633     0.0087 </r>
       <r>   -28.3927    -0.1145    -0.0033 </r>
       <r>   -28.2885    -0.7956    -0.0862 </r>
       <r>   -28.1842     0.9362     0.0114 </r>
       <r>   -28.0800     7.5414     0.7976 </r>
       <r>   -27.9757     9.4642     1.7842 </r>
       <r>   -27.8715     3.0592     2.1031 </r>
       <r>   -27.7672    -0.7327     2.0268 </r>
       <r>   -27.6630    -0.3508     1.9902 </r>
       <r>   -27.5588     0.0554     1.9960 </r>
       <r>   -27.4545     0.0337     1.9995 </r>
       <r>   -27.3503     0.0047     2.0000 </r>
       <r>   -27.2460     0.0003     2.0000 </r>
       <r>   -27.1418     0.0000     2.0000 </r>
       <r>   -27.0375     0.0000     2.0000 </r>
       <r>   -26.9333     0.0000     2.0000 </r>
       <r>   -26.8290     0.0000     2.0000 </r>
       <r>   -26.7248     0.0000     2.0000 </r>
       <r>   -26.6205     0.0000     2.0000 </r>
       <r>   -26.5163     0.0000     2.0000 </r>
       <r>   -26.4120     0.0000     2.0000 </r>
       <r>   -26.3078     0.0000     2.0000 </r>
       <r>   -26.2035     0.0000     2.0000 </r>
       <r>   -26.0993     0.0000     2.0000 </r>
       <r>   -25.9950     0.0000     2.0000 </r>
       <r>   -25.8908     0.0000     2.0000 </r>
       <r>   -25.7865     0.0000     2.0000 </r>
       <r>   -25.6823     0.0000     2.0000 </r>
       <r>   -25.5780     0.0000     2.0000 </r>
       <r>   -25.4738     0.0000     2.0000 </r>
       <r>   -25.3695     0.0000     2.0000 </r>
       <r>   -25.2653     0.0000     2.0000 </r>
       <r>   -25.1610     0.0000     2.0000 </r>
       <r>   -25.0568     0.0000     2.0000 </r>
       <r>   -24.9525     0.0000     2.0000 </r>
       <r>   -24.8483     0.0000     2.0000 </r>
       <r>   -24.7440     0.0000     2.0000 </r>
       <r>   -24.6398     0.0000     2.0000 </r>
       <r>   -24.5355     0.0000     2.0000 </r>
       <r>   -24.4313     0.0000     2.0000 </r>
       <r>   -24.3270     0.0000     2.0000 </r>
       <r>   -24.2228     0.0000     2.0000 </r>
       <r>   -24.1185     0.0000     2.0000 </r>
       <r>   -24.0143     0.0000     2.0000 </r>
       <r>   -23.9100     0.0000     2.0000 </r>
       <r>   -23.8058     0.0000     2.0000 </r>
       <r>   -23.7015     0.0000     2.0000 </r>
       <r>   -23.5973     0.0000     2.0000 </r>
       <r>   -23.4930     0.0000     2.0000 </r>
       <r>   -23.3888     0.0000     2.0000 </r>
       <r>   -23.2845     0.0000     2.0000 </r>
       <r>   -23.1803     0.0000     2.0000 </r>
       <r>   -23.0761     0.0000     2.0000 </r>
       <r>   -22.9718     0.0000     2.0000 </r>
       <r>   -22.8676     0.0000     2.0000 </r>
       <r>   -22.7633     0.0000     2.0000 </r>
       <r>   -22.6591     0.0000     2.0000 </r>
       <r>   -22.5548     0.0000     2.0000 </r>
       <r>   -22.4506     0.0000     2.0000 </r>
       <r>   -22.3463     0.0000     2.0000 </r>
       <r>   -22.2421     0.0000     2.0000 </r>
       <r>   -22.1378     0.0000     2.0000 </r>
       <r>   -22.0336     0.0000     2.0000 </r>
       <r>   -21.9293     0.0000     2.0000 </r>
       <r>   -21.8251     0.0000     2.0000 </r>
       <r>   -21.7208     0.0000     2.0000 </r>
       <r>   -21.6166     0.0000     2.0000 </r>
       <r>   -21.5123     0.0000     2.0000 </r>
       <r>   -21.4081     0.0000     2.0000 </r>
       <r>   -21.3038     0.0000     2.0000 </r>
       <r>   -21.1996     0.0000     2.0000 </r>
       <r>   -21.0953     0.0000     2.0000 </r>
       <r>   -20.9911     0.0000     2.0000 </r>
       <r>   -20.8868     0.0000     2.0000 </r>
       <r>   -20.7826     0.0000     2.0000 </r>
       <r>   -20.6783     0.0000     2.0000 </r>
       <r>   -20.5741     0.0000     2.0000 </r>
       <r>   -20.4698     0.0000     2.0000 </r>
       <r>   -20.3656     0.0000     2.0000 </r>
       <r>   -20.2613     0.0000     2.0000 </r>
       <r>   -20.1571     0.0000     2.0000 </r>
       <r>   -20.0528     0.0000     2.0000 </r>
       <r>   -19.9486     0.0000     2.0000 </r>
       <r>   -19.8443     0.0000     2.0000 </r>
       <r>   -19.7401     0.0000     2.0000 </r>
       <r>   -19.6358     0.0000     2.0000 </r>
       <r>   -19.5316     0.0000     2.0000 </r>
       <r>   -19.4273     0.0000     2.0000 </r>
       <r>   -19.3231     0.0000     2.0000 </r>
       <r>   -19.2188     0.0000     2.0000 </r>
       <r>   -19.1146     0.0000     2.0000 </r>
       <r>   -19.0103     0.0000     2.0000 </r>
       <r>   -18.9061     0.0000     2.0000 </r>
       <r>   -18.8019     0.0000     2.0000 </r>
       <r>   -18.6976     0.0000     2.0000 </r>
       <r>   -18.5934     0.0000     2.0000 </r>
       <r>   -18.4891     0.0000     2.0000 </r>
       <r>   -18.3849     0.0000     2.0000 </r>
       <r>   -18.2806     0.0000     2.0000 </r>
       <r>   -18.1764     0.0000     2.0000 </r>
       <r>   -18.0721     0.0000     2.0000 </r>
       <r>   -17.9679     0.0000     2.0000 </r>
       <r>   -17.8636     0.0000     2.0000 </r>
       <r>   -17.7594     0.0000     2.0000 </r>
       <r>   -17.6551     0.0000     2.0000 </r>
       <r>   -17.5509     0.0000     2.0000 </r>
       <r>   -17.4466     0.0000     2.0000 </r>
       <r>   -17.3424     0.0000     2.0000 </r>
       <r>   -17.2381     0.0000     2.0000 </r>
       <r>   -17.1339     0.0000     2.0000 </r>
       <r>   -17.0296     0.0000     2.0000 </r>
       <r>   -16.9254     0.0000     2.0000 </r>
       <r>   -16.8211     0.0000     2.0000 </r>
       <r>   -16.7169     0.0000     2.0000 </r>
       <r>   -16.6126     0.0000     2.0000 </r>
       <r>   -16.5084     0.0000     2.0000 </r>
       <r>   -16.4041     0.0000     2.0000 </r>
       <r>   -16.2999     0.0000     2.0000 </r>
       <r>   -16.1956     0.0000     2.0000 </r>
       <r>   -16.0914     0.0000     2.0000 </r>
       <r>   -15.9871     0.0000     2.0000 </r>
       <r>   -15.8829     0.0000     2.0000 </r>
       <r>   -15.7786     0.0000     2.0000 </r>
       <r>   -15.6744     0.0000     2.0000 </r>
       <r>   -15.5701     0.0000     2.0000 </r>
       <r>   -15.4659     0.0000     2.0000 </r>
       <r>   -15.3616     0.0000     2.0000 </r>
       <r>   -15.2574     0.0000     2.0000 </r>
       <r>   -15.1531     0.0000     2.0000 </r>
       <r>   -15.0489     0.0000     2.0000 </r>
       <r>   -14.9446     0.0000     2.0000 </r>
       <r>   -14.8404     0.0000     2.0000 </r>
       <r>   -14.7361     0.0000     2.0000 </r>
       <r>   -14.6319     0.0000     2.0000 </r>
       <r>   -14.5276     0.0000     2.0000 </r>
       <r>   -14.4234     0.0000     2.0000 </r>
       <r>   -14.3192     0.0012     2.0001 </r>
       <r>   -14.2149     0.0133     2.0015 </r>
       <r>   -14.1107     0.0578     2.0075 </r>
       <r>   -14.0064    -0.0452     2.0028 </r>
       <r>   -13.9022    -0.7126     1.9285 </r>
       <r>   -13.7979     0.2802     1.9577 </r>
       <r>   -13.6937     6.4471     2.6299 </r>
       <r>   -13.5894     9.8964     3.6615 </r>
       <r>   -13.4852     4.1698     4.0962 </r>
       <r>   -13.3809    -0.5325     4.0407 </r>
       <r>   -13.2767    -0.4761     3.9911 </r>
       <r>   -13.1724     0.0363     3.9949 </r>
       <r>   -13.0682     0.0419     3.9992 </r>
       <r>   -12.9639     0.0068     3.9999 </r>
       <r>   -12.8597     0.0005     4.0000 </r>
       <r>   -12.7554     0.0000     4.0000 </r>
       <r>   -12.6512     0.0000     4.0000 </r>
       <r>   -12.5469     0.0000     4.0000 </r>
       <r>   -12.4427     0.0000     4.0000 </r>
       <r>   -12.3384     0.0000     4.0000 </r>
       <r>   -12.2342     0.0000     4.0000 </r>
       <r>   -12.1299     0.0000     4.0000 </r>
       <r>   -12.0257     0.0005     4.0001 </r>
       <r>   -11.9214     0.0075     4.0008 </r>
       <r>   -11.8172     0.0442     4.0054 </r>
       <r>   -11.7129     0.0289     4.0085 </r>
       <r>   -11.6087    -0.5102     3.9553 </r>
       <r>   -11.5044    -0.4502     3.9083 </r>
       <r>   -11.4002     4.5180     4.3793 </r>
       <r>   -11.2959    10.0224     5.4242 </r>
       <r>   -11.1917     5.7796     6.0267 </r>
       <r>   -11.0874    -0.5309     5.9713 </r>
       <r>   -10.9832     2.2750     6.2085 </r>
       <r>   -10.8789     9.6894     7.2186 </r>
       <r>   -10.7747    12.8910     8.5625 </r>
       <r>   -10.6704    10.6033     9.6678 </r>
       <r>   -10.5662     4.0245    10.0874 </r>
       <r>   -10.4619    -0.4483    10.0407 </r>
       <r>   -10.3577    -0.4830     9.9903 </r>
       <r>   -10.2534     0.0361     9.9941 </r>
       <r>   -10.1492     0.0479     9.9991 </r>
       <r>   -10.0450     0.0082     9.9999 </r>
       <r>    -9.9407     0.0006    10.0000 </r>
       <r>    -9.8365     0.0000    10.0000 </r>
       <r>    -9.7322     0.0000    10.0000 </r>
       <r>    -9.6280     0.0000    10.0000 </r>
       <r>    -9.5237     0.0000    10.0000 </r>
       <r>    -9.4195     0.0000    10.0000 </r>
       <r>    -9.3152     0.0000    10.0000 </r>
       <r>    -9.2110     0.0000    10.0000 </r>
       <r>    -9.1067     0.0000    10.0000 </r>
       <r>    -9.0025     0.0000    10.0000 </r>
       <r>    -8.8982     0.0000    10.0000 </r>
       <r>    -8.7940     0.0000    10.0000 </r>
       <r>    -8.6897     0.0000    10.0000 </r>
       <r>    -8.5855     0.0000    10.0000 </r>
       <r>    -8.4812     0.0000    10.0000 </r>
       <r>    -8.3770     0.0000    10.0000 </r>
       <r>    -8.2727     0.0000    10.0000 </r>
       <r>    -8.1685     0.0000    10.0000 </r>
       <r>    -8.0642     0.0000    10.0000 </r>
       <r>    -7.9600     0.0000    10.0000 </r>
       <r>    -7.8557     0.0000    10.0000 </r>
       <r>    -7.7515     0.0000    10.0000 </r>
       <r>    -7.6472     0.0000    10.0000 </r>
       <r>    -7.5430     0.0005    10.0001 </r>
       <r>    -7.4387     0.0081    10.0009 </r>
       <r>    -7.3345     0.0599    10.0071 </r>
       <r>    -7.2302     0.1194    10.0196 </r>
       <r>    -7.1260    -0.5244     9.9649 </r>
       <r>    -7.0217    -1.4396     9.8148 </r>
       <r>    -6.9175     4.3669    10.2701 </r>
       <r>    -6.8132    17.5955    12.1044 </r>
       <r>    -6.7090    21.6879    14.3653 </r>
       <r>    -6.6047    13.2253    15.7441 </r>
       <r>    -6.5005     2.7973    16.0357 </r>
       <r>    -6.3962    -1.1683    15.9139 </r>
       <r>    -6.2920     6.6803    16.6103 </r>
       <r>    -6.1877    21.5055    18.8522 </r>
       <r>    -6.0835    31.1882    22.1035 </r>
       <r>    -5.9792    30.3843    25.2711 </r>
       <r>    -5.8750    26.8612    28.0713 </r>
       <r>    -5.7708    41.6133    32.4095 </r>
       <r>    -5.6665    96.0196    42.4194 </r>
       <r>    -5.5623   200.7470    63.3470 </r>
       <r>    -5.4580   289.2089    93.4967 </r>
       <r>    -5.3538   270.2370   121.6686 </r>
       <r>    -5.2495   213.9710   143.9748 </r>
       <r>    -5.1453   239.1266   168.9035 </r>
       <r>    -5.0410   323.4292   202.6206 </r>
       <r>    -4.9368   349.8468   239.0917 </r>
       <r>    -4.8325   298.9823   270.2602 </r>
       <r>    -4.7283   308.7618   302.4483 </r>
       <r>    -4.6240   397.8033   343.9188 </r>
       <r>    -4.5198   427.4372   388.4786 </r>
       <r>    -4.4155   438.7879   434.2217 </r>
       <r>    -4.3113   529.3777   489.4087 </r>
       <r>    -4.2070   525.6101   544.2029 </r>
       <r>    -4.1028   294.0967   574.8622 </r>
       <r>    -3.9985    59.3412   581.0484 </r>
       <r>    -3.8943     4.5114   581.5187 </r>
       <r>    -3.7900    27.0792   584.3417 </r>
       <r>    -3.6858    24.2638   586.8712 </r>
       <r>    -3.5815    17.7586   588.7225 </r>
       <r>    -3.4773    20.4444   590.8538 </r>
       <r>    -3.3730    14.3805   592.3530 </r>
       <r>    -3.2688     6.0399   592.9826 </r>
       <r>    -3.1645    15.7407   594.6235 </r>
       <r>    -3.0603    48.3255   599.6614 </r>
       <r>    -2.9560    56.9494   605.5983 </r>
       <r>    -2.8518    23.7374   608.0729 </r>
       <r>    -2.7475     3.0483   608.3907 </r>
       <r>    -2.6433    17.6110   610.2266 </r>
       <r>    -2.5390    32.7821   613.6441 </r>
       <r>    -2.4348    21.3727   615.8722 </r>
       <r>    -2.3305     5.5907   616.4550 </r>
       <r>    -2.2263    10.5735   617.5573 </r>
       <r>    -2.1220    30.7283   620.7607 </r>
       <r>    -2.0178    46.5689   625.6154 </r>
       <r>    -1.9135    41.5001   629.9418 </r>
       <r>    -1.8093    26.8072   632.7364 </r>
       <r>    -1.7050    33.2170   636.1992 </r>
       <r>    -1.6008    52.4021   641.6621 </r>
       <r>    -1.4965    38.3856   645.6637 </r>
       <r>    -1.3923    12.9952   647.0185 </r>
       <r>    -1.2881    11.0589   648.1714 </r>
       <r>    -1.1838    14.5917   649.6925 </r>
       <r>    -1.0796    30.2163   652.8425 </r>
       <r>    -0.9753    64.4506   659.5614 </r>
       <r>    -0.8711    72.8146   667.1523 </r>
       <r>    -0.7668    40.6792   671.3930 </r>
       <r>    -0.6626     8.5619   672.2856 </r>
       <r>    -0.5583    -2.0262   672.0744 </r>
       <r>    -0.4541    -1.0635   671.9635 </r>
       <r>    -0.3498     0.1695   671.9812 </r>
       <r>    -0.2456     0.1499   671.9968 </r>
       <r>    -0.1413     0.0284   671.9997 </r>
       <r>    -0.0371     0.0024   672.0000 </r>
       <r>     0.0672     0.0001   672.0000 </r>
       <r>     0.1714     0.0000   672.0000 </r>
       <r>     0.2757     0.0000   672.0000 </r>
       <r>     0.3799     0.0000   672.0000 </r>
       <r>     0.4842     0.0000   672.0000 </r>
       <r>     0.5884     0.0000   672.0000 </r>
       <r>     0.6927     0.0000   672.0000 </r>
       <r>     0.7969     0.0000   672.0000 </r>
       <r>     0.9012     0.0000   672.0000 </r>
       <r>     1.0054     0.0000   672.0000 </r>
       <r>     1.1097     0.0000   672.0000 </r>
       <r>     1.2139     0.0000   672.0000 </r>
      </set>
     </set>
    </array>
   </total>
  </dos>
 </calculation>
 <structure name="finalpos" >
  <crystal>
   <varray name="basis" >
    <v>      30.00000000       0.00000000       0.00000000 </v>
    <v>       0.00000000      30.00000000       0.00000000 </v>
    <v>       0.00000000       0.00000000      30.00000000 </v>
   </varray>
   <i name="volume">  27000.00000000 </i>
   <varray name="rec_basis" >
    <v>       0.03333333       0.00000000       0.00000000 </v>
    <v>       0.00000000       0.03333333       0.00000000 </v>
    <v>       0.00000000       0.00000000       0.03333333 </v>
   </varray>
  </crystal>
  <varray name="positions" >
   <v>       0.44576020       0.32826710       0.41691983 </v>
   <v>       0.67173288       0.55423978       0.41691983 </v>
   <v>       0.55423980       0.32826710       0.41691983 </v>
   <v>       0.32826712       0.55423978       0.41691983 </v>
   <v>       0.50000000       0.38250690       0.34021317 </v>
   <v>       0.50000000       0.38250690       0.65978680 </v>
   <v>       0.50000000       0.27609440       0.50000000 </v>
   <v>       0.27609443       0.49999998       0.50000000 </v>
   <v>       0.72390557       0.49999998       0.50000000 </v>
   <v>       0.50000000       0.72390555       0.50000000 </v>
   <v>       0.61195280       0.38804720       0.34167483 </v>
   <v>       0.61195280       0.38804720       0.65832513 </v>
   <v>       0.38804722       0.61195278       0.34167483 </v>
   <v>       0.38804722       0.61195278       0.65832513 </v>
   <v>       0.38804720       0.38804720       0.34167483 </v>
   <v>       0.38804720       0.38804720       0.65832513 </v>
   <v>       0.61195278       0.61195278       0.34167483 </v>
   <v>       0.61195278       0.61195278       0.65832513 </v>
   <v>       0.44576020       0.32826710       0.58308023 </v>
   <v>       0.67173288       0.55423978       0.58308023 </v>
   <v>       0.55791699       0.44208301       0.41809300 </v>
   <v>       0.32826705       0.44576024       0.41691983 </v>
   <v>       0.55423973       0.67173293       0.41691983 </v>
   <v>       0.55423980       0.32826710       0.58308023 </v>
   <v>       0.32826712       0.55423978       0.58308023 </v>
   <v>       0.67173295       0.44576024       0.41691983 </v>
   <v>       0.44576027       0.67173293       0.41691983 </v>
   <v>       0.44208301       0.44208301       0.41809300 </v>
   <v>       0.50000000       0.38416601       0.50000000 </v>
   <v>       0.61749315       0.50000005       0.34021317 </v>
   <v>       0.61749315       0.50000005       0.65978680 </v>
   <v>       0.38250685       0.50000005       0.34021317 </v>
   <v>       0.38250685       0.50000005       0.65978680 </v>
   <v>       0.38317830       0.38317830       0.50000000 </v>
   <v>       0.61682172       0.61682172       0.50000000 </v>
   <v>       0.61682170       0.38317830       0.50000000 </v>
   <v>       0.38317828       0.61682172       0.50000000 </v>
   <v>       0.50000000       0.50000000       0.33478917 </v>
   <v>       0.50000000       0.50000000       0.66521087 </v>
   <v>       0.32826705       0.44576024       0.58308023 </v>
   <v>       0.55423973       0.67173293       0.58308023 </v>
   <v>       0.55791699       0.44208301       0.58190703 </v>
   <v>       0.44208298       0.55791702       0.41809300 </v>
   <v>       0.44208301       0.44208301       0.58190703 </v>
   <v>       0.67173295       0.44576024       0.58308023 </v>
   <v>       0.44576027       0.67173293       0.58308023 </v>
   <v>       0.55791702       0.55791702       0.41809300 </v>
   <v>       0.38416599       0.50000002       0.50000000 </v>
   <v>       0.61583401       0.50000002       0.50000000 </v>
   <v>       0.50000000       0.61749319       0.34021317 </v>
   <v>       0.50000000       0.61749319       0.65978680 </v>
   <v>       0.50000000       0.50000000       0.50000000 </v>
   <v>       0.44208298       0.55791702       0.58190703 </v>
   <v>       0.55791702       0.55791702       0.58190703 </v>
   <v>       0.50000000       0.61583404       0.50000000 </v>
   <v>       0.68774483       0.46958197       0.63213970 </v>
   <v>       0.71822620       0.46464343       0.65359330 </v>
  </varray>
  <varray name="selective"  type="logical" >
   <v type="logical" >  F  F  F </v>
   <v type="logical" >  F  F  F </v>
   <v type="logical" >  F  F  F </v>
   <v type="logical" >  F  F  F </v>
   <v type="logical" >  F  F  F </v>
   <v type="logical" >  F  F  F </v>
   <v type="logical" >  F  F  F </v>
   <v type="logical" >  F  F  F </v>
   <v type="logical" >  F  F  F </v>
   <v type="logical" >  F  F  F </v>
   <v type="logical" >  F  F  F </v>
   <v type="logical" >  F  F  F </v>
   <v type="logical" >  F  F  F </v>
   <v type="logical" >  F  F  F </v>
   <v type="logical" >  F  F  F </v>
   <v type="logical" >  F  F  F </v>
   <v type="logical" >  F  F  F </v>
   <v type="logical" >  F  F  F </v>
   <v type="logical" >  F  F  F </v>
   <v type="logical" >  F  F  F </v>
   <v type="logical" >  F  F  F </v>
   <v type="logical" >  F  F  F </v>
   <v type="logical" >  F  F  F </v>
   <v type="logical" >  F  F  F </v>
   <v type="logical" >  F  F  F </v>
   <v type="logical" >  F  F  F </v>
   <v type="logical" >  F  F  F </v>
   <v type="logical" >  F  F  F </v>
   <v type="logical" >  F  F  F </v>
   <v type="logical" >  F  F  F </v>
   <v type="logical" >  F  F  F </v>
   <v type="logical" >  F  F  F </v>
   <v type="logical" >  F  F  F </v>
   <v type="logical" >  F  F  F </v>
   <v type="logical" >  F  F  F </v>
   <v type="logical" >  F  F  F </v>
   <v type="logical" >  F  F  F </v>
   <v type="logical" >  F  F  F </v>
   <v type="logical" >  F  F  F </v>
   <v type="logical" >  F  F  F </v>
   <v type="logical" >  F  F  F </v>
   <v type="logical" >  F  F  F </v>
   <v type="logical" >  F  F  F </v>
   <v type="logical" >  F  F  F </v>
   <v type="logical" >  F  F  F </v>
   <v type="logical" >  F  F  F </v>
   <v type="logical" >  F  F  F </v>
   <v type="logical" >  F  F  F </v>
   <v type="logical" >  F  F  F </v>
   <v type="logical" >  F  F  F </v>
   <v type="logical" >  F  F  F </v>
   <v type="logical" >  F  F  F </v>
   <v type="logical" >  F  F  F </v>
   <v type="logical" >  F  F  F </v>
   <v type="logical" >  F  F  F </v>
   <v type="logical" >  F  F  F </v>
   <v type="logical" >  F  F  F </v>
  </varray>
  <nose>
   <v>      -3.00000000       0.00000000       0.00010000       0.00010000 </v>
  </nose>
 </structure>
</modeling>
