  57  57   0   0
  0.4736842E+03  0.3000000E-08  0.3000000E-08  0.3000000E-08  0.5000000E-15
  1.000000000000000E-004
  CAR 
 6_Pd100_top_free_z(O)                   
      1.30579390    -30.75712586  301     -4.15682668      1.00000000
    -30.757  0.0000E+00  0.0000E+00
    -30.650  0.0000E+00  0.0000E+00
    -30.543  0.0000E+00  0.0000E+00
    -30.436  0.3555E-27  0.3800E-28
    -30.330  0.1719E-23  0.1838E-24
    -30.223  0.4624E-20  0.4944E-21
    -30.116  0.6897E-17  0.7376E-18
    -30.009  0.5684E-14  0.6082E-15
    -29.902  0.2580E-11  0.2764E-12
    -29.795  0.6391E-09  0.6858E-10
    -29.688  0.8561E-07  0.9218E-08
    -29.581  0.6107E-05  0.6619E-06
    -29.475  0.2259E-03  0.2481E-04
    -29.368  0.4115E-02  0.4646E-03
    -29.261  0.3233E-01  0.3920E-02
    -29.154  0.5489E-01  0.9787E-02
    -29.047 -0.3679E+00 -0.2954E-01
    -28.940 -0.6772E+00 -0.1019E+00
    -28.833  0.3554E+01  0.2780E+00
    -28.726  0.9735E+01  0.1318E+01
    -28.620  0.6706E+01  0.2035E+01
    -28.513  0.3395E+00  0.2071E+01
    -28.406 -0.7019E+00  0.1996E+01
    -28.299 -0.3319E-01  0.1993E+01
    -28.192  0.5475E-01  0.1999E+01
    -28.085  0.1114E-01  0.2000E+01
    -27.978  0.8533E-03  0.2000E+01
    -27.871  0.3093E-04  0.2000E+01
    -27.765  0.5712E-06  0.2000E+01
    -27.658  0.5565E-08  0.2000E+01
    -27.551  0.2916E-10  0.2000E+01
    -27.444  0.8310E-13  0.2000E+01
    -27.337  0.0000E+00  0.2000E+01
    -27.230  0.0000E+00  0.2000E+01
    -27.123  0.0000E+00  0.2000E+01
    -27.016  0.0000E+00  0.2000E+01
    -26.910  0.0000E+00  0.2000E+01
    -26.803  0.0000E+00  0.2000E+01
    -26.696  0.0000E+00  0.2000E+01
    -26.589  0.0000E+00  0.2000E+01
    -26.482  0.0000E+00  0.2000E+01
    -26.375  0.0000E+00  0.2000E+01
    -26.268  0.0000E+00  0.2000E+01
    -26.161  0.0000E+00  0.2000E+01
    -26.055  0.0000E+00  0.2000E+01
    -25.948  0.0000E+00  0.2000E+01
    -25.841  0.0000E+00  0.2000E+01
    -25.734  0.0000E+00  0.2000E+01
    -25.627  0.0000E+00  0.2000E+01
    -25.520  0.0000E+00  0.2000E+01
    -25.413  0.0000E+00  0.2000E+01
    -25.306  0.0000E+00  0.2000E+01
    -25.200  0.0000E+00  0.2000E+01
    -25.093  0.0000E+00  0.2000E+01
    -24.986  0.0000E+00  0.2000E+01
    -24.879  0.0000E+00  0.2000E+01
    -24.772  0.0000E+00  0.2000E+01
    -24.665  0.0000E+00  0.2000E+01
    -24.558  0.0000E+00  0.2000E+01
    -24.451  0.0000E+00  0.2000E+01
    -24.345  0.0000E+00  0.2000E+01
    -24.238  0.0000E+00  0.2000E+01
    -24.131  0.0000E+00  0.2000E+01
    -24.024  0.0000E+00  0.2000E+01
    -23.917  0.0000E+00  0.2000E+01
    -23.810  0.0000E+00  0.2000E+01
    -23.703  0.0000E+00  0.2000E+01
    -23.596  0.0000E+00  0.2000E+01
    -23.490  0.0000E+00  0.2000E+01
    -23.383  0.0000E+00  0.2000E+01
    -23.276  0.0000E+00  0.2000E+01
    -23.169  0.0000E+00  0.2000E+01
    -23.062  0.0000E+00  0.2000E+01
    -22.955  0.0000E+00  0.2000E+01
    -22.848  0.0000E+00  0.2000E+01
    -22.741  0.0000E+00  0.2000E+01
    -22.635  0.0000E+00  0.2000E+01
    -22.528  0.0000E+00  0.2000E+01
    -22.421  0.0000E+00  0.2000E+01
    -22.314  0.0000E+00  0.2000E+01
    -22.207  0.0000E+00  0.2000E+01
    -22.100  0.0000E+00  0.2000E+01
    -21.993  0.0000E+00  0.2000E+01
    -21.886  0.0000E+00  0.2000E+01
    -21.780  0.0000E+00  0.2000E+01
    -21.673  0.0000E+00  0.2000E+01
    -21.566  0.0000E+00  0.2000E+01
    -21.459  0.0000E+00  0.2000E+01
    -21.352  0.0000E+00  0.2000E+01
    -21.245  0.0000E+00  0.2000E+01
    -21.138  0.0000E+00  0.2000E+01
    -21.031  0.0000E+00  0.2000E+01
    -20.924  0.0000E+00  0.2000E+01
    -20.818  0.0000E+00  0.2000E+01
    -20.711  0.0000E+00  0.2000E+01
    -20.604  0.0000E+00  0.2000E+01
    -20.497  0.0000E+00  0.2000E+01
    -20.390  0.0000E+00  0.2000E+01
    -20.283  0.0000E+00  0.2000E+01
    -20.176  0.0000E+00  0.2000E+01
    -20.069  0.0000E+00  0.2000E+01
    -19.963  0.0000E+00  0.2000E+01
    -19.856  0.0000E+00  0.2000E+01
    -19.749  0.0000E+00  0.2000E+01
    -19.642  0.0000E+00  0.2000E+01
    -19.535  0.0000E+00  0.2000E+01
    -19.428  0.0000E+00  0.2000E+01
    -19.321  0.0000E+00  0.2000E+01
    -19.214  0.0000E+00  0.2000E+01
    -19.108  0.0000E+00  0.2000E+01
    -19.001  0.0000E+00  0.2000E+01
    -18.894  0.0000E+00  0.2000E+01
    -18.787  0.0000E+00  0.2000E+01
    -18.680  0.0000E+00  0.2000E+01
    -18.573  0.0000E+00  0.2000E+01
    -18.466  0.0000E+00  0.2000E+01
    -18.359  0.0000E+00  0.2000E+01
    -18.253  0.0000E+00  0.2000E+01
    -18.146  0.0000E+00  0.2000E+01
    -18.039  0.0000E+00  0.2000E+01
    -17.932  0.0000E+00  0.2000E+01
    -17.825  0.0000E+00  0.2000E+01
    -17.718  0.0000E+00  0.2000E+01
    -17.611  0.0000E+00  0.2000E+01
    -17.504  0.0000E+00  0.2000E+01
    -17.398  0.0000E+00  0.2000E+01
    -17.291  0.0000E+00  0.2000E+01
    -17.184  0.0000E+00  0.2000E+01
    -17.077  0.0000E+00  0.2000E+01
    -16.970  0.0000E+00  0.2000E+01
    -16.863  0.0000E+00  0.2000E+01
    -16.756  0.0000E+00  0.2000E+01
    -16.649  0.0000E+00  0.2000E+01
    -16.543  0.0000E+00  0.2000E+01
    -16.436  0.0000E+00  0.2000E+01
    -16.329  0.0000E+00  0.2000E+01
    -16.222  0.0000E+00  0.2000E+01
    -16.115  0.0000E+00  0.2000E+01
    -16.008  0.0000E+00  0.2000E+01
    -15.901  0.0000E+00  0.2000E+01
    -15.794  0.0000E+00  0.2000E+01
    -15.688  0.0000E+00  0.2000E+01
    -15.581  0.0000E+00  0.2000E+01
    -15.474  0.0000E+00  0.2000E+01
    -15.367  0.0000E+00  0.2000E+01
    -15.260  0.0000E+00  0.2000E+01
    -15.153  0.2387E-27  0.2000E+01
    -15.046  0.1185E-23  0.2000E+01
    -14.939  0.3274E-20  0.2000E+01
    -14.833  0.5016E-17  0.2000E+01
    -14.726  0.4247E-14  0.2000E+01
    -14.619  0.1982E-11  0.2000E+01
    -14.512  0.5045E-09  0.2000E+01
    -14.405  0.6950E-07  0.2000E+01
    -14.298  0.5104E-05  0.2000E+01
    -14.191  0.1947E-03  0.2000E+01
    -14.084  0.3668E-02  0.2000E+01
    -13.978  0.3011E-01  0.2004E+01
    -13.871  0.5829E-01  0.2010E+01
    -13.764 -0.3329E+00  0.1974E+01
    -13.657 -0.7231E+00  0.1897E+01
    -13.550  0.3236E+01  0.2243E+01
    -13.443  0.9606E+01  0.3270E+01
    -13.336  0.7028E+01  0.4021E+01
    -13.229  0.5175E+00  0.4076E+01
    -13.123 -0.7306E+00  0.3998E+01
    -13.016 -0.5002E-01  0.3993E+01
    -12.909  0.5687E-01  0.3999E+01
    -12.802  0.1227E-01  0.4000E+01
    -12.695  0.9751E-03  0.4000E+01
    -12.588  0.3649E-04  0.4000E+01
    -12.481  0.6941E-06  0.4000E+01
    -12.374  0.6960E-08  0.4000E+01
    -12.268  0.2966E-09  0.4000E+01
    -12.161  0.3922E-07  0.4000E+01
    -12.054  0.3192E-05  0.4000E+01
    -11.947  0.1370E-03  0.4000E+01
    -11.840  0.2986E-02  0.4000E+01
    -11.733  0.3031E-01  0.4004E+01
    -11.626  0.1045E+00  0.4015E+01
    -11.519 -0.2037E+00  0.3993E+01
    -11.412 -0.1302E+01  0.3854E+01
    -11.306  0.1941E+01  0.4061E+01
    -11.199  0.1385E+02  0.5541E+01
    -11.092  0.1790E+02  0.7455E+01
    -10.985  0.6623E+01  0.8162E+01
    -10.878 -0.9613E+00  0.8060E+01
    -10.771 -0.6287E+00  0.7993E+01
    -10.664 -0.2383E-01  0.7990E+01
    -10.557 -0.7256E+00  0.7912E+01
    -10.451  0.1037E+01  0.8023E+01
    -10.344  0.7796E+01  0.8857E+01
    -10.237  0.9182E+01  0.9838E+01
    -10.130  0.2473E+01  0.1010E+02
    -10.023 -0.7965E+00  0.1002E+02
     -9.916 -0.2500E+00  0.9990E+01
     -9.809  0.6330E-01  0.9997E+01
     -9.702  0.2491E-01  0.1000E+02
     -9.596  0.2726E-02  0.1000E+02
     -9.489  0.1330E-03  0.1000E+02
     -9.382  0.3229E-05  0.1000E+02
     -9.275  0.4088E-07  0.1000E+02
     -9.168  0.2765E-09  0.1000E+02
     -9.061  0.1014E-11  0.1000E+02
     -8.954  0.2078E-14  0.1000E+02
     -8.847  0.0000E+00  0.1000E+02
     -8.741  0.0000E+00  0.1000E+02
     -8.634  0.0000E+00  0.1000E+02
     -8.527  0.0000E+00  0.1000E+02
     -8.420  0.0000E+00  0.1000E+02
     -8.313  0.1798E-26  0.1000E+02
     -8.206  0.7796E-23  0.1000E+02
     -8.099  0.1880E-19  0.1000E+02
     -7.992  0.2512E-16  0.1000E+02
     -7.886  0.1853E-13  0.1000E+02
     -7.779  0.7524E-11  0.1000E+02
     -7.672  0.1664E-08  0.1000E+02
     -7.565  0.1985E-06  0.1000E+02
     -7.458  0.1257E-04  0.1000E+02
     -7.351  0.4097E-03  0.1000E+02
     -7.244  0.6474E-02  0.1000E+02
     -7.137  0.4207E-01  0.1001E+02
     -7.031  0.3048E-01  0.1001E+02
     -6.924 -0.5182E+00  0.9953E+01
     -6.817 -0.3707E+00  0.9913E+01
     -6.710  0.4951E+01  0.1044E+02
     -6.603  0.1017E+02  0.1153E+02
     -6.496  0.5305E+01  0.1210E+02
     -6.389 -0.2102E+01  0.1187E+02
     -6.282  0.1151E-01  0.1187E+02
     -6.176  0.1801E+02  0.1380E+02
     -6.069  0.3102E+02  0.1711E+02
     -5.962  0.2669E+02  0.1997E+02
     -5.855  0.3123E+02  0.2330E+02
     -5.748  0.5446E+02  0.2912E+02
     -5.641  0.1157E+03  0.4149E+02
     -5.534  0.2293E+03  0.6600E+02
     -5.427  0.2972E+03  0.9777E+02
     -5.321  0.2466E+03  0.1241E+03
     -5.214  0.2011E+03  0.1456E+03
     -5.107  0.2648E+03  0.1739E+03
     -5.000  0.3555E+03  0.2119E+03
     -4.893  0.3423E+03  0.2485E+03
     -4.786  0.2838E+03  0.2788E+03
     -4.679  0.3378E+03  0.3149E+03
     -4.572  0.4259E+03  0.3604E+03
     -4.466  0.4270E+03  0.4061E+03
     -4.359  0.4726E+03  0.4566E+03
     -4.252  0.5625E+03  0.5167E+03
     -4.145  0.4400E+03  0.5637E+03
     -4.038  0.1535E+03  0.5801E+03
     -3.931  0.7910E+01  0.5810E+03
     -3.824  0.2255E+02  0.5834E+03
     -3.717  0.3318E+02  0.5869E+03
     -3.611  0.1283E+02  0.5883E+03
     -3.504  0.1597E+02  0.5900E+03
     -3.397  0.2479E+02  0.5927E+03
     -3.290  0.9646E+01  0.5937E+03
     -3.183  0.2090E+01  0.5939E+03
     -3.076  0.3372E+02  0.5975E+03
     -2.969  0.6172E+02  0.6041E+03
     -2.862  0.4273E+02  0.6087E+03
     -2.756  0.1081E+02  0.6098E+03
     -2.649  0.4021E+01  0.6103E+03
     -2.542  0.2251E+02  0.6127E+03
     -2.435  0.2759E+02  0.6156E+03
     -2.328  0.1232E+02  0.6169E+03
     -2.221  0.8331E+01  0.6178E+03
     -2.114  0.2608E+02  0.6206E+03
     -2.007  0.4576E+02  0.6255E+03
     -1.900  0.4120E+02  0.6299E+03
     -1.794  0.3070E+02  0.6332E+03
     -1.687  0.4355E+02  0.6379E+03
     -1.580  0.5124E+02  0.6433E+03
     -1.473  0.2712E+02  0.6462E+03
     -1.366  0.1069E+02  0.6474E+03
     -1.259  0.1922E+02  0.6494E+03
     -1.152  0.2806E+02  0.6524E+03
     -1.045  0.3840E+02  0.6565E+03
     -0.939  0.6276E+02  0.6632E+03
     -0.832  0.5519E+02  0.6691E+03
     -0.725  0.1954E+02  0.6712E+03
     -0.618  0.5431E+01  0.6718E+03
     -0.511  0.2243E+01  0.6720E+03
     -0.404 -0.3193E+00  0.6720E+03
     -0.297 -0.2156E+00  0.6720E+03
     -0.190  0.7378E-01  0.6720E+03
     -0.084  0.3341E-01  0.6720E+03
      0.023  0.4146E-02  0.6720E+03
      0.130  0.2264E-03  0.6720E+03
      0.237  0.6111E-05  0.6720E+03
      0.344  0.8563E-07  0.6720E+03
      0.451  0.6392E-09  0.6720E+03
      0.558  0.2578E-11  0.6720E+03
      0.665  0.6233E-14  0.6720E+03
      0.771  0.0000E+00  0.6720E+03
      0.878  0.0000E+00  0.6720E+03
      0.985  0.0000E+00  0.6720E+03
      1.092  0.0000E+00  0.6720E+03
      1.199  0.0000E+00  0.6720E+03
      1.306  0.0000E+00  0.6720E+03
