  57  57   0   0
  0.4736842E+03  0.3000000E-08  0.3000000E-08  0.3000000E-08  0.5000000E-15
  1.000000000000000E-004
  CAR 
 6_Pd100_top_free_z(O)                   
      1.30064198    -31.61780261  301     -4.11551438      1.00000000
    -31.618  0.0000E+00  0.0000E+00
    -31.508  0.0000E+00  0.0000E+00
    -31.398  0.0000E+00  0.0000E+00
    -31.289  0.6978E-27  0.7657E-28
    -31.179  0.4001E-23  0.4391E-24
    -31.069  0.1236E-19  0.1356E-20
    -30.959  0.2049E-16  0.2249E-17
    -30.850  0.1816E-13  0.1995E-14
    -30.740  0.8583E-11  0.9437E-12
    -30.630  0.2137E-08  0.2354E-09
    -30.521  0.2775E-06  0.3068E-07
    -30.411  0.1844E-04  0.2054E-05
    -30.301  0.6063E-03  0.6858E-04
    -30.191  0.9173E-02  0.1075E-02
    -30.082  0.5137E-01  0.6712E-02
    -29.972 -0.2163E-01  0.4339E-02
    -29.862 -0.6910E+00 -0.7148E-01
    -29.752  0.4088E+00 -0.2663E-01
    -29.643  0.6985E+01  0.7398E+00
    -29.533  0.9509E+01  0.1783E+01
    -29.423  0.2915E+01  0.2103E+01
    -29.314 -0.7682E+00  0.2019E+01
    -29.204 -0.2602E+00  0.1990E+01
    -29.094  0.6298E-01  0.1997E+01
    -28.984  0.2330E-01  0.2000E+01
    -28.875  0.2306E-02  0.2000E+01
    -28.765  0.9845E-04  0.2000E+01
    -28.655  0.2027E-05  0.2000E+01
    -28.545  0.2109E-07  0.2000E+01
    -28.436  0.1136E-09  0.2000E+01
    -28.326  0.3218E-12  0.2000E+01
    -28.216  0.0000E+00  0.2000E+01
    -28.107  0.0000E+00  0.2000E+01
    -27.997  0.0000E+00  0.2000E+01
    -27.887  0.0000E+00  0.2000E+01
    -27.777  0.0000E+00  0.2000E+01
    -27.668  0.0000E+00  0.2000E+01
    -27.558  0.0000E+00  0.2000E+01
    -27.448  0.0000E+00  0.2000E+01
    -27.338  0.0000E+00  0.2000E+01
    -27.229  0.0000E+00  0.2000E+01
    -27.119  0.0000E+00  0.2000E+01
    -27.009  0.0000E+00  0.2000E+01
    -26.899  0.0000E+00  0.2000E+01
    -26.790  0.0000E+00  0.2000E+01
    -26.680  0.0000E+00  0.2000E+01
    -26.570  0.0000E+00  0.2000E+01
    -26.461  0.0000E+00  0.2000E+01
    -26.351  0.0000E+00  0.2000E+01
    -26.241  0.0000E+00  0.2000E+01
    -26.131  0.0000E+00  0.2000E+01
    -26.022  0.0000E+00  0.2000E+01
    -25.912  0.0000E+00  0.2000E+01
    -25.802  0.0000E+00  0.2000E+01
    -25.692  0.0000E+00  0.2000E+01
    -25.583  0.0000E+00  0.2000E+01
    -25.473  0.0000E+00  0.2000E+01
    -25.363  0.0000E+00  0.2000E+01
    -25.254  0.0000E+00  0.2000E+01
    -25.144  0.0000E+00  0.2000E+01
    -25.034  0.0000E+00  0.2000E+01
    -24.924  0.0000E+00  0.2000E+01
    -24.815  0.0000E+00  0.2000E+01
    -24.705  0.0000E+00  0.2000E+01
    -24.595  0.0000E+00  0.2000E+01
    -24.485  0.0000E+00  0.2000E+01
    -24.376  0.0000E+00  0.2000E+01
    -24.266  0.0000E+00  0.2000E+01
    -24.156  0.0000E+00  0.2000E+01
    -24.047  0.0000E+00  0.2000E+01
    -23.937  0.0000E+00  0.2000E+01
    -23.827  0.0000E+00  0.2000E+01
    -23.717  0.0000E+00  0.2000E+01
    -23.608  0.0000E+00  0.2000E+01
    -23.498  0.0000E+00  0.2000E+01
    -23.388  0.0000E+00  0.2000E+01
    -23.278  0.0000E+00  0.2000E+01
    -23.169  0.0000E+00  0.2000E+01
    -23.059  0.0000E+00  0.2000E+01
    -22.949  0.0000E+00  0.2000E+01
    -22.840  0.0000E+00  0.2000E+01
    -22.730  0.0000E+00  0.2000E+01
    -22.620  0.0000E+00  0.2000E+01
    -22.510  0.0000E+00  0.2000E+01
    -22.401  0.0000E+00  0.2000E+01
    -22.291  0.0000E+00  0.2000E+01
    -22.181  0.0000E+00  0.2000E+01
    -22.071  0.0000E+00  0.2000E+01
    -21.962  0.0000E+00  0.2000E+01
    -21.852  0.0000E+00  0.2000E+01
    -21.742  0.0000E+00  0.2000E+01
    -21.633  0.0000E+00  0.2000E+01
    -21.523  0.0000E+00  0.2000E+01
    -21.413  0.0000E+00  0.2000E+01
    -21.303  0.0000E+00  0.2000E+01
    -21.194  0.0000E+00  0.2000E+01
    -21.084  0.0000E+00  0.2000E+01
    -20.974  0.0000E+00  0.2000E+01
    -20.864  0.0000E+00  0.2000E+01
    -20.755  0.0000E+00  0.2000E+01
    -20.645  0.0000E+00  0.2000E+01
    -20.535  0.0000E+00  0.2000E+01
    -20.426  0.0000E+00  0.2000E+01
    -20.316  0.0000E+00  0.2000E+01
    -20.206  0.0000E+00  0.2000E+01
    -20.096  0.0000E+00  0.2000E+01
    -19.987  0.0000E+00  0.2000E+01
    -19.877  0.0000E+00  0.2000E+01
    -19.767  0.0000E+00  0.2000E+01
    -19.657  0.0000E+00  0.2000E+01
    -19.548  0.0000E+00  0.2000E+01
    -19.438  0.0000E+00  0.2000E+01
    -19.328  0.0000E+00  0.2000E+01
    -19.219  0.0000E+00  0.2000E+01
    -19.109  0.0000E+00  0.2000E+01
    -18.999  0.0000E+00  0.2000E+01
    -18.889  0.0000E+00  0.2000E+01
    -18.780  0.0000E+00  0.2000E+01
    -18.670  0.0000E+00  0.2000E+01
    -18.560  0.0000E+00  0.2000E+01
    -18.450  0.0000E+00  0.2000E+01
    -18.341  0.0000E+00  0.2000E+01
    -18.231  0.0000E+00  0.2000E+01
    -18.121  0.0000E+00  0.2000E+01
    -18.012  0.0000E+00  0.2000E+01
    -17.902  0.0000E+00  0.2000E+01
    -17.792  0.0000E+00  0.2000E+01
    -17.682  0.0000E+00  0.2000E+01
    -17.573  0.0000E+00  0.2000E+01
    -17.463  0.0000E+00  0.2000E+01
    -17.353  0.0000E+00  0.2000E+01
    -17.243  0.0000E+00  0.2000E+01
    -17.134  0.0000E+00  0.2000E+01
    -17.024  0.0000E+00  0.2000E+01
    -16.914  0.0000E+00  0.2000E+01
    -16.805  0.0000E+00  0.2000E+01
    -16.695  0.0000E+00  0.2000E+01
    -16.585  0.0000E+00  0.2000E+01
    -16.475  0.0000E+00  0.2000E+01
    -16.366  0.0000E+00  0.2000E+01
    -16.256  0.0000E+00  0.2000E+01
    -16.146  0.1135E-26  0.2000E+01
    -16.036  0.6292E-23  0.2000E+01
    -15.927  0.1879E-19  0.2000E+01
    -15.817  0.3011E-16  0.2000E+01
    -15.707  0.2580E-13  0.2000E+01
    -15.597  0.1178E-10  0.2000E+01
    -15.488  0.2831E-08  0.2000E+01
    -15.378  0.3547E-06  0.2000E+01
    -15.268  0.2271E-04  0.2000E+01
    -15.159  0.7176E-03  0.2000E+01
    -15.049  0.1037E-01  0.2001E+01
    -14.939  0.5415E-01  0.2007E+01
    -14.829 -0.4093E-01  0.2003E+01
    -14.720 -0.7262E+00  0.1923E+01
    -14.610  0.6353E+00  0.1993E+01
    -14.500  0.7368E+01  0.2801E+01
    -14.390  0.9307E+01  0.3822E+01
    -14.281  0.2548E+01  0.4102E+01
    -14.171 -0.7939E+00  0.4015E+01
    -14.061 -0.2225E+00  0.3990E+01
    -13.952  0.6373E-01  0.3997E+01
    -13.842  0.2111E-01  0.4000E+01
    -13.732  0.2938E-02  0.4000E+01
    -13.622  0.1282E-01  0.4002E+01
    -13.513  0.5845E-01  0.4008E+01
    -13.403 -0.8027E-01  0.3999E+01
    -13.293 -0.7754E+00  0.3914E+01
    -13.183  0.1078E+01  0.4032E+01
    -13.074  0.7994E+01  0.4909E+01
    -12.964  0.8903E+01  0.5886E+01
    -12.854  0.2013E+01  0.6107E+01
    -12.745 -0.1026E+01  0.5995E+01
    -12.635 -0.9603E+00  0.5889E+01
    -12.525  0.2540E+01  0.6168E+01
    -12.415  0.9281E+01  0.7186E+01
    -12.306  0.7443E+01  0.8003E+01
    -12.196  0.6829E+00  0.8078E+01
    -12.086 -0.7326E+00  0.7998E+01
    -11.976 -0.4505E-01  0.7993E+01
    -11.867  0.5468E-01  0.7999E+01
    -11.757  0.1062E-01  0.8000E+01
    -11.647  0.7447E-03  0.8000E+01
    -11.538  0.1551E-03  0.8000E+01
    -11.428  0.2890E-02  0.8000E+01
    -11.318  0.2695E-01  0.8003E+01
    -11.208  0.5997E-01  0.8010E+01
    -11.099 -0.3216E+00  0.7975E+01
    -10.989 -0.7031E+00  0.7897E+01
    -10.879  0.3499E+01  0.8281E+01
    -10.769  0.9751E+01  0.9351E+01
    -10.660  0.6379E+01  0.1005E+02
    -10.550  0.1049E+00  0.1006E+02
    -10.440 -0.6307E+00  0.9994E+01
    -10.331  0.3213E-02  0.9994E+01
    -10.221  0.4692E-01  0.9999E+01
    -10.111  0.7572E-02  0.1000E+02
    -10.001  0.4671E-03  0.1000E+02
     -9.892  0.1338E-04  0.1000E+02
     -9.782  0.1903E-06  0.1000E+02
     -9.672  0.1388E-08  0.1000E+02
     -9.562  0.5286E-11  0.1000E+02
     -9.453  0.1012E-13  0.1000E+02
     -9.343  0.0000E+00  0.1000E+02
     -9.233  0.0000E+00  0.1000E+02
     -9.124  0.0000E+00  0.1000E+02
     -9.014  0.0000E+00  0.1000E+02
     -8.904  0.1135E-26  0.1000E+02
     -8.794  0.6295E-23  0.1000E+02
     -8.685  0.1880E-19  0.1000E+02
     -8.575  0.3012E-16  0.1000E+02
     -8.465  0.2581E-13  0.1000E+02
     -8.355  0.1178E-10  0.1000E+02
     -8.246  0.2832E-08  0.1000E+02
     -8.136  0.3548E-06  0.1000E+02
     -8.026  0.2272E-04  0.1000E+02
     -7.917  0.7177E-03  0.1000E+02
     -7.807  0.1037E-01  0.1000E+02
     -7.697  0.5415E-01  0.1001E+02
     -7.587 -0.4095E-01  0.1000E+02
     -7.478 -0.7262E+00  0.9923E+01
     -7.368  0.6357E+00  0.9993E+01
     -7.258  0.7371E+01  0.1080E+02
     -7.148  0.9339E+01  0.1183E+02
     -7.039  0.2661E+01  0.1212E+02
     -6.929 -0.1059E+01  0.1200E+02
     -6.819 -0.1669E+01  0.1182E+02
     -6.710  0.3221E+01  0.1217E+02
     -6.600  0.1642E+02  0.1397E+02
     -6.490  0.1679E+02  0.1582E+02
     -6.380  0.1873E+01  0.1602E+02
     -6.271 -0.2122E+01  0.1579E+02
     -6.161  0.1760E+02  0.1772E+02
     -6.051  0.3453E+02  0.2151E+02
     -5.941  0.2719E+02  0.2449E+02
     -5.832  0.3700E+02  0.2855E+02
     -5.722  0.6968E+02  0.3620E+02
     -5.612  0.1198E+03  0.4934E+02
     -5.503  0.2104E+03  0.7243E+02
     -5.393  0.2788E+03  0.1030E+03
     -5.283  0.2517E+03  0.1307E+03
     -5.173  0.2149E+03  0.1542E+03
     -5.064  0.2654E+03  0.1834E+03
     -4.954  0.3450E+03  0.2212E+03
     -4.844  0.3329E+03  0.2577E+03
     -4.734  0.2852E+03  0.2890E+03
     -4.625  0.3441E+03  0.3268E+03
     -4.515  0.4166E+03  0.3725E+03
     -4.405  0.4233E+03  0.4190E+03
     -4.295  0.4888E+03  0.4726E+03
     -4.186  0.5384E+03  0.5317E+03
     -4.076  0.3492E+03  0.5700E+03
     -3.966  0.8864E+02  0.5797E+03
     -3.857  0.1381E+02  0.5812E+03
     -3.747  0.3172E+02  0.5847E+03
     -3.637  0.2360E+02  0.5873E+03
     -3.527  0.1417E+02  0.5889E+03
     -3.418  0.1816E+02  0.5908E+03
     -3.308  0.1173E+02  0.5921E+03
     -3.198  0.5030E+01  0.5927E+03
     -3.088  0.2307E+02  0.5952E+03
     -2.979  0.5693E+02  0.6015E+03
     -2.869  0.5217E+02  0.6072E+03
     -2.759  0.1937E+02  0.6093E+03
     -2.650  0.4264E+01  0.6098E+03
     -2.540  0.9826E+01  0.6109E+03
     -2.430  0.2492E+02  0.6136E+03
     -2.320  0.2693E+02  0.6165E+03
     -2.211  0.1850E+02  0.6186E+03
     -2.101  0.1769E+02  0.6205E+03
     -1.991  0.2751E+02  0.6235E+03
     -1.881  0.4187E+02  0.6281E+03
     -1.772  0.4662E+02  0.6333E+03
     -1.662  0.3888E+02  0.6375E+03
     -1.552  0.3163E+02  0.6410E+03
     -1.443  0.2604E+02  0.6438E+03
     -1.333  0.2732E+02  0.6468E+03
     -1.223  0.3337E+02  0.6505E+03
     -1.113  0.2754E+02  0.6535E+03
     -1.004  0.2806E+02  0.6566E+03
     -0.894  0.4810E+02  0.6619E+03
     -0.784  0.5312E+02  0.6677E+03
     -0.674  0.3288E+02  0.6713E+03
     -0.565  0.8376E+01  0.6722E+03
     -0.455 -0.1637E+01  0.6721E+03
     -0.345 -0.8112E+00  0.6720E+03
     -0.236  0.1717E+00  0.6720E+03
     -0.126  0.9535E-01  0.6720E+03
     -0.016  0.1286E-01  0.6720E+03
      0.094  0.7493E-03  0.6720E+03
      0.203  0.2120E-04  0.6720E+03
      0.313  0.3049E-06  0.6720E+03
      0.423  0.2279E-08  0.6720E+03
      0.533  0.8977E-11  0.6720E+03
      0.642  0.1821E-13  0.6720E+03
      0.752  0.0000E+00  0.6720E+03
      0.862  0.0000E+00  0.6720E+03
      0.971  0.0000E+00  0.6720E+03
      1.081  0.0000E+00  0.6720E+03
      1.191  0.0000E+00  0.6720E+03
      1.301  0.0000E+00  0.6720E+03
