   57   57    1    1
  0.4736842E+03  0.3000000E-08  0.3000000E-08  0.3000000E-08  0.5000000E-15
  1.000000000000000E-004
  CAR 
 6_Pd100_top_free_z(O)                   
    560      1    336
 
  0.0000000E+00  0.0000000E+00  0.0000000E+00  0.1000000E+01
    1      -30.521330   1.000000
    2      -15.131747   1.000000
    3      -13.961742   1.000000
    4      -13.731488   1.000000
    5      -11.032157   1.000000
    6       -7.951746   1.000000
    7       -7.274817   1.000000
    8       -6.597194   1.000000
    9       -6.309029   1.000000
   10       -6.238289   1.000000
   11       -6.118362   1.000000
   12       -6.085055   1.000000
   13       -6.057853   1.000000
   14       -6.026766   1.000000
   15       -5.906111   1.000000
   16       -5.809071   1.000000
   17       -5.796080   1.000000
   18       -5.765653   1.000000
   19       -5.739243   1.000000
   20       -5.713667   1.000000
   21       -5.669266   1.000000
   22       -5.648439   1.000000
   23       -5.644769   1.000000
   24       -5.635520   1.000000
   25       -5.619155   1.000000
   26       -5.591900   1.000000
   27       -5.581566   1.000000
   28       -5.569208   1.000000
   29       -5.552506   1.000000
   30       -5.544332   1.000000
   31       -5.536817   1.000000
   32       -5.516014   1.000000
   33       -5.506671   1.000000
   34       -5.499415   1.000000
   35       -5.490612   1.000000
   36       -5.485027   1.000000
   37       -5.480705   1.000000
   38       -5.473899   1.000000
   39       -5.469231   1.000000
   40       -5.467630   1.000000
   41       -5.457777   1.000000
   42       -5.454556   1.000000
   43       -5.443979   1.000000
   44       -5.438508   1.000000
   45       -5.431714   1.000000
   46       -5.429672   1.000000
   47       -5.425230   1.000000
   48       -5.423368   1.000000
   49       -5.409695   1.000000
   50       -5.408170   1.000000
   51       -5.400739   1.000000
   52       -5.392716   1.000000
   53       -5.384948   1.000000
   54       -5.380112   1.000000
   55       -5.366451   1.000000
   56       -5.363746   1.000000
   57       -5.362932   1.000000
   58       -5.356376   1.000000
   59       -5.349354   1.000000
   60       -5.338694   1.000000
   61       -5.334786   1.000000
   62       -5.326315   1.000000
   63       -5.309366   1.000000
   64       -5.287105   1.000000
   65       -5.286412   1.000000
   66       -5.280847   1.000000
   67       -5.276972   1.000000
   68       -5.260981   1.000000
   69       -5.255119   1.000000
   70       -5.254339   1.000000
   71       -5.249762   1.000000
   72       -5.235155   1.000000
   73       -5.226828   1.000000
   74       -5.219917   1.000000
   75       -5.193176   1.000000
   76       -5.177024   1.000000
   77       -5.166426   1.000000
   78       -5.163305   1.000000
   79       -5.152789   1.000000
   80       -5.140222   1.000000
   81       -5.137059   1.000000
   82       -5.133415   1.000000
   83       -5.130332   1.000000
   84       -5.128872   1.000000
   85       -5.124815   1.000000
   86       -5.112358   1.000000
   87       -5.097027   1.000000
   88       -5.083232   1.000000
   89       -5.079379   1.000000
   90       -5.074391   1.000000
   91       -5.067708   1.000000
   92       -5.058683   1.000000
   93       -5.047605   1.000000
   94       -5.034454   1.000000
   95       -5.022182   1.000000
   96       -5.016865   1.000000
   97       -5.009730   1.000000
   98       -5.003170   1.000000
   99       -5.001794   1.000000
  100       -4.997481   1.000000
  101       -4.996795   1.000000
  102       -4.989997   1.000000
  103       -4.986774   1.000000
  104       -4.982778   1.000000
  105       -4.980323   1.000000
  106       -4.971525   1.000000
  107       -4.966230   1.000000
  108       -4.961398   1.000000
  109       -4.961023   1.000000
  110       -4.956093   1.000000
  111       -4.949744   1.000000
  112       -4.941254   1.000000
  113       -4.933887   1.000000
  114       -4.927691   1.000000
  115       -4.923114   1.000000
  116       -4.920703   1.000000
  117       -4.909482   0.999999
  118       -4.903359   0.999999
  119       -4.900203   0.999999
  120       -4.898392   0.999999
  121       -4.892157   0.999999
  122       -4.884873   0.999998
  123       -4.882157   0.999998
  124       -4.876900   0.999998
  125       -4.872595   0.999998
  126       -4.864611   0.999997
  127       -4.862000   0.999997
  128       -4.859883   0.999996
  129       -4.852839   0.999996
  130       -4.850067   0.999995
  131       -4.834299   0.999992
  132       -4.826630   0.999990
  133       -4.812611   0.999984
  134       -4.805898   0.999981
  135       -4.796299   0.999974
  136       -4.793309   0.999972
  137       -4.790724   0.999970
  138       -4.783299   0.999963
  139       -4.777051   0.999956
  140       -4.772966   0.999950
  141       -4.770785   0.999947
  142       -4.760856   0.999931
  143       -4.754277   0.999917
  144       -4.747799   0.999902
  145       -4.743590   0.999890
  146       -4.732344   0.999854
  147       -4.729443   0.999843
  148       -4.706870   0.999728
  149       -4.694469   0.999638
  150       -4.688893   0.999590
  151       -4.686152   0.999564
  152       -4.680462   0.999507
  153       -4.678210   0.999482
  154       -4.666685   0.999340
  155       -4.654389   0.999155
  156       -4.647069   0.999027
  157       -4.641202   0.998913
  158       -4.634746   0.998777
  159       -4.628461   0.998633
  160       -4.625032   0.998549
  161       -4.622295   0.998480
  162       -4.616621   0.998328
  163       -4.614639   0.998273
  164       -4.612382   0.998209
  165       -4.609118   0.998114
  166       -4.605446   0.998003
  167       -4.603806   0.997952
  168       -4.597598   0.997753
  169       -4.592139   0.997569
  170       -4.590369   0.997508
  171       -4.584235   0.997292
  172       -4.582974   0.997246
  173       -4.578727   0.997091
  174       -4.572975   0.996878
  175       -4.565603   0.996601
  176       -4.561728   0.996455
  177       -4.559943   0.996388
  178       -4.549630   0.996011
  179       -4.547539   0.995938
  180       -4.539107   0.995657
  181       -4.536960   0.995591
  182       -4.534586   0.995520
  183       -4.530597   0.995411
  184       -4.527554   0.995335
  185       -4.517978   0.995149
  186       -4.516442   0.995128
  187       -4.512096   0.995084
  188       -4.506539   0.995065
  189       -4.505075   0.995068
  190       -4.503090   0.995077
  191       -4.497482   0.995139
  192       -4.492267   0.995251
  193       -4.485892   0.995466
  194       -4.481172   0.995687
  195       -4.475464   0.996033
  196       -4.467029   0.996717
  197       -4.456554   0.997890
  198       -4.453137   0.998358
  199       -4.450271   0.998785
  200       -4.448147   0.999121
  201       -4.443421   0.999936
  202       -4.440336   1.000517
  203       -4.435268   1.001561
  204       -4.425580   1.003870
  205       -4.415510   1.006721
  206       -4.411476   1.007994
  207       -4.409010   1.008807
  208       -4.408633   1.008934
  209       -4.404882   1.010231
  210       -4.400038   1.011996
  211       -4.395218   1.013850
  212       -4.386323   1.017511
  213       -4.379634   1.020444
  214       -4.379403   1.020547
  215       -4.368077   1.025790
  216       -4.366445   1.026566
  217       -4.361044   1.029154
  218       -4.360823   1.029260
  219       -4.357430   1.030894
  220       -4.355401   1.031870
  221       -4.348317   1.035255
  222       -4.343839   1.037351
  223       -4.327132   1.044510
  224       -4.321958   1.046392
  225       -4.312141   1.049316
  226       -4.309495   1.049930
  227       -4.306887   1.050451
  228       -4.293362   1.051611
  229       -4.291319   1.051528
  230       -4.289160   1.051358
  231       -4.285401   1.050850
  232       -4.284554   1.050696
  233       -4.283518   1.050488
  234       -4.281767   1.050086
  235       -4.281364   1.049984
  236       -4.277655   1.048879
  237       -4.274831   1.047827
  238       -4.273204   1.047135
  239       -4.269014   1.045051
  240       -4.267703   1.044306
  241       -4.264258   1.042134
  242       -4.262019   1.040549
  243       -4.252055   1.031732
  244       -4.251346   1.030991
  245       -4.244411   1.022888
  246       -4.241772   1.019390
  247       -4.241289   1.018725
  248       -4.236581   1.011815
  249       -4.235735   1.010492
  250       -4.230512   1.001757
  251       -4.225142   0.991743
  252       -4.224077   0.989630
  253       -4.216351   0.973023
  254       -4.216214   0.972708
  255       -4.212727   0.964449
  256       -4.207948   0.952367
  257       -4.206192   0.947705
  258       -4.205111   0.944777
  259       -4.201697   0.935227
  260       -4.200862   0.932825
  261       -4.196916   0.921099
  262       -4.194858   0.914746
  263       -4.192870   0.908451
  264       -4.192231   0.906397
  265       -4.189500   0.897441
  266       -4.184652   0.880849
  267       -4.181713   0.870362
  268       -4.177680   0.855463
  269       -4.173707   0.840215
  270       -4.169284   0.822597
  271       -4.165792   0.808226
  272       -4.162265   0.793307
  273       -4.157584   0.772909
  274       -4.152754   0.751192
  275       -4.143000   0.705428
  276       -4.137079   0.676550
  277       -4.134363   0.663062
  278       -4.128666   0.634344
  279       -4.126048   0.620975
  280       -4.125285   0.617057
  281       -4.111822   0.546916
  282       -4.099283   0.480669
  283       -4.095735   0.461938
  284       -4.083656   0.398746
  285       -4.082449   0.392507
  286       -4.075662   0.357796
  287       -4.070154   0.330168
  288       -4.069257   0.325722
  289       -3.951825  -0.033738
  290       -3.910737  -0.051623
  291       -3.802438  -0.010746
  292       -3.794036  -0.007876
  293       -3.769855  -0.001399
  294       -3.490505   0.000222
  295       -3.450056   0.000080
  296       -3.439709   0.000060
  297       -3.308462   0.000001
  298       -3.022834   0.000000
  299       -3.015339   0.000000
  300       -2.992042   0.000000
  301       -2.986829   0.000000
  302       -2.938123   0.000000
  303       -2.908082   0.000000
  304       -2.898841   0.000000
  305       -2.610541   0.000000
  306       -2.496875   0.000000
  307       -2.462540   0.000000
  308       -2.349355   0.000000
  309       -2.306986   0.000000
  310       -2.108294   0.000000
  311       -2.088551   0.000000
  312       -1.991571   0.000000
  313       -1.929961   0.000000
  314       -1.893179   0.000000
  315       -1.855321   0.000000
  316       -1.831147   0.000000
  317       -1.712723   0.000000
  318       -1.703077   0.000000
  319       -1.634053   0.000000
  320       -1.607237   0.000000
  321       -1.593236   0.000000
  322       -1.498634   0.000000
  323       -1.393708   0.000000
  324       -1.295206   0.000000
  325       -1.207598   0.000000
  326       -1.182594   0.000000
  327       -1.052354   0.000000
  328       -1.003307   0.000000
  329       -0.949437   0.000000
  330       -0.943764   0.000000
  331       -0.932761   0.000000
  332       -0.897323   0.000000
  333       -0.812294   0.000000
  334       -0.746844   0.000000
  335       -0.701489   0.000000
  336       -0.624707   0.000000
