   57   57    1    1
  0.4736842E+03  0.3000000E-08  0.3000000E-08  0.3000000E-08  0.5000000E-15
  1.000000000000000E-004
  CAR 
 6_Pd100_top_free_z(O)                   
    560      1    336
 
  0.0000000E+00  0.0000000E+00  0.0000000E+00  0.1000000E+01
    1      -28.213530   1.000000
    2      -13.320686   1.000000
    3      -11.280003   1.000000
    4      -10.880087   1.000000
    5      -10.270356   1.000000
    6       -6.663158   1.000000
    7       -6.251612   1.000000
    8       -6.145015   1.000000
    9       -6.142502   1.000000
   10       -6.094102   1.000000
   11       -6.066321   1.000000
   12       -5.849175   1.000000
   13       -5.828100   1.000000
   14       -5.811246   1.000000
   15       -5.761690   1.000000
   16       -5.731816   1.000000
   17       -5.704268   1.000000
   18       -5.694777   1.000000
   19       -5.688751   1.000000
   20       -5.657107   1.000000
   21       -5.643125   1.000000
   22       -5.638759   1.000000
   23       -5.622571   1.000000
   24       -5.618664   1.000000
   25       -5.608978   1.000000
   26       -5.593026   1.000000
   27       -5.574902   1.000000
   28       -5.565892   1.000000
   29       -5.562113   1.000000
   30       -5.557999   1.000000
   31       -5.550958   1.000000
   32       -5.544152   1.000000
   33       -5.533079   1.000000
   34       -5.532576   1.000000
   35       -5.527372   1.000000
   36       -5.523799   1.000000
   37       -5.516058   1.000000
   38       -5.512712   1.000000
   39       -5.497571   1.000000
   40       -5.487467   1.000000
   41       -5.485903   1.000000
   42       -5.483971   1.000000
   43       -5.481854   1.000000
   44       -5.477824   1.000000
   45       -5.468606   1.000000
   46       -5.462158   1.000000
   47       -5.450752   1.000000
   48       -5.446985   1.000000
   49       -5.442422   1.000000
   50       -5.440502   1.000000
   51       -5.436649   1.000000
   52       -5.432918   1.000000
   53       -5.419835   1.000000
   54       -5.417591   1.000000
   55       -5.415252   1.000000
   56       -5.408679   1.000000
   57       -5.397109   1.000000
   58       -5.357696   1.000000
   59       -5.349289   1.000000
   60       -5.341691   1.000000
   61       -5.339100   1.000000
   62       -5.333525   1.000000
   63       -5.320396   1.000000
   64       -5.316122   1.000000
   65       -5.314900   1.000000
   66       -5.311097   1.000000
   67       -5.308872   1.000000
   68       -5.289719   1.000000
   69       -5.286864   1.000000
   70       -5.278569   1.000000
   71       -5.237224   1.000000
   72       -5.221421   1.000000
   73       -5.220368   1.000000
   74       -5.212145   1.000000
   75       -5.209053   1.000000
   76       -5.196689   1.000000
   77       -5.193619   1.000000
   78       -5.189805   1.000000
   79       -5.189387   1.000000
   80       -5.182963   1.000000
   81       -5.173655   1.000000
   82       -5.173287   1.000000
   83       -5.153939   1.000000
   84       -5.151467   1.000000
   85       -5.140272   1.000000
   86       -5.137730   1.000000
   87       -5.132485   1.000000
   88       -5.129599   1.000000
   89       -5.121353   1.000000
   90       -5.096887   1.000000
   91       -5.090141   1.000000
   92       -5.079773   1.000000
   93       -5.069651   1.000000
   94       -5.065551   1.000000
   95       -5.063449   1.000000
   96       -5.060025   1.000000
   97       -5.057058   1.000000
   98       -5.049168   1.000000
   99       -5.045990   1.000000
  100       -5.041281   1.000000
  101       -5.039115   1.000000
  102       -5.035066   1.000000
  103       -5.031481   1.000000
  104       -5.021812   1.000000
  105       -5.018522   1.000000
  106       -5.017097   1.000000
  107       -5.006819   1.000000
  108       -5.003834   1.000000
  109       -4.997575   1.000000
  110       -4.994112   1.000000
  111       -4.993985   1.000000
  112       -4.986247   1.000000
  113       -4.983646   1.000000
  114       -4.977848   1.000000
  115       -4.975282   1.000000
  116       -4.969056   0.999999
  117       -4.962743   0.999999
  118       -4.958273   0.999999
  119       -4.953549   0.999999
  120       -4.951847   0.999999
  121       -4.931712   0.999998
  122       -4.931003   0.999998
  123       -4.920162   0.999997
  124       -4.917046   0.999996
  125       -4.915214   0.999996
  126       -4.911945   0.999996
  127       -4.897578   0.999993
  128       -4.896216   0.999993
  129       -4.890466   0.999991
  130       -4.862527   0.999980
  131       -4.859134   0.999978
  132       -4.857249   0.999976
  133       -4.853427   0.999974
  134       -4.847404   0.999969
  135       -4.845920   0.999967
  136       -4.843091   0.999964
  137       -4.840838   0.999962
  138       -4.835839   0.999956
  139       -4.811581   0.999915
  140       -4.810915   0.999914
  141       -4.805840   0.999901
  142       -4.802454   0.999892
  143       -4.787907   0.999843
  144       -4.780509   0.999812
  145       -4.777344   0.999797
  146       -4.774224   0.999781
  147       -4.750698   0.999621
  148       -4.746460   0.999584
  149       -4.744022   0.999561
  150       -4.738724   0.999507
  151       -4.731229   0.999421
  152       -4.726412   0.999360
  153       -4.711037   0.999129
  154       -4.710188   0.999114
  155       -4.698659   0.998898
  156       -4.695050   0.998822
  157       -4.694291   0.998806
  158       -4.686126   0.998619
  159       -4.679285   0.998447
  160       -4.678638   0.998430
  161       -4.670962   0.998219
  162       -4.668898   0.998159
  163       -4.665728   0.998065
  164       -4.665003   0.998043
  165       -4.659054   0.997857
  166       -4.657256   0.997799
  167       -4.656890   0.997787
  168       -4.654728   0.997716
  169       -4.646730   0.997443
  170       -4.645116   0.997386
  171       -4.636503   0.997075
  172       -4.622388   0.996547
  173       -4.621412   0.996510
  174       -4.617059   0.996347
  175       -4.610291   0.996098
  176       -4.609889   0.996084
  177       -4.607189   0.995987
  178       -4.605353   0.995923
  179       -4.601259   0.995784
  180       -4.589367   0.995425
  181       -4.585462   0.995327
  182       -4.582718   0.995266
  183       -4.582383   0.995259
  184       -4.578465   0.995184
  185       -4.571244   0.995091
  186       -4.566368   0.995066
  187       -4.563636   0.995067
  188       -4.560618   0.995082
  189       -4.560145   0.995085
  190       -4.558313   0.995103
  191       -4.552111   0.995210
  192       -4.530476   0.996269
  193       -4.520925   0.997157
  194       -4.517988   0.997491
  195       -4.517604   0.997537
  196       -4.512997   0.998129
  197       -4.503519   0.999603
  198       -4.500655   1.000119
  199       -4.499996   1.000243
  200       -4.498538   1.000523
  201       -4.491387   1.002028
  202       -4.483166   1.004038
  203       -4.479282   1.005095
  204       -4.472229   1.007189
  205       -4.469494   1.008062
  206       -4.467012   1.008884
  207       -4.460064   1.011329
  208       -4.459681   1.011470
  209       -4.451629   1.014574
  210       -4.450470   1.015042
  211       -4.440049   1.019470
  212       -4.437402   1.020651
  213       -4.433250   1.022542
  214       -4.422079   1.027806
  215       -4.421411   1.028126
  216       -4.419982   1.028813
  217       -4.416529   1.030475
  218       -4.413853   1.031763
  219       -4.411753   1.032772
  220       -4.388166   1.043409
  221       -4.387243   1.043777
  222       -4.378868   1.046838
  223       -4.376246   1.047678
  224       -4.374955   1.048068
  225       -4.365863   1.050311
  226       -4.359307   1.051288
  227       -4.348750   1.051475
  228       -4.348535   1.051459
  229       -4.345402   1.051124
  230       -4.344664   1.051017
  231       -4.344438   1.050982
  232       -4.343584   1.050842
  233       -4.339960   1.050077
  234       -4.338607   1.049720
  235       -4.335830   1.048860
  236       -4.333030   1.047815
  237       -4.331881   1.047332
  238       -4.331171   1.047017
  239       -4.329388   1.046172
  240       -4.316736   1.037775
  241       -4.314138   1.035493
  242       -4.312753   1.034194
  243       -4.304221   1.024874
  244       -4.299012   1.018018
  245       -4.295680   1.013149
  246       -4.295489   1.012858
  247       -4.294765   1.011745
  248       -4.293195   1.009267
  249       -4.289845   1.003685
  250       -4.279132   0.983080
  251       -4.278634   0.982019
  252       -4.276400   0.977138
  253       -4.273462   0.970431
  254       -4.269228   0.960181
  255       -4.266033   0.951989
  256       -4.265178   0.949729
  257       -4.263904   0.946311
  258       -4.262029   0.941163
  259       -4.259598   0.934287
  260       -4.255308   0.921594
  261       -4.254106   0.917911
  262       -4.253217   0.915149
  263       -4.251160   0.908648
  264       -4.249591   0.903578
  265       -4.247930   0.898110
  266       -4.244839   0.887657
  267       -4.241095   0.874513
  268       -4.234065   0.848456
  269       -4.230542   0.834734
  270       -4.230215   0.833442
  271       -4.229482   0.830522
  272       -4.222280   0.800909
  273       -4.218463   0.784537
  274       -4.209515   0.744458
  275       -4.195868   0.679314
  276       -4.191583   0.658017
  277       -4.187322   0.636515
  278       -4.183839   0.618725
  279       -4.183380   0.616368
  280       -4.183138   0.615127
  281       -4.168357   0.537990
  282       -4.163851   0.514191
  283       -4.144255   0.411039
  284       -4.141247   0.395444
  285       -4.139317   0.385494
  286       -4.137467   0.376002
  287       -4.126749   0.322079
  288       -4.125221   0.314564
  289       -4.081459   0.126269
  290       -3.976959  -0.051120
  291       -3.889206  -0.022598
  292       -3.827443  -0.001262
  293       -3.823941  -0.000551
  294       -3.632269   0.001288
  295       -3.521761   0.000113
  296       -3.506980   0.000077
  297       -3.389028   0.000002
  298       -3.092032   0.000000
  299       -3.072959   0.000000
  300       -3.060079   0.000000
  301       -3.048430   0.000000
  302       -3.021833   0.000000
  303       -2.966171   0.000000
  304       -2.950874   0.000000
  305       -2.670720   0.000000
  306       -2.603088   0.000000
  307       -2.533341   0.000000
  308       -2.443126   0.000000
  309       -2.321226   0.000000
  310       -2.134227   0.000000
  311       -2.123200   0.000000
  312       -2.094116   0.000000
  313       -2.059874   0.000000
  314       -1.977756   0.000000
  315       -1.912930   0.000000
  316       -1.894468   0.000000
  317       -1.781129   0.000000
  318       -1.769077   0.000000
  319       -1.692506   0.000000
  320       -1.655617   0.000000
  321       -1.600962   0.000000
  322       -1.566534   0.000000
  323       -1.450955   0.000000
  324       -1.356648   0.000000
  325       -1.249127   0.000000
  326       -1.219998   0.000000
  327       -1.085473   0.000000
  328       -1.053378   0.000000
  329       -0.990839   0.000000
  330       -0.983680   0.000000
  331       -0.962893   0.000000
  332       -0.945177   0.000000
  333       -0.935676   0.000000
  334       -0.876464   0.000000
  335       -0.750996   0.000000
  336       -0.622071   0.000000
