 vasp.5.4.4.18Apr17-6-g9f103f2a35 (build Sep 03 2018 23:53:05) complex          
  
 executed on             LinuxIFC date 2021.12.03  03:08:08
 running on    1 total cores
 distrk:  each k-point on    1 cores,    1 groups
 distr:  one band on NCORES_PER_BAND=   1 cores,    1 groups


--------------------------------------------------------------------------------------------------------


 INCAR:
 POTCAR:    PAW_PBE Pd 04Jan2005                  
 POTCAR:    PAW_PBE C 08Apr2002                   
 POTCAR:    PAW_PBE O 08Apr2002                   
 POTCAR:    PAW_PBE Pd 04Jan2005                  
   VRHFIN =Pd : s1 d9                                                           
   LEXCH  = PE                                                                  
   EATOM  =   809.7530 eV,   59.5152 Ry                                         
                                                                                
   TITEL  = PAW_PBE Pd 04Jan2005                                                
   LULTRA =        F    use ultrasoft PP ?                                      
   IUNSCR =        1    unscreen: 0-lin 1-nonlin 2-no                           
   RPACOR =    2.000    partial core radius                                     
   POMASS =  106.420; ZVAL   =   10.000    mass and valenz                      
   RCORE  =    2.600    outmost cutoff radius                                   
   RWIGS  =    2.710; RWIGS  =    1.434    wigner-seitz radius (au A)           
   ENMAX  =  250.925; ENMIN  =  188.194 eV                                      
   ICORE  =        3    local potential                                         
   LCOR   =        T    correct aug charges                                     
   LPAW   =        T    paw PP                                                  
   EAUG   =  416.230                                                            
   DEXC   =    0.000                                                            
   RMAX   =    2.653    core radius for proj-oper                               
   RAUG   =    1.300    factor for augmentation sphere                          
   RDEP   =    2.734    radius for radial grids                                 
   RDEPT  =    2.103    core radius for aug-charge                              
                                                                                
   Atomic configuration                                                         
   12 entries                                                                   
     n  l   j            E        occ.                                          
     1  0  0.50    -24164.6631   2.0000                                         
     2  0  0.50     -3530.9218   2.0000                                         
     2  1  1.50     -3165.6822   6.0000                                         
     3  0  0.50      -639.4577   2.0000                                         
     3  1  1.50      -519.4532   6.0000                                         
     3  2  2.50      -328.9757  10.0000                                         
     4  0  0.50       -88.7014   2.0000                                         
     4  1  1.50       -54.4540   6.0000                                         
     4  2  2.50        -6.6878   9.0000                                         
     5  0  0.50        -4.3543   1.0000                                         
     5  1  0.50        -1.3606   0.0000                                         
     4  3  2.50        -1.3606   0.0000                                         
   Description                                                                  
     l       E           TYP  RCUT    TYP  RCUT                                 
     2     -6.6878251     23  2.400                                             
     2     -8.0484077     23  2.400                                             
     0     -4.3542939     23  2.400                                             
     0      4.3406793     23  2.400                                             
     1     -4.0817478     23  2.600                                             
     1     15.8380318     23  2.600                                             
     3     -4.0817478     23  2.400                                             
  local pseudopotential read in
  partial core-charges read in
  partial kinetic energy density read in
  atomic valenz-charges read in
  non local Contribution for L=           2  read in
    real space projection operators read in
  non local Contribution for L=           2  read in
    real space projection operators read in
  non local Contribution for L=           0  read in
    real space projection operators read in
  non local Contribution for L=           0  read in
    real space projection operators read in
  non local Contribution for L=           1  read in
    real space projection operators read in
  non local Contribution for L=           1  read in
    real space projection operators read in
    PAW grid and wavefunctions read in
 
   number of l-projection  operators is LMAX  =           6
   number of lm-projection operators is LMMAX =          18
 
 POTCAR:    PAW_PBE C 08Apr2002                   
   VRHFIN =C: s2p2                                                              
   LEXCH  = PE                                                                  
   EATOM  =   147.1560 eV,   10.8157 Ry                                         
                                                                                
   TITEL  = PAW_PBE C 08Apr2002                                                 
   LULTRA =        F    use ultrasoft PP ?                                      
   IUNSCR =        1    unscreen: 0-lin 1-nonlin 2-no                           
   RPACOR =    1.200    partial core radius                                     
   POMASS =   12.011; ZVAL   =    4.000    mass and valenz                      
   RCORE  =    1.500    outmost cutoff radius                                   
   RWIGS  =    1.630; RWIGS  =    0.863    wigner-seitz radius (au A)           
   ENMAX  =  400.000; ENMIN  =  300.000 eV                                      
   ICORE  =        2    local potential                                         
   LCOR   =        T    correct aug charges                                     
   LPAW   =        T    paw PP                                                  
   EAUG   =  644.873                                                            
   DEXC   =    0.000                                                            
   RMAX   =    1.529    core radius for proj-oper                               
   RAUG   =    1.300    factor for augmentation sphere                          
   RDEP   =    1.501    radius for radial grids                                 
   RDEPT  =    1.300    core radius for aug-charge                              
                                                                                
   Atomic configuration                                                         
    4 entries                                                                   
     n  l   j            E        occ.                                          
     1  0  0.50      -273.3789   2.0000                                         
     2  0  0.50       -13.7508   2.0000                                         
     2  1  0.50        -5.2854   2.0000                                         
     3  2  1.50        -5.4423   0.0000                                         
   Description                                                                  
     l       E           TYP  RCUT    TYP  RCUT                                 
     0    -13.7508458     23  1.200                                             
     0     -8.2022199     23  1.200                                             
     1     -5.2854383     23  1.500                                             
     1     34.0145650     23  1.500                                             
     2     -5.4423304      7  1.500                                             
  local pseudopotential read in
  partial core-charges read in
  partial kinetic energy density read in
  atomic valenz-charges read in
  non local Contribution for L=           0  read in
    real space projection operators read in
  non local Contribution for L=           0  read in
    real space projection operators read in
  non local Contribution for L=           1  read in
    real space projection operators read in
  non local Contribution for L=           1  read in
    real space projection operators read in
    PAW grid and wavefunctions read in
 
   number of l-projection  operators is LMAX  =           4
   number of lm-projection operators is LMMAX =           8
 
 POTCAR:    PAW_PBE O 08Apr2002                   
   VRHFIN =O: s2p4                                                              
   LEXCH  = PE                                                                  
   EATOM  =   432.3788 eV,   31.7789 Ry                                         
                                                                                
   TITEL  = PAW_PBE O 08Apr2002                                                 
   LULTRA =        F    use ultrasoft PP ?                                      
   IUNSCR =        1    unscreen: 0-lin 1-nonlin 2-no                           
   RPACOR =    1.200    partial core radius                                     
   POMASS =   16.000; ZVAL   =    6.000    mass and valenz                      
   RCORE  =    1.520    outmost cutoff radius                                   
   RWIGS  =    1.550; RWIGS  =    0.820    wigner-seitz radius (au A)           
   ENMAX  =  400.000; ENMIN  =  300.000 eV                                      
   ICORE  =        2    local potential                                         
   LCOR   =        T    correct aug charges                                     
   LPAW   =        T    paw PP                                                  
   EAUG   =  605.392                                                            
   DEXC   =    0.000                                                            
   RMAX   =    1.553    core radius for proj-oper                               
   RAUG   =    1.300    factor for augmentation sphere                          
   RDEP   =    1.550    radius for radial grids                                 
   RDEPT  =    1.329    core radius for aug-charge                              
                                                                                
   Atomic configuration                                                         
    4 entries                                                                   
     n  l   j            E        occ.                                          
     1  0  0.50      -514.6923   2.0000                                         
     2  0  0.50       -23.9615   2.0000                                         
     2  1  0.50        -9.0305   4.0000                                         
     3  2  1.50        -9.5241   0.0000                                         
   Description                                                                  
     l       E           TYP  RCUT    TYP  RCUT                                 
     0    -23.9615318     23  1.200                                             
     0     -9.5240782     23  1.200                                             
     1     -9.0304911     23  1.520                                             
     1      8.1634956     23  1.520                                             
     2     -9.5240782      7  1.500                                             
  local pseudopotential read in
  partial core-charges read in
  partial kinetic energy density read in
  kinetic energy density of atom read in
  atomic valenz-charges read in
  non local Contribution for L=           0  read in
    real space projection operators read in
  non local Contribution for L=           0  read in
    real space projection operators read in
  non local Contribution for L=           1  read in
    real space projection operators read in
  non local Contribution for L=           1  read in
    real space projection operators read in
    PAW grid and wavefunctions read in
 
   number of l-projection  operators is LMAX  =           4
   number of lm-projection operators is LMMAX =           8
 
 Optimization of the real space projectors (new method)

 maximal supplied QI-value         = 14.36
 optimisation between [QCUT,QGAM] = [ 10.20, 20.39] = [ 29.12,116.47] Ry 
 Optimized for a Real-space Cutoff    1.51 Angstroem

   l    n(q)    QCUT    max X(q) W(low)/X(q) W(high)/X(q)  e(spline) 
   2      8    10.197    59.108    0.26E-03    0.14E-03    0.96E-07
   2      8    10.197    58.101    0.27E-03    0.14E-03    0.98E-07
   0      9    10.197   102.235    0.54E-04    0.60E-05    0.72E-07
   0      9    10.197    58.388    0.52E-04    0.60E-05    0.68E-07
   1      9    10.197    22.191    0.18E-03    0.25E-03    0.79E-07
   1      9    10.197    15.590    0.15E-03    0.21E-03    0.69E-07
 Optimization of the real space projectors (new method)

 maximal supplied QI-value         = 25.13
 optimisation between [QCUT,QGAM] = [ 10.05, 20.36] = [ 28.30,116.06] Ry 
 Optimized for a Real-space Cutoff    1.30 Angstroem

   l    n(q)    QCUT    max X(q) W(low)/X(q) W(high)/X(q)  e(spline) 
   0      8    10.053   115.676    0.49E-03    0.72E-03    0.18E-06
   0      8    10.053    87.132    0.49E-03    0.71E-03    0.18E-06
   1      7    10.053     4.429    0.32E-03    0.31E-03    0.18E-06
   1      7    10.053     2.733    0.23E-03    0.19E-03    0.20E-06
 Optimization of the real space projectors (new method)

 maximal supplied QI-value         = 24.76
 optimisation between [QCUT,QGAM] = [ 10.15, 20.30] = [ 28.85,115.39] Ry 
 Optimized for a Real-space Cutoff    1.38 Angstroem

   l    n(q)    QCUT    max X(q) W(low)/X(q) W(high)/X(q)  e(spline) 
   0      8    10.150    20.381    0.22E-03    0.32E-03    0.29E-06
   0      8    10.150    15.268    0.23E-03    0.35E-03    0.30E-06
   1      8    10.150     5.964    0.46E-03    0.53E-03    0.21E-06
   1      8    10.150     5.382    0.38E-03    0.45E-03    0.19E-06

 ----------------------------------------------------------------------------- 
|                                                                             |
|  ADVICE TO THIS USER RUNNING 'VASP/VAMP'   (HEAR YOUR MASTER'S VOICE ...):  |
|                                                                             |
|      You enforced a specific xc-type in the INCAR file,                     |
|      a different type was found on the POTCAR file                          |
|          I HOPE YOU KNOW, WHAT YOU ARE  DOING                               |
|                                                                             |
 ----------------------------------------------------------------------------- 

  PAW_PBE Pd 04Jan2005                  :
 energy of atom  1       EATOM= -809.7530
 kinetic energy error for atom=    0.0091 (will be added to EATOM!!)
  PAW_PBE C 08Apr2002                   :
 energy of atom  2       EATOM= -147.1560
 kinetic energy error for atom=    0.0288 (will be added to EATOM!!)
  PAW_PBE O 08Apr2002                   :
 energy of atom  3       EATOM= -432.3788
 kinetic energy error for atom=    0.1156 (will be added to EATOM!!)
 
 
 POSCAR: Pd55PES                                 
  positions in cartesian coordinates
  No initial velocities read in
 exchange correlation table for  LEXCH =        9
   RHO(1)=    0.500       N(1)  =     2000
   RHO(2)=  100.500       N(2)  =     4000
 


--------------------------------------------------------------------------------------------------------


 ion  position               nearest neighbor table
   1  0.446  0.328  0.417-   3 3.25   5 3.25   7 3.36  15 3.36  29 3.42  28 3.42
   2  0.672  0.554  0.417-  26 3.25  30 3.25  17 3.36   9 3.36  47 3.42  49 3.42
   3  0.554  0.328  0.417-   1 3.25   5 3.25   7 3.36  11 3.36  29 3.42  21 3.42
   4  0.328  0.554  0.417-  32 3.25  22 3.25  13 3.36   8 3.36  43 3.42  48 3.42
   5  0.500  0.383  0.340-   1 3.25   3 3.25  11 3.36  15 3.36  21 3.42  28 3.42
   6  0.500  0.383  0.660-  24 3.25  19 3.25  16 3.36  12 3.36  42 3.42  44 3.42
   7  0.500  0.276  0.500-  29 3.24   3 3.36   1 3.36  19 3.36  24 3.36
   8  0.276  0.500  0.500-  48 3.24  22 3.36  40 3.36   4 3.36  25 3.36
   9  0.724  0.500  0.500-  49 3.24  26 3.36  45 3.36   2 3.36  20 3.36
  10  0.500  0.724  0.500-  55 3.24  27 3.36  23 3.36  46 3.36  41 3.36
  11  0.612  0.388  0.342-  21 3.24   5 3.36   3 3.36  30 3.36  26 3.36
  12  0.612  0.388  0.658-  42 3.24  24 3.36  45 3.36   6 3.36  31 3.36
  13  0.388  0.612  0.342-  43 3.24  32 3.36  50 3.36   4 3.36  27 3.36
  14  0.388  0.612  0.658-  53 3.24  25 3.36  33 3.36  51 3.36  46 3.36
  15  0.388  0.388  0.342-  28 3.24   5 3.36   1 3.36  32 3.36  22 3.36
  16  0.388  0.388  0.658-  44 3.24  19 3.36  40 3.36   6 3.36  33 3.36
  17  0.612  0.612  0.342-  47 3.24  30 3.36  50 3.36   2 3.36  23 3.36
  18  0.612  0.612  0.658-  54 3.24  31 3.36  20 3.36  51 3.36  41 3.36
  19  0.446  0.328  0.583-   6 3.25  24 3.25  16 3.36   7 3.36  44 3.42  29 3.42
  20  0.672  0.554  0.583-  31 3.25  45 3.25  18 3.36   9 3.36  54 3.42  49 3.42
  21  0.558  0.442  0.418-  11 3.24   5 3.42   3 3.42  30 3.42  26 3.42
  22  0.328  0.446  0.417-   4 3.25  32 3.25   8 3.36  15 3.36  48 3.42  28 3.42
  23  0.554  0.672  0.417-  27 3.25  50 3.25  10 3.36  17 3.36  55 3.42  47 3.42
  24  0.554  0.328  0.583-   6 3.25  19 3.25  12 3.36   7 3.36  42 3.42  29 3.42
  25  0.328  0.554  0.583-  33 3.25  40 3.25  14 3.36   8 3.36  53 3.42  48 3.42
  26  0.672  0.446  0.417-   2 3.25  30 3.25   9 3.36  11 3.36  49 3.42  21 3.42
  27  0.446  0.672  0.417-  23 3.25  50 3.25  10 3.36  13 3.36  55 3.42  43 3.42
  28  0.442  0.442  0.418-  15 3.24   5 3.42   1 3.42  32 3.42  22 3.42
  29  0.500  0.384  0.500-   7 3.24   3 3.42   1 3.42  24 3.42  19 3.42
  30  0.617  0.500  0.340-   2 3.25  26 3.25  17 3.36  11 3.36  47 3.42  21 3.42
  31  0.617  0.500  0.660-  20 3.25  45 3.25  18 3.36  12 3.36  54 3.42  42 3.42
  32  0.383  0.500  0.340-  56 2.48   4 3.25  22 3.25  13 3.36  15 3.36  43 3.42  28 3.42
  33  0.383  0.500  0.660-  25 3.25  40 3.25  14 3.36  16 3.36  53 3.42  44 3.42
  34  0.383  0.383  0.500-
  35  0.617  0.617  0.500-
  36  0.617  0.383  0.500-
  37  0.383  0.617  0.500-
  38  0.500  0.500  0.335-
  39  0.500  0.500  0.665-
  40  0.328  0.446  0.583-  33 3.25  25 3.25  16 3.36   8 3.36  44 3.42  48 3.42
  41  0.554  0.672  0.583-  46 3.25  51 3.25  10 3.36  18 3.36  54 3.42  55 3.42
  42  0.558  0.442  0.582-  12 3.24   6 3.42  24 3.42  31 3.42  45 3.42
  43  0.442  0.558  0.418-  13 3.24   4 3.42  32 3.42  27 3.42  50 3.42
  44  0.442  0.442  0.582-  16 3.24   6 3.42  19 3.42  33 3.42  40 3.42
  45  0.672  0.446  0.583-  20 3.25  31 3.25   9 3.36  12 3.36  49 3.42  42 3.42
  46  0.446  0.672  0.583-  41 3.25  51 3.25  10 3.36  14 3.36  53 3.42  55 3.42
  47  0.558  0.558  0.418-  17 3.24   2 3.42  30 3.42  23 3.42  50 3.42
  48  0.384  0.500  0.500-   8 3.24   4 3.42  22 3.42  25 3.42  40 3.42
  49  0.616  0.500  0.500-   9 3.24   2 3.42  26 3.42  20 3.42  45 3.42
  50  0.500  0.617  0.340-  27 3.25  23 3.25  13 3.36  17 3.36  43 3.42  47 3.42
  51  0.500  0.617  0.660-  41 3.25  46 3.25  14 3.36  18 3.36  53 3.42  54 3.42
  52  0.500  0.500  0.500-
  53  0.442  0.558  0.582-  14 3.24  25 3.42  33 3.42  51 3.42  46 3.42
  54  0.558  0.558  0.582-  18 3.24  31 3.42  20 3.42  51 3.42  41 3.42
  55  0.500  0.616  0.500-  10 3.24  23 3.42  27 3.42  41 3.42  46 3.42
  56  0.354  0.511  0.263-  57 1.13  32 2.48
  57  0.335  0.513  0.231-  56 1.13
 
  LATTYP: Found a simple cubic cell.
 ALAT       =    30.0000000000
  
  Lattice vectors:
  
 A1 = (  30.0000000000,   0.0000000000,   0.0000000000)
 A2 = (   0.0000000000,  30.0000000000,   0.0000000000)
 A3 = (   0.0000000000,   0.0000000000,  30.0000000000)


Analysis of symmetry for initial positions (statically):
=====================================================================
 Subroutine PRICEL returns:
 Original cell was already a primitive cell.
 

 Routine SETGRP: Setting up the symmetry group for a 
 simple cubic supercell.


 Subroutine GETGRP returns: Found  1 space group operations
 (whereof  1 operations were pure point group operations)
 out of a pool of 48 trial point group operations.


The static configuration has the point symmetry C_1 .


Analysis of symmetry for dynamics (positions and initial velocities):
=====================================================================
 Subroutine PRICEL returns:
 Original cell was already a primitive cell.
 

 Routine SETGRP: Setting up the symmetry group for a 
 simple cubic supercell.


 Subroutine GETGRP returns: Found  1 space group operations
 (whereof  1 operations were pure point group operations)
 out of a pool of 48 trial point group operations.


The dynamic configuration has the point symmetry C_1 .


Analysis of constrained symmetry for selective dynamics:
=====================================================================
 Subroutine PRICEL returns:
 Original cell was already a primitive cell.
 

 Routine SETGRP: Setting up the symmetry group for a 
 simple cubic supercell.


 Subroutine GETGRP returns: Found  1 space group operations
 (whereof  1 operations were pure point group operations)
 out of a pool of 48 trial point group operations.


The constrained configuration has the point symmetry C_1 .


 Subroutine INISYM returns: Found  1 space group operations
 (whereof  1 operations are pure point group operations),
 and found     1 'primitive' translations

 
 
 KPOINTS: K-points                                

Automatic generation of k-mesh.
Space group operators:
 irot       det(A)        alpha          n_x          n_y          n_z        tau_x        tau_y        tau_z
    1     1.000000     0.000000     1.000000     0.000000     0.000000     0.000000     0.000000     0.000000
 
 Subroutine IBZKPT returns following result:
 ===========================================
 
 Found      1 irreducible k-points:
 
 Following reciprocal coordinates:
            Coordinates               Weight
  0.000000  0.000000  0.000000      1.000000
 
 Following cartesian coordinates:
            Coordinates               Weight
  0.000000  0.000000  0.000000      1.000000
 


--------------------------------------------------------------------------------------------------------




 Dimension of arrays:
   k-points           NKPTS =      1   k-points in BZ     NKDIM =      1   number of bands    NBANDS=    336
   number of dos      NEDOS =    301   number of ions     NIONS =     57
   non local maximal  LDIM  =      6   non local SUM 2l+1 LMDIM =     18
   total plane-waves  NPLWV = ******
   max r-space proj   IRMAX =   1847   max aug-charges    IRDMAX=   6262
   dimension x,y,z NGX =   150 NGY =  150 NGZ =  150
   dimension x,y,z NGXF=   300 NGYF=  300 NGZF=  300
   support grid    NGXF=   300 NGYF=  300 NGZF=  300
   ions per type =              55   1   1
   NGX,Y,Z   is equivalent  to a cutoff of   8.31,  8.31,  8.31 a.u.
   NGXF,Y,Z  is equivalent  to a cutoff of  16.62, 16.62, 16.62 a.u.

 SYSTEM =  6_Pd100_top_free_z(O)                   
 POSCAR =  Pd55PES                                 

 Startparameter for this run:
   NWRITE =      2    write-flag & timer
   PREC   = normal    normal or accurate (medium, high low for compatibility)
   ISTART =      0    job   : 0-new  1-cont  2-samecut
   ICHARG =      2    charge: 1-file 2-atom 10-const
   ISPIN  =      1    spin polarized calculation?
   LNONCOLLINEAR =      F non collinear calculations
   LSORBIT =      F    spin-orbit coupling
   INIWAV =      1    electr: 0-lowe 1-rand  2-diag
   LASPH  =      F    aspherical Exc in radial PAW
   METAGGA=      F    non-selfconsistent MetaGGA calc.

 Electronic Relaxation 1
   ENCUT  =  400.0 eV  29.40 Ry    5.42 a.u.  48.92 48.92 48.92*2*pi/ulx,y,z
   ENINI  =  400.0     initial cutoff
   ENAUG  =  644.9 eV  augmentation charge cutoff
   NELM   =    100;   NELMIN=  6; NELMDL= -5     # of ELM steps 
   EDIFF  = 0.1E-03   stopping-criterion for ELM
   LREAL  =      T    real-space projection
   NLSPLINE    = F    spline interpolate recip. space projectors
   LCOMPAT=      F    compatible to vasp.4.4
   GGA_COMPAT  = T    GGA compatible to vasp.4.4-vasp.4.6
   LMAXPAW     = -100 max onsite density
   LMAXMIX     =    2 max onsite mixed and CHGCAR
   VOSKOWN=      0    Vosko Wilk Nusair interpolation
   ROPT   =   -0.00050  -0.00050  -0.00050
 Ionic relaxation
   EDIFFG = -.5E-01   stopping-criterion for IOM
   NSW    =      0    number of steps for IOM
   NBLOCK =      1;   KBLOCK =      1    inner block; outer block 
   IBRION =     -1    ionic relax: 0-MD 1-quasi-New 2-CG
   NFREE  =      1    steps in history (QN), initial steepest desc. (CG)
   ISIF   =      2    stress and relaxation
   IWAVPR =     10    prediction:  0-non 1-charg 2-wave 3-comb
   ISYM   =      2    0-nonsym 1-usesym 2-fastsym
   LCORR  =      T    Harris-Foulkes like correction to forces

   POTIM  = 0.5000    time-step for ionic-motion
   TEIN   =    0.0    initial temperature
   TEBEG  =    0.0;   TEEND  =   0.0 temperature during run
   SMASS  =  -3.00    Nose mass-parameter (am)
   estimated Nose-frequenzy (Omega)   =  0.10E-29 period in steps =****** mass=  -0.206E-25a.u.
   SCALEE = 1.0000    scale energy and forces
   NPACO  =    256;   APACO  = 16.0  distance and # of slots for P.C.
   PSTRESS=    0.0 pullay stress

  Mass of Ions in am
   POMASS = 106.42 12.01 16.00
  Ionic Valenz
   ZVAL   =  10.00  4.00  6.00
  Atomic Wigner-Seitz radii
   RWIGS  =  -1.00 -1.00 -1.00
  virtual crystal weights 
   VCA    =   1.00  1.00  1.00
   NELECT =     560.0000    total number of electrons
   NUPDOWN=      -1.0000    fix difference up-down

 DOS related values:
   EMIN   =  10.00;   EMAX   =-10.00  energy-range for DOS
   EFERMI =   0.00
   ISMEAR =     2;   SIGMA  =   0.20  broadening in eV -4-tet -1-fermi 0-gaus

 Electronic relaxation 2 (details)
   IALGO  =     68    algorithm
   LDIAG  =      T    sub-space diagonalisation (order eigenvalues)
   LSUBROT=      F    optimize rotation matrix (better conditioning)
   TURBO    =      0    0=normal 1=particle mesh
   IRESTART =      0    0=no restart 2=restart with 2 vectors
   NREBOOT  =      0    no. of reboots
   NMIN     =      0    reboot dimension
   EREF     =   0.00    reference energy to select bands
   IMIX   =      4    mixing-type and parameters
     AMIX     =   0.40;   BMIX     =  1.00
     AMIX_MAG =   1.60;   BMIX_MAG =  1.00
     AMIN     =   0.10
     WC   =   100.;   INIMIX=   1;  MIXPRE=   1;  MAXMIX= -45

 Intra band minimization:
   WEIMIN = 0.0000     energy-eigenvalue tresh-hold
   EBREAK =  0.74E-07  absolut break condition
   DEPER  =   0.30     relativ break condition  

   TIME   =   0.40     timestep for ELM

  volume/ion in A,a.u.               =     473.68      3196.58
  Fermi-wavevector in a.u.,A,eV,Ry     =   0.449797  0.849992  2.752691  0.202317
  Thomas-Fermi vector in A             =   1.430086
 
 Write flags
   LWAVE        =      F    write WAVECAR
   LDOWNSAMPLE  =      F    k-point downsampling of WAVECAR
   LCHARG       =      F    write CHGCAR
   LVTOT        =      F    write LOCPOT, total local potential
   LVHAR        =      F    write LOCPOT, Hartree potential only
   LELF         =      F    write electronic localiz. function (ELF)
   LORBIT       =      0    0 simple, 1 ext, 2 COOP (PROOUT), +10 PAW based schemes


 Dipole corrections
   LMONO  =      F    monopole corrections only (constant potential shift)
   LDIPOL =      F    correct potential (dipole corrections)
   IDIPOL =      0    1-x, 2-y, 3-z, 4-all directions 
   EPSILON=  1.0000000 bulk dielectric constant

 Exchange correlation treatment:
   GGA     =    RP    GGA type
   LEXCH   =     9    internal setting for exchange type
   VOSKOWN=      0    Vosko Wilk Nusair interpolation
   LHFCALC =     F    Hartree Fock is set to
   LHFONE  =     F    Hartree Fock one center treatment
   AEXX    =    0.0000 exact exchange contribution

 Linear response parameters
   LEPSILON=     F    determine dielectric tensor
   LRPA    =     F    only Hartree local field effects (RPA)
   LNABLA  =     F    use nabla operator in PAW spheres
   LVEL    =     F    velocity operator in full k-point grid
   LINTERFAST=   F  fast interpolation
   KINTER  =     0    interpolate to denser k-point grid
   CSHIFT  =0.1000    complex shift for real part using Kramers Kronig
   OMEGAMAX=  -1.0    maximum frequency
   DEG_THRESHOLD= 0.2000000E-02 threshold for treating states as degnerate
   RTIME   =   -0.100 relaxation time in fs
  (WPLASMAI=    0.000 imaginary part of plasma frequency in eV, 0.658/RTIME)
   DFIELD  = 0.0000000 0.0000000 0.0000000 field for delta impulse in time
 
 Orbital magnetization related:
   ORBITALMAG=     F  switch on orbital magnetization
   LCHIMAG   =     F  perturbation theory with respect to B field
   DQ        =  0.001000  dq finite difference perturbation B field
   LLRAUG    =     F  two centre corrections for induced B field



--------------------------------------------------------------------------------------------------------


 Static calculation
 charge density and potential will be updated during run
 non-spin polarized calculation
 RMM-DIIS sequential band-by-band and
  variant of blocked Davidson during initial phase
 perform sub-space diagonalisation
    before iterative eigenvector-optimisation
 modified Broyden-mixing scheme, WC =      100.0
 initial mixing is a Kerker type mixing with AMIX =  0.4000 and BMIX =      1.0000
 Hartree-type preconditioning will be used
 using additional bands           56
 real space projection scheme for non local part
 use partial core corrections
 calculate Harris-corrections to forces 
   (improved forces if not selfconsistent)
 use gradient corrections 
 use of overlap-Matrix (Vanderbilt PP)
 Methfessel and Paxton  Order N= 2 SIGMA  =   0.20


--------------------------------------------------------------------------------------------------------


  energy-cutoff  :      400.00
  volume of cell :    27000.00
      direct lattice vectors                 reciprocal lattice vectors
    30.000000000  0.000000000  0.000000000     0.033333333  0.000000000  0.000000000
     0.000000000 30.000000000  0.000000000     0.000000000  0.033333333  0.000000000
     0.000000000  0.000000000 30.000000000     0.000000000  0.000000000  0.033333333

  length of vectors
    30.000000000 30.000000000 30.000000000     0.033333333  0.033333333  0.033333333


 
 k-points in units of 2pi/SCALE and weight: K-points                                
   0.00000000  0.00000000  0.00000000       1.000
 
 k-points in reciprocal lattice and weights: K-points                                
   0.00000000  0.00000000  0.00000000       1.000
 
 position of ions in fractional coordinates (direct lattice) 
   0.44576020  0.32826710  0.41691983
   0.67173288  0.55423978  0.41691983
   0.55423980  0.32826710  0.41691983
   0.32826712  0.55423978  0.41691983
   0.50000000  0.38250690  0.34021317
   0.50000000  0.38250690  0.65978680
   0.50000000  0.27609440  0.50000000
   0.27609443  0.49999998  0.50000000
   0.72390557  0.49999998  0.50000000
   0.50000000  0.72390555  0.50000000
   0.61195280  0.38804720  0.34167483
   0.61195280  0.38804720  0.65832513
   0.38804722  0.61195278  0.34167483
   0.38804722  0.61195278  0.65832513
   0.38804720  0.38804720  0.34167483
   0.38804720  0.38804720  0.65832513
   0.61195278  0.61195278  0.34167483
   0.61195278  0.61195278  0.65832513
   0.44576020  0.32826710  0.58308023
   0.67173288  0.55423978  0.58308023
   0.55791699  0.44208301  0.41809300
   0.32826705  0.44576024  0.41691983
   0.55423973  0.67173293  0.41691983
   0.55423980  0.32826710  0.58308023
   0.32826712  0.55423978  0.58308023
   0.67173295  0.44576024  0.41691983
   0.44576027  0.67173293  0.41691983
   0.44208301  0.44208301  0.41809300
   0.50000000  0.38416601  0.50000000
   0.61749315  0.50000005  0.34021317
   0.61749315  0.50000005  0.65978680
   0.38250685  0.50000005  0.34021317
   0.38250685  0.50000005  0.65978680
   0.38317830  0.38317830  0.50000000
   0.61682172  0.61682172  0.50000000
   0.61682170  0.38317830  0.50000000
   0.38317828  0.61682172  0.50000000
   0.50000000  0.50000000  0.33478917
   0.50000000  0.50000000  0.66521087
   0.32826705  0.44576024  0.58308023
   0.55423973  0.67173293  0.58308023
   0.55791699  0.44208301  0.58190703
   0.44208298  0.55791702  0.41809300
   0.44208301  0.44208301  0.58190703
   0.67173295  0.44576024  0.58308023
   0.44576027  0.67173293  0.58308023
   0.55791702  0.55791702  0.41809300
   0.38416599  0.50000002  0.50000000
   0.61583401  0.50000002  0.50000000
   0.50000000  0.61749319  0.34021317
   0.50000000  0.61749319  0.65978680
   0.50000000  0.50000000  0.50000000
   0.44208298  0.55791702  0.58190703
   0.55791702  0.55791702  0.58190703
   0.50000000  0.61583404  0.50000000
   0.35449317  0.51127377  0.26342023
   0.33481123  0.51279870  0.23141933
 
 position of ions in cartesian coordinates  (Angst):
  13.37280588  9.84801292 12.50759500
  20.15198637 16.62719342 12.50759500
  16.62719412  9.84801292 12.50759500
   9.84801363 16.62719342 12.50759500
  15.00000000 11.47520705 10.20639500
  15.00000000 11.47520705 19.79360400
  15.00000000  8.28283206 15.00000000
   8.28283277 14.99999929 15.00000000
  21.71716723 14.99999929 15.00000000
  15.00000000 21.71716652 14.99999999
  18.35858397 11.64141603 10.25024500
  18.35858397 11.64141603 19.74975399
  11.64141674 18.35858326 10.25024500
  11.64141674 18.35858326 19.74975400
  11.64141603 11.64141603 10.25024500
  11.64141603 11.64141603 19.74975400
  18.35858326 18.35858326 10.25024500
  18.35858326 18.35858326 19.74975400
  13.37280588  9.84801291 17.49240700
  20.15198638 16.62719341 17.49240700
  16.73750985 13.26249015 12.54279000
   9.84801151 13.37280729 12.50759500
  16.62719200 20.15198779 12.50759500
  16.62719412  9.84801292 17.49240700
   9.84801363 16.62719342 17.49240700
  20.15198849 13.37280729 12.50759500
  13.37280800 20.15198779 12.50759500
  13.26249015 13.26249015 12.54279000
  15.00000000 11.52498029 15.00000000
  18.52479437 15.00000140 10.20639500
  18.52479437 15.00000141 19.79360400
  11.47520562 15.00000141 10.20639501
  11.47520563 15.00000141 19.79360400
  11.49534898 11.49534898 15.00000000
  18.50465172 18.50465172 15.00000000
  18.50465102 11.49534898 15.00000000
  11.49534828 18.50465172 15.00000000
  15.00000000 15.00000000 10.04367500
  15.00000000 15.00000000 19.95632599
   9.84801151 13.37280729 17.49240700
  16.62719200 20.15198779 17.49240700
  16.73750985 13.26249015 17.45721100
  13.26248944 16.73751056 12.54279001
  13.26249015 13.26249015 17.45721100
  20.15198849 13.37280729 17.49240699
  13.37280800 20.15198779 17.49240700
  16.73751056 16.73751056 12.54279000
  11.52497959 15.00000071 15.00000000
  18.47502041 15.00000071 15.00000000
  14.99999999 18.52479579 10.20639500
  15.00000000 18.52479578 19.79360400
  15.00000000 15.00000000 15.00000000
  13.26248944 16.73751057 17.45721101
  16.73751056 16.73751057 17.45721100
  15.00000000 18.47502112 15.00000000
  10.63479500 15.33821300  7.90260700
  10.04433700 15.38396100  6.94258000
 


--------------------------------------------------------------------------------------------------------


 k-point  1 :   0.0000 0.0000 0.0000  plane waves:  490521

 maximum and minimum number of plane-waves per node :    490521   490521

 maximum number of plane-waves:    490521
 maximum index in each direction: 
   IXMAX=   48   IYMAX=   48   IZMAX=   48
   IXMIN=  -48   IYMIN=  -48   IZMIN=  -48


 serial   3D FFT for wavefunctions
 parallel 3D FFT for charge:
    minimum data exchange during FFTs selected (reduces bandwidth)


 total amount of memory used by VASP MPI-rank0  5486941. kBytes
=======================================================================

   base      :      30000. kBytes
   nonlr-proj:      17126. kBytes
   fftplans  :     924480. kBytes
   grid      :    1872000. kBytes
   one-center:        886. kBytes
   wavefun   :    2642449. kBytes
 
     INWAV:  cpu time    0.0001: real time    0.0005
 Broyden mixing: mesh for mixing (old mesh)
   NGX = 97   NGY = 97   NGZ = 97
  (NGX  =300   NGY  =300   NGZ  =300)
  gives a total of 912673 points

 initial charge density was supplied:
 charge density of overlapping atoms calculated
 number of electron     560.0000000 magnetization 
 keeping initial charge density in first step


--------------------------------------------------------------------------------------------------------


 Maximum index for non-local projection operator         1763
 Maximum index for augmentation-charges         5898 (set IRDMAX)


--------------------------------------------------------------------------------------------------------


 First call to EWALD:  gamma=   0.059
 Maximum number of real-space cells 3x 3x 3
 Maximum number of reciprocal cells 3x 3x 3

    FEWALD:  cpu time    0.0152: real time    0.0152


--------------------------------------- Iteration      1(   1)  ---------------------------------------


    POTLOK:  cpu time   14.3134: real time   14.3177
    SETDIJ:  cpu time    0.1206: real time    0.1206
     EDDAV:  cpu time  361.4101: real time  361.4714
       DOS:  cpu time    0.0013: real time    0.0013
    --------------------------------------------
      LOOP:  cpu time  375.8454: real time  375.9110

 eigenvalue-minimisations  :   688
 total energy-change (2. order) : 0.4383011E+04  (-0.1004771E+05)
 number of electron     560.0000000 magnetization 
 augmentation part      560.0000000 magnetization 

 Free energy of the ion-electron system (eV)
  ---------------------------------------------------
  alpha Z        PSCENC =        75.25431677
  Ewald energy   TEWEN  =    137376.71803850
  -Hartree energ DENC   =   -180743.94790555
  -exchange      EXHF   =         0.00000000
  -V(xc)+E(xc)   XCENC  =     -1703.87679911
  PAW double counting   =     44873.02882129   -41398.84523641
  entropy T*S    EENTRO =         0.00389155
  eigenvalues    EBANDS =       818.17027194
  atomic energy  EATOM  =     45086.50549395
  Solvation  Ediel_sol  =         0.00000000
  ---------------------------------------------------
  free energy    TOTEN  =      4383.01089293 eV

  energy without entropy =     4383.00700138  energy(sigma->0) =     4383.00992005


--------------------------------------------------------------------------------------------------------




--------------------------------------- Iteration      1(   2)  ---------------------------------------


     EDDAV:  cpu time  574.6676: real time  574.6788
       DOS:  cpu time    0.0013: real time    0.0013
    --------------------------------------------
      LOOP:  cpu time  574.6689: real time  574.6801

 eigenvalue-minimisations  :  1208
 total energy-change (2. order) :-0.2354100E+04  (-0.2113753E+04)
 number of electron     560.0000000 magnetization 
 augmentation part      560.0000000 magnetization 

 Free energy of the ion-electron system (eV)
  ---------------------------------------------------
  alpha Z        PSCENC =        75.25431677
  Ewald energy   TEWEN  =    137376.71803850
  -Hartree energ DENC   =   -180743.94790555
  -exchange      EXHF   =         0.00000000
  -V(xc)+E(xc)   XCENC  =     -1703.87679911
  PAW double counting   =     44873.02882129   -41398.84523641
  entropy T*S    EENTRO =        -0.02079923
  eigenvalues    EBANDS =     -1535.90551862
  atomic energy  EATOM  =     45086.50549395
  Solvation  Ediel_sol  =         0.00000000
  ---------------------------------------------------
  free energy    TOTEN  =      2028.91041159 eV

  energy without entropy =     2028.93121082  energy(sigma->0) =     2028.91561140


--------------------------------------------------------------------------------------------------------




--------------------------------------- Iteration      1(   3)  ---------------------------------------


     EDDAV:  cpu time  489.6119: real time  489.6189
       DOS:  cpu time    0.0011: real time    0.0011
    --------------------------------------------
      LOOP:  cpu time  489.6130: real time  489.6200

 eigenvalue-minimisations  :  1000
 total energy-change (2. order) :-0.1788943E+04  (-0.1676904E+04)
 number of electron     560.0000000 magnetization 
 augmentation part      560.0000000 magnetization 

 Free energy of the ion-electron system (eV)
  ---------------------------------------------------
  alpha Z        PSCENC =        75.25431677
  Ewald energy   TEWEN  =    137376.71803850
  -Hartree energ DENC   =   -180743.94790555
  -exchange      EXHF   =         0.00000000
  -V(xc)+E(xc)   XCENC  =     -1703.87679911
  PAW double counting   =     44873.02882129   -41398.84523641
  entropy T*S    EENTRO =        -0.02867778
  eigenvalues    EBANDS =     -3324.84042968
  atomic energy  EATOM  =     45086.50549395
  Solvation  Ediel_sol  =         0.00000000
  ---------------------------------------------------
  free energy    TOTEN  =       239.96762198 eV

  energy without entropy =      239.99629975  energy(sigma->0) =      239.97479142


--------------------------------------------------------------------------------------------------------




--------------------------------------- Iteration      1(   4)  ---------------------------------------


     EDDAV:  cpu time  425.9307: real time  425.9447
       DOS:  cpu time    0.0012: real time    0.0011
    --------------------------------------------
      LOOP:  cpu time  425.9319: real time  425.9458

 eigenvalue-minimisations  :   824
 total energy-change (2. order) :-0.3718488E+03  (-0.3123910E+03)
 number of electron     560.0000000 magnetization 
 augmentation part      560.0000000 magnetization 

 Free energy of the ion-electron system (eV)
  ---------------------------------------------------
  alpha Z        PSCENC =        75.25431677
  Ewald energy   TEWEN  =    137376.71803850
  -Hartree energ DENC   =   -180743.94790555
  -exchange      EXHF   =         0.00000000
  -V(xc)+E(xc)   XCENC  =     -1703.87679911
  PAW double counting   =     44873.02882129   -41398.84523641
  entropy T*S    EENTRO =        -0.03016197
  eigenvalues    EBANDS =     -3696.68774992
  atomic energy  EATOM  =     45086.50549395
  Solvation  Ediel_sol  =         0.00000000
  ---------------------------------------------------
  free energy    TOTEN  =      -131.88118245 eV

  energy without entropy =     -131.85102048  energy(sigma->0) =     -131.87364196


--------------------------------------------------------------------------------------------------------




--------------------------------------- Iteration      1(   5)  ---------------------------------------


     EDDAV:  cpu time  528.7349: real time  528.7419
       DOS:  cpu time    0.0014: real time    0.0014
    CHARGE:  cpu time   26.4091: real time   26.4089
    MIXING:  cpu time    0.4522: real time    0.4522
    --------------------------------------------
      LOOP:  cpu time  555.5977: real time  555.6044

 eigenvalue-minimisations  :  1064
 total energy-change (2. order) :-0.4656071E+02  (-0.3824740E+02)
 number of electron     559.9999817 magnetization 
 augmentation part      245.1726912 magnetization 

 Broyden mixing:
  rms(total) = 0.13996E+01    rms(broyden)= 0.13986E+01
  rms(prec ) = 0.15022E+01
  weight for this iteration     100.00

 Free energy of the ion-electron system (eV)
  ---------------------------------------------------
  alpha Z        PSCENC =        75.25431677
  Ewald energy   TEWEN  =    137376.71803850
  -Hartree energ DENC   =   -180743.94790555
  -exchange      EXHF   =         0.00000000
  -V(xc)+E(xc)   XCENC  =     -1703.87679911
  PAW double counting   =     44873.02882129   -41398.84523641
  entropy T*S    EENTRO =         0.48563410
  eigenvalues    EBANDS =     -3743.76425495
  atomic energy  EATOM  =     45086.50549395
  Solvation  Ediel_sol  =         0.00000000
  ---------------------------------------------------
  free energy    TOTEN  =      -178.44189141 eV

  energy without entropy =     -178.92752551  energy(sigma->0) =     -178.56329994


--------------------------------------------------------------------------------------------------------




--------------------------------------- Iteration      1(   6)  ---------------------------------------


    POTLOK:  cpu time   13.8016: real time   13.8025
    SETDIJ:  cpu time    0.1271: real time    0.1271
    EDDIAG:  cpu time   69.5864: real time   69.5866
  RMM-DIIS:  cpu time  195.2420: real time  195.2445
    ORTHCH:  cpu time   13.6929: real time   13.6929
       DOS:  cpu time    0.0015: real time    0.0015
    CHARGE:  cpu time   26.4732: real time   26.4731
    MIXING:  cpu time    0.4858: real time    0.4858
    --------------------------------------------
      LOOP:  cpu time  319.4105: real time  319.4140

 eigenvalue-minimisations  :   733
 total energy-change (2. order) :-0.4573341E+00  (-0.5568993E+01)
 number of electron     559.9999840 magnetization 
 augmentation part      240.6528105 magnetization 

 Broyden mixing:
  rms(total) = 0.22569E+01    rms(broyden)= 0.22568E+01
  rms(prec ) = 0.26161E+01
  weight for this iteration     100.00

 eigenvalues of (default mixing * dielectric matrix)
  average eigenvalue GAMMA=   0.3209
  0.3209

 Free energy of the ion-electron system (eV)
  ---------------------------------------------------
  alpha Z        PSCENC =        75.25431677
  Ewald energy   TEWEN  =    137376.71803850
  -Hartree energ DENC   =   -181145.30523624
  -exchange      EXHF   =         0.00000000
  -V(xc)+E(xc)   XCENC  =     -1697.64183626
  PAW double counting   =     45613.62242209   -42112.49053451
  entropy T*S    EENTRO =        -0.17167443
  eigenvalues    EBANDS =     -3375.39021536
  atomic energy  EATOM  =     45086.50549395
  Solvation  Ediel_sol  =         0.00000000
  ---------------------------------------------------
  free energy    TOTEN  =      -178.89922549 eV

  energy without entropy =     -178.72755106  energy(sigma->0) =     -178.85630688


--------------------------------------------------------------------------------------------------------




--------------------------------------- Iteration      1(   7)  ---------------------------------------


    POTLOK:  cpu time   14.0060: real time   14.0070
    SETDIJ:  cpu time    0.1347: real time    0.1347
    EDDIAG:  cpu time   69.6102: real time   69.6119
  RMM-DIIS:  cpu time  231.6580: real time  231.6603
    ORTHCH:  cpu time   13.9747: real time   13.9746
       DOS:  cpu time    0.0015: real time    0.0015
    CHARGE:  cpu time   26.3773: real time   26.3771
    MIXING:  cpu time    0.5210: real time    0.5210
    --------------------------------------------
      LOOP:  cpu time  356.2835: real time  356.2881

 eigenvalue-minimisations  :   869
 total energy-change (2. order) :-0.1224298E+01  (-0.1987433E+01)
 number of electron     559.9999817 magnetization 
 augmentation part      240.6171015 magnetization 

 Broyden mixing:
  rms(total) = 0.20634E+01    rms(broyden)= 0.20631E+01
  rms(prec ) = 0.25377E+01
  weight for this iteration     100.00

 eigenvalues of (default mixing * dielectric matrix)
  average eigenvalue GAMMA=   0.3122
  0.4744  0.1499

 Free energy of the ion-electron system (eV)
  ---------------------------------------------------
  alpha Z        PSCENC =        75.25431677
  Ewald energy   TEWEN  =    137376.71803850
  -Hartree energ DENC   =   -181229.65645753
  -exchange      EXHF   =         0.00000000
  -V(xc)+E(xc)   XCENC  =     -1697.79983262
  PAW double counting   =     45671.31007549   -42167.64204136
  entropy T*S    EENTRO =        -0.06141753
  eigenvalues    EBANDS =     -3294.75169962
  atomic energy  EATOM  =     45086.50549395
  Solvation  Ediel_sol  =         0.00000000
  ---------------------------------------------------
  free energy    TOTEN  =      -180.12352394 eV

  energy without entropy =     -180.06210641  energy(sigma->0) =     -180.10816956


--------------------------------------------------------------------------------------------------------




--------------------------------------- Iteration      1(   8)  ---------------------------------------


    POTLOK:  cpu time   13.5545: real time   13.5553
    SETDIJ:  cpu time    0.1311: real time    0.1311
    EDDIAG:  cpu time   68.6903: real time   68.6921
  RMM-DIIS:  cpu time  212.1807: real time  212.1849
    ORTHCH:  cpu time   13.9522: real time   13.9522
       DOS:  cpu time    0.0014: real time    0.0014
    CHARGE:  cpu time   25.9042: real time   25.9041
    MIXING:  cpu time    0.5256: real time    0.5256
    --------------------------------------------
      LOOP:  cpu time  334.9401: real time  334.9467

 eigenvalue-minimisations  :   789
 total energy-change (2. order) :-0.3378429E+01  (-0.5778234E+00)
 number of electron     559.9999826 magnetization 
 augmentation part      240.0616824 magnetization 

 Broyden mixing:
  rms(total) = 0.26157E+01    rms(broyden)= 0.26154E+01
  rms(prec ) = 0.31465E+01
  weight for this iteration     100.00

 eigenvalues of (default mixing * dielectric matrix)
  average eigenvalue GAMMA=   0.3024
  0.6411  0.1471  0.1190

 Free energy of the ion-electron system (eV)
  ---------------------------------------------------
  alpha Z        PSCENC =        75.25431677
  Ewald energy   TEWEN  =    137376.71803850
  -Hartree energ DENC   =   -181271.60433785
  -exchange      EXHF   =         0.00000000
  -V(xc)+E(xc)   XCENC  =     -1697.76088675
  PAW double counting   =     45724.65283224   -42218.41689108
  entropy T*S    EENTRO =        -0.12706369
  eigenvalues    EBANDS =     -3258.72345503
  atomic energy  EATOM  =     45086.50549395
  Solvation  Ediel_sol  =         0.00000000
  ---------------------------------------------------
  free energy    TOTEN  =      -183.50195295 eV

  energy without entropy =     -183.37488926  energy(sigma->0) =     -183.47018702


--------------------------------------------------------------------------------------------------------




--------------------------------------- Iteration      1(   9)  ---------------------------------------


    POTLOK:  cpu time   13.2971: real time   13.2980
    SETDIJ:  cpu time    0.1209: real time    0.1209
    EDDIAG:  cpu time   68.0411: real time   68.0415
  RMM-DIIS:  cpu time  198.5250: real time  198.5287
    ORTHCH:  cpu time   13.8759: real time   13.8759
       DOS:  cpu time    0.0014: real time    0.0014
    CHARGE:  cpu time   25.8699: real time   25.8699
    MIXING:  cpu time    0.5527: real time    0.5527
    --------------------------------------------
      LOOP:  cpu time  320.2841: real time  320.2890

 eigenvalue-minimisations  :   739
 total energy-change (2. order) : 0.9243727E+00  (-0.4730542E+00)
 number of electron     559.9999815 magnetization 
 augmentation part      240.5454562 magnetization 

 Broyden mixing:
  rms(total) = 0.25367E+01    rms(broyden)= 0.25364E+01
  rms(prec ) = 0.29725E+01
  weight for this iteration     100.00

 eigenvalues of (default mixing * dielectric matrix)
  average eigenvalue GAMMA=   0.2850
  0.7479  0.1460  0.1460  0.1001

 Free energy of the ion-electron system (eV)
  ---------------------------------------------------
  alpha Z        PSCENC =        75.25431677
  Ewald energy   TEWEN  =    137376.71803850
  -Hartree energ DENC   =   -181296.14856904
  -exchange      EXHF   =         0.00000000
  -V(xc)+E(xc)   XCENC  =     -1697.74599016
  PAW double counting   =     45779.01318602   -42270.23943732
  entropy T*S    EENTRO =        -0.11297579
  eigenvalues    EBANDS =     -3235.82164316
  atomic energy  EATOM  =     45086.50549395
  Solvation  Ediel_sol  =         0.00000000
  ---------------------------------------------------
  free energy    TOTEN  =      -182.57758023 eV

  energy without entropy =     -182.46460444  energy(sigma->0) =     -182.54933628


--------------------------------------------------------------------------------------------------------




--------------------------------------- Iteration      1(  10)  ---------------------------------------


    POTLOK:  cpu time   13.2193: real time   13.2201
    SETDIJ:  cpu time    0.1199: real time    0.1199
    EDDIAG:  cpu time   68.0880: real time   68.0884
  RMM-DIIS:  cpu time  197.8917: real time  197.8973
    ORTHCH:  cpu time   13.7003: real time   13.7002
       DOS:  cpu time    0.0014: real time    0.0014
    CHARGE:  cpu time   25.7176: real time   25.7174
    MIXING:  cpu time    0.5826: real time    0.5826
    --------------------------------------------
      LOOP:  cpu time  319.3208: real time  319.3273

 eigenvalue-minimisations  :   732
 total energy-change (2. order) : 0.2878262E+01  (-0.2712714E+00)
 number of electron     559.9999844 magnetization 
 augmentation part      241.1771808 magnetization 

 Broyden mixing:
  rms(total) = 0.22181E+01    rms(broyden)= 0.22178E+01
  rms(prec ) = 0.26203E+01
  weight for this iteration     100.00

 eigenvalues of (default mixing * dielectric matrix)
  average eigenvalue GAMMA=   0.2658
  0.8184  0.1594  0.1594  0.0959  0.0959

 Free energy of the ion-electron system (eV)
  ---------------------------------------------------
  alpha Z        PSCENC =        75.25431677
  Ewald energy   TEWEN  =    137376.71803850
  -Hartree energ DENC   =   -181321.16840087
  -exchange      EXHF   =         0.00000000
  -V(xc)+E(xc)   XCENC  =     -1697.66367662
  PAW double counting   =     45819.07593077   -42308.53690067
  entropy T*S    EENTRO =        -0.13383439
  eigenvalues    EBANDS =     -3209.75028562
  atomic energy  EATOM  =     45086.50549395
  Solvation  Ediel_sol  =         0.00000000
  ---------------------------------------------------
  free energy    TOTEN  =      -179.69931818 eV

  energy without entropy =     -179.56548379  energy(sigma->0) =     -179.66585958


--------------------------------------------------------------------------------------------------------




--------------------------------------- Iteration      1(  11)  ---------------------------------------


    POTLOK:  cpu time   13.2879: real time   13.2905
    SETDIJ:  cpu time    0.1202: real time    0.1202
    EDDIAG:  cpu time   68.2745: real time   68.2766
  RMM-DIIS:  cpu time  198.0886: real time  198.0906
    ORTHCH:  cpu time   13.5901: real time   13.5900
       DOS:  cpu time    0.0015: real time    0.0015
    CHARGE:  cpu time   25.7296: real time   25.7295
    MIXING:  cpu time    0.6170: real time    0.6170
    --------------------------------------------
      LOOP:  cpu time  319.7094: real time  319.7159

 eigenvalue-minimisations  :   735
 total energy-change (2. order) : 0.1529716E+01  (-0.1632263E+00)
 number of electron     559.9999819 magnetization 
 augmentation part      241.4836184 magnetization 

 Broyden mixing:
  rms(total) = 0.20204E+01    rms(broyden)= 0.20201E+01
  rms(prec ) = 0.24013E+01
  weight for this iteration     100.00

 eigenvalues of (default mixing * dielectric matrix)
  average eigenvalue GAMMA=   0.2487
  0.8607  0.1792  0.1792  0.1019  0.1019  0.0691

 Free energy of the ion-electron system (eV)
  ---------------------------------------------------
  alpha Z        PSCENC =        75.25431677
  Ewald energy   TEWEN  =    137376.71803850
  -Hartree energ DENC   =   -181339.12697265
  -exchange      EXHF   =         0.00000000
  -V(xc)+E(xc)   XCENC  =     -1697.53461632
  PAW double counting   =     45848.82961012   -42336.87513306
  entropy T*S    EENTRO =        -0.19879374
  eigenvalues    EBANDS =     -3191.74154539
  atomic energy  EATOM  =     45086.50549395
  Solvation  Ediel_sol  =         0.00000000
  ---------------------------------------------------
  free energy    TOTEN  =      -178.16960181 eV

  energy without entropy =     -177.97080807  energy(sigma->0) =     -178.11990338


--------------------------------------------------------------------------------------------------------




--------------------------------------- Iteration      1(  12)  ---------------------------------------


    POTLOK:  cpu time   13.1355: real time   13.1377
    SETDIJ:  cpu time    0.1212: real time    0.1212
    EDDIAG:  cpu time   68.3460: real time   68.3477
  RMM-DIIS:  cpu time  196.2310: real time  196.2360
    ORTHCH:  cpu time   13.6486: real time   13.6503
       DOS:  cpu time    0.0014: real time    0.0014
    CHARGE:  cpu time   25.5399: real time   25.5398
    MIXING:  cpu time    0.6558: real time    0.6558
    --------------------------------------------
      LOOP:  cpu time  317.6793: real time  317.6898

 eigenvalue-minimisations  :   726
 total energy-change (2. order) : 0.1762647E+01  (-0.1121244E+00)
 number of electron     559.9999818 magnetization 
 augmentation part      241.6251844 magnetization 

 Broyden mixing:
  rms(total) = 0.14657E+01    rms(broyden)= 0.14653E+01
  rms(prec ) = 0.17167E+01
  weight for this iteration     100.00

 eigenvalues of (default mixing * dielectric matrix)
  average eigenvalue GAMMA=   0.2465
  0.9077  0.2272  0.2272  0.1142  0.1142  0.0675  0.0675

 Free energy of the ion-electron system (eV)
  ---------------------------------------------------
  alpha Z        PSCENC =        75.25431677
  Ewald energy   TEWEN  =    137376.71803850
  -Hartree energ DENC   =   -181354.56998602
  -exchange      EXHF   =         0.00000000
  -V(xc)+E(xc)   XCENC  =     -1697.38871630
  PAW double counting   =     45872.02785267   -42358.92156584
  entropy T*S    EENTRO =        -0.04649686
  eigenvalues    EBANDS =     -3175.98589200
  atomic energy  EATOM  =     45086.50549395
  Solvation  Ediel_sol  =         0.00000000
  ---------------------------------------------------
  free energy    TOTEN  =      -176.40695512 eV

  energy without entropy =     -176.36045826  energy(sigma->0) =     -176.39533091


--------------------------------------------------------------------------------------------------------




--------------------------------------- Iteration      1(  13)  ---------------------------------------


    POTLOK:  cpu time   12.9401: real time   12.9410
    SETDIJ:  cpu time    0.1216: real time    0.1216
    EDDIAG:  cpu time   68.0648: real time   68.0662
  RMM-DIIS:  cpu time  195.6274: real time  195.6318
    ORTHCH:  cpu time   13.5818: real time   13.5817
       DOS:  cpu time    0.0015: real time    0.0015
    CHARGE:  cpu time   25.4676: real time   25.4674
    MIXING:  cpu time    0.6761: real time    0.6761
    --------------------------------------------
      LOOP:  cpu time  316.4810: real time  316.4874

 eigenvalue-minimisations  :   724
 total energy-change (2. order) : 0.4346908E+00  (-0.9345582E-01)
 number of electron     559.9999832 magnetization 
 augmentation part      241.6407108 magnetization 

 Broyden mixing:
  rms(total) = 0.12189E+01    rms(broyden)= 0.12186E+01
  rms(prec ) = 0.14452E+01
  weight for this iteration     100.00

 eigenvalues of (default mixing * dielectric matrix)
  average eigenvalue GAMMA=   0.2623
  0.9837  0.3172  0.3172  0.1253  0.1253  0.0867  0.0867  0.0563

 Free energy of the ion-electron system (eV)
  ---------------------------------------------------
  alpha Z        PSCENC =        75.25431677
  Ewald energy   TEWEN  =    137376.71803850
  -Hartree energ DENC   =   -181371.24266772
  -exchange      EXHF   =         0.00000000
  -V(xc)+E(xc)   XCENC  =     -1697.13471014
  PAW double counting   =     45899.86510851   -42385.32322232
  entropy T*S    EENTRO =        -0.15269249
  eigenvalues    EBANDS =     -3160.46192936
  atomic energy  EATOM  =     45086.50549395
  Solvation  Ediel_sol  =         0.00000000
  ---------------------------------------------------
  free energy    TOTEN  =      -175.97226430 eV

  energy without entropy =     -175.81957181  energy(sigma->0) =     -175.93409118


--------------------------------------------------------------------------------------------------------




--------------------------------------- Iteration      1(  14)  ---------------------------------------


    POTLOK:  cpu time   13.2151: real time   13.2157
    SETDIJ:  cpu time    0.1242: real time    0.1242
    EDDIAG:  cpu time   68.0252: real time   68.0252
  RMM-DIIS:  cpu time  196.6457: real time  196.6494
    ORTHCH:  cpu time   13.6051: real time   13.6050
       DOS:  cpu time    0.0014: real time    0.0014
    CHARGE:  cpu time   25.3357: real time   25.3355
    MIXING:  cpu time    0.7122: real time    0.7122
    --------------------------------------------
      LOOP:  cpu time  317.6646: real time  317.6687

 eigenvalue-minimisations  :   727
 total energy-change (2. order) :-0.8366447E+00  (-0.9689622E-01)
 number of electron     559.9999839 magnetization 
 augmentation part      241.4035460 magnetization 

 Broyden mixing:
  rms(total) = 0.20616E+01    rms(broyden)= 0.20613E+01
  rms(prec ) = 0.24271E+01
  weight for this iteration     100.00

 eigenvalues of (default mixing * dielectric matrix)
  average eigenvalue GAMMA=   0.2807
  1.1376  0.5820  0.2362  0.1043  0.1043  0.1238  0.1187  0.0649  0.0545

 Free energy of the ion-electron system (eV)
  ---------------------------------------------------
  alpha Z        PSCENC =        75.25431677
  Ewald energy   TEWEN  =    137376.71803850
  -Hartree energ DENC   =   -181406.22727893
  -exchange      EXHF   =         0.00000000
  -V(xc)+E(xc)   XCENC  =     -1696.62792252
  PAW double counting   =     45948.32506556   -42431.11577446
  entropy T*S    EENTRO =        -0.03594221
  eigenvalues    EBANDS =     -3129.60490567
  atomic energy  EATOM  =     45086.50549395
  Solvation  Ediel_sol  =         0.00000000
  ---------------------------------------------------
  free energy    TOTEN  =      -176.80890900 eV

  energy without entropy =     -176.77296679  energy(sigma->0) =     -176.79992345


--------------------------------------------------------------------------------------------------------




--------------------------------------- Iteration      1(  15)  ---------------------------------------


    POTLOK:  cpu time   13.1818: real time   13.1824
    SETDIJ:  cpu time    0.1224: real time    0.1224
    EDDIAG:  cpu time   68.0013: real time   68.0031
  RMM-DIIS:  cpu time  192.2361: real time  192.2389
    ORTHCH:  cpu time   13.4912: real time   13.4911
       DOS:  cpu time    0.0015: real time    0.0015
    CHARGE:  cpu time   25.3513: real time   25.3511
    MIXING:  cpu time    0.7707: real time    0.7707
    --------------------------------------------
      LOOP:  cpu time  313.1564: real time  313.1614

 eigenvalue-minimisations  :   709
 total energy-change (2. order) : 0.3664257E+00  (-0.1255195E+00)
 number of electron     559.9999830 magnetization 
 augmentation part      241.2063466 magnetization 

 Broyden mixing:
  rms(total) = 0.24504E+01    rms(broyden)= 0.24502E+01
  rms(prec ) = 0.28427E+01
  weight for this iteration     100.00

 eigenvalues of (default mixing * dielectric matrix)
  average eigenvalue GAMMA=   0.2880
  1.2812  0.7153  0.2158  0.1494  0.1494  0.0903  0.0903  0.0692  0.0692  0.0503

 Free energy of the ion-electron system (eV)
  ---------------------------------------------------
  alpha Z        PSCENC =        75.25431677
  Ewald energy   TEWEN  =    137376.71803850
  -Hartree energ DENC   =   -181457.17139267
  -exchange      EXHF   =         0.00000000
  -V(xc)+E(xc)   XCENC  =     -1695.89643050
  PAW double counting   =     46014.35422112   -42493.55352012
  entropy T*S    EENTRO =         0.08522950
  eigenvalues    EBANDS =     -3082.73843990
  atomic energy  EATOM  =     45086.50549395
  Solvation  Ediel_sol  =         0.00000000
  ---------------------------------------------------
  free energy    TOTEN  =      -176.44248335 eV

  energy without entropy =     -176.52771285  energy(sigma->0) =     -176.46379072


--------------------------------------------------------------------------------------------------------




--------------------------------------- Iteration      1(  16)  ---------------------------------------


    POTLOK:  cpu time   13.2156: real time   13.2189
    SETDIJ:  cpu time    0.1236: real time    0.1236
    EDDIAG:  cpu time   67.9697: real time   67.9697
  RMM-DIIS:  cpu time  192.7250: real time  192.7274
    ORTHCH:  cpu time   13.8321: real time   13.8321
       DOS:  cpu time    0.0016: real time    0.0016
    CHARGE:  cpu time   25.1875: real time   25.1874
    MIXING:  cpu time    0.8131: real time    0.8131
    --------------------------------------------
      LOOP:  cpu time  313.8682: real time  313.8738

 eigenvalue-minimisations  :   714
 total energy-change (2. order) : 0.4353463E+00  (-0.8862829E-01)
 number of electron     559.9999800 magnetization 
 augmentation part      241.0020267 magnetization 

 Broyden mixing:
  rms(total) = 0.19666E+01    rms(broyden)= 0.19664E+01
  rms(prec ) = 0.23305E+01
  weight for this iteration     100.00

 eigenvalues of (default mixing * dielectric matrix)
  average eigenvalue GAMMA=   0.2875
  1.3788  0.7583  0.2156  0.1845  0.1845  0.0949  0.0949  0.0701  0.0664  0.0664
  0.0476

 Free energy of the ion-electron system (eV)
  ---------------------------------------------------
  alpha Z        PSCENC =        75.25431677
  Ewald energy   TEWEN  =    137376.71803850
  -Hartree energ DENC   =   -181487.31945875
  -exchange      EXHF   =         0.00000000
  -V(xc)+E(xc)   XCENC  =     -1695.53175947
  PAW double counting   =     46051.26768654   -42528.47606515
  entropy T*S    EENTRO =        -0.01041943
  eigenvalues    EBANDS =     -3054.41497003
  atomic energy  EATOM  =     45086.50549395
  Solvation  Ediel_sol  =         0.00000000
  ---------------------------------------------------
  free energy    TOTEN  =      -176.00713708 eV

  energy without entropy =     -175.99671766  energy(sigma->0) =     -176.00453223


--------------------------------------------------------------------------------------------------------




--------------------------------------- Iteration      1(  17)  ---------------------------------------


    POTLOK:  cpu time   13.2253: real time   13.2280
    SETDIJ:  cpu time    0.1239: real time    0.1239
    EDDIAG:  cpu time   68.3647: real time   68.3649
  RMM-DIIS:  cpu time  193.5322: real time  193.5329
    ORTHCH:  cpu time   13.6075: real time   13.6074
       DOS:  cpu time    0.0015: real time    0.0015
    CHARGE:  cpu time   25.0010: real time   25.0008
    MIXING:  cpu time    0.8479: real time    0.8479
    --------------------------------------------
      LOOP:  cpu time  314.7040: real time  314.7074

 eigenvalue-minimisations  :   714
 total energy-change (2. order) : 0.1052998E+01  (-0.6434829E-01)
 number of electron     559.9999826 magnetization 
 augmentation part      241.0567522 magnetization 

 Broyden mixing:
  rms(total) = 0.98219E+00    rms(broyden)= 0.98187E+00
  rms(prec ) = 0.11100E+01
  weight for this iteration     100.00

 eigenvalues of (default mixing * dielectric matrix)
  average eigenvalue GAMMA=   0.2902
  1.4760  0.8084  0.2241  0.2241  0.1662  0.1415  0.0954  0.0954  0.0680  0.0680
  0.0678  0.0469

 Free energy of the ion-electron system (eV)
  ---------------------------------------------------
  alpha Z        PSCENC =        75.25431677
  Ewald energy   TEWEN  =    137376.71803850
  -Hartree energ DENC   =   -181500.01608208
  -exchange      EXHF   =         0.00000000
  -V(xc)+E(xc)   XCENC  =     -1695.37251315
  PAW double counting   =     46068.47956167   -42544.75250729
  entropy T*S    EENTRO =        -0.08682872
  eigenvalues    EBANDS =     -3041.68361877
  atomic energy  EATOM  =     45086.50549395
  Solvation  Ediel_sol  =         0.00000000
  ---------------------------------------------------
  free energy    TOTEN  =      -174.95413913 eV

  energy without entropy =     -174.86731041  energy(sigma->0) =     -174.93243195


--------------------------------------------------------------------------------------------------------




--------------------------------------- Iteration      1(  18)  ---------------------------------------


    POTLOK:  cpu time   13.2377: real time   13.2407
    SETDIJ:  cpu time    0.1246: real time    0.1246
    EDDIAG:  cpu time   68.4290: real time   68.4294
  RMM-DIIS:  cpu time  191.5891: real time  191.5904
    ORTHCH:  cpu time   13.6664: real time   13.6663
       DOS:  cpu time    0.0016: real time    0.0016
    CHARGE:  cpu time   24.8905: real time   24.8903
    MIXING:  cpu time    0.9048: real time    0.9048
    --------------------------------------------
      LOOP:  cpu time  312.8436: real time  312.8480

 eigenvalue-minimisations  :   710
 total energy-change (2. order) : 0.1527916E+00  (-0.4858343E-01)
 number of electron     559.9999832 magnetization 
 augmentation part      241.1047098 magnetization 

 Broyden mixing:
  rms(total) = 0.10031E+01    rms(broyden)= 0.10029E+01
  rms(prec ) = 0.11779E+01
  weight for this iteration     100.00

 eigenvalues of (default mixing * dielectric matrix)
  average eigenvalue GAMMA=   0.3063
  1.5719  0.9467  0.3079  0.3079  0.1601  0.1601  0.0971  0.0971  0.0793  0.0793
  0.0638  0.0638  0.0471

 Free energy of the ion-electron system (eV)
  ---------------------------------------------------
  alpha Z        PSCENC =        75.25431677
  Ewald energy   TEWEN  =    137376.71803850
  -Hartree energ DENC   =   -181513.81346681
  -exchange      EXHF   =         0.00000000
  -V(xc)+E(xc)   XCENC  =     -1695.21191020
  PAW double counting   =     46082.02937115   -42557.30959072
  entropy T*S    EENTRO =        -0.02729332
  eigenvalues    EBANDS =     -3028.94630682
  atomic energy  EATOM  =     45086.50549395
  Solvation  Ediel_sol  =         0.00000000
  ---------------------------------------------------
  free energy    TOTEN  =      -174.80134749 eV

  energy without entropy =     -174.77405417  energy(sigma->0) =     -174.79452416


--------------------------------------------------------------------------------------------------------




--------------------------------------- Iteration      1(  19)  ---------------------------------------


    POTLOK:  cpu time   13.2469: real time   13.2491
    SETDIJ:  cpu time    0.1220: real time    0.1220
    EDDIAG:  cpu time   68.6081: real time   68.6080
  RMM-DIIS:  cpu time  191.2331: real time  191.2364
    ORTHCH:  cpu time   13.7147: real time   13.7146
       DOS:  cpu time    0.0015: real time    0.0015
    CHARGE:  cpu time   25.3689: real time   25.3688
    MIXING:  cpu time    0.9918: real time    0.9918
    --------------------------------------------
      LOOP:  cpu time  313.2871: real time  313.2924

 eigenvalue-minimisations  :   713
 total energy-change (2. order) :-0.2558785E+00  (-0.3751489E-01)
 number of electron     559.9999822 magnetization 
 augmentation part      241.1172803 magnetization 

 Broyden mixing:
  rms(total) = 0.13473E+01    rms(broyden)= 0.13471E+01
  rms(prec ) = 0.15563E+01
  weight for this iteration     100.00

 eigenvalues of (default mixing * dielectric matrix)
  average eigenvalue GAMMA=   0.3083
  1.5627  1.1235  0.3512  0.3512  0.1651  0.1651  0.0974  0.0974  0.0833  0.0833
  0.0665  0.0665  0.0563  0.0471

 Free energy of the ion-electron system (eV)
  ---------------------------------------------------
  alpha Z        PSCENC =        75.25431677
  Ewald energy   TEWEN  =    137376.71803850
  -Hartree energ DENC   =   -181533.61421429
  -exchange      EXHF   =         0.00000000
  -V(xc)+E(xc)   XCENC  =     -1695.00551664
  PAW double counting   =     46093.26537149   -42567.35862871
  entropy T*S    EENTRO =        -0.00047465
  eigenvalues    EBANDS =     -3010.82161239
  atomic energy  EATOM  =     45086.50549395
  Solvation  Ediel_sol  =         0.00000000
  ---------------------------------------------------
  free energy    TOTEN  =      -175.05722597 eV

  energy without entropy =     -175.05675132  energy(sigma->0) =     -175.05710731


--------------------------------------------------------------------------------------------------------




--------------------------------------- Iteration      1(  20)  ---------------------------------------


    POTLOK:  cpu time   13.5211: real time   13.5221
    SETDIJ:  cpu time    0.1202: real time    0.1202
    EDDIAG:  cpu time   68.7633: real time   68.7634
  RMM-DIIS:  cpu time  192.1052: real time  192.1058
    ORTHCH:  cpu time   13.5888: real time   13.5887
       DOS:  cpu time    0.0016: real time    0.0016
    CHARGE:  cpu time   25.7333: real time   25.7331
    MIXING:  cpu time    1.0636: real time    1.0636
    --------------------------------------------
      LOOP:  cpu time  314.8971: real time  314.8984

 eigenvalue-minimisations  :   718
 total energy-change (2. order) : 0.2393391E+00  (-0.3043587E-01)
 number of electron     559.9999838 magnetization 
 augmentation part      241.1012801 magnetization 

 Broyden mixing:
  rms(total) = 0.96726E+00    rms(broyden)= 0.96714E+00
  rms(prec ) = 0.11116E+01
  weight for this iteration     100.00

 eigenvalues of (default mixing * dielectric matrix)
  average eigenvalue GAMMA=   0.3156
  1.7784  1.1090  0.3876  0.3876  0.1794  0.1794  0.1212  0.0964  0.0964  0.0845
  0.0845  0.0645  0.0645  0.0470  0.0536

 Free energy of the ion-electron system (eV)
  ---------------------------------------------------
  alpha Z        PSCENC =        75.25431677
  Ewald energy   TEWEN  =    137376.71803850
  -Hartree energ DENC   =   -181547.54007372
  -exchange      EXHF   =         0.00000000
  -V(xc)+E(xc)   XCENC  =     -1694.90325450
  PAW double counting   =     46095.45516704   -42568.91115926
  entropy T*S    EENTRO =        -0.01365106
  eigenvalues    EBANDS =     -2997.38276455
  atomic energy  EATOM  =     45086.50549395
  Solvation  Ediel_sol  =         0.00000000
  ---------------------------------------------------
  free energy    TOTEN  =      -174.81788684 eV

  energy without entropy =     -174.80423578  energy(sigma->0) =     -174.81447407


--------------------------------------------------------------------------------------------------------




--------------------------------------- Iteration      1(  21)  ---------------------------------------


    POTLOK:  cpu time   13.2358: real time   13.2393
    SETDIJ:  cpu time    0.1207: real time    0.1207
    EDDIAG:  cpu time   68.2308: real time   68.2360
  RMM-DIIS:  cpu time  192.1520: real time  192.1529
    ORTHCH:  cpu time   13.2180: real time   13.2179
       DOS:  cpu time    0.0015: real time    0.0015
    CHARGE:  cpu time   25.3414: real time   25.3412
    MIXING:  cpu time    1.0739: real time    1.0739
    --------------------------------------------
      LOOP:  cpu time  313.3740: real time  313.3833

 eigenvalue-minimisations  :   712
 total energy-change (2. order) : 0.2769420E+00  (-0.2589113E-01)
 number of electron     559.9999834 magnetization 
 augmentation part      241.1954862 magnetization 

 Broyden mixing:
  rms(total) = 0.70103E+00    rms(broyden)= 0.70088E+00
  rms(prec ) = 0.79952E+00
  weight for this iteration     100.00

 eigenvalues of (default mixing * dielectric matrix)
  average eigenvalue GAMMA=   0.3219
  1.8658  1.2214  0.4120  0.4120  0.1846  0.1846  0.1790  0.0964  0.0964  0.0902
  0.0902  0.0882  0.0642  0.0642  0.0470  0.0536

 Free energy of the ion-electron system (eV)
  ---------------------------------------------------
  alpha Z        PSCENC =        75.25431677
  Ewald energy   TEWEN  =    137376.71803850
  -Hartree energ DENC   =   -181563.86319515
  -exchange      EXHF   =         0.00000000
  -V(xc)+E(xc)   XCENC  =     -1694.70666123
  PAW double counting   =     46104.27719507   -42576.75240552
  entropy T*S    EENTRO =        -0.08025669
  eigenvalues    EBANDS =     -2981.89347051
  atomic energy  EATOM  =     45086.50549395
  Solvation  Ediel_sol  =         0.00000000
  ---------------------------------------------------
  free energy    TOTEN  =      -174.54094480 eV

  energy without entropy =     -174.46068812  energy(sigma->0) =     -174.52088063


--------------------------------------------------------------------------------------------------------




--------------------------------------- Iteration      1(  22)  ---------------------------------------


    POTLOK:  cpu time   13.2481: real time   13.2490
    SETDIJ:  cpu time    0.1186: real time    0.1185
    EDDIAG:  cpu time   67.9802: real time   67.9803
  RMM-DIIS:  cpu time  192.4127: real time  192.4132
    ORTHCH:  cpu time   13.2721: real time   13.2720
       DOS:  cpu time    0.0015: real time    0.0015
    CHARGE:  cpu time   25.3884: real time   25.3882
    MIXING:  cpu time    1.1819: real time    1.1819
    --------------------------------------------
      LOOP:  cpu time  313.6035: real time  313.6047

 eigenvalue-minimisations  :   714
 total energy-change (2. order) : 0.7344284E-01  (-0.1959330E-01)
 number of electron     559.9999823 magnetization 
 augmentation part      241.0882824 magnetization 

 Broyden mixing:
  rms(total) = 0.68486E+00    rms(broyden)= 0.68471E+00
  rms(prec ) = 0.79947E+00
  weight for this iteration     100.00

 eigenvalues of (default mixing * dielectric matrix)
  average eigenvalue GAMMA=   0.3365
  2.0102  1.3261  0.5577  0.3361  0.3361  0.1752  0.1752  0.1358  0.0967  0.0967
  0.0861  0.0861  0.0747  0.0636  0.0636  0.0469  0.0533

 Free energy of the ion-electron system (eV)
  ---------------------------------------------------
  alpha Z        PSCENC =        75.25431677
  Ewald energy   TEWEN  =    137376.71803850
  -Hartree energ DENC   =   -181584.68708564
  -exchange      EXHF   =         0.00000000
  -V(xc)+E(xc)   XCENC  =     -1694.49452932
  PAW double counting   =     46110.05976653   -42581.58383195
  entropy T*S    EENTRO =        -0.08629625
  eigenvalues    EBANDS =     -2962.15337455
  atomic energy  EATOM  =     45086.50549395
  Solvation  Ediel_sol  =         0.00000000
  ---------------------------------------------------
  free energy    TOTEN  =      -174.46750196 eV

  energy without entropy =     -174.38120571  energy(sigma->0) =     -174.44592790


--------------------------------------------------------------------------------------------------------




--------------------------------------- Iteration      1(  23)  ---------------------------------------


    POTLOK:  cpu time   13.0531: real time   13.0538
    SETDIJ:  cpu time    0.1232: real time    0.1232
    EDDIAG:  cpu time   68.4907: real time   68.4910
  RMM-DIIS:  cpu time  191.1020: real time  191.1037
    ORTHCH:  cpu time   13.4291: real time   13.4290
       DOS:  cpu time    0.0015: real time    0.0015
    CHARGE:  cpu time   25.7506: real time   25.7505
    MIXING:  cpu time    1.2826: real time    1.2826
    --------------------------------------------
      LOOP:  cpu time  313.2329: real time  313.2355

 eigenvalue-minimisations  :   713
 total energy-change (2. order) : 0.3016233E-01  (-0.1949790E-01)
 number of electron     559.9999831 magnetization 
 augmentation part      241.0341515 magnetization 

 Broyden mixing:
  rms(total) = 0.69282E+00    rms(broyden)= 0.69266E+00
  rms(prec ) = 0.81168E+00
  weight for this iteration     100.00

 eigenvalues of (default mixing * dielectric matrix)
  average eigenvalue GAMMA=   0.3431
  2.1179  1.3532  0.7334  0.3543  0.3543  0.1768  0.1768  0.1498  0.0966  0.0966
[...]
 -0.006  -0.012   0.004   0.005   0.005  -0.006  -0.011   0.003
 -0.011  -0.020   0.006   0.008   0.009  -0.010  -0.019   0.006
 -0.015  -0.005   0.012   0.000   0.022  -0.014  -0.005   0.012
  0.000  -0.023  -0.006  -0.015  -0.000   0.000  -0.022  -0.006
 -0.022   0.000   0.009  -0.005  -0.016  -0.021   0.000   0.008
 -0.017  -0.006   0.015   0.000   0.027  -0.017  -0.006   0.015
  0.000  -0.027  -0.007  -0.018   0.000   0.000  -0.027  -0.007
 -0.027   0.000   0.010  -0.006  -0.019  -0.026   0.000   0.010
 total augmentation occupancy for first ion, spin component:           1
  1.536  -0.035   0.006   0.018   0.026   0.076  -0.006  -0.002   0.035  -0.010   0.087  -0.029   0.011   0.004   0.004  -0.019
 -0.035   1.398   0.030   0.072   0.002  -0.005   0.073   0.010  -0.016  -0.009   0.212  -0.064   0.019   0.004   0.004  -0.006
  0.006   0.030   1.546   0.001   0.001  -0.002   0.012   0.073  -0.012   0.018  -0.051   0.017  -0.003  -0.007  -0.005   0.016
  0.018   0.072   0.001   1.340   0.044   0.033  -0.015  -0.012   0.090  -0.023  -0.084   0.023  -0.001  -0.009  -0.004   0.001
  0.026   0.002   0.001   0.044   1.442  -0.011  -0.010   0.017  -0.022   0.067  -0.093   0.030  -0.002  -0.011  -0.010   0.026
  0.076  -0.005  -0.002   0.033  -0.011   0.216   0.018  -0.002  -0.045   0.004  -0.048   0.002   0.017  -0.010   0.034  -0.004
 -0.006   0.073   0.012  -0.015  -0.010   0.018   0.261  -0.023  -0.003   0.006  -0.108   0.007  -0.001   0.051  -0.010  -0.000
 -0.002   0.010   0.073  -0.012   0.017  -0.002  -0.023   0.214   0.013  -0.020   0.028  -0.001  -0.012   0.009  -0.018   0.003
  0.035  -0.016  -0.012   0.090  -0.022  -0.045  -0.003   0.013   0.260   0.007   0.043  -0.003  -0.009   0.036   0.004   0.000
 -0.010  -0.009   0.018  -0.023   0.067   0.004   0.006  -0.020   0.007   0.258   0.047  -0.003  -0.038   0.003   0.049   0.007
  0.087   0.212  -0.051  -0.084  -0.093  -0.048  -0.108   0.028   0.043   0.047   0.950  -0.140   0.084   0.014   0.064  -0.012
 -0.029  -0.064   0.017   0.023   0.030   0.002   0.007  -0.001  -0.003  -0.003  -0.140   0.023  -0.014  -0.003  -0.010   0.003
  0.011   0.019  -0.003  -0.001  -0.002   0.017  -0.001  -0.012  -0.009  -0.038   0.084  -0.014   0.029  -0.009  -0.004  -0.003
  0.004   0.004  -0.007  -0.009  -0.011  -0.010   0.051   0.009   0.036   0.003   0.014  -0.003  -0.009   0.036   0.004   0.000
  0.004   0.004  -0.005  -0.004  -0.010   0.034  -0.010  -0.018   0.004   0.049   0.064  -0.010  -0.004   0.004   0.035  -0.000
 -0.019  -0.006   0.016   0.001   0.026  -0.004  -0.000   0.003   0.000   0.007  -0.012   0.003  -0.003   0.000  -0.000   0.001
  0.001  -0.028  -0.007  -0.018   0.001   0.001  -0.008  -0.001  -0.006  -0.000  -0.003   0.001   0.000  -0.003  -0.000   0.000
 -0.029   0.001   0.012  -0.005  -0.019  -0.006   0.001   0.003  -0.001  -0.007  -0.008   0.001  -0.000  -0.000  -0.003   0.000


------------------------ aborting loop because EDIFF is reached ----------------------------------------


    CHARGE:  cpu time   22.8196: real time   22.8196
    FORLOC:  cpu time    6.3649: real time    6.3649
    FORNL :  cpu time   59.4137: real time   59.4133
    STRESS:  cpu time  179.6477: real time  179.6464
    FORCOR:  cpu time   19.6309: real time   19.6311
    FORHAR:  cpu time    8.8245: real time    8.8245
    MIXING:  cpu time    2.9398: real time    2.9398
    OFIELD:  cpu time    0.0000: real time    0.0000

  FORCE on cell =-STRESS in cart. coord.  units (eV):
  Direction    XX          YY          ZZ          XY          YZ          ZX
  --------------------------------------------------------------------------------------
  Alpha Z    75.25432    75.25432    75.25432
  Ewald   45235.26578 43639.12035 48502.22639   -85.04520  -161.24332  1964.80230
  Hartree 60076.47171 58554.99179 63115.84415   -76.87376  -144.14792  1795.10208
  E(xc)   -2904.45814 -2904.90874 -2902.83970    -0.07915    -0.17894     1.08149
  Local  ************************************   160.85604   303.42666 -3742.89049
  n-local  -883.28269  -881.45459  -890.56867     0.38740     0.84629    -5.22783
  augment  4104.30318  4104.65956  4102.43807     0.08820     0.16626    -1.28667
  Kinetic  7805.65188  7811.16288  7791.05377     0.78307     1.55984   -11.26572
  Fock        0.00000     0.00000     0.00000     0.00000     0.00000     0.00000
  -------------------------------------------------------------------------------------
  Total    -113.25939  -113.77826  -114.59713     0.11658     0.42887     0.31516
  in kB      -6.72080    -6.75159    -6.80018     0.00692     0.02545     0.01870
  external pressure =       -6.76 kB  Pullay stress =        0.00 kB


 VOLUME and BASIS-vectors are now :
 -----------------------------------------------------------------------------
  energy-cutoff  :      400.00
  volume of cell :    27000.00
      direct lattice vectors                 reciprocal lattice vectors
    30.000000000  0.000000000  0.000000000     0.033333333  0.000000000  0.000000000
     0.000000000 30.000000000  0.000000000     0.000000000  0.033333333  0.000000000
     0.000000000  0.000000000 30.000000000     0.000000000  0.000000000  0.033333333

  length of vectors
    30.000000000 30.000000000 30.000000000     0.033333333  0.033333333  0.033333333


 FORCES acting on ions
    electron-ion (+dipol)            ewald-force                    non-local-force                 convergence-correction
 -----------------------------------------------------------------------------------------------
   0.386E+03 0.984E+03 0.403E+03   -.384E+03 -.981E+03 -.403E+03   -.148E+01 -.184E+01 -.211E+00   0.127E-02 0.312E-02 0.474E-02
   -.978E+03 -.395E+03 0.411E+03   0.975E+03 0.393E+03 -.410E+03   0.181E+01 0.150E+01 -.221E+00   0.339E-02 0.314E-02 0.507E-02
   -.402E+03 0.977E+03 0.409E+03   0.400E+03 -.974E+03 -.408E+03   0.149E+01 -.182E+01 -.218E+00   -.237E-02 -.203E-02 0.571E-02
   0.975E+03 -.406E+03 0.368E+03   -.972E+03 0.403E+03 -.367E+03   -.181E+01 0.149E+01 -.356E+00   0.294E-02 0.788E-03 0.115E-02
   -.211E+02 0.603E+03 0.951E+03   0.211E+02 -.602E+03 -.947E+03   -.944E-03 -.317E+00 -.236E+01   -.393E-02 -.807E-03 0.274E-02
   -.236E+01 0.587E+03 -.966E+03   0.235E+01 -.587E+03 0.963E+03   0.100E-01 -.309E+00 0.235E+01   -.408E-02 -.441E-04 -.315E-02
   -.388E+01 0.114E+04 -.588E+01   0.389E+01 -.113E+04 0.590E+01   -.771E-02 -.311E+01 -.125E-01   0.192E-02 0.342E-02 0.520E-02
   0.114E+04 0.101E+01 -.201E+02   -.113E+04 -.999E+00 0.201E+02   -.312E+01 -.589E-02 0.214E-01   0.231E-02 0.100E-02 0.464E-02
   -.114E+04 0.187E+00 -.337E+01   0.113E+04 -.186E+00 0.335E+01   0.311E+01 0.240E-03 0.806E-02   0.245E-02 -.114E-02 0.560E-02
   -.440E+01 -.114E+04 -.671E+01   0.441E+01 0.113E+04 0.673E+01   -.808E-02 0.310E+01 -.114E-01   -.341E-02 -.336E-02 0.439E-02
   -.590E+03 0.583E+03 0.807E+03   0.587E+03 -.581E+03 -.804E+03   0.155E+01 -.156E+01 -.220E+01   -.203E-02 -.665E-02 -.153E-03
   -.580E+03 0.579E+03 -.814E+03   0.578E+03 -.576E+03 0.810E+03   0.155E+01 -.156E+01 0.220E+01   -.434E-02 -.266E-02 -.194E-02
   0.555E+03 -.629E+03 0.763E+03   -.553E+03 0.627E+03 -.760E+03   -.152E+01 0.140E+01 -.217E+01   -.364E-02 -.902E-03 0.248E-02
   0.577E+03 -.579E+03 -.816E+03   -.574E+03 0.577E+03 0.813E+03   -.156E+01 0.156E+01 0.220E+01   0.356E-02 -.193E-02 -.278E-02
   0.562E+03 0.622E+03 0.777E+03   -.559E+03 -.620E+03 -.774E+03   -.155E+01 -.147E+01 -.220E+01   -.750E-03 0.265E-02 0.109E-02
   0.577E+03 0.580E+03 -.816E+03   -.574E+03 -.577E+03 0.812E+03   -.156E+01 -.156E+01 0.220E+01   -.781E-03 0.140E-02 0.138E-02
   -.591E+03 -.583E+03 0.806E+03   0.589E+03 0.580E+03 -.803E+03   0.156E+01 0.155E+01 -.220E+01   0.113E-02 0.616E-02 -.209E-02
   -.580E+03 -.579E+03 -.814E+03   0.578E+03 0.576E+03 0.810E+03   0.155E+01 0.156E+01 0.220E+01   -.592E-02 0.150E-02 0.128E-02
   0.391E+03 0.974E+03 -.422E+03   -.389E+03 -.971E+03 0.421E+03   -.150E+01 -.182E+01 0.218E+00   0.181E-02 0.500E-02 0.310E-02
   -.973E+03 -.394E+03 -.419E+03   0.970E+03 0.392E+03 0.418E+03   0.182E+01 0.149E+01 0.225E+00   -.250E-02 0.121E-02 0.320E-02
   -.334E+03 0.325E+03 0.441E+03   0.334E+03 -.325E+03 -.442E+03   -.349E+00 0.360E+00 0.535E+00   -.106E-01 -.608E-02 0.823E-02
   0.974E+03 0.410E+03 0.373E+03   -.971E+03 -.408E+03 -.373E+03   -.186E+01 -.150E+01 -.319E+00   0.408E-02 0.647E-03 0.587E-03
   -.403E+03 -.977E+03 0.408E+03   0.401E+03 0.974E+03 -.407E+03   0.150E+01 0.182E+01 -.214E+00   -.390E-02 0.522E-02 0.807E-02
   -.397E+03 0.973E+03 -.420E+03   0.395E+03 -.970E+03 0.419E+03   0.150E+01 -.181E+01 0.242E+00   -.293E-02 0.129E-02 0.792E-03
   0.971E+03 -.395E+03 -.426E+03   -.968E+03 0.393E+03 0.426E+03   -.182E+01 0.149E+01 0.214E+00   0.407E-02 -.117E-03 0.330E-02
   -.977E+03 0.395E+03 0.411E+03   0.974E+03 -.393E+03 -.411E+03   0.181E+01 -.150E+01 -.221E+00   0.115E-02 -.588E-02 0.305E-02
   0.384E+03 -.984E+03 0.400E+03   -.382E+03 0.981E+03 -.400E+03   -.148E+01 0.184E+01 -.209E+00   -.435E-02 0.892E-04 0.609E-02
   0.304E+03 0.332E+03 0.424E+03   -.304E+03 -.333E+03 -.425E+03   0.459E+00 0.272E+00 0.590E+00   -.130E-02 0.138E-02 0.560E-02
   -.649E+01 0.643E+03 -.101E+02   0.653E+01 -.644E+03 0.101E+02   -.236E-01 0.747E+00 -.220E-01   -.158E-02 0.113E-02 0.577E-02
   -.601E+03 0.745E+00 0.958E+03   0.601E+03 -.741E+00 -.954E+03   0.314E+00 -.593E-03 -.234E+01   -.101E-02 -.417E-02 -.350E-02
   -.588E+03 0.154E+00 -.966E+03   0.588E+03 -.153E+00 0.962E+03   0.312E+00 0.118E-02 0.235E+01   -.408E-02 -.216E-02 0.615E-03
   0.526E+03 0.202E+02 0.812E+03   -.526E+03 -.200E+02 -.812E+03   0.263E+00 -.238E-01 -.103E+01   -.321E-03 -.788E-03 0.238E-02
   0.585E+03 0.268E+00 -.968E+03   -.584E+03 -.266E+00 0.965E+03   -.317E+00 0.188E-04 0.234E+01   0.700E-03 -.286E-02 -.169E-02
   0.757E+03 0.767E+03 -.151E+02   -.755E+03 -.765E+03 0.151E+02   -.114E+01 -.115E+01 0.280E-01   0.337E-02 0.254E-02 0.475E-02
   -.765E+03 -.762E+03 -.557E+01   0.763E+03 0.760E+03 0.557E+01   0.114E+01 0.114E+01 -.593E-02   -.399E-02 0.449E-02 0.715E-02
   -.765E+03 0.762E+03 -.523E+01   0.763E+03 -.760E+03 0.522E+01   0.114E+01 -.114E+01 -.302E-02   -.759E-02 -.446E-02 0.702E-02
   0.757E+03 -.767E+03 -.170E+02   -.755E+03 0.765E+03 0.169E+02   -.114E+01 0.115E+01 0.302E-01   0.249E-02 -.395E-03 0.517E-02
   -.417E+02 0.326E+01 0.104E+04   0.419E+02 -.326E+01 -.104E+04   -.119E+00 0.566E-02 -.166E+01   -.101E-01 -.434E-02 0.208E-02
   -.262E+01 0.212E+00 -.107E+04   0.262E+01 -.213E+00 0.107E+04   0.391E-02 0.545E-04 0.161E+01   -.527E-02 0.856E-03 -.161E-02
   0.971E+03 0.396E+03 -.426E+03   -.968E+03 -.394E+03 0.425E+03   -.182E+01 -.149E+01 0.210E+00   0.527E-02 -.226E-03 0.642E-02
   -.397E+03 -.973E+03 -.420E+03   0.395E+03 0.970E+03 0.420E+03   0.150E+01 0.182E+01 0.239E+00   -.685E-02 -.255E-02 0.241E-02
   -.325E+03 0.322E+03 -.458E+03   0.325E+03 -.322E+03 0.459E+03   -.370E+00 0.361E+00 -.515E+00   -.666E-02 -.446E-02 0.120E-02
   0.302E+03 -.329E+03 0.421E+03   -.303E+03 0.329E+03 -.421E+03   0.402E+00 -.303E+00 0.514E+00   -.593E-02 -.262E-02 0.685E-02
   0.317E+03 0.323E+03 -.461E+03   -.318E+03 -.323E+03 0.462E+03   0.359E+00 0.371E+00 -.537E+00   -.137E-02 -.115E-02 0.344E-02
   -.973E+03 0.394E+03 -.419E+03   0.970E+03 -.392E+03 0.418E+03   0.182E+01 -.149E+01 0.224E+00   -.334E-02 -.369E-02 0.459E-02
   0.391E+03 -.974E+03 -.422E+03   -.389E+03 0.971E+03 0.422E+03   -.150E+01 0.182E+01 0.214E+00   -.238E-03 -.440E-02 0.276E-02
   -.335E+03 -.324E+03 0.441E+03   0.335E+03 0.324E+03 -.441E+03   -.343E+00 -.361E+00 0.541E+00   -.920E-02 0.407E-04 0.109E-01
   0.634E+03 0.108E+01 -.218E+02   -.635E+03 -.108E+01 0.217E+02   0.738E+00 -.300E-02 0.468E-01   0.434E-02 0.527E-03 0.435E-02
   -.644E+03 0.335E+00 -.640E+01   0.645E+03 -.336E+00 0.638E+01   -.734E+00 0.142E-02 0.752E-03   -.721E-02 -.183E-02 0.919E-02
   -.255E+02 -.603E+03 0.948E+03   0.255E+02 0.602E+03 -.944E+03   -.103E-01 0.313E+00 -.236E+01   -.855E-02 0.266E-02 0.177E-02
   -.246E+01 -.587E+03 -.967E+03   0.245E+01 0.586E+03 0.963E+03   0.808E-02 0.306E+00 0.235E+01   -.501E-02 0.137E-03 -.125E-02
   -.858E+01 0.680E+00 -.134E+02   0.857E+01 -.676E+00 0.134E+02   0.358E-02 -.245E-03 0.298E-02   -.723E-02 -.309E-02 0.587E-02
   0.317E+03 -.322E+03 -.462E+03   -.318E+03 0.322E+03 0.462E+03   0.363E+00 -.368E+00 -.535E+00   -.120E-02 0.188E-02 0.265E-02
   -.325E+03 -.321E+03 -.458E+03   0.325E+03 0.322E+03 0.459E+03   -.372E+00 -.360E+00 -.519E+00   -.860E-02 0.134E-02 0.218E-02
   -.710E+01 -.642E+03 -.111E+02   0.713E+01 0.643E+03 0.111E+02   -.187E-01 -.749E+00 -.159E-01   -.625E-02 0.530E-04 0.782E-02
   0.723E+02 -.828E+01 0.166E+03   -.579E+02 0.708E+01 -.142E+03   -.124E+02 0.864E+00 -.195E+02   0.693E-04 -.186E-03 0.167E-02
   0.343E+03 -.264E+02 0.574E+03   -.377E+03 0.290E+02 -.629E+03   0.320E+02 -.243E+01 0.520E+02   -.258E-04 -.109E-03 0.122E-02
 -----------------------------------------------------------------------------------------------
   -.201E+02 0.175E+01 -.339E+02   -.568E-13 -.981E-12 -.193E-11   0.202E+02 -.172E+01 0.337E+02   -.122E+00 -.214E-01 0.180E+00
 
 
 POSITION                                       TOTAL-FORCE (eV/Angst)
 -----------------------------------------------------------------------------------
     13.37281      9.84801     12.50759         0.696696      1.111715      0.286046
     20.15199     16.62719     12.50759        -1.106093     -0.707463      0.292374
     16.62719      9.84801     12.50759        -0.705301      1.109957      0.290597
      9.84801     16.62719     12.50759         1.096139     -0.686069      0.351829
     15.00000     11.47521     10.20639         0.004725      0.410102      1.284167
     15.00000     11.47521     19.79360        -0.005552      0.414380     -1.282087
     15.00000      8.28283     15.00000         0.003090      1.518761      0.009230
      8.28283     15.00000     15.00000         1.519044      0.005442     -0.013237
     21.71717     15.00000     15.00000        -1.516785     -0.000039     -0.004622
     15.00000     21.71717     15.00000         0.002714     -1.516924      0.010063
     18.35858     11.64142     10.25025        -0.756292      0.756938      1.073923
     18.35858     11.64142     19.74975        -0.753648      0.755634     -1.071572
     11.64142     18.35858     10.25025         0.760111     -0.715829      1.084439
     11.64142     18.35858     19.74975         0.757139     -0.755924     -1.073462
     11.64142     11.64142     10.25025         0.765564      0.733463      1.092635
     11.64142     11.64142     19.74975         0.757042      0.755807     -1.073701
     18.35858     18.35858     10.25025        -0.756381     -0.757129      1.073638
     18.35858     18.35858     19.74975        -0.754933     -0.755775     -1.072350
     13.37281      9.84801     17.49241         0.705063      1.104192     -0.290550
     20.15199     16.62719     17.49241        -1.107850     -0.704054     -0.291996
     16.73751     13.26249     12.54279         0.110172     -0.114085     -0.158948
      9.84801     13.37281     12.50759         1.116146      0.686059      0.338020
     16.62719     20.15199     12.50759        -0.706185     -1.110425      0.288506
     16.62719      9.84801     17.49241        -0.706185      1.105075     -0.300788
      9.84801     16.62719     17.49241         1.111423     -0.703176     -0.289153
     20.15199     13.37281     12.50759        -1.106079      0.706243      0.292650
     13.37281     20.15199     12.50759         0.695268     -1.112803      0.284777
     13.26249     13.26249     12.54279        -0.139640     -0.072686     -0.165511
     15.00000     11.52498     15.00000         0.008420     -0.245345      0.017968
     18.52479     15.00000     10.20639        -0.412397     -0.000168      1.286040
     18.52479     15.00000     19.79360        -0.412710     -0.000021     -1.280763
     11.47521     15.00000     10.20640        -0.133198      0.164294     -0.284852
     11.47521     15.00000     19.79360         0.413998     -0.000504     -1.280068
     11.49535     11.49535     15.00000         0.824051      0.836692     -0.008710
     18.50465     18.50465     15.00000        -0.826911     -0.828169      0.001921
     18.50465     11.49535     15.00000        -0.827312      0.827850      0.000564
     11.49535     18.50465     15.00000         0.823335     -0.835985     -0.004611
     15.00000     15.00000     10.04368         0.048016     -0.000501      1.192018
     15.00000     15.00000     19.95633        -0.001624     -0.000115     -1.179836
      9.84801     13.37281     17.49241         1.112127      0.702900     -0.288446
     16.62719     20.15199     17.49241        -0.707609     -1.105846     -0.300804
     16.73751     13.26249     17.45721         0.112975     -0.108144      0.156695
     13.26249     16.73751     12.54279        -0.103557      0.095612     -0.129538
     13.26249     13.26249     17.45721        -0.110204     -0.114253      0.159538
     20.15199     13.37281     17.49241        -1.108880      0.704023     -0.292870
     13.37281     20.15199     17.49241         0.706644     -1.106318     -0.291012
     16.73751     16.73751     12.54279         0.110703      0.113616     -0.158212
     11.52498     15.00000     15.00000        -0.223876     -0.000184     -0.006459
     18.47502     15.00000     15.00000         0.231071     -0.001297     -0.000486
     15.00000     18.52480     10.20639         0.010393     -0.407676      1.285347
     15.00000     18.52480     19.79360        -0.004047     -0.413323     -1.282043
     15.00000     15.00000     15.00000        -0.012278      0.000612     -0.010665
     13.26249     16.73751     17.45721        -0.111425      0.113717      0.157883
     16.73751     16.73751     17.45721         0.113463      0.109042      0.158133
     15.00000     18.47502     15.00000         0.008996      0.240416      0.019931
     10.63479     15.33821      7.90261         2.018910     -0.343713      3.920758
     10.04434     15.38396      6.94258        -1.526489      0.141399     -2.522340
 -----------------------------------------------------------------------------------
    total drift:                               -0.002939      0.008727     -0.007490


--------------------------------------------------------------------------------------------------------



  FREE ENERGIE OF THE ION-ELECTRON SYSTEM (eV)
  ---------------------------------------------------
  free  energy   TOTEN  =      -174.13918670 eV

  energy  without entropy=     -174.02939809  energy(sigma->0) =     -174.11173955
 


--------------------------------------------------------------------------------------------------------


    POTLOK:  cpu time   12.1441: real time   12.1441


--------------------------------------------------------------------------------------------------------


     LOOP+:  cpu time18397.7101: real time18398.2948
    4ORBIT:  cpu time    0.0000: real time    0.0000

 total amount of memory used by VASP MPI-rank0  5486941. kBytes
=======================================================================

   base      :      30000. kBytes
   nonlr-proj:      17126. kBytes
   fftplans  :     924480. kBytes
   grid      :    1872000. kBytes
   one-center:        886. kBytes
   wavefun   :    2642449. kBytes
 
  
  
 General timing and accounting informations for this job:
 ========================================================
  
                  Total CPU time used (sec):    18472.436
                            User time (sec):    17409.648
                          System time (sec):     1062.789
                         Elapsed time (sec):    18473.078
  
                   Maximum memory used (kb):     7178784.
                   Average memory used (kb):           0.
  
                          Minor page faults:    828881641
                          Major page faults:            0
                 Voluntary context switches:          522
