 vasp.5.4.4.18Apr17-6-g9f103f2a35 (build Sep 03 2018 23:53:05) complex          
  
 executed on             LinuxIFC date 2021.11.25  16:48:01
 running on    1 total cores
 distrk:  each k-point on    1 cores,    1 groups
 distr:  one band on NCORES_PER_BAND=   1 cores,    1 groups


--------------------------------------------------------------------------------------------------------


 INCAR:
 POTCAR:    PAW_PBE Pd 04Jan2005                  
 POTCAR:    PAW_PBE C 08Apr2002                   
 POTCAR:    PAW_PBE O 08Apr2002                   
 POTCAR:    PAW_PBE Pd 04Jan2005                  
   VRHFIN =Pd : s1 d9                                                           
   LEXCH  = PE                                                                  
   EATOM  =   809.7530 eV,   59.5152 Ry                                         
                                                                                
   TITEL  = PAW_PBE Pd 04Jan2005                                                
   LULTRA =        F    use ultrasoft PP ?                                      
   IUNSCR =        1    unscreen: 0-lin 1-nonlin 2-no                           
   RPACOR =    2.000    partial core radius                                     
   POMASS =  106.420; ZVAL   =   10.000    mass and valenz                      
   RCORE  =    2.600    outmost cutoff radius                                   
   RWIGS  =    2.710; RWIGS  =    1.434    wigner-seitz radius (au A)           
   ENMAX  =  250.925; ENMIN  =  188.194 eV                                      
   ICORE  =        3    local potential                                         
   LCOR   =        T    correct aug charges                                     
   LPAW   =        T    paw PP                                                  
   EAUG   =  416.230                                                            
   DEXC   =    0.000                                                            
   RMAX   =    2.653    core radius for proj-oper                               
   RAUG   =    1.300    factor for augmentation sphere                          
   RDEP   =    2.734    radius for radial grids                                 
   RDEPT  =    2.103    core radius for aug-charge                              
                                                                                
   Atomic configuration                                                         
   12 entries                                                                   
     n  l   j            E        occ.                                          
     1  0  0.50    -24164.6631   2.0000                                         
     2  0  0.50     -3530.9218   2.0000                                         
     2  1  1.50     -3165.6822   6.0000                                         
     3  0  0.50      -639.4577   2.0000                                         
     3  1  1.50      -519.4532   6.0000                                         
     3  2  2.50      -328.9757  10.0000                                         
     4  0  0.50       -88.7014   2.0000                                         
     4  1  1.50       -54.4540   6.0000                                         
     4  2  2.50        -6.6878   9.0000                                         
     5  0  0.50        -4.3543   1.0000                                         
     5  1  0.50        -1.3606   0.0000                                         
     4  3  2.50        -1.3606   0.0000                                         
   Description                                                                  
     l       E           TYP  RCUT    TYP  RCUT                                 
     2     -6.6878251     23  2.400                                             
     2     -8.0484077     23  2.400                                             
     0     -4.3542939     23  2.400                                             
     0      4.3406793     23  2.400                                             
     1     -4.0817478     23  2.600                                             
     1     15.8380318     23  2.600                                             
     3     -4.0817478     23  2.400                                             
  local pseudopotential read in
  partial core-charges read in
  partial kinetic energy density read in
  atomic valenz-charges read in
  non local Contribution for L=           2  read in
    real space projection operators read in
  non local Contribution for L=           2  read in
    real space projection operators read in
  non local Contribution for L=           0  read in
    real space projection operators read in
  non local Contribution for L=           0  read in
    real space projection operators read in
  non local Contribution for L=           1  read in
    real space projection operators read in
  non local Contribution for L=           1  read in
    real space projection operators read in
    PAW grid and wavefunctions read in
 
   number of l-projection  operators is LMAX  =           6
   number of lm-projection operators is LMMAX =          18
 
 POTCAR:    PAW_PBE C 08Apr2002                   
   VRHFIN =C: s2p2                                                              
   LEXCH  = PE                                                                  
   EATOM  =   147.1560 eV,   10.8157 Ry                                         
                                                                                
   TITEL  = PAW_PBE C 08Apr2002                                                 
   LULTRA =        F    use ultrasoft PP ?                                      
   IUNSCR =        1    unscreen: 0-lin 1-nonlin 2-no                           
   RPACOR =    1.200    partial core radius                                     
   POMASS =   12.011; ZVAL   =    4.000    mass and valenz                      
   RCORE  =    1.500    outmost cutoff radius                                   
   RWIGS  =    1.630; RWIGS  =    0.863    wigner-seitz radius (au A)           
   ENMAX  =  400.000; ENMIN  =  300.000 eV                                      
   ICORE  =        2    local potential                                         
   LCOR   =        T    correct aug charges                                     
   LPAW   =        T    paw PP                                                  
   EAUG   =  644.873                                                            
   DEXC   =    0.000                                                            
   RMAX   =    1.529    core radius for proj-oper                               
   RAUG   =    1.300    factor for augmentation sphere                          
   RDEP   =    1.501    radius for radial grids                                 
   RDEPT  =    1.300    core radius for aug-charge                              
                                                                                
   Atomic configuration                                                         
    4 entries                                                                   
     n  l   j            E        occ.                                          
     1  0  0.50      -273.3789   2.0000                                         
     2  0  0.50       -13.7508   2.0000                                         
     2  1  0.50        -5.2854   2.0000                                         
     3  2  1.50        -5.4423   0.0000                                         
   Description                                                                  
     l       E           TYP  RCUT    TYP  RCUT                                 
     0    -13.7508458     23  1.200                                             
     0     -8.2022199     23  1.200                                             
     1     -5.2854383     23  1.500                                             
     1     34.0145650     23  1.500                                             
     2     -5.4423304      7  1.500                                             
  local pseudopotential read in
  partial core-charges read in
  partial kinetic energy density read in
  atomic valenz-charges read in
  non local Contribution for L=           0  read in
    real space projection operators read in
  non local Contribution for L=           0  read in
    real space projection operators read in
  non local Contribution for L=           1  read in
    real space projection operators read in
  non local Contribution for L=           1  read in
    real space projection operators read in
    PAW grid and wavefunctions read in
 
   number of l-projection  operators is LMAX  =           4
   number of lm-projection operators is LMMAX =           8
 
 POTCAR:    PAW_PBE O 08Apr2002                   
   VRHFIN =O: s2p4                                                              
   LEXCH  = PE                                                                  
   EATOM  =   432.3788 eV,   31.7789 Ry                                         
                                                                                
   TITEL  = PAW_PBE O 08Apr2002                                                 
   LULTRA =        F    use ultrasoft PP ?                                      
   IUNSCR =        1    unscreen: 0-lin 1-nonlin 2-no                           
   RPACOR =    1.200    partial core radius                                     
   POMASS =   16.000; ZVAL   =    6.000    mass and valenz                      
   RCORE  =    1.520    outmost cutoff radius                                   
   RWIGS  =    1.550; RWIGS  =    0.820    wigner-seitz radius (au A)           
   ENMAX  =  400.000; ENMIN  =  300.000 eV                                      
   ICORE  =        2    local potential                                         
   LCOR   =        T    correct aug charges                                     
   LPAW   =        T    paw PP                                                  
   EAUG   =  605.392                                                            
   DEXC   =    0.000                                                            
   RMAX   =    1.553    core radius for proj-oper                               
   RAUG   =    1.300    factor for augmentation sphere                          
   RDEP   =    1.550    radius for radial grids                                 
   RDEPT  =    1.329    core radius for aug-charge                              
                                                                                
   Atomic configuration                                                         
    4 entries                                                                   
     n  l   j            E        occ.                                          
     1  0  0.50      -514.6923   2.0000                                         
     2  0  0.50       -23.9615   2.0000                                         
     2  1  0.50        -9.0305   4.0000                                         
     3  2  1.50        -9.5241   0.0000                                         
   Description                                                                  
     l       E           TYP  RCUT    TYP  RCUT                                 
     0    -23.9615318     23  1.200                                             
     0     -9.5240782     23  1.200                                             
     1     -9.0304911     23  1.520                                             
     1      8.1634956     23  1.520                                             
     2     -9.5240782      7  1.500                                             
  local pseudopotential read in
  partial core-charges read in
  partial kinetic energy density read in
  kinetic energy density of atom read in
  atomic valenz-charges read in
  non local Contribution for L=           0  read in
    real space projection operators read in
  non local Contribution for L=           0  read in
    real space projection operators read in
  non local Contribution for L=           1  read in
    real space projection operators read in
  non local Contribution for L=           1  read in
    real space projection operators read in
    PAW grid and wavefunctions read in
 
   number of l-projection  operators is LMAX  =           4
   number of lm-projection operators is LMMAX =           8
 
 Optimization of the real space projectors (new method)

 maximal supplied QI-value         = 14.36
 optimisation between [QCUT,QGAM] = [ 10.20, 20.39] = [ 29.12,116.47] Ry 
 Optimized for a Real-space Cutoff    1.51 Angstroem

   l    n(q)    QCUT    max X(q) W(low)/X(q) W(high)/X(q)  e(spline) 
   2      8    10.197    59.108    0.26E-03    0.14E-03    0.96E-07
   2      8    10.197    58.101    0.27E-03    0.14E-03    0.98E-07
   0      9    10.197   102.235    0.54E-04    0.60E-05    0.72E-07
   0      9    10.197    58.388    0.52E-04    0.60E-05    0.68E-07
   1      9    10.197    22.191    0.18E-03    0.25E-03    0.79E-07
   1      9    10.197    15.590    0.15E-03    0.21E-03    0.69E-07
 Optimization of the real space projectors (new method)

 maximal supplied QI-value         = 25.13
 optimisation between [QCUT,QGAM] = [ 10.05, 20.36] = [ 28.30,116.06] Ry 
 Optimized for a Real-space Cutoff    1.30 Angstroem

   l    n(q)    QCUT    max X(q) W(low)/X(q) W(high)/X(q)  e(spline) 
   0      8    10.053   115.676    0.49E-03    0.72E-03    0.18E-06
   0      8    10.053    87.132    0.49E-03    0.71E-03    0.18E-06
   1      7    10.053     4.429    0.32E-03    0.31E-03    0.18E-06
   1      7    10.053     2.733    0.23E-03    0.19E-03    0.20E-06
 Optimization of the real space projectors (new method)

 maximal supplied QI-value         = 24.76
 optimisation between [QCUT,QGAM] = [ 10.15, 20.30] = [ 28.85,115.39] Ry 
 Optimized for a Real-space Cutoff    1.38 Angstroem

   l    n(q)    QCUT    max X(q) W(low)/X(q) W(high)/X(q)  e(spline) 
   0      8    10.150    20.381    0.22E-03    0.32E-03    0.29E-06
   0      8    10.150    15.268    0.23E-03    0.35E-03    0.30E-06
   1      8    10.150     5.964    0.46E-03    0.53E-03    0.21E-06
   1      8    10.150     5.382    0.38E-03    0.45E-03    0.19E-06

 ----------------------------------------------------------------------------- 
|                                                                             |
|  ADVICE TO THIS USER RUNNING 'VASP/VAMP'   (HEAR YOUR MASTER'S VOICE ...):  |
|                                                                             |
|      You enforced a specific xc-type in the INCAR file,                     |
|      a different type was found on the POTCAR file                          |
|          I HOPE YOU KNOW, WHAT YOU ARE  DOING                               |
|                                                                             |
 ----------------------------------------------------------------------------- 

  PAW_PBE Pd 04Jan2005                  :
 energy of atom  1       EATOM= -809.7530
 kinetic energy error for atom=    0.0091 (will be added to EATOM!!)
  PAW_PBE C 08Apr2002                   :
 energy of atom  2       EATOM= -147.1560
 kinetic energy error for atom=    0.0288 (will be added to EATOM!!)
  PAW_PBE O 08Apr2002                   :
 energy of atom  3       EATOM= -432.3788
 kinetic energy error for atom=    0.1156 (will be added to EATOM!!)
 
 
 POSCAR: Pd55PES                                 
  positions in cartesian coordinates
  No initial velocities read in
 exchange correlation table for  LEXCH =        9
   RHO(1)=    0.500       N(1)  =     2000
   RHO(2)=  100.500       N(2)  =     4000
 


--------------------------------------------------------------------------------------------------------


 ion  position               nearest neighbor table
   1  0.446  0.328  0.417-   3 3.25   5 3.25   7 3.36  15 3.36  29 3.42  28 3.42
   2  0.672  0.554  0.417-  26 3.25  30 3.25  17 3.36   9 3.36  47 3.42  49 3.42
   3  0.554  0.328  0.417-   1 3.25   5 3.25   7 3.36  11 3.36  29 3.42  21 3.42
   4  0.328  0.554  0.417-  32 3.25  22 3.25  13 3.36   8 3.36  43 3.42  48 3.42
   5  0.500  0.383  0.340-   1 3.25   3 3.25  11 3.36  15 3.36  21 3.42  28 3.42
   6  0.500  0.383  0.660-  24 3.25  19 3.25  16 3.36  12 3.36  42 3.42  44 3.42
   7  0.500  0.276  0.500-  29 3.24   3 3.36   1 3.36  19 3.36  24 3.36
   8  0.276  0.500  0.500-  48 3.24  22 3.36  40 3.36   4 3.36  25 3.36
   9  0.724  0.500  0.500-  49 3.24  26 3.36  45 3.36   2 3.36  20 3.36
  10  0.500  0.724  0.500-  55 3.24  27 3.36  23 3.36  46 3.36  41 3.36
  11  0.612  0.388  0.342-  21 3.24   5 3.36   3 3.36  30 3.36  26 3.36
  12  0.612  0.388  0.658-  42 3.24  24 3.36  45 3.36   6 3.36  31 3.36
  13  0.388  0.612  0.342-  43 3.24  32 3.36  50 3.36   4 3.36  27 3.36
  14  0.388  0.612  0.658-  53 3.24  25 3.36  33 3.36  51 3.36  46 3.36
  15  0.388  0.388  0.342-  28 3.24   5 3.36   1 3.36  32 3.36  22 3.36
  16  0.388  0.388  0.658-  44 3.24  19 3.36  40 3.36   6 3.36  33 3.36
  17  0.612  0.612  0.342-  47 3.24  30 3.36  50 3.36   2 3.36  23 3.36
  18  0.612  0.612  0.658-  54 3.24  31 3.36  20 3.36  51 3.36  41 3.36
  19  0.446  0.328  0.583-   6 3.25  24 3.25  16 3.36   7 3.36  44 3.42  29 3.42
  20  0.672  0.554  0.583-  31 3.25  45 3.25  18 3.36   9 3.36  54 3.42  49 3.42
  21  0.558  0.442  0.418-  11 3.24   5 3.42   3 3.42  30 3.42  26 3.42
  22  0.328  0.446  0.417-   4 3.25  32 3.25   8 3.36  15 3.36  48 3.42  28 3.42
  23  0.554  0.672  0.417-  27 3.25  50 3.25  10 3.36  17 3.36  55 3.42  47 3.42
  24  0.554  0.328  0.583-   6 3.25  19 3.25  12 3.36   7 3.36  42 3.42  29 3.42
  25  0.328  0.554  0.583-  56 2.06  33 3.25  40 3.25  14 3.36   8 3.36  53 3.42  48 3.42
  26  0.672  0.446  0.417-   2 3.25  30 3.25   9 3.36  11 3.36  49 3.42  21 3.42
  27  0.446  0.672  0.417-  23 3.25  50 3.25  10 3.36  13 3.36  55 3.42  43 3.42
  28  0.442  0.442  0.418-  15 3.24   5 3.42   1 3.42  32 3.42  22 3.42
  29  0.500  0.384  0.500-   7 3.24   3 3.42   1 3.42  24 3.42  19 3.42
  30  0.617  0.500  0.340-   2 3.25  26 3.25  17 3.36  11 3.36  47 3.42  21 3.42
  31  0.617  0.500  0.660-  20 3.25  45 3.25  18 3.36  12 3.36  54 3.42  42 3.42
  32  0.383  0.500  0.340-   4 3.25  22 3.25  13 3.36  15 3.36  43 3.42  28 3.42
  33  0.383  0.500  0.660-  25 3.25  40 3.25  14 3.36  16 3.36  53 3.42  44 3.42
  34  0.383  0.383  0.500-
  35  0.617  0.617  0.500-
  36  0.617  0.383  0.500-
  37  0.383  0.617  0.500-
  38  0.500  0.500  0.335-
  39  0.500  0.500  0.665-
  40  0.328  0.446  0.583-  56 2.22  33 3.25  25 3.25  16 3.36   8 3.36  44 3.42  48 3.42
  41  0.554  0.672  0.583-  46 3.25  51 3.25  10 3.36  18 3.36  54 3.42  55 3.42
  42  0.558  0.442  0.582-  12 3.24   6 3.42  24 3.42  31 3.42  45 3.42
  43  0.442  0.558  0.418-  13 3.24   4 3.42  32 3.42  27 3.42  50 3.42
  44  0.442  0.442  0.582-  16 3.24   6 3.42  19 3.42  33 3.42  40 3.42
  45  0.672  0.446  0.583-  20 3.25  31 3.25   9 3.36  12 3.36  49 3.42  42 3.42
  46  0.446  0.672  0.583-  41 3.25  51 3.25  10 3.36  14 3.36  53 3.42  55 3.42
  47  0.558  0.558  0.418-  17 3.24   2 3.42  30 3.42  23 3.42  50 3.42
  48  0.384  0.500  0.500-   8 3.24   4 3.42  22 3.42  25 3.42  40 3.42
  49  0.616  0.500  0.500-   9 3.24   2 3.42  26 3.42  20 3.42  45 3.42
  50  0.500  0.617  0.340-  27 3.25  23 3.25  13 3.36  17 3.36  43 3.42  47 3.42
  51  0.500  0.617  0.660-  41 3.25  46 3.25  14 3.36  18 3.36  53 3.42  54 3.42
  52  0.500  0.500  0.500-
  53  0.442  0.558  0.582-  14 3.24  25 3.42  33 3.42  51 3.42  46 3.42
  54  0.558  0.558  0.582-  18 3.24  31 3.42  20 3.42  51 3.42  41 3.42
  55  0.500  0.616  0.500-  10 3.24  23 3.42  27 3.42  41 3.42  46 3.42
  56  0.284  0.504  0.595-  57 1.13  25 2.06  40 2.22
  57  0.249  0.504  0.610-  56 1.13
 
  LATTYP: Found a simple cubic cell.
 ALAT       =    30.0000000000
  
  Lattice vectors:
  
 A1 = (  30.0000000000,   0.0000000000,   0.0000000000)
 A2 = (   0.0000000000,  30.0000000000,   0.0000000000)
 A3 = (   0.0000000000,   0.0000000000,  30.0000000000)


Analysis of symmetry for initial positions (statically):
=====================================================================
 Subroutine PRICEL returns:
 Original cell was already a primitive cell.
 

 Routine SETGRP: Setting up the symmetry group for a 
 simple cubic supercell.


 Subroutine GETGRP returns: Found  1 space group operations
 (whereof  1 operations were pure point group operations)
 out of a pool of 48 trial point group operations.


The static configuration has the point symmetry C_1 .


Analysis of symmetry for dynamics (positions and initial velocities):
=====================================================================
 Subroutine PRICEL returns:
 Original cell was already a primitive cell.
 

 Routine SETGRP: Setting up the symmetry group for a 
 simple cubic supercell.


 Subroutine GETGRP returns: Found  1 space group operations
 (whereof  1 operations were pure point group operations)
 out of a pool of 48 trial point group operations.


The dynamic configuration has the point symmetry C_1 .


Analysis of constrained symmetry for selective dynamics:
=====================================================================
 Subroutine PRICEL returns:
 Original cell was already a primitive cell.
 

 Routine SETGRP: Setting up the symmetry group for a 
 simple cubic supercell.


 Subroutine GETGRP returns: Found  1 space group operations
 (whereof  1 operations were pure point group operations)
 out of a pool of 48 trial point group operations.


The constrained configuration has the point symmetry C_1 .


 Subroutine INISYM returns: Found  1 space group operations
 (whereof  1 operations are pure point group operations),
 and found     1 'primitive' translations

 
 
 KPOINTS: K-points                                

Automatic generation of k-mesh.
Space group operators:
 irot       det(A)        alpha          n_x          n_y          n_z        tau_x        tau_y        tau_z
    1     1.000000     0.000000     1.000000     0.000000     0.000000     0.000000     0.000000     0.000000
 
 Subroutine IBZKPT returns following result:
 ===========================================
 
 Found      1 irreducible k-points:
 
 Following reciprocal coordinates:
            Coordinates               Weight
  0.000000  0.000000  0.000000      1.000000
 
 Following cartesian coordinates:
            Coordinates               Weight
  0.000000  0.000000  0.000000      1.000000
 


--------------------------------------------------------------------------------------------------------




 Dimension of arrays:
   k-points           NKPTS =      1   k-points in BZ     NKDIM =      1   number of bands    NBANDS=    336
   number of dos      NEDOS =    301   number of ions     NIONS =     57
   non local maximal  LDIM  =      6   non local SUM 2l+1 LMDIM =     18
   total plane-waves  NPLWV = ******
   max r-space proj   IRMAX =   1847   max aug-charges    IRDMAX=   6262
   dimension x,y,z NGX =   150 NGY =  150 NGZ =  150
   dimension x,y,z NGXF=   300 NGYF=  300 NGZF=  300
   support grid    NGXF=   300 NGYF=  300 NGZF=  300
   ions per type =              55   1   1
   NGX,Y,Z   is equivalent  to a cutoff of   8.31,  8.31,  8.31 a.u.
   NGXF,Y,Z  is equivalent  to a cutoff of  16.62, 16.62, 16.62 a.u.

 SYSTEM =  6_Pd100_top_free_z(O)                   
 POSCAR =  Pd55PES                                 

 Startparameter for this run:
   NWRITE =      2    write-flag & timer
   PREC   = normal    normal or accurate (medium, high low for compatibility)
   ISTART =      0    job   : 0-new  1-cont  2-samecut
   ICHARG =      2    charge: 1-file 2-atom 10-const
   ISPIN  =      1    spin polarized calculation?
   LNONCOLLINEAR =      F non collinear calculations
   LSORBIT =      F    spin-orbit coupling
   INIWAV =      1    electr: 0-lowe 1-rand  2-diag
   LASPH  =      F    aspherical Exc in radial PAW
   METAGGA=      F    non-selfconsistent MetaGGA calc.

 Electronic Relaxation 1
   ENCUT  =  400.0 eV  29.40 Ry    5.42 a.u.  48.92 48.92 48.92*2*pi/ulx,y,z
   ENINI  =  400.0     initial cutoff
   ENAUG  =  644.9 eV  augmentation charge cutoff
   NELM   =    100;   NELMIN=  6; NELMDL= -5     # of ELM steps 
   EDIFF  = 0.1E-03   stopping-criterion for ELM
   LREAL  =      T    real-space projection
   NLSPLINE    = F    spline interpolate recip. space projectors
   LCOMPAT=      F    compatible to vasp.4.4
   GGA_COMPAT  = T    GGA compatible to vasp.4.4-vasp.4.6
   LMAXPAW     = -100 max onsite density
   LMAXMIX     =    2 max onsite mixed and CHGCAR
   VOSKOWN=      0    Vosko Wilk Nusair interpolation
   ROPT   =   -0.00050  -0.00050  -0.00050
 Ionic relaxation
   EDIFFG = -.5E-01   stopping-criterion for IOM
   NSW    =      0    number of steps for IOM
   NBLOCK =      1;   KBLOCK =      1    inner block; outer block 
   IBRION =     -1    ionic relax: 0-MD 1-quasi-New 2-CG
   NFREE  =      1    steps in history (QN), initial steepest desc. (CG)
   ISIF   =      2    stress and relaxation
   IWAVPR =     10    prediction:  0-non 1-charg 2-wave 3-comb
   ISYM   =      2    0-nonsym 1-usesym 2-fastsym
   LCORR  =      T    Harris-Foulkes like correction to forces

   POTIM  = 0.5000    time-step for ionic-motion
   TEIN   =    0.0    initial temperature
   TEBEG  =    0.0;   TEEND  =   0.0 temperature during run
   SMASS  =  -3.00    Nose mass-parameter (am)
   estimated Nose-frequenzy (Omega)   =  0.10E-29 period in steps =****** mass=  -0.206E-25a.u.
   SCALEE = 1.0000    scale energy and forces
   NPACO  =    256;   APACO  = 16.0  distance and # of slots for P.C.
   PSTRESS=    0.0 pullay stress

  Mass of Ions in am
   POMASS = 106.42 12.01 16.00
  Ionic Valenz
   ZVAL   =  10.00  4.00  6.00
  Atomic Wigner-Seitz radii
   RWIGS  =  -1.00 -1.00 -1.00
  virtual crystal weights 
   VCA    =   1.00  1.00  1.00
   NELECT =     560.0000    total number of electrons
   NUPDOWN=      -1.0000    fix difference up-down

 DOS related values:
   EMIN   =  10.00;   EMAX   =-10.00  energy-range for DOS
   EFERMI =   0.00
   ISMEAR =     2;   SIGMA  =   0.20  broadening in eV -4-tet -1-fermi 0-gaus

 Electronic relaxation 2 (details)
   IALGO  =     68    algorithm
   LDIAG  =      T    sub-space diagonalisation (order eigenvalues)
   LSUBROT=      F    optimize rotation matrix (better conditioning)
   TURBO    =      0    0=normal 1=particle mesh
   IRESTART =      0    0=no restart 2=restart with 2 vectors
   NREBOOT  =      0    no. of reboots
   NMIN     =      0    reboot dimension
   EREF     =   0.00    reference energy to select bands
   IMIX   =      4    mixing-type and parameters
     AMIX     =   0.40;   BMIX     =  1.00
     AMIX_MAG =   1.60;   BMIX_MAG =  1.00
     AMIN     =   0.10
     WC   =   100.;   INIMIX=   1;  MIXPRE=   1;  MAXMIX= -45

 Intra band minimization:
   WEIMIN = 0.0000     energy-eigenvalue tresh-hold
   EBREAK =  0.74E-07  absolut break condition
   DEPER  =   0.30     relativ break condition  

   TIME   =   0.40     timestep for ELM

  volume/ion in A,a.u.               =     473.68      3196.58
  Fermi-wavevector in a.u.,A,eV,Ry     =   0.449797  0.849992  2.752691  0.202317
  Thomas-Fermi vector in A             =   1.430086
 
 Write flags
   LWAVE        =      F    write WAVECAR
   LDOWNSAMPLE  =      F    k-point downsampling of WAVECAR
   LCHARG       =      F    write CHGCAR
   LVTOT        =      F    write LOCPOT, total local potential
   LVHAR        =      F    write LOCPOT, Hartree potential only
   LELF         =      F    write electronic localiz. function (ELF)
   LORBIT       =      0    0 simple, 1 ext, 2 COOP (PROOUT), +10 PAW based schemes


 Dipole corrections
   LMONO  =      F    monopole corrections only (constant potential shift)
   LDIPOL =      F    correct potential (dipole corrections)
   IDIPOL =      0    1-x, 2-y, 3-z, 4-all directions 
   EPSILON=  1.0000000 bulk dielectric constant

 Exchange correlation treatment:
   GGA     =    RP    GGA type
   LEXCH   =     9    internal setting for exchange type
   VOSKOWN=      0    Vosko Wilk Nusair interpolation
   LHFCALC =     F    Hartree Fock is set to
   LHFONE  =     F    Hartree Fock one center treatment
   AEXX    =    0.0000 exact exchange contribution

 Linear response parameters
   LEPSILON=     F    determine dielectric tensor
   LRPA    =     F    only Hartree local field effects (RPA)
   LNABLA  =     F    use nabla operator in PAW spheres
   LVEL    =     F    velocity operator in full k-point grid
   LINTERFAST=   F  fast interpolation
   KINTER  =     0    interpolate to denser k-point grid
   CSHIFT  =0.1000    complex shift for real part using Kramers Kronig
   OMEGAMAX=  -1.0    maximum frequency
   DEG_THRESHOLD= 0.2000000E-02 threshold for treating states as degnerate
   RTIME   =   -0.100 relaxation time in fs
  (WPLASMAI=    0.000 imaginary part of plasma frequency in eV, 0.658/RTIME)
   DFIELD  = 0.0000000 0.0000000 0.0000000 field for delta impulse in time
 
 Orbital magnetization related:
   ORBITALMAG=     F  switch on orbital magnetization
   LCHIMAG   =     F  perturbation theory with respect to B field
   DQ        =  0.001000  dq finite difference perturbation B field
   LLRAUG    =     F  two centre corrections for induced B field



--------------------------------------------------------------------------------------------------------


 Static calculation
 charge density and potential will be updated during run
 non-spin polarized calculation
 RMM-DIIS sequential band-by-band and
  variant of blocked Davidson during initial phase
 perform sub-space diagonalisation
    before iterative eigenvector-optimisation
 modified Broyden-mixing scheme, WC =      100.0
 initial mixing is a Kerker type mixing with AMIX =  0.4000 and BMIX =      1.0000
 Hartree-type preconditioning will be used
 using additional bands           56
 real space projection scheme for non local part
 use partial core corrections
 calculate Harris-corrections to forces 
   (improved forces if not selfconsistent)
 use gradient corrections 
 use of overlap-Matrix (Vanderbilt PP)
 Methfessel and Paxton  Order N= 2 SIGMA  =   0.20


--------------------------------------------------------------------------------------------------------


  energy-cutoff  :      400.00
  volume of cell :    27000.00
      direct lattice vectors                 reciprocal lattice vectors
    30.000000000  0.000000000  0.000000000     0.033333333  0.000000000  0.000000000
     0.000000000 30.000000000  0.000000000     0.000000000  0.033333333  0.000000000
     0.000000000  0.000000000 30.000000000     0.000000000  0.000000000  0.033333333

  length of vectors
    30.000000000 30.000000000 30.000000000     0.033333333  0.033333333  0.033333333


 
 k-points in units of 2pi/SCALE and weight: K-points                                
   0.00000000  0.00000000  0.00000000       1.000
 
 k-points in reciprocal lattice and weights: K-points                                
   0.00000000  0.00000000  0.00000000       1.000
 
 position of ions in fractional coordinates (direct lattice) 
   0.44576020  0.32826710  0.41691983
   0.67173288  0.55423978  0.41691983
   0.55423980  0.32826710  0.41691983
   0.32826712  0.55423978  0.41691983
   0.50000000  0.38250690  0.34021317
   0.50000000  0.38250690  0.65978680
   0.50000000  0.27609440  0.50000000
   0.27609443  0.49999998  0.50000000
   0.72390557  0.49999998  0.50000000
   0.50000000  0.72390555  0.50000000
   0.61195280  0.38804720  0.34167483
   0.61195280  0.38804720  0.65832513
   0.38804722  0.61195278  0.34167483
   0.38804722  0.61195278  0.65832513
   0.38804720  0.38804720  0.34167483
   0.38804720  0.38804720  0.65832513
   0.61195278  0.61195278  0.34167483
   0.61195278  0.61195278  0.65832513
   0.44576020  0.32826710  0.58308023
   0.67173288  0.55423978  0.58308023
   0.55791699  0.44208301  0.41809300
   0.32826705  0.44576024  0.41691983
   0.55423973  0.67173293  0.41691983
   0.55423980  0.32826710  0.58308023
   0.32826712  0.55423978  0.58308023
   0.67173295  0.44576024  0.41691983
   0.44576027  0.67173293  0.41691983
   0.44208301  0.44208301  0.41809300
   0.50000000  0.38416601  0.50000000
   0.61749315  0.50000005  0.34021317
   0.61749315  0.50000005  0.65978680
   0.38250685  0.50000005  0.34021317
   0.38250685  0.50000005  0.65978680
   0.38317830  0.38317830  0.50000000
   0.61682172  0.61682172  0.50000000
   0.61682170  0.38317830  0.50000000
   0.38317828  0.61682172  0.50000000
   0.50000000  0.50000000  0.33478917
   0.50000000  0.50000000  0.66521087
   0.32826705  0.44576024  0.58308023
   0.55423973  0.67173293  0.58308023
   0.55791699  0.44208301  0.58190703
   0.44208298  0.55791702  0.41809300
   0.44208301  0.44208301  0.58190703
   0.67173295  0.44576024  0.58308023
   0.44576027  0.67173293  0.58308023
   0.55791702  0.55791702  0.41809300
   0.38416599  0.50000002  0.50000000
   0.61583401  0.50000002  0.50000000
   0.50000000  0.61749319  0.34021317
   0.50000000  0.61749319  0.65978680
   0.50000000  0.50000000  0.50000000
   0.44208298  0.55791702  0.58190703
   0.55791702  0.55791702  0.58190703
   0.50000000  0.61583404  0.50000000
   0.28350807  0.50354873  0.59484230
   0.24907187  0.50411320  0.60992837
 
 position of ions in cartesian coordinates  (Angst):
  13.37280588  9.84801292 12.50759500
  20.15198637 16.62719342 12.50759500
  16.62719412  9.84801292 12.50759500
   9.84801363 16.62719342 12.50759500
  15.00000000 11.47520705 10.20639500
  15.00000000 11.47520705 19.79360400
  15.00000000  8.28283206 15.00000000
   8.28283277 14.99999929 15.00000000
  21.71716723 14.99999929 15.00000000
  15.00000000 21.71716652 14.99999999
  18.35858397 11.64141603 10.25024500
  18.35858397 11.64141603 19.74975399
  11.64141674 18.35858326 10.25024500
  11.64141674 18.35858326 19.74975400
  11.64141603 11.64141603 10.25024500
  11.64141603 11.64141603 19.74975400
  18.35858326 18.35858326 10.25024500
  18.35858326 18.35858326 19.74975400
  13.37280588  9.84801291 17.49240700
  20.15198638 16.62719341 17.49240700
  16.73750985 13.26249015 12.54279000
   9.84801151 13.37280729 12.50759500
  16.62719200 20.15198779 12.50759500
  16.62719412  9.84801292 17.49240700
   9.84801363 16.62719342 17.49240700
  20.15198849 13.37280729 12.50759500
  13.37280800 20.15198779 12.50759500
  13.26249015 13.26249015 12.54279000
  15.00000000 11.52498029 15.00000000
  18.52479437 15.00000140 10.20639500
  18.52479437 15.00000141 19.79360400
  11.47520562 15.00000141 10.20639501
  11.47520563 15.00000141 19.79360400
  11.49534898 11.49534898 15.00000000
  18.50465172 18.50465172 15.00000000
  18.50465102 11.49534898 15.00000000
  11.49534828 18.50465172 15.00000000
  15.00000000 15.00000000 10.04367500
  15.00000000 15.00000000 19.95632599
   9.84801151 13.37280729 17.49240700
  16.62719200 20.15198779 17.49240700
  16.73750985 13.26249015 17.45721100
  13.26248944 16.73751056 12.54279001
  13.26249015 13.26249015 17.45721100
  20.15198849 13.37280729 17.49240699
  13.37280800 20.15198779 17.49240700
  16.73751056 16.73751056 12.54279000
  11.52497959 15.00000071 15.00000000
  18.47502041 15.00000071 15.00000000
  14.99999999 18.52479579 10.20639500
  15.00000000 18.52479578 19.79360400
  15.00000000 15.00000000 15.00000000
  13.26248944 16.73751057 17.45721101
  16.73751056 16.73751057 17.45721100
  15.00000000 18.47502112 15.00000000
   8.50524200 15.10646200 17.84526900
   7.47215600 15.12339600 18.29785100
 


--------------------------------------------------------------------------------------------------------


 k-point  1 :   0.0000 0.0000 0.0000  plane waves:  490521

 maximum and minimum number of plane-waves per node :    490521   490521

 maximum number of plane-waves:    490521
 maximum index in each direction: 
   IXMAX=   48   IYMAX=   48   IZMAX=   48
   IXMIN=  -48   IYMIN=  -48   IZMIN=  -48


 serial   3D FFT for wavefunctions
 parallel 3D FFT for charge:
    minimum data exchange during FFTs selected (reduces bandwidth)


 total amount of memory used by VASP MPI-rank0  5486941. kBytes
=======================================================================

   base      :      30000. kBytes
   nonlr-proj:      17126. kBytes
   fftplans  :     924480. kBytes
   grid      :    1872000. kBytes
   one-center:        886. kBytes
   wavefun   :    2642449. kBytes
 
     INWAV:  cpu time    0.0001: real time    0.0004
 Broyden mixing: mesh for mixing (old mesh)
   NGX = 97   NGY = 97   NGZ = 97
  (NGX  =300   NGY  =300   NGZ  =300)
  gives a total of 912673 points

 initial charge density was supplied:
 charge density of overlapping atoms calculated
 number of electron     560.0000000 magnetization 
 keeping initial charge density in first step


--------------------------------------------------------------------------------------------------------


 Maximum index for non-local projection operator         1763
 Maximum index for augmentation-charges         5898 (set IRDMAX)


--------------------------------------------------------------------------------------------------------


 First call to EWALD:  gamma=   0.059
 Maximum number of real-space cells 3x 3x 3
 Maximum number of reciprocal cells 3x 3x 3

    FEWALD:  cpu time    0.0149: real time    0.0149


--------------------------------------- Iteration      1(   1)  ---------------------------------------


    POTLOK:  cpu time   14.1790: real time   14.1832
    SETDIJ:  cpu time    0.1188: real time    0.1188
     EDDAV:  cpu time  362.1735: real time  362.2032
       DOS:  cpu time    0.0013: real time    0.0013
    --------------------------------------------
      LOOP:  cpu time  376.4726: real time  376.5066

 eigenvalue-minimisations  :   688
 total energy-change (2. order) : 0.4393492E+04  (-0.1005071E+05)
 number of electron     560.0000000 magnetization 
 augmentation part      560.0000000 magnetization 

 Free energy of the ion-electron system (eV)
  ---------------------------------------------------
  alpha Z        PSCENC =        75.25431677
  Ewald energy   TEWEN  =    138731.58244550
  -Hartree energ DENC   =   -182089.73074628
  -exchange      EXHF   =         0.00000000
  -V(xc)+E(xc)   XCENC  =     -1702.49662036
  PAW double counting   =     44873.02882129   -41398.84523641
  entropy T*S    EENTRO =         0.03143090
  eigenvalues    EBANDS =       818.16221328
  atomic energy  EATOM  =     45086.50549395
  Solvation  Ediel_sol  =         0.00000000
  ---------------------------------------------------
  free energy    TOTEN  =      4393.49211864 eV

  energy without entropy =     4393.46068774  energy(sigma->0) =     4393.48426092


--------------------------------------------------------------------------------------------------------




--------------------------------------- Iteration      1(   2)  ---------------------------------------


     EDDAV:  cpu time  557.8214: real time  557.8306
       DOS:  cpu time    0.0012: real time    0.0012
    --------------------------------------------
      LOOP:  cpu time  557.8227: real time  557.8318

 eigenvalue-minimisations  :  1208
 total energy-change (2. order) :-0.2364159E+04  (-0.2126015E+04)
 number of electron     560.0000000 magnetization 
 augmentation part      560.0000000 magnetization 

 Free energy of the ion-electron system (eV)
  ---------------------------------------------------
  alpha Z        PSCENC =        75.25431677
  Ewald energy   TEWEN  =    138731.58244550
  -Hartree energ DENC   =   -182089.73074628
  -exchange      EXHF   =         0.00000000
  -V(xc)+E(xc)   XCENC  =     -1702.49662036
  PAW double counting   =     44873.02882129   -41398.84523641
  entropy T*S    EENTRO =        -0.03111640
  eigenvalues    EBANDS =     -1545.93424207
  atomic energy  EATOM  =     45086.50549395
  Solvation  Ediel_sol  =         0.00000000
  ---------------------------------------------------
  free energy    TOTEN  =      2029.33311600 eV

  energy without entropy =     2029.36423239  energy(sigma->0) =     2029.34089510


--------------------------------------------------------------------------------------------------------




--------------------------------------- Iteration      1(   3)  ---------------------------------------


     EDDAV:  cpu time  482.5443: real time  482.5536
       DOS:  cpu time    0.0011: real time    0.0011
    --------------------------------------------
      LOOP:  cpu time  482.5454: real time  482.5548

 eigenvalue-minimisations  :   992
 total energy-change (2. order) :-0.1786518E+04  (-0.1676342E+04)
 number of electron     560.0000000 magnetization 
 augmentation part      560.0000000 magnetization 

 Free energy of the ion-electron system (eV)
  ---------------------------------------------------
  alpha Z        PSCENC =        75.25431677
  Ewald energy   TEWEN  =    138731.58244550
  -Hartree energ DENC   =   -182089.73074628
  -exchange      EXHF   =         0.00000000
  -V(xc)+E(xc)   XCENC  =     -1702.49662036
  PAW double counting   =     44873.02882129   -41398.84523641
  entropy T*S    EENTRO =         0.05843813
  eigenvalues    EBANDS =     -3332.54203671
  atomic energy  EATOM  =     45086.50549395
  Solvation  Ediel_sol  =         0.00000000
  ---------------------------------------------------
  free energy    TOTEN  =       242.81487588 eV

  energy without entropy =      242.75643775  energy(sigma->0) =      242.80026635


--------------------------------------------------------------------------------------------------------




--------------------------------------- Iteration      1(   4)  ---------------------------------------


     EDDAV:  cpu time  418.3914: real time  418.3976
       DOS:  cpu time    0.0012: real time    0.0012
    --------------------------------------------
      LOOP:  cpu time  418.3926: real time  418.3988

 eigenvalue-minimisations  :   832
 total energy-change (2. order) :-0.3769302E+03  (-0.3214139E+03)
 number of electron     560.0000000 magnetization 
 augmentation part      560.0000000 magnetization 

 Free energy of the ion-electron system (eV)
  ---------------------------------------------------
  alpha Z        PSCENC =        75.25431677
  Ewald energy   TEWEN  =    138731.58244550
  -Hartree energ DENC   =   -182089.73074628
  -exchange      EXHF   =         0.00000000
  -V(xc)+E(xc)   XCENC  =     -1702.49662036
  PAW double counting   =     44873.02882129   -41398.84523641
  entropy T*S    EENTRO =         0.02164675
  eigenvalues    EBANDS =     -3709.43541617
  atomic energy  EATOM  =     45086.50549395
  Solvation  Ediel_sol  =         0.00000000
  ---------------------------------------------------
  free energy    TOTEN  =      -134.11529496 eV

  energy without entropy =     -134.13694171  energy(sigma->0) =     -134.12070664


--------------------------------------------------------------------------------------------------------




--------------------------------------- Iteration      1(   5)  ---------------------------------------


     EDDAV:  cpu time  505.3735: real time  505.3837
       DOS:  cpu time    0.0014: real time    0.0014
    CHARGE:  cpu time   25.6806: real time   25.6807
    MIXING:  cpu time    0.4518: real time    0.4518
    --------------------------------------------
      LOOP:  cpu time  531.5072: real time  531.5176

 eigenvalue-minimisations  :  1048
 total energy-change (2. order) :-0.4642895E+02  (-0.3845536E+02)
 number of electron     559.9999877 magnetization 
 augmentation part      244.9978071 magnetization 

 Broyden mixing:
  rms(total) = 0.15174E+01    rms(broyden)= 0.15165E+01
  rms(prec ) = 0.16260E+01
  weight for this iteration     100.00

 Free energy of the ion-electron system (eV)
  ---------------------------------------------------
  alpha Z        PSCENC =        75.25431677
  Ewald energy   TEWEN  =    138731.58244550
  -Hartree energ DENC   =   -182089.73074628
  -exchange      EXHF   =         0.00000000
  -V(xc)+E(xc)   XCENC  =     -1702.49662036
  PAW double counting   =     44873.02882129   -41398.84523641
  entropy T*S    EENTRO =         0.49632896
  eigenvalues    EBANDS =     -3756.33904651
  atomic energy  EATOM  =     45086.50549395
  Solvation  Ediel_sol  =         0.00000000
  ---------------------------------------------------
  free energy    TOTEN  =      -180.54424309 eV

  energy without entropy =     -181.04057205  energy(sigma->0) =     -180.66832533


--------------------------------------------------------------------------------------------------------




--------------------------------------- Iteration      1(   6)  ---------------------------------------


    POTLOK:  cpu time   13.1450: real time   13.1485
    SETDIJ:  cpu time    0.1194: real time    0.1194
    EDDIAG:  cpu time   66.8120: real time   66.8120
  RMM-DIIS:  cpu time  201.0034: real time  201.0038
    ORTHCH:  cpu time   14.1752: real time   14.1751
       DOS:  cpu time    0.0015: real time    0.0015
    CHARGE:  cpu time   25.3574: real time   25.3576
    MIXING:  cpu time    0.4709: real time    0.4709
    --------------------------------------------
      LOOP:  cpu time  321.0847: real time  321.0886

 eigenvalue-minimisations  :   725
 total energy-change (2. order) : 0.1778054E+00  (-0.5845705E+01)
 number of electron     559.9999879 magnetization 
 augmentation part      240.5034609 magnetization 

 Broyden mixing:
  rms(total) = 0.22590E+01    rms(broyden)= 0.22587E+01
  rms(prec ) = 0.25818E+01
  weight for this iteration     100.00

 eigenvalues of (default mixing * dielectric matrix)
  average eigenvalue GAMMA=   0.3463
  0.3463

 Free energy of the ion-electron system (eV)
  ---------------------------------------------------
  alpha Z        PSCENC =        75.25431677
  Ewald energy   TEWEN  =    138731.58244550
  -Hartree energ DENC   =   -182491.98775945
  -exchange      EXHF   =         0.00000000
  -V(xc)+E(xc)   XCENC  =     -1696.15319648
  PAW double counting   =     45642.04650962   -42141.55093984
  entropy T*S    EENTRO =        -0.20789055
  eigenvalues    EBANDS =     -3385.85541721
  atomic energy  EATOM  =     45086.50549395
  Solvation  Ediel_sol  =         0.00000000
  ---------------------------------------------------
  free energy    TOTEN  =      -180.36643769 eV

  energy without entropy =     -180.15854714  energy(sigma->0) =     -180.31446505


--------------------------------------------------------------------------------------------------------




--------------------------------------- Iteration      1(   7)  ---------------------------------------


    POTLOK:  cpu time   13.1819: real time   13.1858
    SETDIJ:  cpu time    0.1219: real time    0.1218
    EDDIAG:  cpu time   67.0624: real time   67.0630
  RMM-DIIS:  cpu time  236.8886: real time  236.8891
    ORTHCH:  cpu time   14.0125: real time   14.0124
       DOS:  cpu time    0.0015: real time    0.0015
    CHARGE:  cpu time   25.3221: real time   25.3218
    MIXING:  cpu time    0.4891: real time    0.4892
    --------------------------------------------
      LOOP:  cpu time  357.0800: real time  357.0846

 eigenvalue-minimisations  :   848
 total energy-change (2. order) :-0.1588524E+01  (-0.2010402E+01)
 number of electron     559.9999869 magnetization 
 augmentation part      240.5340606 magnetization 

 Broyden mixing:
  rms(total) = 0.20093E+01    rms(broyden)= 0.20090E+01
  rms(prec ) = 0.23959E+01
  weight for this iteration     100.00

 eigenvalues of (default mixing * dielectric matrix)
  average eigenvalue GAMMA=   0.3459
  0.5192  0.1725

 Free energy of the ion-electron system (eV)
  ---------------------------------------------------
  alpha Z        PSCENC =        75.25431677
  Ewald energy   TEWEN  =    138731.58244550
  -Hartree energ DENC   =   -182579.37455894
  -exchange      EXHF   =         0.00000000
  -V(xc)+E(xc)   XCENC  =     -1696.40850963
  PAW double counting   =     45716.42474059   -42213.29448839
  entropy T*S    EENTRO =        -0.14457409
  eigenvalues    EBANDS =     -3302.49982792
  atomic energy  EATOM  =     45086.50549395
  Solvation  Ediel_sol  =         0.00000000
  ---------------------------------------------------
  free energy    TOTEN  =      -181.95496216 eV

  energy without entropy =     -181.81038807  energy(sigma->0) =     -181.91881864


--------------------------------------------------------------------------------------------------------




--------------------------------------- Iteration      1(   8)  ---------------------------------------


    POTLOK:  cpu time   13.1349: real time   13.1385
    SETDIJ:  cpu time    0.1207: real time    0.1207
    EDDIAG:  cpu time   66.5981: real time   66.5979
  RMM-DIIS:  cpu time  213.3416: real time  213.3453
    ORTHCH:  cpu time   14.3968: real time   14.3969
       DOS:  cpu time    0.0014: real time    0.0014
    CHARGE:  cpu time   25.6961: real time   25.6961
    MIXING:  cpu time    0.5211: real time    0.5211
    --------------------------------------------
      LOOP:  cpu time  333.8107: real time  333.8179

 eigenvalue-minimisations  :   764
 total energy-change (2. order) :-0.4105075E+01  (-0.6772384E+00)
 number of electron     559.9999879 magnetization 
 augmentation part      240.1428751 magnetization 

 Broyden mixing:
  rms(total) = 0.31583E+01    rms(broyden)= 0.31580E+01
  rms(prec ) = 0.38413E+01
  weight for this iteration     100.00

 eigenvalues of (default mixing * dielectric matrix)
  average eigenvalue GAMMA=   0.3006
  0.6254  0.1668  0.1096

 Free energy of the ion-electron system (eV)
  ---------------------------------------------------
  alpha Z        PSCENC =        75.25431677
  Ewald energy   TEWEN  =    138731.58244550
  -Hartree energ DENC   =   -182609.48687535
  -exchange      EXHF   =         0.00000000
  -V(xc)+E(xc)   XCENC  =     -1696.36104834
  PAW double counting   =     45790.46193150   -42284.47785994
  entropy T*S    EENTRO =        -0.00598397
  eigenvalues    EBANDS =     -3279.53245723
  atomic energy  EATOM  =     45086.50549395
  Solvation  Ediel_sol  =         0.00000000
  ---------------------------------------------------
  free energy    TOTEN  =      -186.06003713 eV

  energy without entropy =     -186.05405316  energy(sigma->0) =     -186.05854114


--------------------------------------------------------------------------------------------------------




--------------------------------------- Iteration      1(   9)  ---------------------------------------


    POTLOK:  cpu time   13.2204: real time   13.2239
    SETDIJ:  cpu time    0.1261: real time    0.1261
    EDDIAG:  cpu time   66.9623: real time   66.9638
  RMM-DIIS:  cpu time  207.2387: real time  207.2404
    ORTHCH:  cpu time   14.2065: real time   14.2065
       DOS:  cpu time    0.0015: real time    0.0015
    CHARGE:  cpu time   25.2820: real time   25.2820
    MIXING:  cpu time    0.5416: real time    0.5416
    --------------------------------------------
      LOOP:  cpu time  327.5790: real time  327.5857

 eigenvalue-minimisations  :   749
 total energy-change (2. order) : 0.2722906E+01  (-0.4508209E+00)
 number of electron     559.9999873 magnetization 
 augmentation part      241.0068427 magnetization 

 Broyden mixing:
  rms(total) = 0.28726E+01    rms(broyden)= 0.28723E+01
  rms(prec ) = 0.33351E+01
  weight for this iteration     100.00

 eigenvalues of (default mixing * dielectric matrix)
  average eigenvalue GAMMA=   0.2715
  0.6976  0.1608  0.1360  0.0915

 Free energy of the ion-electron system (eV)
  ---------------------------------------------------
  alpha Z        PSCENC =        75.25431677
  Ewald energy   TEWEN  =    138731.58244550
  -Hartree energ DENC   =   -182626.49424995
  -exchange      EXHF   =         0.00000000
  -V(xc)+E(xc)   XCENC  =     -1696.36046098
  PAW double counting   =     45838.63321979   -42330.93008542
  entropy T*S    EENTRO =        -0.05567807
  eigenvalues    EBANDS =     -3261.47213239
  atomic energy  EATOM  =     45086.50549395
  Solvation  Ediel_sol  =         0.00000000
  ---------------------------------------------------
  free energy    TOTEN  =      -183.33713080 eV

  energy without entropy =     -183.28145273  energy(sigma->0) =     -183.32321128


--------------------------------------------------------------------------------------------------------




--------------------------------------- Iteration      1(  10)  ---------------------------------------


    POTLOK:  cpu time   13.1272: real time   13.1308
    SETDIJ:  cpu time    0.1173: real time    0.1173
    EDDIAG:  cpu time   66.9262: real time   66.9267
  RMM-DIIS:  cpu time  205.3762: real time  205.3770
    ORTHCH:  cpu time   13.7242: real time   13.7242
       DOS:  cpu time    0.0015: real time    0.0014
    CHARGE:  cpu time   25.1931: real time   25.1932
    MIXING:  cpu time    0.5852: real time    0.5852
    --------------------------------------------
      LOOP:  cpu time  325.0508: real time  325.0559

 eigenvalue-minimisations  :   743
 total energy-change (2. order) : 0.2646056E+01  (-0.3022641E+00)
 number of electron     559.9999860 magnetization 
 augmentation part      241.2775865 magnetization 

 Broyden mixing:
  rms(total) = 0.20387E+01    rms(broyden)= 0.20384E+01
  rms(prec ) = 0.23767E+01
  weight for this iteration     100.00

 eigenvalues of (default mixing * dielectric matrix)
  average eigenvalue GAMMA=   0.2608
  0.7781  0.1668  0.1668  0.0962  0.0962

 Free energy of the ion-electron system (eV)
  ---------------------------------------------------
  alpha Z        PSCENC =        75.25431677
  Ewald energy   TEWEN  =    138731.58244550
  -Hartree energ DENC   =   -182650.15476641
  -exchange      EXHF   =         0.00000000
  -V(xc)+E(xc)   XCENC  =     -1696.26234619
  PAW double counting   =     45877.60169536   -42368.48156731
  entropy T*S    EENTRO =        -0.07278614
  eigenvalues    EBANDS =     -3236.66356025
  atomic energy  EATOM  =     45086.50549395
  Solvation  Ediel_sol  =         0.00000000
  ---------------------------------------------------
  free energy    TOTEN  =      -180.69107471 eV

  energy without entropy =     -180.61828857  energy(sigma->0) =     -180.67287817


--------------------------------------------------------------------------------------------------------




--------------------------------------- Iteration      1(  11)  ---------------------------------------


    POTLOK:  cpu time   13.2167: real time   13.2204
    SETDIJ:  cpu time    0.1225: real time    0.1225
    EDDIAG:  cpu time   66.6810: real time   66.6815
  RMM-DIIS:  cpu time  200.3642: real time  200.3660
    ORTHCH:  cpu time   13.9374: real time   13.9374
       DOS:  cpu time    0.0015: real time    0.0015
    CHARGE:  cpu time   25.9246: real time   25.9246
    MIXING:  cpu time    0.6140: real time    0.6140
    --------------------------------------------
      LOOP:  cpu time  320.8619: real time  320.8680

 eigenvalue-minimisations  :   726
 total energy-change (2. order) : 0.1779091E+01  (-0.2191544E+00)
 number of electron     559.9999890 magnetization 
 augmentation part      241.6554169 magnetization 

 Broyden mixing:
  rms(total) = 0.17733E+01    rms(broyden)= 0.17730E+01
  rms(prec ) = 0.20683E+01
  weight for this iteration     100.00

 eigenvalues of (default mixing * dielectric matrix)
  average eigenvalue GAMMA=   0.2520
  0.8145  0.2101  0.2101  0.1016  0.1016  0.0738

 Free energy of the ion-electron system (eV)
  ---------------------------------------------------
  alpha Z        PSCENC =        75.25431677
  Ewald energy   TEWEN  =    138731.58244550
  -Hartree energ DENC   =   -182668.54385707
  -exchange      EXHF   =         0.00000000
  -V(xc)+E(xc)   XCENC  =     -1696.07078472
  PAW double counting   =     45918.91279913   -42408.13264205
  entropy T*S    EENTRO =        -0.03716552
  eigenvalues    EBANDS =     -3218.38258976
  atomic energy  EATOM  =     45086.50549395
  Solvation  Ediel_sol  =         0.00000000
  ---------------------------------------------------
  free energy    TOTEN  =      -178.91198377 eV

  energy without entropy =     -178.87481825  energy(sigma->0) =     -178.90269239


--------------------------------------------------------------------------------------------------------




--------------------------------------- Iteration      1(  12)  ---------------------------------------


    POTLOK:  cpu time   13.1701: real time   13.1743
    SETDIJ:  cpu time    0.1237: real time    0.1237
    EDDIAG:  cpu time   66.9731: real time   66.9748
  RMM-DIIS:  cpu time  200.2236: real time  200.2342
    ORTHCH:  cpu time   13.9845: real time   13.9846
       DOS:  cpu time    0.0015: real time    0.0015
    CHARGE:  cpu time   25.6242: real time   25.6243
    MIXING:  cpu time    0.6535: real time    0.6535
    --------------------------------------------
      LOOP:  cpu time  320.7541: real time  320.7707

 eigenvalue-minimisations  :   722
 total energy-change (2. order) : 0.8407329E+00  (-0.1393332E+00)
 number of electron     559.9999876 magnetization 
 augmentation part      241.5917157 magnetization 

 Broyden mixing:
  rms(total) = 0.15937E+01    rms(broyden)= 0.15934E+01
  rms(prec ) = 0.19417E+01
  weight for this iteration     100.00

 eigenvalues of (default mixing * dielectric matrix)
  average eigenvalue GAMMA=   0.2494
  0.8626  0.2499  0.2499  0.1221  0.1221  0.0696  0.0696

 Free energy of the ion-electron system (eV)
  ---------------------------------------------------
  alpha Z        PSCENC =        75.25431677
  Ewald energy   TEWEN  =    138731.58244550
  -Hartree energ DENC   =   -182689.95021011
  -exchange      EXHF   =         0.00000000
  -V(xc)+E(xc)   XCENC  =     -1695.88875938
  PAW double counting   =     45950.22948641   -42438.09313467
  entropy T*S    EENTRO =        -0.06427691
  eigenvalues    EBANDS =     -3197.64661241
  atomic energy  EATOM  =     45086.50549395
  Solvation  Ediel_sol  =         0.00000000
  ---------------------------------------------------
  free energy    TOTEN  =      -178.07125086 eV

  energy without entropy =     -178.00697394  energy(sigma->0) =     -178.05518163


--------------------------------------------------------------------------------------------------------




--------------------------------------- Iteration      1(  13)  ---------------------------------------


    POTLOK:  cpu time   13.1375: real time   13.1412
    SETDIJ:  cpu time    0.1274: real time    0.1274
    EDDIAG:  cpu time   66.6871: real time   66.6878
  RMM-DIIS:  cpu time  202.2054: real time  202.2121
    ORTHCH:  cpu time   13.4286: real time   13.4286
       DOS:  cpu time    0.0015: real time    0.0015
    CHARGE:  cpu time   25.4135: real time   25.4134
    MIXING:  cpu time    0.7202: real time    0.7202
    --------------------------------------------
      LOOP:  cpu time  321.7213: real time  321.7322

 eigenvalue-minimisations  :   726
 total energy-change (2. order) : 0.5195008E+00  (-0.1103601E+00)
 number of electron     559.9999867 magnetization 
 augmentation part      241.5388227 magnetization 

 Broyden mixing:
  rms(total) = 0.13747E+01    rms(broyden)= 0.13744E+01
  rms(prec ) = 0.16235E+01
  weight for this iteration     100.00

 eigenvalues of (default mixing * dielectric matrix)
  average eigenvalue GAMMA=   0.2737
  1.0130  0.3457  0.3457  0.1230  0.1230  0.0903  0.0903  0.0586

 Free energy of the ion-electron system (eV)
  ---------------------------------------------------
  alpha Z        PSCENC =        75.25431677
  Ewald energy   TEWEN  =    138731.58244550
  -Hartree energ DENC   =   -182712.81528451
  -exchange      EXHF   =         0.00000000
  -V(xc)+E(xc)   XCENC  =     -1695.67349438
  PAW double counting   =     45982.14384886   -42468.60684013
  entropy T*S    EENTRO =        -0.07014559
  eigenvalues    EBANDS =     -3175.87209058
  atomic energy  EATOM  =     45086.50549395
  Solvation  Ediel_sol  =         0.00000000
  ---------------------------------------------------
  free energy    TOTEN  =      -177.55175010 eV

  energy without entropy =     -177.48160451  energy(sigma->0) =     -177.53421370


--------------------------------------------------------------------------------------------------------




--------------------------------------- Iteration      1(  14)  ---------------------------------------


    POTLOK:  cpu time   13.2702: real time   13.2712
    SETDIJ:  cpu time    0.1210: real time    0.1210
    EDDIAG:  cpu time   66.5519: real time   66.5522
  RMM-DIIS:  cpu time  196.0430: real time  196.0455
    ORTHCH:  cpu time   14.0576: real time   14.0575
       DOS:  cpu time    0.0014: real time    0.0014
    CHARGE:  cpu time   25.5055: real time   25.5054
    MIXING:  cpu time    0.7364: real time    0.7364
    --------------------------------------------
      LOOP:  cpu time  316.2870: real time  316.2907

 eigenvalue-minimisations  :   706
 total energy-change (2. order) : 0.6486950E-01  (-0.1479501E+00)
 number of electron     559.9999873 magnetization 
 augmentation part      241.5333380 magnetization 

 Broyden mixing:
  rms(total) = 0.16993E+01    rms(broyden)= 0.16990E+01
  rms(prec ) = 0.19360E+01
  weight for this iteration     100.00

 eigenvalues of (default mixing * dielectric matrix)
  average eigenvalue GAMMA=   0.2893
  1.1673  0.5208  0.3072  0.1392  0.1392  0.0979  0.0979  0.0741  0.0606

 Free energy of the ion-electron system (eV)
  ---------------------------------------------------
  alpha Z        PSCENC =        75.25431677
  Ewald energy   TEWEN  =    138731.58244550
  -Hartree energ DENC   =   -182748.33367293
  -exchange      EXHF   =         0.00000000
  -V(xc)+E(xc)   XCENC  =     -1695.15316701
  PAW double counting   =     46046.73152267   -42530.19577442
  entropy T*S    EENTRO =        -0.09199583
  eigenvalues    EBANDS =     -3143.78604929
  atomic energy  EATOM  =     45086.50549395
  Solvation  Ediel_sol  =         0.00000000
  ---------------------------------------------------
  free energy    TOTEN  =      -177.48688059 eV

  energy without entropy =     -177.39488476  energy(sigma->0) =     -177.46388163


--------------------------------------------------------------------------------------------------------




--------------------------------------- Iteration      1(  15)  ---------------------------------------


    POTLOK:  cpu time   13.0319: real time   13.0342
    SETDIJ:  cpu time    0.1206: real time    0.1206
    EDDIAG:  cpu time   66.8481: real time   66.8482
  RMM-DIIS:  cpu time  195.3936: real time  195.3939
    ORTHCH:  cpu time   14.3081: real time   14.3080
       DOS:  cpu time    0.0014: real time    0.0014
    CHARGE:  cpu time   25.4210: real time   25.4208
    MIXING:  cpu time    0.7663: real time    0.7663
    --------------------------------------------
      LOOP:  cpu time  315.8910: real time  315.8934

 eigenvalue-minimisations  :   708
 total energy-change (2. order) : 0.6988779E+00  (-0.1259213E+00)
 number of electron     559.9999887 magnetization 
 augmentation part      241.2719020 magnetization 

 Broyden mixing:
  rms(total) = 0.14695E+01    rms(broyden)= 0.14692E+01
  rms(prec ) = 0.16977E+01
  weight for this iteration     100.00

 eigenvalues of (default mixing * dielectric matrix)
  average eigenvalue GAMMA=   0.2856
  1.2723  0.5704  0.2914  0.1434  0.1434  0.1011  0.1011  0.0872  0.0872  0.0585

 Free energy of the ion-electron system (eV)
  ---------------------------------------------------
  alpha Z        PSCENC =        75.25431677
  Ewald energy   TEWEN  =    138731.58244550
  -Hartree energ DENC   =   -182794.79734253
  -exchange      EXHF   =         0.00000000
  -V(xc)+E(xc)   XCENC  =     -1694.61306874
  PAW double counting   =     46111.44265684   -42591.90231954
  entropy T*S    EENTRO =        -0.10893504
  eigenvalues    EBANDS =     -3100.15124991
  atomic energy  EATOM  =     45086.50549395
  Solvation  Ediel_sol  =         0.00000000
  ---------------------------------------------------
  free energy    TOTEN  =      -176.78800270 eV

  energy without entropy =     -176.67906766  energy(sigma->0) =     -176.76076894


--------------------------------------------------------------------------------------------------------




--------------------------------------- Iteration      1(  16)  ---------------------------------------


    POTLOK:  cpu time   13.1256: real time   13.1290
    SETDIJ:  cpu time    0.1214: real time    0.1214
    EDDIAG:  cpu time   67.1801: real time   67.1812
  RMM-DIIS:  cpu time  197.9086: real time  197.9090
    ORTHCH:  cpu time   14.1561: real time   14.1560
       DOS:  cpu time    0.0015: real time    0.0015
    CHARGE:  cpu time   25.4003: real time   25.4001
    MIXING:  cpu time    0.8264: real time    0.8264
    --------------------------------------------
      LOOP:  cpu time  318.7200: real time  318.7247

 eigenvalue-minimisations  :   720
 total energy-change (2. order) : 0.2590913E+00  (-0.6939922E-01)
 number of electron     559.9999875 magnetization 
 augmentation part      241.1857057 magnetization 

 Broyden mixing:
  rms(total) = 0.10521E+01    rms(broyden)= 0.10518E+01
  rms(prec ) = 0.12525E+01
  weight for this iteration     100.00

 eigenvalues of (default mixing * dielectric matrix)
  average eigenvalue GAMMA=   0.2928
  1.3956  0.6454  0.2533  0.2533  0.1327  0.1327  0.0982  0.0982  0.0759  0.0759
  0.0591

 Free energy of the ion-electron system (eV)
  ---------------------------------------------------
  alpha Z        PSCENC =        75.25431677
  Ewald energy   TEWEN  =    138731.58244550
  -Hartree energ DENC   =   -182815.06003241
  -exchange      EXHF   =         0.00000000
  -V(xc)+E(xc)   XCENC  =     -1694.35206692
  PAW double counting   =     46139.85996963   -42618.91149008
  entropy T*S    EENTRO =        -0.14132765
  eigenvalues    EBANDS =     -3081.26622017
  atomic energy  EATOM  =     45086.50549395
  Solvation  Ediel_sol  =         0.00000000
  ---------------------------------------------------
  free energy    TOTEN  =      -176.52891139 eV

  energy without entropy =     -176.38758374  energy(sigma->0) =     -176.49357948


--------------------------------------------------------------------------------------------------------




--------------------------------------- Iteration      1(  17)  ---------------------------------------


    POTLOK:  cpu time   13.0803: real time   13.0839
    SETDIJ:  cpu time    0.1193: real time    0.1193
    EDDIAG:  cpu time   66.7252: real time   66.7271
  RMM-DIIS:  cpu time  197.4411: real time  197.4415
    ORTHCH:  cpu time   14.0673: real time   14.0672
       DOS:  cpu time    0.0015: real time    0.0015
    CHARGE:  cpu time   25.6284: real time   25.6282
    MIXING:  cpu time    0.8799: real time    0.8799
    --------------------------------------------
      LOOP:  cpu time  317.9431: real time  317.9486

 eigenvalue-minimisations  :   716
 total energy-change (2. order) :-0.7769215E-02  (-0.5508082E-01)
 number of electron     559.9999878 magnetization 
 augmentation part      241.1064355 magnetization 

 Broyden mixing:
  rms(total) = 0.12219E+01    rms(broyden)= 0.12216E+01
  rms(prec ) = 0.14558E+01
  weight for this iteration     100.00

 eigenvalues of (default mixing * dielectric matrix)
  average eigenvalue GAMMA=   0.2983
  1.4863  0.7162  0.3138  0.3138  0.1319  0.1319  0.1015  0.1015  0.0820  0.0820
  0.0592  0.0592

 Free energy of the ion-electron system (eV)
  ---------------------------------------------------
  alpha Z        PSCENC =        75.25431677
  Ewald energy   TEWEN  =    138731.58244550
  -Hartree energ DENC   =   -182835.71642564
  -exchange      EXHF   =         0.00000000
  -V(xc)+E(xc)   XCENC  =     -1694.03768770
  PAW double counting   =     46169.45360252   -42646.88901605
  entropy T*S    EENTRO =        -0.06752477
  eigenvalues    EBANDS =     -3062.62188518
  atomic energy  EATOM  =     45086.50549395
  Solvation  Ediel_sol  =         0.00000000
  ---------------------------------------------------
  free energy    TOTEN  =      -176.53668061 eV

  energy without entropy =     -176.46915584  energy(sigma->0) =     -176.51979942


--------------------------------------------------------------------------------------------------------




--------------------------------------- Iteration      1(  18)  ---------------------------------------


    POTLOK:  cpu time   13.1075: real time   13.1104
    SETDIJ:  cpu time    0.1232: real time    0.1232
    EDDIAG:  cpu time   66.9530: real time   66.9531
  RMM-DIIS:  cpu time  196.7861: real time  196.7881
    ORTHCH:  cpu time   14.1737: real time   14.1737
       DOS:  cpu time    0.0015: real time    0.0015
    CHARGE:  cpu time   25.5739: real time   25.5737
    MIXING:  cpu time    0.9477: real time    0.9477
    --------------------------------------------
      LOOP:  cpu time  317.6667: real time  317.6714

 eigenvalue-minimisations  :   704
 total energy-change (2. order) : 0.4693704E+00  (-0.4586972E-01)
 number of electron     559.9999871 magnetization 
 augmentation part      241.1361485 magnetization 

 Broyden mixing:
  rms(total) = 0.80368E+00    rms(broyden)= 0.80332E+00
  rms(prec ) = 0.90997E+00
  weight for this iteration     100.00

 eigenvalues of (default mixing * dielectric matrix)
  average eigenvalue GAMMA=   0.3174
  1.4902  0.9805  0.3905  0.3905  0.1374  0.1374  0.1087  0.1087  0.0954  0.0954
  0.0740  0.0619  0.0556

 Free energy of the ion-electron system (eV)
  ---------------------------------------------------
  alpha Z        PSCENC =        75.25431677
  Ewald energy   TEWEN  =    138731.58244550
  -Hartree energ DENC   =   -182853.92848285
  -exchange      EXHF   =         0.00000000
  -V(xc)+E(xc)   XCENC  =     -1693.77915484
  PAW double counting   =     46190.91413990   -42667.06351904
  entropy T*S    EENTRO =         0.00350398
  eigenvalues    EBANDS =     -3045.55605361
  atomic energy  EATOM  =     45086.50549395
  Solvation  Ediel_sol  =         0.00000000
  ---------------------------------------------------
  free energy    TOTEN  =      -176.06731023 eV

  energy without entropy =     -176.07081421  energy(sigma->0) =     -176.06818623


--------------------------------------------------------------------------------------------------------




--------------------------------------- Iteration      1(  19)  ---------------------------------------


    POTLOK:  cpu time   13.1802: real time   13.1834
    SETDIJ:  cpu time    0.1227: real time    0.1228
    EDDIAG:  cpu time   66.9781: real time   66.9798
  RMM-DIIS:  cpu time  191.1734: real time  191.1738
    ORTHCH:  cpu time   14.3118: real time   14.3117
       DOS:  cpu time    0.0014: real time    0.0014
    CHARGE:  cpu time   25.6720: real time   25.6718
    MIXING:  cpu time    0.9833: real time    0.9833
    --------------------------------------------
      LOOP:  cpu time  312.4230: real time  312.4280

 eigenvalue-minimisations  :   695
 total energy-change (2. order) : 0.2835841E-01  (-0.3736222E-01)
 number of electron     559.9999879 magnetization 
 augmentation part      241.0815122 magnetization 

 Broyden mixing:
  rms(total) = 0.86432E+00    rms(broyden)= 0.86407E+00
  rms(prec ) = 0.99270E+00
  weight for this iteration     100.00

 eigenvalues of (default mixing * dielectric matrix)
  average eigenvalue GAMMA=   0.3390
  1.6124  1.2473  0.4393  0.4393  0.1394  0.1394  0.1267  0.1267  0.1013  0.1013
  0.0778  0.0778  0.0617  0.0563

 Free energy of the ion-electron system (eV)
  ---------------------------------------------------
  alpha Z        PSCENC =        75.25431677
  Ewald energy   TEWEN  =    138731.58244550
  -Hartree energ DENC   =   -182878.73073074
  -exchange      EXHF   =         0.00000000
  -V(xc)+E(xc)   XCENC  =     -1693.51554296
  PAW double counting   =     46205.99808737   -42680.78228887
  entropy T*S    EENTRO =        -0.06370402
  eigenvalues    EBANDS =     -3022.28702881
  atomic energy  EATOM  =     45086.50549395
  Solvation  Ediel_sol  =         0.00000000
  ---------------------------------------------------
  free energy    TOTEN  =      -176.03895182 eV

  energy without entropy =     -175.97524780  energy(sigma->0) =     -176.02302582


--------------------------------------------------------------------------------------------------------




--------------------------------------- Iteration      1(  20)  ---------------------------------------


    POTLOK:  cpu time   13.0597: real time   13.0633
    SETDIJ:  cpu time    0.1234: real time    0.1234
    EDDIAG:  cpu time   67.2326: real time   67.2325
  RMM-DIIS:  cpu time  190.6731: real time  190.6756
    ORTHCH:  cpu time   14.3563: real time   14.3562
       DOS:  cpu time    0.0015: real time    0.0015
    CHARGE:  cpu time   25.9199: real time   25.9197
    MIXING:  cpu time    1.0493: real time    1.0493
    --------------------------------------------
      LOOP:  cpu time  312.4157: real time  312.4216

 eigenvalue-minimisations  :   698
 total energy-change (2. order) : 0.1385935E+00  (-0.3470363E-01)
 number of electron     559.9999879 magnetization 
 augmentation part      241.0933818 magnetization 

 Broyden mixing:
  rms(total) = 0.72515E+00    rms(broyden)= 0.72489E+00
  rms(prec ) = 0.82997E+00
  weight for this iteration     100.00

 eigenvalues of (default mixing * dielectric matrix)
  average eigenvalue GAMMA=   0.3447
  1.7620  1.3199  0.4642  0.4642  0.1325  0.1325  0.1541  0.1513  0.1008  0.1008
  0.1150  0.0774  0.0774  0.0627  0.0558

 Free energy of the ion-electron system (eV)
  ---------------------------------------------------
  alpha Z        PSCENC =        75.25431677
  Ewald energy   TEWEN  =    138731.58244550
  -Hartree energ DENC   =   -182905.19701519
  -exchange      EXHF   =         0.00000000
  -V(xc)+E(xc)   XCENC  =     -1693.21421052
  PAW double counting   =     46220.42491356   -42693.70941015
  entropy T*S    EENTRO =        -0.05631604
  eigenvalues    EBANDS =     -2997.49057623
  atomic energy  EATOM  =     45086.50549395
  Solvation  Ediel_sol  =         0.00000000
  ---------------------------------------------------
  free energy    TOTEN  =      -175.90035836 eV

  energy without entropy =     -175.84404231  energy(sigma->0) =     -175.88627934


--------------------------------------------------------------------------------------------------------




--------------------------------------- Iteration      1(  21)  ---------------------------------------


    POTLOK:  cpu time   13.0328: real time   13.0361
    SETDIJ:  cpu time    0.1243: real time    0.1243
    EDDIAG:  cpu time   67.0027: real time   67.0067
  RMM-DIIS:  cpu time  190.2463: real time  190.2476
    ORTHCH:  cpu time   14.4179: real time   14.4178
       DOS:  cpu time    0.0015: real time    0.0015
    CHARGE:  cpu time   26.2258: real time   26.2256
    MIXING:  cpu time    1.0632: real time    1.0632
    --------------------------------------------
      LOOP:  cpu time  312.1145: real time  312.1229

 eigenvalue-minimisations  :   693
 total energy-change (2. order) : 0.1538207E+00  (-0.2538146E-01)
 number of electron     559.9999879 magnetization 
 augmentation part      241.1563034 magnetization 

 Broyden mixing:
  rms(total) = 0.57442E+00    rms(broyden)= 0.57421E+00
  rms(prec ) = 0.66291E+00
  weight for this iteration     100.00

 eigenvalues of (default mixing * dielectric matrix)
  average eigenvalue GAMMA=   0.3539
  1.8519  1.4081  0.4812  0.4812  0.3369  0.1322  0.1322  0.1409  0.1409  0.0985
  0.0985  0.0827  0.0827  0.0752  0.0626  0.0559

 Free energy of the ion-electron system (eV)
  ---------------------------------------------------
  alpha Z        PSCENC =        75.25431677
  Ewald energy   TEWEN  =    138731.58244550
  -Hartree energ DENC   =   -182921.20538517
  -exchange      EXHF   =         0.00000000
  -V(xc)+E(xc)   XCENC  =     -1693.02950804
  PAW double counting   =     46226.46838881   -42698.91639855
  entropy T*S    EENTRO =        -0.07306163
  eigenvalues    EBANDS =     -2982.33282930
  atomic energy  EATOM  =     45086.50549395
  Solvation  Ediel_sol  =         0.00000000
  ---------------------------------------------------
  free energy    TOTEN  =      -175.74653766 eV

  energy without entropy =     -175.67347604  energy(sigma->0) =     -175.72827225


--------------------------------------------------------------------------------------------------------




--------------------------------------- Iteration      1(  22)  ---------------------------------------


    POTLOK:  cpu time   12.9868: real time   12.9900
    SETDIJ:  cpu time    0.1257: real time    0.1257
    EDDIAG:  cpu time   67.3459: real time   67.3470
  RMM-DIIS:  cpu time  192.7250: real time  192.7264
    ORTHCH:  cpu time   14.0423: real time   14.0422
       DOS:  cpu time    0.0016: real time    0.0016
    CHARGE:  cpu time   26.2078: real time   26.2077
    MIXING:  cpu time    1.1293: real time    1.1293
    --------------------------------------------
      LOOP:  cpu time  314.5643: real time  314.5698

 eigenvalue-minimisations  :   703
 total energy-change (2. order) : 0.2082516E-01  (-0.1730312E-01)
 number of electron     559.9999866 magnetization 
 augmentation part      241.0820656 magnetization 

 Broyden mixing:
  rms(total) = 0.59163E+00    rms(broyden)= 0.59147E+00
  rms(prec ) = 0.68834E+00
  weight for this iteration     100.00

 eigenvalues of (default mixing * dielectric matrix)
  average eigenvalue GAMMA=   0.3637
  2.0743  1.3355  0.7549  0.3998  0.3998  0.1341  0.1341  0.1422  0.1323  0.1323
  0.0984  0.0984  0.0788  0.0788  0.0713  0.0627  0.0558

 Free energy of the ion-electron system (eV)
  ---------------------------------------------------
  alpha Z        PSCENC =        75.25431677
  Ewald energy   TEWEN  =    138731.58244550
  -Hartree energ DENC   =   -182939.75101205
  -exchange      EXHF   =         0.00000000
  -V(xc)+E(xc)   XCENC  =     -1692.86574663
  PAW double counting   =     46228.97634194   -42700.76416012
  entropy T*S    EENTRO =        -0.08389328
  eigenvalues    EBANDS =     -2964.57949858
  atomic energy  EATOM  =     45086.50549395
  Solvation  Ediel_sol  =         0.00000000
  ---------------------------------------------------
  free energy    TOTEN  =      -175.72571250 eV

  energy without entropy =     -175.64181922  energy(sigma->0) =     -175.70473918


--------------------------------------------------------------------------------------------------------




--------------------------------------- Iteration      1(  23)  ---------------------------------------


    POTLOK:  cpu time   12.9724: real time   12.9762
    SETDIJ:  cpu time    0.1218: real time    0.1218
    EDDIAG:  cpu time   67.1074: real time   67.1090
  RMM-DIIS:  cpu time  191.1128: real time  191.1140
    ORTHCH:  cpu time   13.8990: real time   13.8990
       DOS:  cpu time    0.0015: real time    0.0015
    CHARGE:  cpu time   26.4596: real time   26.4594
    MIXING:  cpu time    1.2090: real time    1.2091
    --------------------------------------------
      LOOP:  cpu time  312.8835: real time  312.8900

 eigenvalue-minimisations  :   694
 total energy-change (2. order) : 0.1042934E+00  (-0.1474040E-01)
 number of electron     559.9999881 magnetization 
 augmentation part      241.1547229 magnetization 

 Broyden mixing:
  rms(total) = 0.46536E+00    rms(broyden)= 0.46516E+00
  rms(prec ) = 0.54482E+00
  weight for this iteration     100.00

 eigenvalues of (default mixing * dielectric matrix)
  average eigenvalue GAMMA=   0.3669
[...]
 -0.007  -0.013   0.004   0.005   0.005  -0.006  -0.013   0.004
 -0.011  -0.022   0.007   0.009   0.009  -0.011  -0.021   0.007
 -0.015  -0.005   0.013   0.000   0.022  -0.015  -0.005   0.012
  0.000  -0.023  -0.006  -0.016  -0.000   0.000  -0.022  -0.006
 -0.022   0.000   0.009  -0.005  -0.016  -0.021   0.000   0.009
 -0.018  -0.006   0.015   0.000   0.027  -0.018  -0.006   0.015
  0.000  -0.027  -0.007  -0.019   0.000   0.000  -0.027  -0.007
 -0.027   0.000   0.011  -0.006  -0.019  -0.026   0.000   0.011
 total augmentation occupancy for first ion, spin component:           1
  1.544  -0.041   0.001   0.025   0.026   0.077  -0.006  -0.002   0.034  -0.010   0.082  -0.030   0.013   0.004   0.001  -0.020
 -0.041   1.404   0.033   0.062   0.003  -0.005   0.068   0.010  -0.012  -0.008   0.222  -0.069   0.019   0.000   0.004  -0.006
  0.001   0.033   1.546  -0.001   0.002  -0.002   0.011   0.073  -0.012   0.017  -0.049   0.018  -0.003  -0.008  -0.004   0.016
  0.025   0.062  -0.001   1.338   0.049   0.032  -0.011  -0.012   0.090  -0.024  -0.091   0.026  -0.001  -0.006  -0.006   0.001
  0.026   0.003   0.002   0.049   1.435  -0.010  -0.008   0.016  -0.023   0.068  -0.095   0.030  -0.003  -0.010  -0.009   0.026
  0.077  -0.005  -0.002   0.032  -0.010   0.216   0.017  -0.002  -0.044   0.004  -0.045   0.001   0.017  -0.010   0.035  -0.004
 -0.006   0.068   0.011  -0.011  -0.008   0.017   0.263  -0.022  -0.004   0.006  -0.109   0.006  -0.001   0.052  -0.010  -0.000
 -0.002   0.010   0.073  -0.012   0.016  -0.002  -0.022   0.214   0.013  -0.019   0.025  -0.001  -0.012   0.009  -0.018   0.003
  0.034  -0.012  -0.012   0.090  -0.023  -0.044  -0.004   0.013   0.260   0.008   0.043  -0.003  -0.009   0.036   0.005   0.000
 -0.010  -0.008   0.017  -0.024   0.068   0.004   0.006  -0.019   0.008   0.257   0.047  -0.003  -0.038   0.002   0.049   0.007
  0.082   0.222  -0.049  -0.091  -0.095  -0.045  -0.109   0.025   0.043   0.047   0.949  -0.141   0.083   0.013   0.066  -0.012
 -0.030  -0.069   0.018   0.026   0.030   0.001   0.006  -0.001  -0.003  -0.003  -0.141   0.023  -0.014  -0.003  -0.010   0.003
  0.013   0.019  -0.003  -0.001  -0.003   0.017  -0.001  -0.012  -0.009  -0.038   0.083  -0.014   0.029  -0.008  -0.004  -0.003
  0.004   0.000  -0.008  -0.006  -0.010  -0.010   0.052   0.009   0.036   0.002   0.013  -0.003  -0.008   0.036   0.004   0.000
  0.001   0.004  -0.004  -0.006  -0.009   0.035  -0.010  -0.018   0.005   0.049   0.066  -0.010  -0.004   0.004   0.035  -0.000
 -0.020  -0.006   0.016   0.001   0.026  -0.004  -0.000   0.003   0.000   0.007  -0.012   0.003  -0.003   0.000  -0.000   0.001
  0.001  -0.027  -0.007  -0.019   0.001   0.001  -0.008  -0.001  -0.006   0.000  -0.003   0.001   0.000  -0.003  -0.000   0.000
 -0.028   0.001   0.012  -0.005  -0.020  -0.006   0.001   0.003  -0.001  -0.007  -0.008   0.001  -0.000  -0.000  -0.003   0.000


------------------------ aborting loop because EDIFF is reached ----------------------------------------


    CHARGE:  cpu time   25.0851: real time   25.0857
    FORLOC:  cpu time    6.7609: real time    6.7610
    FORNL :  cpu time   65.4938: real time   65.5002
    STRESS:  cpu time  199.4490: real time  199.4649
    FORCOR:  cpu time   21.8865: real time   21.8884
    FORHAR:  cpu time    9.6643: real time    9.6645
    MIXING:  cpu time    3.5679: real time    3.5700
    OFIELD:  cpu time    0.0000: real time    0.0000

  FORCE on cell =-STRESS in cart. coord.  units (eV):
  Direction    XX          YY          ZZ          XY          YZ          ZX
  --------------------------------------------------------------------------------------
  Alpha Z    75.25432    75.25432    75.25432
  Ewald   49264.74152 44232.48586 45234.24922   -38.26762    33.78827 -1503.33338
  Hartree 63871.21985 59104.18461 60108.04726   -46.32566    33.03594 -1370.28083
  E(xc)   -2904.21072 -2905.09809 -2905.89732     0.05383    -0.01379    -0.88044
  Local  ************************************    85.75921   -67.23685  2858.43722
  n-local  -885.41342  -881.94799  -883.35864     0.80888    -0.40033     0.43858
  augment  4102.27555  4101.93229  4106.63859    -0.65148     0.31947     2.37357
  Kinetic  7794.13023  7808.25995  7815.68964    -1.05715     0.41290    10.86720
  Fock        0.00000     0.00000     0.00000     0.00000     0.00000     0.00000
  -------------------------------------------------------------------------------------
  Total    -108.69229  -116.42695  -112.50721     0.32002    -0.09438    -2.37809
  in kB      -6.44979    -6.90876    -6.67617     0.01899    -0.00560    -0.14112
  external pressure =       -6.68 kB  Pullay stress =        0.00 kB


 VOLUME and BASIS-vectors are now :
 -----------------------------------------------------------------------------
  energy-cutoff  :      400.00
  volume of cell :    27000.00
      direct lattice vectors                 reciprocal lattice vectors
    30.000000000  0.000000000  0.000000000     0.033333333  0.000000000  0.000000000
     0.000000000 30.000000000  0.000000000     0.000000000  0.033333333  0.000000000
     0.000000000  0.000000000 30.000000000     0.000000000  0.000000000  0.033333333

  length of vectors
    30.000000000 30.000000000 30.000000000     0.033333333  0.033333333  0.033333333


 FORCES acting on ions
    electron-ion (+dipol)            ewald-force                    non-local-force                 convergence-correction
 -----------------------------------------------------------------------------------------------
   0.385E+03 0.978E+03 0.424E+03   -.383E+03 -.975E+03 -.424E+03   -.153E+01 -.180E+01 -.190E+00   0.110E-02 0.220E-02 0.300E-02
   -.974E+03 -.394E+03 0.419E+03   0.971E+03 0.392E+03 -.418E+03   0.183E+01 0.151E+01 -.217E+00   -.306E-02 -.530E-02 -.115E-02
   -.400E+03 0.974E+03 0.420E+03   0.397E+03 -.971E+03 -.419E+03   0.151E+01 -.181E+01 -.204E+00   0.684E-03 0.317E-02 0.181E-02
   0.959E+03 -.403E+03 0.449E+03   -.956E+03 0.401E+03 -.449E+03   -.187E+01 0.153E+01 -.214E+00   -.477E-03 -.348E-02 -.186E-02
   -.594E+01 0.589E+03 0.970E+03   0.594E+01 -.588E+03 -.966E+03   -.408E-02 -.280E+00 -.235E+01   0.211E-02 0.853E-03 0.253E-02
   -.171E+02 0.595E+03 -.968E+03   0.171E+02 -.594E+03 0.964E+03   0.249E-01 -.324E+00 0.235E+01   -.103E-04 -.402E-02 -.329E-02
   -.782E+01 0.114E+04 0.361E+01   0.783E+01 -.113E+04 -.363E+01   -.118E-01 -.310E+01 0.167E-01   -.271E-03 0.386E-02 0.150E-02
   0.112E+04 0.534E+01 0.142E+03   -.112E+04 -.532E+01 -.142E+03   -.284E+01 -.122E-02 -.388E-01   -.125E-02 -.448E-02 -.368E-03
   -.113E+04 0.703E-01 0.174E+01   0.113E+04 -.660E-01 -.173E+01   0.311E+01 -.438E-03 -.495E-02   -.335E-02 -.378E-02 -.795E-03
   -.822E+01 -.114E+04 0.379E+01   0.823E+01 0.114E+04 -.381E+01   -.125E-01 0.310E+01 0.155E-01   0.238E-02 0.213E-02 -.565E-02
   -.581E+03 0.579E+03 0.815E+03   0.579E+03 -.577E+03 -.812E+03   0.156E+01 -.155E+01 -.220E+01   0.129E-02 0.252E-02 0.315E-02
   -.585E+03 0.581E+03 -.813E+03   0.583E+03 -.578E+03 0.810E+03   0.154E+01 -.156E+01 0.221E+01   0.118E-02 -.133E-02 -.331E-02
   0.571E+03 -.583E+03 0.824E+03   -.569E+03 0.580E+03 -.820E+03   -.155E+01 0.155E+01 -.218E+01   0.210E-02 0.115E-03 -.258E-02
   0.541E+03 -.610E+03 -.828E+03   -.539E+03 0.607E+03 0.825E+03   -.163E+01 0.155E+01 0.230E+01   -.247E-02 -.720E-03 0.408E-02
   0.572E+03 0.583E+03 0.823E+03   -.569E+03 -.581E+03 -.820E+03   -.155E+01 -.155E+01 -.218E+01   0.114E-02 -.118E-02 0.177E-02
   0.544E+03 0.609E+03 -.827E+03   -.542E+03 -.607E+03 0.823E+03   -.162E+01 -.153E+01 0.228E+01   0.909E-03 -.462E-02 -.156E-02
   -.581E+03 -.579E+03 0.815E+03   0.579E+03 0.577E+03 -.812E+03   0.156E+01 0.155E+01 -.220E+01   -.183E-03 -.263E-02 0.978E-03
   -.585E+03 -.581E+03 -.813E+03   0.583E+03 0.578E+03 0.810E+03   0.154E+01 0.156E+01 0.220E+01   0.446E-02 -.205E-02 0.147E-02
   0.377E+03 0.986E+03 -.414E+03   -.375E+03 -.983E+03 0.413E+03   -.146E+01 -.186E+01 0.218E+00   0.746E-03 0.513E-03 -.205E-02
   -.975E+03 -.395E+03 -.415E+03   0.972E+03 0.392E+03 0.415E+03   0.184E+01 0.151E+01 0.202E+00   0.259E-02 -.582E-02 -.302E-02
   -.329E+03 0.322E+03 0.458E+03   0.329E+03 -.323E+03 -.459E+03   -.381E+00 0.361E+00 0.526E+00   0.264E-02 0.137E-02 0.212E-02
   0.959E+03 0.404E+03 0.448E+03   -.956E+03 -.402E+03 -.448E+03   -.186E+01 -.153E+01 -.212E+00   0.188E-02 -.536E-02 0.650E-03
   -.400E+03 -.974E+03 0.420E+03   0.398E+03 0.971E+03 -.420E+03   0.151E+01 0.181E+01 -.203E+00   0.206E-02 -.301E-02 -.283E-02
   -.403E+03 0.976E+03 -.415E+03   0.401E+03 -.973E+03 0.414E+03   0.149E+01 -.182E+01 0.230E+00   -.134E-02 0.150E-02 -.208E-02
   0.796E+03 -.548E+03 -.363E+03   -.797E+03 0.543E+03 0.364E+03   0.147E+01 0.371E+01 -.800E+00   -.332E-02 -.369E-02 0.491E-03
   -.974E+03 0.395E+03 0.418E+03   0.971E+03 -.392E+03 -.418E+03   0.183E+01 -.151E+01 -.216E+00   -.219E-02 -.184E-03 0.103E-02
   0.385E+03 -.978E+03 0.425E+03   -.383E+03 0.975E+03 -.424E+03   -.154E+01 0.180E+01 -.188E+00   0.485E-02 0.432E-03 -.225E-02
   0.306E+03 0.325E+03 0.467E+03   -.307E+03 -.326E+03 -.468E+03   0.406E+00 0.338E+00 0.482E+00   0.409E-02 -.289E-02 0.268E-02
   -.148E+02 0.645E+03 0.672E+01   0.148E+02 -.646E+03 -.671E+01   0.814E-02 0.719E+00 0.154E-03   0.600E-03 0.908E-04 -.313E-03
   -.590E+03 0.666E-01 0.967E+03   0.589E+03 -.655E-01 -.964E+03   0.313E+00 0.118E-03 -.235E+01   0.614E-04 -.110E-02 0.398E-02
   -.594E+03 0.131E+00 -.965E+03   0.594E+03 -.126E+00 0.962E+03   0.263E+00 -.257E-03 0.236E+01   0.367E-02 -.449E-02 -.316E-02
   0.578E+03 0.246E+00 0.979E+03   -.578E+03 -.240E+00 -.975E+03   -.291E+00 -.149E-02 -.237E+01   0.250E-02 -.393E-02 -.263E-03
   0.504E+03 0.270E+01 -.100E+04   -.503E+03 -.271E+01 0.100E+04   -.488E+00 0.734E-02 0.213E+01   -.114E-02 -.581E-02 0.126E-02
   0.736E+03 0.784E+03 0.205E+02   -.734E+03 -.782E+03 -.205E+02   -.120E+01 -.120E+01 -.632E-01   0.316E-02 -.276E-02 0.342E-05
   -.766E+03 -.762E+03 0.264E+01   0.764E+03 0.760E+03 -.263E+01   0.115E+01 0.114E+01 -.382E-02   0.122E-02 -.502E-02 -.552E-02
   -.766E+03 0.762E+03 0.258E+01   0.764E+03 -.760E+03 -.258E+01   0.115E+01 -.114E+01 -.501E-02   -.957E-04 0.311E-02 -.112E-02
   0.734E+03 -.784E+03 0.221E+02   -.732E+03 0.782E+03 -.220E+02   -.120E+01 0.122E+01 -.832E-01   0.891E-03 -.975E-03 -.317E-02
   -.690E+01 0.123E+00 0.108E+04   0.692E+01 -.122E+00 -.107E+04   -.180E-01 0.209E-03 -.161E+01   0.471E-02 -.124E-02 0.310E-02
   -.242E+02 0.411E+00 -.107E+04   0.241E+02 -.406E+00 0.107E+04   0.660E-01 -.726E-03 0.162E+01   0.206E-02 -.507E-02 -.228E-03
   0.825E+03 0.539E+03 -.372E+03   -.825E+03 -.535E+03 0.372E+03   0.258E+00 -.275E+01 -.455E+00   0.102E-02 -.602E-02 -.104E-02
   -.404E+03 -.976E+03 -.415E+03   0.401E+03 0.973E+03 0.414E+03   0.150E+01 0.182E+01 0.229E+00   0.343E-02 0.379E-03 -.237E-02
   -.335E+03 0.324E+03 -.451E+03   0.336E+03 -.324E+03 0.452E+03   -.396E+00 0.373E+00 -.516E+00   0.278E-02 -.420E-02 -.554E-02
   0.306E+03 -.325E+03 0.468E+03   -.306E+03 0.325E+03 -.468E+03   0.406E+00 -.338E+00 0.478E+00   0.830E-02 -.479E-02 -.746E-03
   0.280E+03 0.335E+03 -.448E+03   -.280E+03 -.335E+03 0.448E+03   0.421E+00 0.443E+00 -.540E+00   0.220E-02 -.801E-02 -.420E-02
   -.975E+03 0.395E+03 -.415E+03   0.972E+03 -.393E+03 0.415E+03   0.184E+01 -.151E+01 0.201E+00   0.522E-04 -.143E-02 -.372E-02
   0.376E+03 -.987E+03 -.414E+03   -.374E+03 0.984E+03 0.413E+03   -.146E+01 0.187E+01 0.219E+00   0.561E-03 0.225E-02 -.141E-02
   -.329E+03 -.322E+03 0.458E+03   0.330E+03 0.323E+03 -.459E+03   -.380E+00 -.362E+00 0.526E+00   0.218E-02 -.436E-02 -.110E-02
   0.590E+03 0.159E+01 0.419E+02   -.590E+03 -.158E+01 -.422E+02   0.500E+00 0.146E-02 0.234E+00   0.376E-02 -.828E-02 -.228E-02
   -.646E+03 0.122E+00 0.305E+01   0.647E+03 -.116E+00 -.307E+01   -.717E+00 -.210E-03 0.167E-01   0.727E-03 -.522E-02 -.385E-02
   -.607E+01 -.589E+03 0.970E+03   0.608E+01 0.588E+03 -.966E+03   -.594E-02 0.279E+00 -.235E+01   0.565E-02 -.217E-02 0.966E-03
   -.178E+02 -.594E+03 -.968E+03   0.178E+02 0.594E+03 0.964E+03   0.215E-01 0.322E+00 0.236E+01   0.231E-02 -.183E-02 0.445E-02
   -.205E+02 0.351E+00 0.920E+01   0.204E+02 -.346E+00 -.919E+01   0.274E-01 -.134E-02 0.944E-03   0.531E-02 -.528E-02 -.535E-02
   0.278E+03 -.333E+03 -.448E+03   -.278E+03 0.334E+03 0.448E+03   0.442E+00 -.456E+00 -.543E+00   0.324E-02 -.653E-02 -.326E-02
   -.335E+03 -.323E+03 -.451E+03   0.336E+03 0.324E+03 0.452E+03   -.397E+00 -.373E+00 -.516E+00   0.368E-02 -.715E-02 -.536E-02
   -.154E+02 -.645E+03 0.697E+01   0.153E+02 0.646E+03 -.695E+01   0.107E-01 -.716E+00 -.422E-03   0.502E-02 -.494E-02 -.810E-02
   0.269E+03 0.621E+01 -.124E+03   -.249E+03 -.653E+01 0.115E+03   -.127E+02 0.138E+00 0.524E+01   -.881E-03 -.157E-02 0.148E-03
   0.770E+03 -.121E+02 -.356E+03   -.830E+03 0.130E+02 0.383E+03   0.547E+02 -.101E+01 -.239E+02   -.852E-03 -.147E-02 0.203E-03
 -----------------------------------------------------------------------------------------------
   -.473E+02 0.265E-01 0.203E+02   -.682E-12 -.878E-12 -.171E-12   0.472E+02 0.112E+00 -.203E+02   0.844E-01 -.134E+00 -.535E-01
 
 
 POSITION                                       TOTAL-FORCE (eV/Angst)
 -----------------------------------------------------------------------------------
     13.37281      9.84801     12.50759         0.732659      1.106950      0.275872
     20.15199     16.62719     12.50759        -1.110973     -0.706082      0.287431
     16.62719      9.84801     12.50759        -0.712742      1.107204      0.287274
      9.84801     16.62719     12.50759         1.124954     -0.705521      0.246009
     15.00000     11.47521     10.20639         0.003989      0.404348      1.288035
     15.00000     11.47521     19.79360        -0.014821      0.415418     -1.278617
     15.00000      8.28283     15.00000         0.003467      1.520960     -0.007805
      8.28283     15.00000     15.00000         1.442081      0.007709      0.189469
     21.71717     15.00000     15.00000        -1.516961     -0.000007      0.007063
     15.00000     21.71717     15.00000         0.003930     -1.520861     -0.007189
     18.35858     11.64142     10.25025        -0.763567      0.752957      1.074360
     18.35858     11.64142     19.74975        -0.752134      0.762829     -1.076862
     11.64142     18.35858     10.25025         0.762565     -0.755041      1.069225
     11.64142     18.35858     19.74975         0.790022     -0.727539     -1.075852
     11.64142     11.64142     10.25025         0.763646      0.753621      1.069046
     11.64142     11.64142     19.74975         0.786293      0.734155     -1.081256
     18.35858     18.35858     10.25025        -0.763401     -0.752809      1.074141
     18.35858     18.35858     19.74975        -0.751970     -0.763042     -1.076891
     13.37281      9.84801     17.49241         0.698120      1.115421     -0.285308
     20.15199     16.62719     17.49241        -1.118487     -0.701523     -0.279522
     16.73751     13.26249     12.54279         0.107296     -0.113288     -0.153312
      9.84801     13.37281     12.50759         1.126613      0.705005      0.245144
     16.62719     20.15199     12.50759        -0.712375     -1.107843      0.286726
     16.62719      9.84801     17.49241        -0.703810      1.108276     -0.294662
      9.84801     16.62719     17.49241         0.381624     -1.486746     -0.046852
     20.15199     13.37281     12.50759        -1.110885      0.706143      0.287116
     13.37281     20.15199     12.50759         0.735470     -1.106040      0.273537
     13.26249     13.26249     12.54279        -0.111942     -0.111127     -0.157974
     15.00000     11.52498     15.00000        -0.006735     -0.233039      0.004372
     18.52479     15.00000     10.20639        -0.410181     -0.000033      1.282032
     18.52479     15.00000     19.79360        -0.397178      0.000250     -1.290544
     11.47521     15.00000     10.20640         0.398138      0.000068      1.293368
     11.47521     15.00000     19.79360         0.529112     -0.003276     -1.196085
     11.49535     11.49535     15.00000         0.866103      0.793626     -0.018821
     18.50465     18.50465     15.00000        -0.828612     -0.825308     -0.001580
     18.50465     11.49535     15.00000        -0.828706      0.825025     -0.001332
     11.49535     18.50465     15.00000         0.871174     -0.791206     -0.020873
     15.00000     15.00000     10.04368         0.002186     -0.000067      1.178533
     15.00000     15.00000     19.95633        -0.016513     -0.001468     -1.173772
      9.84801     13.37281     17.49241         0.231459      1.692857      0.001422
     16.62719     20.15199     17.49241        -0.704373     -1.107920     -0.294531
     16.73751     13.26249     17.45721         0.132449     -0.110062      0.158224
     13.26249     16.73751     12.54279        -0.114251      0.109254     -0.157039
     13.26249     13.26249     17.45721        -0.067449     -0.127816      0.145847
     20.15199     13.37281     17.49241        -1.118911      0.701510     -0.279672
     13.37281     20.15199     17.49241         0.697730     -1.116218     -0.285524
     16.73751     16.73751     12.54279         0.106678      0.113075     -0.152441
     11.52498     15.00000     15.00000        -0.121438     -0.003286     -0.083840
     18.47502     15.00000     15.00000         0.228337      0.000099     -0.004598
     15.00000     18.52480     10.20639         0.004854     -0.404227      1.288204
     15.00000     18.52480     19.79360        -0.014274     -0.415594     -1.279272
     15.00000     15.00000     15.00000        -0.010748     -0.001089      0.007622
     13.26249     16.73751     17.45721        -0.065108      0.130328      0.141998
     16.73751     16.73751     17.45721         0.135293      0.109743      0.159296
     15.00000     18.47502     15.00000        -0.007658      0.233135      0.005416
      8.50524     15.10646     17.84527         6.943181     -0.185164     -3.150412
      7.47216     15.12340     18.29785        -5.753221     -0.026724      2.585651
 -----------------------------------------------------------------------------------
    total drift:                               -0.002665      0.004626     -0.008280


--------------------------------------------------------------------------------------------------------



  FREE ENERGIE OF THE ION-ELECTRON SYSTEM (eV)
  ---------------------------------------------------
  free  energy   TOTEN  =      -175.48806464 eV

  energy  without entropy=     -175.38426319  energy(sigma->0) =     -175.46211428
 


--------------------------------------------------------------------------------------------------------


    POTLOK:  cpu time   13.4757: real time   13.4760


--------------------------------------------------------------------------------------------------------


     LOOP+:  cpu time18319.8217: real time18320.3939
    4ORBIT:  cpu time    0.0000: real time    0.0000

 total amount of memory used by VASP MPI-rank0  5486941. kBytes
=======================================================================

   base      :      30000. kBytes
   nonlr-proj:      17126. kBytes
   fftplans  :     924480. kBytes
   grid      :    1872000. kBytes
   one-center:        886. kBytes
   wavefun   :    2642449. kBytes
 
  
  
 General timing and accounting informations for this job:
 ========================================================
  
                  Total CPU time used (sec):    18393.504
                            User time (sec):    17403.051
                          System time (sec):      990.454
                         Elapsed time (sec):    18394.140
  
                   Maximum memory used (kb):     7179160.
                   Average memory used (kb):           0.
  
                          Minor page faults:    809350444
                          Major page faults:            0
                 Voluntary context switches:          675
