<?xml version="1.0" encoding="ISO-8859-1"?>
<modeling>
 <generator>
  <i name="program" type="string">vasp </i>
  <i name="version" type="string">5.4.4.18Apr17-6-g9f103f2a35  </i>
  <i name="subversion" type="string">(build Sep 03 2018 23:53:05) complex            parallel </i>
  <i name="platform" type="string">LinuxIFC </i>
  <i name="date" type="string">2021 11 25 </i>
  <i name="time" type="string">16:48:01 </i>
 </generator>
 <incar>
  <i type="string" name="SYSTEM"> 6_Pd100_top_free_z(O)</i>
  <i type="int" name="ISTART">     0</i>
  <i type="string" name="PREC">normal   			! encut=max(enmax), ngx,y,z</i>
  <i type="string" name="ALGO"> Fast     			! Mix RMM-DIIS and Dav</i>
  <i type="logical" name="ADDGRID"> F  </i>
  <i type="int" name="ISPIN">     1</i>
  <i type="int" name="ICHARG">     2</i>
  <i type="int" name="NELM">   100</i>
  <i type="int" name="NELMIN">     6</i>
  <i type="int" name="IBRION">     2</i>
  <i name="EDIFF">      0.00010000</i>
  <i name="EDIFFG">     -0.05000000</i>
  <i type="int" name="NSW">     0</i>
  <i type="int" name="ISIF">     2</i>
  <i type="int" name="ISYM">     2</i>
  <i name="ENCUT">    400.00000000</i>
  <i type="string" name="LREAL"> Auto     			! Auto or A projection done</i>
  <i type="int" name="ISMEAR">     2</i>
  <i name="SIGMA">      0.20000000</i>
  <i type="logical" name="LWAVE"> F  </i>
  <i type="logical" name="LCHARG"> F  </i>
  <v type="int" name="KPOINT_BSE">    -1     0     0     0</v>
  <i type="int" name="MAXMEM"> 10000</i>
  <i type="int" name="NELM">   100</i>
  <i type="string" name="GGA"> RP         			! Revised PBE</i>
 </incar>
 <structure name="primitive_cell" >
  <crystal>
   <varray name="basis" >
    <v>      30.00000000       0.00000000       0.00000000 </v>
    <v>       0.00000000      30.00000000       0.00000000 </v>
    <v>       0.00000000       0.00000000      30.00000000 </v>
   </varray>
   <i name="volume">  27000.00000000 </i>
   <varray name="rec_basis" >
    <v>       0.03333333       0.00000000       0.00000000 </v>
    <v>       0.00000000       0.03333333       0.00000000 </v>
    <v>       0.00000000       0.00000000       0.03333333 </v>
   </varray>
  </crystal>
  <varray name="positions" >
   <v>       0.44576020       0.32826710       0.41691983 </v>
   <v>      -0.44576020       0.32826710       0.41691983 </v>
   <v>      -0.50000000       0.38250690       0.34021317 </v>
   <v>      -0.50000000       0.27609440      -0.50000000 </v>
   <v>       0.38804720       0.38804720       0.34167483 </v>
   <v>      -0.50000000       0.38416601      -0.50000000 </v>
   <v>       0.44208300       0.44208300       0.41809300 </v>
   <v>       0.38317830       0.38317830      -0.50000000 </v>
   <v>      -0.44208300       0.44208300       0.41809300 </v>
   <v>       0.44576020       0.32826710      -0.41691977 </v>
   <v>       0.32826705       0.44576024       0.41691983 </v>
   <v>      -0.38804720       0.38804720       0.34167483 </v>
   <v>      -0.38317830       0.38317830      -0.50000000 </v>
   <v>      -0.50000000      -0.50000000       0.33478917 </v>
   <v>      -0.50000000      -0.50000000      -0.50000000 </v>
   <v>      -0.44576020       0.32826710      -0.41691977 </v>
   <v>       0.38250685      -0.49999995       0.34021317 </v>
   <v>       0.44208300       0.44208300      -0.41809297 </v>
   <v>       0.38416599      -0.49999998      -0.50000000 </v>
   <v>      -0.44208300       0.44208300      -0.41809297 </v>
   <v>       0.44208298      -0.44208298       0.41809300 </v>
   <v>       0.32826705       0.44576024      -0.41691977 </v>
   <v>      -0.50000000       0.38250690      -0.34021320 </v>
   <v>       0.32826712      -0.44576022       0.41691983 </v>
   <v>      -0.38250685      -0.49999995       0.34021317 </v>
   <v>      -0.32826705       0.44576024       0.41691983 </v>
   <v>       0.27609443       0.49999998      -0.50000000 </v>
   <v>       0.38804720       0.38804720      -0.34167487 </v>
   <v>      -0.38416599      -0.49999998      -0.50000000 </v>
   <v>      -0.44208298      -0.44208298       0.41809300 </v>
   <v>       0.44208298      -0.44208298      -0.41809297 </v>
   <v>       0.28350807      -0.49645127      -0.40515770 </v>
   <v>      -0.38804720       0.38804720      -0.34167487 </v>
   <v>       0.38804722      -0.38804722       0.34167483 </v>
   <v>       0.38250685      -0.49999995      -0.34021320 </v>
   <v>       0.32826712      -0.44576022      -0.41691977 </v>
   <v>      -0.32826705       0.44576024      -0.41691977 </v>
   <v>       0.50000000      -0.38250681       0.34021317 </v>
   <v>      -0.50000000      -0.38416596      -0.50000000 </v>
   <v>      -0.44208298      -0.44208298      -0.41809297 </v>
   <v>      -0.50000000      -0.50000000      -0.33478913 </v>
   <v>       0.38317828      -0.38317828      -0.50000000 </v>
   <v>      -0.32826712      -0.44576022       0.41691983 </v>
   <v>       0.24907187      -0.49588680      -0.39007163 </v>
   <v>      -0.27609443       0.49999998      -0.50000000 </v>
   <v>      -0.38804722      -0.38804722       0.34167483 </v>
   <v>      -0.38250685      -0.49999995      -0.34021320 </v>
   <v>       0.44576027      -0.32826707       0.41691983 </v>
   <v>      -0.38317828      -0.38317828      -0.50000000 </v>
   <v>      -0.32826712      -0.44576022      -0.41691977 </v>
   <v>      -0.44576027      -0.32826707       0.41691983 </v>
   <v>       0.38804722      -0.38804722      -0.34167487 </v>
   <v>      -0.50000000      -0.38250681      -0.34021320 </v>
   <v>       0.44576027      -0.32826707      -0.41691977 </v>
   <v>      -0.44576027      -0.32826707      -0.41691977 </v>
   <v>      -0.50000000      -0.27609445       0.50000000 </v>
   <v>      -0.38804722      -0.38804722      -0.34167487 </v>
  </varray>
 </structure>
 <varray name="primitive_index" >
  <v type="int" >        1 </v>
  <v type="int" >        3 </v>
  <v type="int" >        5 </v>
  <v type="int" >        7 </v>
  <v type="int" >       15 </v>
  <v type="int" >       29 </v>
  <v type="int" >       28 </v>
  <v type="int" >       34 </v>
  <v type="int" >       21 </v>
  <v type="int" >       19 </v>
  <v type="int" >       22 </v>
  <v type="int" >       11 </v>
  <v type="int" >       36 </v>
  <v type="int" >       38 </v>
  <v type="int" >       52 </v>
  <v type="int" >       24 </v>
  <v type="int" >       32 </v>
  <v type="int" >       44 </v>
  <v type="int" >       48 </v>
  <v type="int" >       42 </v>
  <v type="int" >       43 </v>
  <v type="int" >       40 </v>
  <v type="int" >        6 </v>
  <v type="int" >        4 </v>
  <v type="int" >       30 </v>
  <v type="int" >       26 </v>
  <v type="int" >        8 </v>
  <v type="int" >       16 </v>
  <v type="int" >       49 </v>
  <v type="int" >       47 </v>
  <v type="int" >       53 </v>
  <v type="int" >       56 </v>
  <v type="int" >       12 </v>
  <v type="int" >       13 </v>
  <v type="int" >       33 </v>
  <v type="int" >       25 </v>
  <v type="int" >       45 </v>
  <v type="int" >       50 </v>
  <v type="int" >       55 </v>
  <v type="int" >       54 </v>
  <v type="int" >       39 </v>
  <v type="int" >       37 </v>
  <v type="int" >        2 </v>
  <v type="int" >       57 </v>
  <v type="int" >        9 </v>
  <v type="int" >       17 </v>
  <v type="int" >       31 </v>
  <v type="int" >       27 </v>
  <v type="int" >       35 </v>
  <v type="int" >       20 </v>
  <v type="int" >       23 </v>
  <v type="int" >       14 </v>
  <v type="int" >       51 </v>
  <v type="int" >       46 </v>
  <v type="int" >       41 </v>
  <v type="int" >       10 </v>
  <v type="int" >       18 </v>
 </varray>
 <kpoints>
  <generation param="Monkhorst-Pack">
   <v type="int" name="divisions">       1        1        1 </v>
   <v name="usershift">      0.00000000       0.00000000       0.00000000 </v>
   <v name="genvec1">      1.00000000       0.00000000       0.00000000 </v>
   <v name="genvec2">      0.00000000       1.00000000       0.00000000 </v>
   <v name="genvec3">      0.00000000       0.00000000       1.00000000 </v>
   <v name="shift">      0.00000000       0.00000000       0.00000000 </v>
  </generation>
  <varray name="kpointlist" >
   <v>       0.00000000       0.00000000       0.00000000 </v>
  </varray>
  <varray name="weights" >
   <v>       1.00000000 </v>
  </varray>
 </kpoints>
 <parameters>
  <separator name="general" >
   <i type="string" name="SYSTEM">6_Pd100_top_free_z(O)</i>
   <i type="logical" name="LCOMPAT"> F  </i>
  </separator>
  <separator name="electronic" >
   <i type="string" name="PREC">normal</i>
   <i name="ENMAX">    400.00000000</i>
   <i name="ENAUG">    644.87300000</i>
   <i name="EDIFF">      0.00010000</i>
   <i type="int" name="IALGO">    68</i>
   <i type="int" name="IWAVPR">    10</i>
   <i type="int" name="NBANDS">   336</i>
   <i name="NELECT">    560.00000000</i>
   <i type="int" name="TURBO">     0</i>
   <i type="int" name="IRESTART">     0</i>
   <i type="int" name="NREBOOT">     0</i>
   <i type="int" name="NMIN">     0</i>
   <i name="EREF">      0.00000000</i>
   <separator name="electronic smearing" >
    <i type="int" name="ISMEAR">     2</i>
    <i name="SIGMA">      0.20000000</i>
    <i name="KSPACING">      0.50000000</i>
    <i type="logical" name="KGAMMA"> T  </i>
   </separator>
   <separator name="electronic projectors" >
    <i type="logical" name="LREAL"> T  </i>
    <v name="ROPT">     -0.00050000     -0.00050000     -0.00050000</v>
    <i type="int" name="LMAXPAW">  -100</i>
    <i type="int" name="LMAXMIX">     2</i>
    <i type="logical" name="NLSPLINE"> F  </i>
   </separator>
   <separator name="electronic startup" >
    <i type="int" name="ISTART">     0</i>
    <i type="int" name="ICHARG">     2</i>
    <i type="int" name="INIWAV">     1</i>
   </separator>
   <separator name="electronic spin" >
    <i type="int" name="ISPIN">     1</i>
    <i type="logical" name="LNONCOLLINEAR"> F  </i>
    <v name="MAGMOM">      1.00000000      1.00000000      1.00000000      1.00000000      1.00000000      1.00000000      1.00000000      1.00000000      1.00000000      1.00000000      1.00000000      1.00000000      1.00000000      1.00000000      1.00000000      1.00000000      1.00000000      1.00000000      1.00000000      1.00000000
      1.00000000      1.00000000      1.00000000      1.00000000      1.00000000      1.00000000      1.00000000      1.00000000      1.00000000      1.00000000      1.00000000      1.00000000      1.00000000      1.00000000      1.00000000      1.00000000      1.00000000      1.00000000      1.00000000      1.00000000
      1.00000000      1.00000000      1.00000000      1.00000000      1.00000000      1.00000000      1.00000000      1.00000000      1.00000000      1.00000000      1.00000000      1.00000000      1.00000000      1.00000000      1.00000000      1.00000000      1.00000000</v>
    <i name="NUPDOWN">     -1.00000000</i>
    <i type="logical" name="LSORBIT"> F  </i>
    <v name="SAXIS">      0.00000000      0.00000000      1.00000000</v>
    <i type="logical" name="LSPIRAL"> F  </i>
    <v name="QSPIRAL">      0.00000000      0.00000000      0.00000000</v>
    <i type="logical" name="LZEROZ"> F  </i>
   </separator>
   <separator name="electronic exchange-correlation" >
    <i type="logical" name="LASPH"> F  </i>
    <i type="logical" name="LMETAGGA"> F  </i>
   </separator>
   <separator name="electronic convergence" >
    <i type="int" name="NELM">   100</i>
    <i type="int" name="NELMDL">    -5</i>
    <i type="int" name="NELMIN">     6</i>
    <i name="ENINI">    400.00000000</i>
    <separator name="electronic convergence detail" >
     <i type="logical" name="LDIAG"> T  </i>
     <i type="logical" name="LSUBROT"> F  </i>
     <i name="WEIMIN">      0.00000000</i>
     <i name="EBREAK">      0.00000007</i>
     <i name="DEPER">      0.30000000</i>
     <i type="int" name="NRMM">     4</i>
     <i name="TIME">      0.40000000</i>
    </separator>
   </separator>
   <separator name="electronic mixer" >
    <i name="AMIX">      0.40000000</i>
    <i name="BMIX">      1.00000000</i>
    <i name="AMIN">      0.10000000</i>
    <i name="AMIX_MAG">      1.60000000</i>
    <i name="BMIX_MAG">      1.00000000</i>
    <separator name="electronic mixer details" >
     <i type="int" name="IMIX">     4</i>
     <i type="logical" name="MIXFIRST"> F  </i>
     <i type="int" name="MAXMIX">   -45</i>
     <i name="WC">    100.00000000</i>
     <i type="int" name="INIMIX">     1</i>
     <i type="int" name="MIXPRE">     1</i>
     <i type="int" name="MREMOVE">     5</i>
    </separator>
   </separator>
   <separator name="electronic dipolcorrection" >
    <i type="logical" name="LDIPOL"> F  </i>
    <i type="logical" name="LMONO"> F  </i>
    <i type="int" name="IDIPOL">     0</i>
    <i name="EPSILON">      1.00000000</i>
    <v name="DIPOL">   -100.00000000   -100.00000000   -100.00000000</v>
    <i name="EFIELD">      0.00000000</i>
   </separator>
  </separator>
  <separator name="grids" >
   <i type="int" name="NGX">   150</i>
   <i type="int" name="NGY">   150</i>
   <i type="int" name="NGZ">   150</i>
   <i type="int" name="NGXF">   300</i>
   <i type="int" name="NGYF">   300</i>
   <i type="int" name="NGZF">   300</i>
   <i type="logical" name="ADDGRID"> F  </i>
  </separator>
  <separator name="ionic" >
   <i type="int" name="NSW">     0</i>
   <i type="int" name="IBRION">    -1</i>
   <i type="int" name="MDALGO">     0</i>
   <i type="int" name="ISIF">     2</i>
   <i name="PSTRESS">      0.00000000</i>
   <i name="EDIFFG">     -0.05000000</i>
   <i type="int" name="NFREE">     1</i>
   <i name="POTIM">      0.50000000</i>
   <i name="SMASS">     -3.00000000</i>
   <i name="SCALEE">      1.00000000</i>
  </separator>
  <separator name="ionic md" >
   <i name="TEBEG">      0.00010000</i>
   <i name="TEEND">      0.00010000</i>
   <i type="int" name="NBLOCK">     1</i>
   <i type="int" name="KBLOCK">     1</i>
   <i type="int" name="NPACO">   256</i>
   <i name="APACO">     16.00000000</i>
  </separator>
  <separator name="symmetry" >
   <i type="int" name="ISYM">     2</i>
   <i name="SYMPREC">      0.00001000</i>
  </separator>
  <separator name="dos" >
   <i type="int" name="LORBIT">     0</i>
   <v name="RWIGS">     -1.00000000     -1.00000000     -1.00000000</v>
   <i type="int" name="NEDOS">   301</i>
   <i name="EMIN">     10.00000000</i>
   <i name="EMAX">    -10.00000000</i>
   <i name="EFERMI">      0.00000000</i>
  </separator>
  <separator name="writing" >
   <i type="int" name="NWRITE">     2</i>
   <i type="logical" name="LWAVE"> F  </i>
   <i type="logical" name="LDOWNSAMPLE"> F  </i>
   <i type="logical" name="LCHARG"> F  </i>
   <i type="logical" name="LPARD"> F  </i>
   <i type="logical" name="LVTOT"> F  </i>
   <i type="logical" name="LVHAR"> F  </i>
   <i type="logical" name="LELF"> F  </i>
   <i type="logical" name="LOPTICS"> F  </i>
   <v name="STM">      0.00000000      0.00000000      0.00000000      0.00000000      0.00000000      0.00000000      0.00000000</v>
  </separator>
  <separator name="performance" >
   <i type="int" name="NPAR">     1</i>
   <i type="int" name="NSIM">     4</i>
   <i type="int" name="NBLK">    -1</i>
   <i type="logical" name="LPLANE"> T  </i>
   <i type="logical" name="LSCALAPACK"> T  </i>
   <i type="logical" name="LSCAAWARE"> F  </i>
   <i type="logical" name="LSCALU"> F  </i>
   <i type="logical" name="LASYNC"> F  </i>
   <i type="logical" name="LORBITALREAL"> F  </i>
  </separator>
  <separator name="miscellaneous" >
   <i type="int" name="IDIOT">     3</i>
   <i type="int" name="ISPECIAL">     0</i>
   <i type="logical" name="LMUSIC"> F  </i>
   <v name="POMASS">    106.42000000     12.01100000     16.00000000</v>
   <v name="DARWINR">      0.00000000      0.00000000      0.00000000</v>
   <v name="DARWINV">      1.00000000      1.00000000      1.00000000</v>
   <i type="logical" name="LCORR"> T  </i>
  </separator>
  <i type="logical" name="GGA_COMPAT"> T  </i>
  <i type="logical" name="LBERRY"> F  </i>
  <i type="int" name="ICORELEVEL">     0</i>
  <i type="logical" name="LDAU"> F  </i>
  <i type="int" name="I_CONSTRAINED_M">     0</i>
  <separator name="electronic exchange-correlation" >
   <i type="string" name="GGA">RP</i>
   <i type="int" name="VOSKOWN">     0</i>
   <i type="logical" name="LHFCALC"> F  </i>
   <i type="string" name="PRECFOCK"></i>
   <i type="logical" name="LSYMGRAD"> F  </i>
   <i type="logical" name="LHFONE"> F  </i>
   <i type="logical" name="LRHFCALC"> F  </i>
   <i type="logical" name="LTHOMAS"> F  </i>
   <i type="logical" name="LMODELHF"> F  </i>
   <i name="ENCUT4O">     -1.00000000</i>
   <i type="int" name="EXXOEP">     0</i>
   <i type="int" name="FOURORBIT">     0</i>
   <i name="AEXX">      0.00000000</i>
   <i name="HFALPHA">      0.00000000</i>
   <i name="MCALPHA">      0.00000000</i>
   <i name="ALDAX">      1.00000000</i>
   <i name="AGGAX">      1.00000000</i>
   <i name="ALDAC">      1.00000000</i>
   <i name="AGGAC">      1.00000000</i>
   <i type="int" name="NKREDX">     1</i>
   <i type="int" name="NKREDY">     1</i>
   <i type="int" name="NKREDZ">     1</i>
   <i type="logical" name="SHIFTRED"> F  </i>
   <i type="logical" name="ODDONLY"> F  </i>
   <i type="logical" name="EVENONLY"> F  </i>
   <i type="int" name="LMAXFOCK">     0</i>
   <i type="int" name="NMAXFOCKAE">     0</i>
   <i type="logical" name="LFOCKAEDFT"> F  </i>
   <i name="HFSCREEN">      0.00000000</i>
   <i name="HFSCREENC">      0.00000000</i>
   <i type="int" name="NBANDSGWLOW">     0</i>
  </separator>
  <separator name="vdW DFT" >
   <i type="logical" name="LUSE_VDW"> F  </i>
   <i name="Zab_VDW">     -0.84910000</i>
   <i name="PARAM1">      0.12340000</i>
   <i name="PARAM2">      1.00000000</i>
   <i name="PARAM3">      0.00000000</i>
  </separator>
  <separator name="model GW" >
   <i type="int" name="MODEL_GW">     0</i>
   <i name="MODEL_EPS0">    284.21052632</i>
   <i name="MODEL_ALPHA">      1.00000000</i>
  </separator>
  <separator name="linear response parameters" >
   <i type="logical" name="LEPSILON"> F  </i>
   <i type="logical" name="LRPA"> F  </i>
   <i type="logical" name="LNABLA"> F  </i>
   <i type="logical" name="LVEL"> F  </i>
   <i type="int" name="KINTER">     0</i>
   <i name="CSHIFT">      0.10000000</i>
   <i name="OMEGAMAX">     -1.00000000</i>
   <i name="DEG_THRESHOLD">      0.00200000</i>
   <i name="RTIME">     -0.10000000</i>
   <i name="WPLASMAI">      0.00000000</i>
   <v name="DFIELD">      0.00000000      0.00000000      0.00000000</v>
   <v name="WPLASMA">      0.00000000      0.00000000      0.00000000      0.00000000      0.00000000      0.00000000      0.00000000      0.00000000      0.00000000</v>
  </separator>
  <separator name="orbital magnetization" >
   <i type="logical" name="NUCIND"> F  </i>
   <v name="MAGPOS">      0.00000000      0.00000000      0.00000000</v>
   <i type="logical" name="LNICSALL"> T  </i>
   <i type="logical" name="ORBITALMAG"> F  </i>
   <i type="logical" name="LMAGBLOCH"> F  </i>
   <i type="logical" name="LCHIMAG"> F  </i>
   <i type="logical" name="LGAUGE"> T  </i>
   <i type="int" name="MAGATOM">     0</i>
   <v name="MAGDIPOL">      0.00000000      0.00000000      0.00000000</v>
   <v name="AVECCONST">      0.00000000      0.00000000      0.00000000</v>
  </separator>
  <separator name="response functions" >
   <i type="logical" name="LADDER"> F  </i>
   <i type="logical" name="LRPAFORCE"> F  </i>
   <i type="logical" name="LFXC"> F  </i>
   <i type="logical" name="LHARTREE"> T  </i>
   <i type="int" name="IBSE">     0</i>
   <v type="int" name="KPOINT">    -1     0     0     0</v>
   <i type="logical" name="LTCTE"> F  </i>
   <i type="logical" name="LTETE"> F  </i>
   <i type="logical" name="LTRIPLET"> F  </i>
   <i type="logical" name="LFXCEPS"> F  </i>
   <i type="logical" name="LFXHEG"> F  </i>
   <i type="int" name="NATURALO">     2</i>
   <i type="logical" name="L2ORDER"> F  </i>
   <i type="logical" name="LMP2LT"> F  </i>
   <i type="logical" name="LUSEW"> F  </i>
   <i name="ENCUTGW">     -2.00000000</i>
   <i name="ENCUTGWSOFT">     -2.00000000</i>
   <i name="ENCUTLF">     -1.00000000</i>
   <i type="int" name="LMAXMP2">    -1</i>
   <i name="SCISSOR">      0.00000000</i>
   <i type="int" name="NOMEGA">     0</i>
   <i type="int" name="NOMEGAR">     0</i>
   <i type="int" name="NBANDSGW">    -1</i>
   <i type="int" name="NBANDSO">    -1</i>
   <i type="int" name="NBANDSV">    -1</i>
   <i type="int" name="NELM">   100</i>
   <i type="int" name="NELMHF">     1</i>
   <i type="int" name="DIM">     3</i>
   <i type="int" name="ANTIRES">     0</i>
   <i name="OMEGAMAX">    -30.00000000</i>
   <i name="OMEGAMIN">    -30.00000000</i>
   <i name="OMEGATL">   -200.00000000</i>
   <i type="int" name="OMEGAGRID">   140</i>
   <i name="CSHIFT">     -0.10000000</i>
   <i type="logical" name="SELFENERGY"> F  </i>
   <i type="logical" name="LSPECTRAL"> F  </i>
   <i type="logical" name="LSPECTRALGW"> F  </i>
   <i type="logical" name="LSINGLES"> F  </i>
   <i type="logical" name="LFERMIGW"> F  </i>
   <i type="logical" name="ODDONLYGW"> F  </i>
   <i type="logical" name="EVENONLYGW"> F  </i>
   <i type="int" name="NKREDLFX">     1</i>
   <i type="int" name="NKREDLFY">     1</i>
   <i type="int" name="NKREDLFZ">     1</i>
   <i type="int" name="MAXMEM"> 10000</i>
   <i type="int" name="TELESCOPE">     0</i>
   <i type="int" name="TAUPAR">     1</i>
   <i type="int" name="OMEGAPAR">    -1</i>
   <i name="LAMBDA">      1.00000000</i>
  </separator>
  <separator name="External order field" >
   <i name="OFIELD_KAPPA">      0.00000000</i>
   <v name="OFIELD_K">      0.00000000      0.00000000      0.00000000</v>
   <i name="OFIELD_Q6_NEAR">      0.00000000</i>
   <i name="OFIELD_Q6_FAR">      0.00000000</i>
   <i name="OFIELD_A">      0.00000000</i>
  </separator>
 </parameters>
 <atominfo>
  <atoms>      57 </atoms>
  <types>       3 </types>
  <array name="atoms" >
   <dimension dim="1">ion</dimension>
   <field type="string">element</field>
   <field type="int">atomtype</field>
   <set>
    <rc><c>Pd</c><c>   1</c></rc>
    <rc><c>Pd</c><c>   1</c></rc>
    <rc><c>Pd</c><c>   1</c></rc>
    <rc><c>Pd</c><c>   1</c></rc>
    <rc><c>Pd</c><c>   1</c></rc>
    <rc><c>Pd</c><c>   1</c></rc>
    <rc><c>Pd</c><c>   1</c></rc>
    <rc><c>Pd</c><c>   1</c></rc>
    <rc><c>Pd</c><c>   1</c></rc>
    <rc><c>Pd</c><c>   1</c></rc>
    <rc><c>Pd</c><c>   1</c></rc>
    <rc><c>Pd</c><c>   1</c></rc>
    <rc><c>Pd</c><c>   1</c></rc>
    <rc><c>Pd</c><c>   1</c></rc>
    <rc><c>Pd</c><c>   1</c></rc>
    <rc><c>Pd</c><c>   1</c></rc>
    <rc><c>Pd</c><c>   1</c></rc>
    <rc><c>Pd</c><c>   1</c></rc>
    <rc><c>Pd</c><c>   1</c></rc>
    <rc><c>Pd</c><c>   1</c></rc>
    <rc><c>Pd</c><c>   1</c></rc>
    <rc><c>Pd</c><c>   1</c></rc>
    <rc><c>Pd</c><c>   1</c></rc>
    <rc><c>Pd</c><c>   1</c></rc>
    <rc><c>Pd</c><c>   1</c></rc>
    <rc><c>Pd</c><c>   1</c></rc>
    <rc><c>Pd</c><c>   1</c></rc>
    <rc><c>Pd</c><c>   1</c></rc>
    <rc><c>Pd</c><c>   1</c></rc>
    <rc><c>Pd</c><c>   1</c></rc>
    <rc><c>Pd</c><c>   1</c></rc>
    <rc><c>Pd</c><c>   1</c></rc>
    <rc><c>Pd</c><c>   1</c></rc>
    <rc><c>Pd</c><c>   1</c></rc>
    <rc><c>Pd</c><c>   1</c></rc>
    <rc><c>Pd</c><c>   1</c></rc>
    <rc><c>Pd</c><c>   1</c></rc>
    <rc><c>Pd</c><c>   1</c></rc>
    <rc><c>Pd</c><c>   1</c></rc>
    <rc><c>Pd</c><c>   1</c></rc>
    <rc><c>Pd</c><c>   1</c></rc>
    <rc><c>Pd</c><c>   1</c></rc>
    <rc><c>Pd</c><c>   1</c></rc>
    <rc><c>Pd</c><c>   1</c></rc>
    <rc><c>Pd</c><c>   1</c></rc>
    <rc><c>Pd</c><c>   1</c></rc>
    <rc><c>Pd</c><c>   1</c></rc>
    <rc><c>Pd</c><c>   1</c></rc>
    <rc><c>Pd</c><c>   1</c></rc>
    <rc><c>Pd</c><c>   1</c></rc>
    <rc><c>Pd</c><c>   1</c></rc>
    <rc><c>Pd</c><c>   1</c></rc>
    <rc><c>Pd</c><c>   1</c></rc>
    <rc><c>Pd</c><c>   1</c></rc>
    <rc><c>Pd</c><c>   1</c></rc>
    <rc><c>C </c><c>   2</c></rc>
    <rc><c>O </c><c>   3</c></rc>
   </set>
  </array>
  <array name="atomtypes" >
   <dimension dim="1">type</dimension>
   <field type="int">atomspertype</field>
   <field type="string">element</field>
   <field>mass</field>
   <field>valence</field>
   <field type="string">pseudopotential</field>
   <set>
    <rc><c>  55</c><c>Pd</c><c>    106.42000000</c><c>     10.00000000</c><c>  PAW_PBE Pd 04Jan2005                  </c></rc>
    <rc><c>   1</c><c>C </c><c>     12.01100000</c><c>      4.00000000</c><c>  PAW_PBE C 08Apr2002                   </c></rc>
    <rc><c>   1</c><c>O </c><c>     16.00000000</c><c>      6.00000000</c><c>  PAW_PBE O 08Apr2002                   </c></rc>
   </set>
  </array>
 </atominfo>
 <structure name="initialpos" >
  <crystal>
   <varray name="basis" >
    <v>      30.00000000       0.00000000       0.00000000 </v>
    <v>       0.00000000      30.00000000       0.00000000 </v>
    <v>       0.00000000       0.00000000      30.00000000 </v>
   </varray>
   <i name="volume">  27000.00000000 </i>
   <varray name="rec_basis" >
    <v>       0.03333333       0.00000000       0.00000000 </v>
    <v>       0.00000000       0.03333333       0.00000000 </v>
    <v>       0.00000000       0.00000000       0.03333333 </v>
   </varray>
  </crystal>
  <varray name="positions" >
   <v>       0.44576020       0.32826710       0.41691983 </v>
   <v>       0.67173288       0.55423978       0.41691983 </v>
   <v>       0.55423980       0.32826710       0.41691983 </v>
   <v>       0.32826712       0.55423978       0.41691983 </v>
   <v>       0.50000000       0.38250690       0.34021317 </v>
   <v>       0.50000000       0.38250690       0.65978680 </v>
   <v>       0.50000000       0.27609440       0.50000000 </v>
   <v>       0.27609443       0.49999998       0.50000000 </v>
   <v>       0.72390557       0.49999998       0.50000000 </v>
   <v>       0.50000000       0.72390555       0.50000000 </v>
   <v>       0.61195280       0.38804720       0.34167483 </v>
   <v>       0.61195280       0.38804720       0.65832513 </v>
   <v>       0.38804722       0.61195278       0.34167483 </v>
   <v>       0.38804722       0.61195278       0.65832513 </v>
   <v>       0.38804720       0.38804720       0.34167483 </v>
   <v>       0.38804720       0.38804720       0.65832513 </v>
   <v>       0.61195278       0.61195278       0.34167483 </v>
   <v>       0.61195278       0.61195278       0.65832513 </v>
   <v>       0.44576020       0.32826710       0.58308023 </v>
   <v>       0.67173288       0.55423978       0.58308023 </v>
   <v>       0.55791699       0.44208301       0.41809300 </v>
   <v>       0.32826705       0.44576024       0.41691983 </v>
   <v>       0.55423973       0.67173293       0.41691983 </v>
   <v>       0.55423980       0.32826710       0.58308023 </v>
   <v>       0.32826712       0.55423978       0.58308023 </v>
   <v>       0.67173295       0.44576024       0.41691983 </v>
   <v>       0.44576027       0.67173293       0.41691983 </v>
   <v>       0.44208301       0.44208301       0.41809300 </v>
   <v>       0.50000000       0.38416601       0.50000000 </v>
   <v>       0.61749315       0.50000005       0.34021317 </v>
   <v>       0.61749315       0.50000005       0.65978680 </v>
   <v>       0.38250685       0.50000005       0.34021317 </v>
   <v>       0.38250685       0.50000005       0.65978680 </v>
   <v>       0.38317830       0.38317830       0.50000000 </v>
   <v>       0.61682172       0.61682172       0.50000000 </v>
   <v>       0.61682170       0.38317830       0.50000000 </v>
   <v>       0.38317828       0.61682172       0.50000000 </v>
   <v>       0.50000000       0.50000000       0.33478917 </v>
   <v>       0.50000000       0.50000000       0.66521087 </v>
   <v>       0.32826705       0.44576024       0.58308023 </v>
   <v>       0.55423973       0.67173293       0.58308023 </v>
   <v>       0.55791699       0.44208301       0.58190703 </v>
   <v>       0.44208298       0.55791702       0.41809300 </v>
   <v>       0.44208301       0.44208301       0.58190703 </v>
   <v>       0.67173295       0.44576024       0.58308023 </v>
   <v>       0.44576027       0.67173293       0.58308023 </v>
   <v>       0.55791702       0.55791702       0.41809300 </v>
   <v>       0.38416599       0.50000002       0.50000000 </v>
   <v>       0.61583401       0.50000002       0.50000000 </v>
   <v>       0.50000000       0.61749319       0.34021317 </v>
   <v>       0.50000000       0.61749319       0.65978680 </v>
   <v>       0.50000000       0.50000000       0.50000000 </v>
   <v>       0.44208298       0.55791702       0.58190703 </v>
   <v>       0.55791702       0.55791702       0.58190703 </v>
   <v>       0.50000000       0.61583404       0.50000000 </v>
   <v>       0.28350807       0.50354873       0.59484230 </v>
   <v>       0.24907187       0.50411320       0.60992837 </v>
  </varray>
  <varray name="selective"  type="logical" >
   <v type="logical" >  F  F  F </v>
   <v type="logical" >  F  F  F </v>
   <v type="logical" >  F  F  F </v>
   <v type="logical" >  F  F  F </v>
   <v type="logical" >  F  F  F </v>
   <v type="logical" >  F  F  F </v>
   <v type="logical" >  F  F  F </v>
   <v type="logical" >  F  F  F </v>
   <v type="logical" >  F  F  F </v>
   <v type="logical" >  F  F  F </v>
   <v type="logical" >  F  F  F </v>
   <v type="logical" >  F  F  F </v>
   <v type="logical" >  F  F  F </v>
   <v type="logical" >  F  F  F </v>
   <v type="logical" >  F  F  F </v>
   <v type="logical" >  F  F  F </v>
   <v type="logical" >  F  F  F </v>
   <v type="logical" >  F  F  F </v>
   <v type="logical" >  F  F  F </v>
   <v type="logical" >  F  F  F </v>
   <v type="logical" >  F  F  F </v>
   <v type="logical" >  F  F  F </v>
   <v type="logical" >  F  F  F </v>
   <v type="logical" >  F  F  F </v>
   <v type="logical" >  F  F  F </v>
   <v type="logical" >  F  F  F </v>
   <v type="logical" >  F  F  F </v>
   <v type="logical" >  F  F  F </v>
   <v type="logical" >  F  F  F </v>
   <v type="logical" >  F  F  F </v>
   <v type="logical" >  F  F  F </v>
   <v type="logical" >  F  F  F </v>
   <v type="logical" >  F  F  F </v>
   <v type="logical" >  F  F  F </v>
   <v type="logical" >  F  F  F </v>
   <v type="logical" >  F  F  F </v>
   <v type="logical" >  F  F  F </v>
   <v type="logical" >  F  F  F </v>
   <v type="logical" >  F  F  F </v>
   <v type="logical" >  F  F  F </v>
   <v type="logical" >  F  F  F </v>
   <v type="logical" >  F  F  F </v>
   <v type="logical" >  F  F  F </v>
   <v type="logical" >  F  F  F </v>
   <v type="logical" >  F  F  F </v>
   <v type="logical" >  F  F  F </v>
   <v type="logical" >  F  F  F </v>
   <v type="logical" >  F  F  F </v>
   <v type="logical" >  F  F  F </v>
   <v type="logical" >  F  F  F </v>
   <v type="logical" >  F  F  F </v>
   <v type="logical" >  F  F  F </v>
   <v type="logical" >  F  F  F </v>
   <v type="logical" >  F  F  F </v>
   <v type="logical" >  F  F  F </v>
   <v type="logical" >  F  F  F </v>
   <v type="logical" >  F  F  F </v>
  </varray>
  <nose>
   <v>      -3.00000000       0.00000000       0.00010000       0.00010000 </v>
  </nose>
 </structure>
 <calculation>
  <scstep>
   <time name="dav">  362.17  362.20</time>
   <time name="total">  376.47  376.51</time>
   <energy>
    <i name="alphaZ">     75.25431677 </i>
    <i name="ewald"> 138731.58244550 </i>
    <i name="hartreedc">-182089.73074628 </i>
    <i name="XCdc">  -1702.49662036 </i>
    <i name="pawpsdc">  44873.02882129 </i>
    <i name="pawaedc"> -41398.84523641 </i>
    <i name="eentropy">      0.03143090 </i>
    <i name="bandstr">    818.16221328 </i>
    <i name="atom">  45086.50549395 </i>
    <i name="e_fr_energy">   4393.49211864 </i>
    <i name="e_wo_entrp">   4393.46068774 </i>
    <i name="e_0_energy">   4393.48426092 </i>
   </energy>
  </scstep>
  <scstep>
   <time name="dav">  557.82  557.83</time>
   <time name="total">  557.82  557.83</time>
   <energy>
    <i name="e_fr_energy">   2029.33311600 </i>
    <i name="e_wo_entrp">   2029.36423239 </i>
    <i name="e_0_energy">   2029.34089510 </i>
   </energy>
  </scstep>
  <scstep>
   <time name="dav">  482.54  482.55</time>
   <time name="total">  482.55  482.55</time>
   <energy>
    <i name="e_fr_energy">    242.81487588 </i>
    <i name="e_wo_entrp">    242.75643775 </i>
    <i name="e_0_energy">    242.80026635 </i>
   </energy>
  </scstep>
  <scstep>
   <time name="dav">  418.39  418.40</time>
   <time name="total">  418.39  418.40</time>
   <energy>
    <i name="e_fr_energy">   -134.11529496 </i>
    <i name="e_wo_entrp">   -134.13694171 </i>
    <i name="e_0_energy">   -134.12070664 </i>
   </energy>
  </scstep>
  <scstep>
   <time name="dav">  505.37  505.38</time>
   <time name="total">  531.51  531.52</time>
   <energy>
    <i name="e_fr_energy">   -180.54424309 </i>
    <i name="e_wo_entrp">   -181.04057205 </i>
    <i name="e_0_energy">   -180.66832533 </i>
   </energy>
  </scstep>
  <scstep>
   <time name="diag">   66.81   66.81</time>
   <time name="diis">  201.00  201.00</time>
   <time name="orth">   14.18   14.18</time>
   <time name="total">  321.08  321.09</time>
   <energy>
    <i name="e_fr_energy">   -180.36643769 </i>
    <i name="e_wo_entrp">   -180.15854714 </i>
    <i name="e_0_energy">   -180.31446505 </i>
   </energy>
  </scstep>
  <scstep>
   <time name="diag">   67.06   67.06</time>
   <time name="diis">  236.89  236.89</time>
   <time name="orth">   14.01   14.01</time>
   <time name="total">  357.08  357.08</time>
   <energy>
    <i name="e_fr_energy">   -181.95496216 </i>
    <i name="e_wo_entrp">   -181.81038807 </i>
    <i name="e_0_energy">   -181.91881864 </i>
   </energy>
  </scstep>
  <scstep>
   <time name="diag">   66.60   66.60</time>
   <time name="diis">  213.34  213.35</time>
   <time name="orth">   14.40   14.40</time>
   <time name="total">  333.81  333.82</time>
   <energy>
    <i name="e_fr_energy">   -186.06003713 </i>
    <i name="e_wo_entrp">   -186.05405316 </i>
    <i name="e_0_energy">   -186.05854114 </i>
   </energy>
  </scstep>
  <scstep>
   <time name="diag">   66.96   66.96</time>
   <time name="diis">  207.24  207.24</time>
   <time name="orth">   14.21   14.21</time>
   <time name="total">  327.58  327.59</time>
   <energy>
    <i name="e_fr_energy">   -183.33713080 </i>
    <i name="e_wo_entrp">   -183.28145273 </i>
    <i name="e_0_energy">   -183.32321128 </i>
   </energy>
  </scstep>
  <scstep>
   <time name="diag">   66.93   66.93</time>
   <time name="diis">  205.38  205.38</time>
   <time name="orth">   13.72   13.72</time>
   <time name="total">  325.05  325.06</time>
   <energy>
    <i name="e_fr_energy">   -180.69107471 </i>
    <i name="e_wo_entrp">   -180.61828857 </i>
    <i name="e_0_energy">   -180.67287817 </i>
   </energy>
  </scstep>
  <scstep>
   <time name="diag">   66.68   66.68</time>
   <time name="diis">  200.36  200.37</time>
   <time name="orth">   13.94   13.94</time>
   <time name="total">  320.86  320.87</time>
   <energy>
    <i name="e_fr_energy">   -178.91198377 </i>
    <i name="e_wo_entrp">   -178.87481825 </i>
    <i name="e_0_energy">   -178.90269239 </i>
   </energy>
  </scstep>
  <scstep>
   <time name="diag">   66.97   66.97</time>
   <time name="diis">  200.22  200.23</time>
   <time name="orth">   13.98   13.98</time>
   <time name="total">  320.75  320.77</time>
   <energy>
    <i name="e_fr_energy">   -178.07125086 </i>
    <i name="e_wo_entrp">   -178.00697394 </i>
    <i name="e_0_energy">   -178.05518163 </i>
   </energy>
  </scstep>
  <scstep>
   <time name="diag">   66.69   66.69</time>
   <time name="diis">  202.21  202.21</time>
   <time name="orth">   13.43   13.43</time>
   <time name="total">  321.72  321.73</time>
   <energy>
    <i name="e_fr_energy">   -177.55175010 </i>
    <i name="e_wo_entrp">   -177.48160451 </i>
    <i name="e_0_energy">   -177.53421370 </i>
   </energy>
  </scstep>
  <scstep>
   <time name="diag">   66.55   66.55</time>
   <time name="diis">  196.04  196.05</time>
   <time name="orth">   14.06   14.06</time>
   <time name="total">  316.29  316.29</time>
   <energy>
    <i name="e_fr_energy">   -177.48688059 </i>
    <i name="e_wo_entrp">   -177.39488476 </i>
    <i name="e_0_energy">   -177.46388163 </i>
   </energy>
  </scstep>
  <scstep>
   <time name="diag">   66.85   66.85</time>
   <time name="diis">  195.39  195.39</time>
   <time name="orth">   14.31   14.31</time>
   <time name="total">  315.89  315.89</time>
   <energy>
    <i name="e_fr_energy">   -176.78800270 </i>
    <i name="e_wo_entrp">   -176.67906766 </i>
    <i name="e_0_energy">   -176.76076894 </i>
   </energy>
  </scstep>
  <scstep>
   <time name="diag">   67.18   67.18</time>
   <time name="diis">  197.91  197.91</time>
   <time name="orth">   14.16   14.16</time>
   <time name="total">  318.72  318.72</time>
   <energy>
    <i name="e_fr_energy">   -176.52891139 </i>
    <i name="e_wo_entrp">   -176.38758374 </i>
    <i name="e_0_energy">   -176.49357948 </i>
   </energy>
  </scstep>
  <scstep>
   <time name="diag">   66.73   66.73</time>
   <time name="diis">  197.44  197.44</time>
   <time name="orth">   14.07   14.07</time>
   <time name="total">  317.94  317.95</time>
   <energy>
    <i name="e_fr_energy">   -176.53668061 </i>
    <i name="e_wo_entrp">   -176.46915584 </i>
    <i name="e_0_energy">   -176.51979942 </i>
   </energy>
  </scstep>
  <scstep>
   <time name="diag">   66.95   66.95</time>
   <time name="diis">  196.79  196.79</time>
   <time name="orth">   14.17   14.17</time>
   <time name="total">  317.67  317.67</time>
   <energy>
    <i name="e_fr_energy">   -176.06731023 </i>
    <i name="e_wo_entrp">   -176.07081421 </i>
    <i name="e_0_energy">   -176.06818623 </i>
   </energy>
  </scstep>
  <scstep>
   <time name="diag">   66.98   66.98</time>
   <time name="diis">  191.17  191.17</time>
   <time name="orth">   14.31   14.31</time>
   <time name="total">  312.42  312.43</time>
   <energy>
    <i name="e_fr_energy">   -176.03895182 </i>
    <i name="e_wo_entrp">   -175.97524780 </i>
    <i name="e_0_energy">   -176.02302582 </i>
   </energy>
  </scstep>
  <scstep>
   <time name="diag">   67.23   67.23</time>
   <time name="diis">  190.67  190.68</time>
   <time name="orth">   14.36   14.36</time>
   <time name="total">  312.42  312.42</time>
   <energy>
    <i name="e_fr_energy">   -175.90035836 </i>
    <i name="e_wo_entrp">   -175.84404231 </i>
    <i name="e_0_energy">   -175.88627934 </i>
   </energy>
  </scstep>
  <scstep>
   <time name="diag">   67.00   67.01</time>
   <time name="diis">  190.25  190.25</time>
   <time name="orth">   14.42   14.42</time>
   <time name="total">  312.11  312.12</time>
   <energy>
    <i name="e_fr_energy">   -175.74653766 </i>
    <i name="e_wo_entrp">   -175.67347604 </i>
    <i name="e_0_energy">   -175.72827225 </i>
   </energy>
  </scstep>
  <scstep>
   <time name="diag">   67.35   67.35</time>
   <time name="diis">  192.72  192.73</time>
   <time name="orth">   14.04   14.04</time>
   <time name="total">  314.56  314.57</time>
   <energy>
    <i name="e_fr_energy">   -175.72571250 </i>
    <i name="e_wo_entrp">   -175.64181922 </i>
    <i name="e_0_energy">   -175.70473918 </i>
   </energy>
  </scstep>
  <scstep>
   <time name="diag">   67.11   67.11</time>
   <time name="diis">  191.11  191.11</time>
   <time name="orth">   13.90   13.90</time>
   <time name="total">  312.88  312.89</time>
   <energy>
    <i name="e_fr_energy">   -175.62141907 </i>
    <i name="e_wo_entrp">   -175.52172116 </i>
    <i name="e_0_energy">   -175.59649459 </i>
   </energy>
  </scstep>
  <scstep>
   <time name="diag">   67.17   67.17</time>
   <time name="diis">  191.50  191.50</time>
   <time name="orth">   14.04   14.04</time>
   <time name="total">  313.48  313.49</time>
   <energy>
    <i name="e_fr_energy">   -175.56524829 </i>
    <i name="e_wo_entrp">   -175.47235084 </i>
    <i name="e_0_energy">   -175.54202393 </i>
   </energy>
  </scstep>
  <scstep>
   <time name="diag">   67.69   67.69</time>
   <time name="diis">  190.47  190.47</time>
   <time name="orth">   13.96   13.96</time>
   <time name="total">  312.90  312.91</time>
   <energy>
    <i name="e_fr_energy">   -175.52318148 </i>
    <i name="e_wo_entrp">   -175.42038785 </i>
    <i name="e_0_energy">   -175.49748307 </i>
   </energy>
  </scstep>
  <scstep>
   <time name="diag">   67.29   67.29</time>
   <time name="diis">  190.71  190.71</time>
   <time name="orth">   13.64   13.64</time>
   <time name="total">  312.37  312.38</time>
   <energy>
    <i name="e_fr_energy">   -175.50223683 </i>
    <i name="e_wo_entrp">   -175.41221721 </i>
    <i name="e_0_energy">   -175.47973192 </i>
   </energy>
  </scstep>
  <scstep>
   <time name="diag">   66.69   66.69</time>
   <time name="diis">  188.81  188.81</time>
   <time name="orth">   14.01   14.01</time>
   <time name="total">  310.87  310.87</time>
   <energy>
    <i name="e_fr_energy">   -175.48525695 </i>
    <i name="e_wo_entrp">   -175.37681377 </i>
    <i name="e_0_energy">   -175.45814615 </i>
   </energy>
  </scstep>
  <scstep>
   <time name="diag">   67.22   67.23</time>
   <time name="diis">  189.22  189.22</time>
   <time name="orth">   13.90   13.90</time>
   <time name="total">  311.95  311.96</time>
   <energy>
    <i name="e_fr_energy">   -175.48326959 </i>
    <i name="e_wo_entrp">   -175.38391562 </i>
    <i name="e_0_energy">   -175.45843110 </i>
   </energy>
  </scstep>
  <scstep>
   <time name="diag">   67.50   67.50</time>
   <time name="diis">  189.81  189.81</time>
   <time name="orth">   13.89   13.89</time>
   <time name="total">  312.69  312.69</time>
   <energy>
    <i name="e_fr_energy">   -175.47169813 </i>
    <i name="e_wo_entrp">   -175.36677384 </i>
    <i name="e_0_energy">   -175.44546706 </i>
   </energy>
  </scstep>
  <scstep>
   <time name="diag">   67.21   67.21</time>
   <time name="diis">  188.81  188.81</time>
   <time name="orth">   13.85   13.85</time>
   <time name="total">  311.37  311.37</time>
   <energy>
    <i name="e_fr_energy">   -175.46596682 </i>
    <i name="e_wo_entrp">   -175.36184152 </i>
    <i name="e_0_energy">   -175.43993549 </i>
   </energy>
  </scstep>
  <scstep>
   <time name="diag">   67.97   67.97</time>
   <time name="diis">  188.82  188.82</time>
   <time name="orth">   13.98   13.98</time>
   <time name="total">  312.35  312.36</time>
   <energy>
    <i name="e_fr_energy">   -175.46203778 </i>
    <i name="e_wo_entrp">   -175.36287048 </i>
    <i name="e_0_energy">   -175.43724596 </i>
   </energy>
  </scstep>
  <scstep>
   <time name="diag">   67.96   67.96</time>
   <time name="diis">  189.63  189.64</time>
   <time name="orth">   13.94   13.94</time>
   <time name="total">  313.51  313.52</time>
   <energy>
    <i name="e_fr_energy">   -175.46172183 </i>
    <i name="e_wo_entrp">   -175.35971426 </i>
    <i name="e_0_energy">   -175.43621994 </i>
   </energy>
  </scstep>
  <scstep>
   <time name="diag">   67.69   67.69</time>
   <time name="diis">  186.44  186.44</time>
   <time name="orth">   13.96   13.96</time>
   <time name="total">  310.05  310.06</time>
   <energy>
    <i name="e_fr_energy">   -175.46010881 </i>
    <i name="e_wo_entrp">   -175.35639503 </i>
    <i name="e_0_energy">   -175.43418037 </i>
   </energy>
  </scstep>
  <scstep>
   <time name="diag">   67.75   67.76</time>
   <time name="diis">  188.47  188.47</time>
   <time name="orth">   14.17   14.17</time>
   <time name="total">  312.60  312.61</time>
   <energy>
    <i name="e_fr_energy">   -175.46064904 </i>
    <i name="e_wo_entrp">   -175.35636110 </i>
    <i name="e_0_energy">   -175.43457706 </i>
   </energy>
  </scstep>
  <scstep>
   <time name="diag">   67.75   67.75</time>
   <time name="diis">  187.96  187.96</time>
   <time name="orth">   13.92   13.92</time>
   <time name="total">  312.25  312.25</time>
   <energy>
    <i name="e_fr_energy">   -175.46135310 </i>
    <i name="e_wo_entrp">   -175.35754981 </i>
    <i name="e_0_energy">   -175.43540227 </i>
   </energy>
  </scstep>
  <scstep>
   <time name="diag">   67.89   67.89</time>
   <time name="diis">  186.21  186.21</time>
   <time name="orth">   13.62   13.62</time>
   <time name="total">  310.13  310.14</time>
   <energy>
    <i name="e_fr_energy">   -175.46207497 </i>
    <i name="e_wo_entrp">   -175.35802968 </i>
    <i name="e_0_energy">   -175.43606365 </i>
   </energy>
  </scstep>
  <scstep>
   <time name="diag">   67.89   67.89</time>
   <time name="diis">  180.41  180.41</time>
   <time name="orth">   14.23   14.23</time>
   <time name="total">  305.03  305.04</time>
   <energy>
    <i name="e_fr_energy">   -175.46392920 </i>
    <i name="e_wo_entrp">   -175.36146277 </i>
    <i name="e_0_energy">   -175.43831259 </i>
   </energy>
  </scstep>
  <scstep>
   <time name="diag">   68.05   68.05</time>
   <time name="diis">  172.49  172.50</time>
   <time name="orth">   14.27   14.27</time>
   <time name="total">  297.67  297.68</time>
   <energy>
    <i name="e_fr_energy">   -175.46631578 </i>
    <i name="e_wo_entrp">   -175.36258927 </i>
    <i name="e_0_energy">   -175.44038415 </i>
   </energy>
  </scstep>
  <scstep>
   <time name="diag">   67.94   67.94</time>
   <time name="diis">  144.62  144.62</time>
   <time name="orth">   14.45   14.45</time>
   <time name="total">  271.25  271.27</time>
   <energy>
    <i name="e_fr_energy">   -175.46826407 </i>
    <i name="e_wo_entrp">   -175.36278392 </i>
    <i name="e_0_energy">   -175.44189404 </i>
   </energy>
  </scstep>
  <scstep>
   <time name="diag">   69.38   69.38</time>
   <time name="diis">  167.90  167.90</time>
   <time name="orth">   14.20   14.20</time>
   <time name="total">  295.60  295.62</time>
   <energy>
    <i name="e_fr_energy">   -175.47142844 </i>
    <i name="e_wo_entrp">   -175.36681820 </i>
    <i name="e_0_energy">   -175.44527588 </i>
   </energy>
  </scstep>
  <scstep>
   <time name="diag">   68.71   68.71</time>
   <time name="diis">  143.85  143.86</time>
   <time name="orth">   14.38   14.38</time>
   <time name="total">  271.24  271.25</time>
   <energy>
    <i name="e_fr_energy">   -175.47370960 </i>
    <i name="e_wo_entrp">   -175.36938651 </i>
    <i name="e_0_energy">   -175.44762883 </i>
   </energy>
  </scstep>
  <scstep>
   <time name="diag">   69.35   69.35</time>
   <time name="diis">  137.25  137.25</time>
   <time name="orth">   14.20   14.20</time>
   <time name="total">  264.73  264.75</time>
   <energy>
    <i name="e_fr_energy">   -175.47605414 </i>
    <i name="e_wo_entrp">   -175.37134692 </i>
    <i name="e_0_energy">   -175.44987733 </i>
   </energy>
  </scstep>
  <scstep>
   <time name="diag">   69.73   69.73</time>
   <time name="diis">  118.82  118.83</time>
   <time name="orth">   14.02   14.02</time>
   <time name="total">  246.30  246.31</time>
   <energy>
    <i name="e_fr_energy">   -175.47743467 </i>
    <i name="e_wo_entrp">   -175.37346505 </i>
    <i name="e_0_energy">   -175.45144227 </i>
   </energy>
  </scstep>
  <scstep>
   <time name="diag">   69.11   69.11</time>
   <time name="diis">  126.26  126.27</time>
   <time name="orth">   14.00   14.00</time>
   <time name="total">  252.88  252.89</time>
   <energy>
    <i name="e_fr_energy">   -175.47980860 </i>
    <i name="e_wo_entrp">   -175.37668654 </i>
    <i name="e_0_energy">   -175.45402808 </i>
   </energy>
  </scstep>
  <scstep>
   <time name="diag">   69.45   69.46</time>
   <time name="diis">  116.36  116.37</time>
   <time name="orth">   13.84   13.84</time>
   <time name="total">  243.86  243.87</time>
   <energy>
    <i name="e_fr_energy">   -175.48059539 </i>
    <i name="e_wo_entrp">   -175.37711569 </i>
    <i name="e_0_energy">   -175.45472547 </i>
   </energy>
  </scstep>
  <scstep>
   <time name="diag">   70.09   70.09</time>
   <time name="diis">  114.87  114.87</time>
   <time name="orth">   13.67   13.67</time>
   <time name="total">  243.05  243.06</time>
   <energy>
    <i name="e_fr_energy">   -175.48208056 </i>
    <i name="e_wo_entrp">   -175.37828266 </i>
    <i name="e_0_energy">   -175.45613109 </i>
   </energy>
  </scstep>
  <scstep>
   <time name="diag">   69.72   69.72</time>
   <time name="diis">  115.26  115.26</time>
   <time name="orth">   13.64   13.64</time>
   <time name="total">  242.97  242.98</time>
   <energy>
    <i name="e_fr_energy">   -175.48313251 </i>
    <i name="e_wo_entrp">   -175.37907865 </i>
    <i name="e_0_energy">   -175.45711905 </i>
   </energy>
  </scstep>
  <scstep>
   <time name="diag">   69.06   69.07</time>
   <time name="diis">  113.92  113.92</time>
   <time name="orth">   13.67   13.67</time>
   <time name="total">  241.35  241.36</time>
   <energy>
    <i name="e_fr_energy">   -175.48381314 </i>
    <i name="e_wo_entrp">   -175.37987519 </i>
    <i name="e_0_energy">   -175.45782866 </i>
   </energy>
  </scstep>
  <scstep>
   <time name="diag">   69.60   69.61</time>
   <time name="diis">  114.33  114.34</time>
   <time name="orth">   13.76   13.76</time>
   <time name="total">  242.59  242.60</time>
   <energy>
    <i name="e_fr_energy">   -175.48488764 </i>
    <i name="e_wo_entrp">   -175.38097051 </i>
    <i name="e_0_energy">   -175.45890836 </i>
   </energy>
  </scstep>
  <scstep>
   <time name="diag">   70.01   70.01</time>
   <time name="diis">  109.86  109.86</time>
   <time name="orth">   13.84   13.84</time>
   <time name="total">  237.85  237.86</time>
   <energy>
    <i name="e_fr_energy">   -175.48532265 </i>
    <i name="e_wo_entrp">   -175.38171946 </i>
    <i name="e_0_energy">   -175.45942185 </i>
   </energy>
  </scstep>
  <scstep>
   <time name="diag">   69.99   69.99</time>
   <time name="diis">  107.39  107.42</time>
   <time name="orth">   13.64   13.64</time>
   <time name="total">  234.59  234.62</time>
   <energy>
    <i name="e_fr_energy">   -175.48577684 </i>
    <i name="e_wo_entrp">   -175.38204577 </i>
    <i name="e_0_energy">   -175.45984407 </i>
   </energy>
  </scstep>
  <scstep>
   <time name="diag">   69.30   69.30</time>
   <time name="diis">   99.00   99.00</time>
   <time name="orth">   13.36   13.36</time>
   <time name="total">  225.11  225.12</time>
   <energy>
    <i name="e_fr_energy">   -175.48618058 </i>
    <i name="e_wo_entrp">   -175.38224966 </i>
    <i name="e_0_energy">   -175.46019785 </i>
   </energy>
  </scstep>
  <scstep>
   <time name="diag">   69.12   69.12</time>
   <time name="diis">   97.78   97.78</time>
   <time name="orth">   13.49   13.49</time>
   <time name="total">  223.07  223.08</time>
   <energy>
    <i name="e_fr_energy">   -175.48667531 </i>
    <i name="e_wo_entrp">   -175.38274917 </i>
    <i name="e_0_energy">   -175.46069377 </i>
   </energy>
  </scstep>
  <scstep>
   <time name="diag">   68.24   68.24</time>
   <time name="diis">   88.02   88.02</time>
   <time name="orth">   13.48   13.48</time>
   <time name="total">  213.04  213.05</time>
   <energy>
    <i name="e_fr_energy">   -175.48701628 </i>
    <i name="e_wo_entrp">   -175.38321707 </i>
    <i name="e_0_energy">   -175.46106647 </i>
   </energy>
  </scstep>
  <scstep>
   <time name="diag">   68.78   68.78</time>
   <time name="diis">   91.60   91.60</time>
   <time name="orth">   13.52   13.52</time>
   <time name="total">  217.26  217.27</time>
   <energy>
    <i name="e_fr_energy">   -175.48728496 </i>
    <i name="e_wo_entrp">   -175.38353648 </i>
    <i name="e_0_energy">   -175.46134784 </i>
   </energy>
  </scstep>
  <scstep>
   <time name="diag">   68.39   68.39</time>
   <time name="diis">   84.95   84.95</time>
   <time name="orth">   13.34   13.34</time>
   <time name="total">  209.53  209.54</time>
   <energy>
    <i name="e_fr_energy">   -175.48751779 </i>
    <i name="e_wo_entrp">   -175.38365787 </i>
    <i name="e_0_energy">   -175.46155281 </i>
   </energy>
  </scstep>
  <scstep>
   <time name="diag">   66.31   66.31</time>
   <time name="diis">   84.28   84.28</time>
   <time name="orth">   13.23   13.23</time>
   <time name="total">  205.86  205.86</time>
   <energy>
    <i name="e_fr_energy">   -175.48767253 </i>
    <i name="e_wo_entrp">   -175.38381843 </i>
    <i name="e_0_energy">   -175.46170901 </i>
   </energy>
  </scstep>
  <scstep>
   <time name="diag">   66.06   66.07</time>
   <time name="diis">   83.13   83.13</time>
   <time name="orth">   13.17   13.17</time>
   <time name="total">  203.96  203.96</time>
   <energy>
    <i name="e_fr_energy">   -175.48787555 </i>
    <i name="e_wo_entrp">   -175.38406089 </i>
    <i name="e_0_energy">   -175.46192189 </i>
   </energy>
  </scstep>
  <scstep>
   <time name="diag">   66.04   66.04</time>
   <time name="diis">   82.00   82.00</time>
   <time name="orth">   13.53   13.53</time>
   <time name="total">  204.81  204.82</time>
   <energy>
    <i name="e_fr_energy">   -175.48797711 </i>
    <i name="e_wo_entrp">   -175.38417654 </i>
    <i name="e_0_energy">   -175.46202697 </i>
   </energy>
  </scstep>
  <scstep>
   <time name="diag">   68.13   68.13</time>
   <time name="diis">   82.86   82.86</time>
   <time name="orth">   13.65   13.66</time>
   <time name="total">  178.55  178.57</time>
   <energy>
    <i name="alphaZ">     75.25431677 </i>
    <i name="ewald"> 138731.58244550 </i>
    <i name="hartreedc">-183083.28259056 </i>
    <i name="XCdc">  -1691.88048597 </i>
    <i name="pawpsdc">  46175.14702449 </i>
    <i name="pawaedc"> -42645.97745142 </i>
    <i name="eentropy">     -0.10380145 </i>
    <i name="bandstr">  -2822.73301594 </i>
    <i name="atom">  45086.50549395 </i>
    <i name="e_fr_energy">   -175.48806464 </i>
    <i name="e_wo_entrp">   -175.38426319 </i>
    <i name="e_0_energy">   -175.46211428 </i>
   </energy>
  </scstep>
  <structure>
   <crystal>
    <varray name="basis" >
     <v>      30.00000000       0.00000000       0.00000000 </v>
     <v>       0.00000000      30.00000000       0.00000000 </v>
     <v>       0.00000000       0.00000000      30.00000000 </v>
    </varray>
    <i name="volume">  27000.00000000 </i>
    <varray name="rec_basis" >
     <v>       0.03333333       0.00000000       0.00000000 </v>
     <v>       0.00000000       0.03333333       0.00000000 </v>
     <v>       0.00000000       0.00000000       0.03333333 </v>
    </varray>
   </crystal>
   <varray name="positions" >
    <v>       0.44576020       0.32826710       0.41691983 </v>
    <v>       0.67173288       0.55423978       0.41691983 </v>
    <v>       0.55423980       0.32826710       0.41691983 </v>
    <v>       0.32826712       0.55423978       0.41691983 </v>
    <v>       0.50000000       0.38250690       0.34021317 </v>
    <v>       0.50000000       0.38250690       0.65978680 </v>
    <v>       0.50000000       0.27609440       0.50000000 </v>
    <v>       0.27609443       0.49999998       0.50000000 </v>
    <v>       0.72390557       0.49999998       0.50000000 </v>
    <v>       0.50000000       0.72390555       0.50000000 </v>
    <v>       0.61195280       0.38804720       0.34167483 </v>
    <v>       0.61195280       0.38804720       0.65832513 </v>
    <v>       0.38804722       0.61195278       0.34167483 </v>
    <v>       0.38804722       0.61195278       0.65832513 </v>
    <v>       0.38804720       0.38804720       0.34167483 </v>
    <v>       0.38804720       0.38804720       0.65832513 </v>
    <v>       0.61195278       0.61195278       0.34167483 </v>
    <v>       0.61195278       0.61195278       0.65832513 </v>
    <v>       0.44576020       0.32826710       0.58308023 </v>
    <v>       0.67173288       0.55423978       0.58308023 </v>
    <v>       0.55791699       0.44208301       0.41809300 </v>
    <v>       0.32826705       0.44576024       0.41691983 </v>
    <v>       0.55423973       0.67173293       0.41691983 </v>
    <v>       0.55423980       0.32826710       0.58308023 </v>
    <v>       0.32826712       0.55423978       0.58308023 </v>
    <v>       0.67173295       0.44576024       0.41691983 </v>
    <v>       0.44576027       0.67173293       0.41691983 </v>
    <v>       0.44208301       0.44208301       0.41809300 </v>
    <v>       0.50000000       0.38416601       0.50000000 </v>
    <v>       0.61749315       0.50000005       0.34021317 </v>
    <v>       0.61749315       0.50000005       0.65978680 </v>
    <v>       0.38250685       0.50000005       0.34021317 </v>
    <v>       0.38250685       0.50000005       0.65978680 </v>
    <v>       0.38317830       0.38317830       0.50000000 </v>
    <v>       0.61682172       0.61682172       0.50000000 </v>
    <v>       0.61682170       0.38317830       0.50000000 </v>
    <v>       0.38317828       0.61682172       0.50000000 </v>
    <v>       0.50000000       0.50000000       0.33478917 </v>
    <v>       0.50000000       0.50000000       0.66521087 </v>
    <v>       0.32826705       0.44576024       0.58308023 </v>
    <v>       0.55423973       0.67173293       0.58308023 </v>
    <v>       0.55791699       0.44208301       0.58190703 </v>
    <v>       0.44208298       0.55791702       0.41809300 </v>
    <v>       0.44208301       0.44208301       0.58190703 </v>
    <v>       0.67173295       0.44576024       0.58308023 </v>
    <v>       0.44576027       0.67173293       0.58308023 </v>
    <v>       0.55791702       0.55791702       0.41809300 </v>
    <v>       0.38416599       0.50000002       0.50000000 </v>
    <v>       0.61583401       0.50000002       0.50000000 </v>
    <v>       0.50000000       0.61749319       0.34021317 </v>
    <v>       0.50000000       0.61749319       0.65978680 </v>
    <v>       0.50000000       0.50000000       0.50000000 </v>
    <v>       0.44208298       0.55791702       0.58190703 </v>
    <v>       0.55791702       0.55791702       0.58190703 </v>
    <v>       0.50000000       0.61583404       0.50000000 </v>
    <v>       0.28350807       0.50354873       0.59484230 </v>
    <v>       0.24907187       0.50411320       0.60992837 </v>
   </varray>
  </structure>
  <varray name="forces" >
   <v>       0.73265909       1.10695050       0.27587213 </v>
   <v>      -1.11097291      -0.70608229       0.28743051 </v>
   <v>      -0.71274165       1.10720383       0.28727409 </v>
   <v>       1.12495362      -0.70552100       0.24600861 </v>
   <v>       0.00398870       0.40434781       1.28803541 </v>
   <v>      -0.01482062       0.41541819      -1.27861689 </v>
   <v>       0.00346665       1.52095986      -0.00780525 </v>
   <v>       1.44208147       0.00770850       0.18946912 </v>
   <v>      -1.51696136      -0.00000711       0.00706284 </v>
   <v>       0.00393031      -1.52086053      -0.00718864 </v>
   <v>      -0.76356672       0.75295730       1.07435966 </v>
   <v>      -0.75213390       0.76282932      -1.07686163 </v>
   <v>       0.76256528      -0.75504118       1.06922496 </v>
   <v>       0.79002194      -0.72753936      -1.07585248 </v>
   <v>       0.76364583       0.75362094       1.06904584 </v>
   <v>       0.78629253       0.73415501      -1.08125574 </v>
   <v>      -0.76340124      -0.75280861       1.07414127 </v>
   <v>      -0.75197017      -0.76304197      -1.07689104 </v>
   <v>       0.69812031       1.11542111      -0.28530776 </v>
   <v>      -1.11848696      -0.70152315      -0.27952155 </v>
   <v>       0.10729580      -0.11328838      -0.15331212 </v>
   <v>       1.12661338       0.70500459       0.24514417 </v>
   <v>      -0.71237546      -1.10784343       0.28672639 </v>
   <v>      -0.70380971       1.10827600      -0.29466241 </v>
   <v>       0.38162435      -1.48674602      -0.04685172 </v>
   <v>      -1.11088490       0.70614321       0.28711618 </v>
   <v>       0.73546951      -1.10603995       0.27353704 </v>
   <v>      -0.11194238      -0.11112728      -0.15797445 </v>
   <v>      -0.00673522      -0.23303858       0.00437214 </v>
   <v>      -0.41018134      -0.00003299       1.28203173 </v>
   <v>      -0.39717833       0.00025044      -1.29054371 </v>
   <v>       0.39813843       0.00006805       1.29336830 </v>
   <v>       0.52911210      -0.00327605      -1.19608487 </v>
   <v>       0.86610343       0.79362571      -0.01882106 </v>
   <v>      -0.82861240      -0.82530785      -0.00157999 </v>
   <v>      -0.82870581       0.82502535      -0.00133229 </v>
   <v>       0.87117400      -0.79120567      -0.02087258 </v>
   <v>       0.00218559      -0.00006729       1.17853288 </v>
   <v>      -0.01651292      -0.00146760      -1.17377176 </v>
   <v>       0.23145858       1.69285675       0.00142247 </v>
   <v>      -0.70437285      -1.10791975      -0.29453109 </v>
   <v>       0.13244943      -0.11006215       0.15822433 </v>
   <v>      -0.11425093       0.10925368      -0.15703858 </v>
   <v>      -0.06744894      -0.12781633       0.14584662 </v>
   <v>      -1.11891081       0.70151036      -0.27967197 </v>
   <v>       0.69773001      -1.11621848      -0.28552403 </v>
   <v>       0.10667849       0.11307479      -0.15244065 </v>
   <v>      -0.12143844      -0.00328568      -0.08384009 </v>
   <v>       0.22833731       0.00009852      -0.00459795 </v>
   <v>       0.00485412      -0.40422662       1.28820417 </v>
   <v>      -0.01427399      -0.41559362      -1.27927158 </v>
   <v>      -0.01074829      -0.00108942       0.00762239 </v>
   <v>      -0.06510762       0.13032763       0.14199820 </v>
   <v>       0.13529323       0.10974333       0.15929639 </v>
   <v>      -0.00765798       0.23313545       0.00541645 </v>
   <v>       6.94318120      -0.18516432      -3.15041189 </v>
   <v>      -5.75322081      -0.02672359       2.58565149 </v>
  </varray>
  <varray name="stress" >
   <v>      -6.44978976       0.01899019      -0.14111580 </v>
   <v>       0.01899020      -6.90876384      -0.00560069 </v>
   <v>      -0.14111584      -0.00560067      -6.67616673 </v>
  </varray>
  <energy>
   <i name="e_fr_energy">   -175.48806464 </i>
   <i name="e_wo_entrp">   -175.46211428 </i>
   <i name="e_0_energy">     -0.10380145 </i>
  </energy>
  <time name="totalsc">18319.8218320.39</time>
  <eigenvalues>
   <array>
    <dimension dim="1">band</dimension>
    <dimension dim="2">kpoint</dimension>
    <dimension dim="3">spin</dimension>
    <field>eigene</field>
    <field>occ</field>
    <set>
     <set comment="spin 1">
      <set comment="kpoint 1">
       <r>  -28.2173    1.0000 </r>
       <r>  -13.2338    1.0000 </r>
       <r>  -11.0070    1.0000 </r>
       <r>  -10.7999    1.0000 </r>
       <r>  -10.4260    1.0000 </r>
       <r>   -6.6607    1.0000 </r>
       <r>   -6.1702    1.0000 </r>
       <r>   -6.1496    1.0000 </r>
       <r>   -6.1432    1.0000 </r>
       <r>   -6.0416    1.0000 </r>
       <r>   -5.9917    1.0000 </r>
       <r>   -5.8402    1.0000 </r>
       <r>   -5.8382    1.0000 </r>
       <r>   -5.8199    1.0000 </r>
       <r>   -5.7620    1.0000 </r>
       <r>   -5.7571    1.0000 </r>
       <r>   -5.7082    1.0000 </r>
       <r>   -5.7050    1.0000 </r>
       <r>   -5.7022    1.0000 </r>
       <r>   -5.6847    1.0000 </r>
       <r>   -5.6607    1.0000 </r>
       <r>   -5.6445    1.0000 </r>
       <r>   -5.6290    1.0000 </r>
       <r>   -5.6229    1.0000 </r>
       <r>   -5.6182    1.0000 </r>
       <r>   -5.6075    1.0000 </r>
       <r>   -5.5943    1.0000 </r>
       <r>   -5.5772    1.0000 </r>
       <r>   -5.5749    1.0000 </r>
       <r>   -5.5630    1.0000 </r>
       <r>   -5.5596    1.0000 </r>
       <r>   -5.5418    1.0000 </r>
       <r>   -5.5399    1.0000 </r>
       <r>   -5.5343    1.0000 </r>
       <r>   -5.5317    1.0000 </r>
       <r>   -5.5288    1.0000 </r>
       <r>   -5.5267    1.0000 </r>
       <r>   -5.5186    1.0000 </r>
       <r>   -5.5088    1.0000 </r>
       <r>   -5.5013    1.0000 </r>
       <r>   -5.4883    1.0000 </r>
       <r>   -5.4877    1.0000 </r>
       <r>   -5.4823    1.0000 </r>
       <r>   -5.4795    1.0000 </r>
       <r>   -5.4788    1.0000 </r>
       <r>   -5.4691    1.0000 </r>
       <r>   -5.4564    1.0000 </r>
       <r>   -5.4542    1.0000 </r>
       <r>   -5.4453    1.0000 </r>
       <r>   -5.4429    1.0000 </r>
       <r>   -5.4412    1.0000 </r>
       <r>   -5.4261    1.0000 </r>
       <r>   -5.4231    1.0000 </r>
       <r>   -5.4187    1.0000 </r>
       <r>   -5.4155    1.0000 </r>
       <r>   -5.4127    1.0000 </r>
       <r>   -5.3902    1.0000 </r>
       <r>   -5.3767    1.0000 </r>
       <r>   -5.3577    1.0000 </r>
       <r>   -5.3420    1.0000 </r>
       <r>   -5.3384    1.0000 </r>
       <r>   -5.3354    1.0000 </r>
       <r>   -5.3311    1.0000 </r>
       <r>   -5.3257    1.0000 </r>
       <r>   -5.3161    1.0000 </r>
       <r>   -5.3147    1.0000 </r>
       <r>   -5.3113    1.0000 </r>
       <r>   -5.3039    1.0000 </r>
       <r>   -5.2592    1.0000 </r>
       <r>   -5.2516    1.0000 </r>
       <r>   -5.2396    1.0000 </r>
       <r>   -5.2234    1.0000 </r>
       <r>   -5.2209    1.0000 </r>
       <r>   -5.2148    1.0000 </r>
       <r>   -5.2011    1.0000 </r>
       <r>   -5.1965    1.0000 </r>
       <r>   -5.1885    1.0000 </r>
       <r>   -5.1852    1.0000 </r>
       <r>   -5.1830    1.0000 </r>
       <r>   -5.1779    1.0000 </r>
       <r>   -5.1759    1.0000 </r>
       <r>   -5.1737    1.0000 </r>
       <r>   -5.1601    1.0000 </r>
       <r>   -5.1509    1.0000 </r>
       <r>   -5.1476    1.0000 </r>
       <r>   -5.1355    1.0000 </r>
       <r>   -5.1298    1.0000 </r>
       <r>   -5.1189    1.0000 </r>
       <r>   -5.1181    1.0000 </r>
       <r>   -5.0980    1.0000 </r>
       <r>   -5.0873    1.0000 </r>
       <r>   -5.0847    1.0000 </r>
       <r>   -5.0708    1.0000 </r>
       <r>   -5.0688    1.0000 </r>
       <r>   -5.0651    1.0000 </r>
       <r>   -5.0642    1.0000 </r>
       <r>   -5.0581    1.0000 </r>
       <r>   -5.0526    1.0000 </r>
       <r>   -5.0514    1.0000 </r>
       <r>   -5.0467    1.0000 </r>
       <r>   -5.0440    1.0000 </r>
       <r>   -5.0366    1.0000 </r>
       <r>   -5.0337    1.0000 </r>
       <r>   -5.0317    1.0000 </r>
       <r>   -5.0185    1.0000 </r>
       <r>   -5.0165    1.0000 </r>
       <r>   -5.0132    1.0000 </r>
       <r>   -5.0087    1.0000 </r>
       <r>   -5.0041    1.0000 </r>
       <r>   -4.9983    1.0000 </r>
       <r>   -4.9923    1.0000 </r>
       <r>   -4.9890    1.0000 </r>
       <r>   -4.9810    1.0000 </r>
       <r>   -4.9793    1.0000 </r>
       <r>   -4.9715    1.0000 </r>
       <r>   -4.9648    1.0000 </r>
       <r>   -4.9597    1.0000 </r>
       <r>   -4.9509    1.0000 </r>
       <r>   -4.9449    1.0000 </r>
       <r>   -4.9388    1.0000 </r>
       <r>   -4.9331    1.0000 </r>
       <r>   -4.9247    1.0000 </r>
       <r>   -4.9234    1.0000 </r>
       <r>   -4.9174    1.0000 </r>
       <r>   -4.9156    1.0000 </r>
       <r>   -4.9131    1.0000 </r>
       <r>   -4.9078    1.0000 </r>
       <r>   -4.8868    1.0000 </r>
       <r>   -4.8677    1.0000 </r>
       <r>   -4.8657    1.0000 </r>
       <r>   -4.8618    1.0000 </r>
       <r>   -4.8557    1.0000 </r>
       <r>   -4.8518    1.0000 </r>
       <r>   -4.8480    1.0000 </r>
       <r>   -4.8453    1.0000 </r>
       <r>   -4.8386    1.0000 </r>
       <r>   -4.8236    0.9999 </r>
       <r>   -4.8203    0.9999 </r>
       <r>   -4.8094    0.9999 </r>
       <r>   -4.7989    0.9999 </r>
       <r>   -4.7908    0.9998 </r>
       <r>   -4.7876    0.9998 </r>
       <r>   -4.7817    0.9998 </r>
       <r>   -4.7607    0.9997 </r>
       <r>   -4.7576    0.9997 </r>
       <r>   -4.7563    0.9996 </r>
       <r>   -4.7525    0.9996 </r>
       <r>   -4.7435    0.9995 </r>
       <r>   -4.7251    0.9993 </r>
       <r>   -4.7169    0.9992 </r>
       <r>   -4.7133    0.9991 </r>
       <r>   -4.7114    0.9991 </r>
       <r>   -4.7099    0.9991 </r>
       <r>   -4.6933    0.9987 </r>
       <r>   -4.6918    0.9987 </r>
       <r>   -4.6887    0.9986 </r>
       <r>   -4.6877    0.9986 </r>
       <r>   -4.6817    0.9984 </r>
       <r>   -4.6795    0.9984 </r>
       <r>   -4.6737    0.9982 </r>
       <r>   -4.6719    0.9982 </r>
       <r>   -4.6691    0.9981 </r>
       <r>   -4.6653    0.9980 </r>
       <r>   -4.6618    0.9979 </r>
       <r>   -4.6600    0.9978 </r>
       <r>   -4.6582    0.9977 </r>
       <r>   -4.6575    0.9977 </r>
       <r>   -4.6533    0.9976 </r>
       <r>   -4.6487    0.9974 </r>
       <r>   -4.6480    0.9974 </r>
       <r>   -4.6268    0.9966 </r>
       <r>   -4.6225    0.9964 </r>
       <r>   -4.6197    0.9963 </r>
       <r>   -4.6141    0.9961 </r>
       <r>   -4.6129    0.9961 </r>
       <r>   -4.6099    0.9960 </r>
       <r>   -4.6056    0.9958 </r>
       <r>   -4.6025    0.9957 </r>
       <r>   -4.6011    0.9957 </r>
       <r>   -4.5951    0.9955 </r>
       <r>   -4.5904    0.9954 </r>
       <r>   -4.5876    0.9953 </r>
       <r>   -4.5827    0.9952 </r>
       <r>   -4.5715    0.9951 </r>
       <r>   -4.5699    0.9951 </r>
       <r>   -4.5688    0.9951 </r>
       <r>   -4.5661    0.9951 </r>
       <r>   -4.5641    0.9951 </r>
       <r>   -4.5619    0.9951 </r>
       <r>   -4.5593    0.9951 </r>
       <r>   -4.5485    0.9954 </r>
       <r>   -4.5335    0.9962 </r>
       <r>   -4.5217    0.9974 </r>
       <r>   -4.5205    0.9975 </r>
       <r>   -4.5200    0.9976 </r>
       <r>   -4.5110    0.9988 </r>
       <r>   -4.5091    0.9991 </r>
       <r>   -4.5065    0.9996 </r>
       <r>   -4.4951    1.0018 </r>
       <r>   -4.4913    1.0027 </r>
       <r>   -4.4890    1.0033 </r>
       <r>   -4.4821    1.0051 </r>
       <r>   -4.4791    1.0059 </r>
       <r>   -4.4757    1.0070 </r>
       <r>   -4.4707    1.0086 </r>
       <r>   -4.4610    1.0120 </r>
       <r>   -4.4605    1.0122 </r>
       <r>   -4.4597    1.0125 </r>
       <r>   -4.4584    1.0130 </r>
       <r>   -4.4487    1.0169 </r>
       <r>   -4.4400    1.0207 </r>
       <r>   -4.4375    1.0219 </r>
       <r>   -4.4331    1.0239 </r>
       <r>   -4.4256    1.0274 </r>
       <r>   -4.4224    1.0290 </r>
       <r>   -4.4204    1.0299 </r>
       <r>   -4.4197    1.0302 </r>
       <r>   -4.4182    1.0310 </r>
       <r>   -4.4144    1.0328 </r>
       <r>   -4.4051    1.0372 </r>
       <r>   -4.3891    1.0441 </r>
       <r>   -4.3843    1.0459 </r>
       <r>   -4.3803    1.0473 </r>
       <r>   -4.3770    1.0483 </r>
       <r>   -4.3713    1.0497 </r>
       <r>   -4.3617    1.0513 </r>
       <r>   -4.3577    1.0516 </r>
       <r>   -4.3544    1.0516 </r>
       <r>   -4.3503    1.0514 </r>
       <r>   -4.3487    1.0512 </r>
       <r>   -4.3465    1.0509 </r>
       <r>   -4.3463    1.0508 </r>
       <r>   -4.3431    1.0502 </r>
       <r>   -4.3393    1.0491 </r>
       <r>   -4.3389    1.0490 </r>
       <r>   -4.3374    1.0485 </r>
       <r>   -4.3373    1.0484 </r>
       <r>   -4.3346    1.0473 </r>
       <r>   -4.3303    1.0452 </r>
       <r>   -4.3241    1.0414 </r>
       <r>   -4.3206    1.0387 </r>
       <r>   -4.3202    1.0384 </r>
       <r>   -4.3038    1.0209 </r>
       <r>   -4.3024    1.0190 </r>
       <r>   -4.3018    1.0180 </r>
       <r>   -4.3004    1.0161 </r>
       <r>   -4.2974    1.0116 </r>
       <r>   -4.2944    1.0068 </r>
       <r>   -4.2891    0.9974 </r>
       <r>   -4.2848    0.9892 </r>
       <r>   -4.2810    0.9811 </r>
       <r>   -4.2779    0.9744 </r>
       <r>   -4.2759    0.9697 </r>
       <r>   -4.2738    0.9647 </r>
       <r>   -4.2718    0.9599 </r>
       <r>   -4.2669    0.9471 </r>
       <r>   -4.2649    0.9415 </r>
       <r>   -4.2625    0.9347 </r>
       <r>   -4.2622    0.9338 </r>
       <r>   -4.2588    0.9239 </r>
       <r>   -4.2565    0.9170 </r>
       <r>   -4.2552    0.9127 </r>
       <r>   -4.2517    0.9017 </r>
       <r>   -4.2515    0.9009 </r>
       <r>   -4.2502    0.8965 </r>
       <r>   -4.2386    0.8552 </r>
       <r>   -4.2377    0.8518 </r>
       <r>   -4.2369    0.8489 </r>
       <r>   -4.2330    0.8338 </r>
       <r>   -4.2318    0.8288 </r>
       <r>   -4.2308    0.8249 </r>
       <r>   -4.2209    0.7831 </r>
       <r>   -4.2155    0.7592 </r>
       <r>   -4.2064    0.7170 </r>
       <r>   -4.1979    0.6759 </r>
       <r>   -4.1930    0.6515 </r>
       <r>   -4.1924    0.6483 </r>
       <r>   -4.1877    0.6244 </r>
       <r>   -4.1871    0.6213 </r>
       <r>   -4.1855    0.6133 </r>
       <r>   -4.1725    0.5454 </r>
       <r>   -4.1518    0.4360 </r>
       <r>   -4.1514    0.4340 </r>
       <r>   -4.1446    0.3987 </r>
       <r>   -4.1430    0.3901 </r>
       <r>   -4.1396    0.3730 </r>
       <r>   -4.1298    0.3235 </r>
       <r>   -4.1280    0.3150 </r>
       <r>   -4.1214    0.2828 </r>
       <r>   -3.9770   -0.0514 </r>
       <r>   -3.8615   -0.0101 </r>
       <r>   -3.8393   -0.0034 </r>
       <r>   -3.8278   -0.0008 </r>
       <r>   -3.6667    0.0022 </r>
       <r>   -3.5185    0.0001 </r>
       <r>   -3.5064    0.0001 </r>
       <r>   -3.3464    0.0000 </r>
       <r>   -3.0959    0.0000 </r>
       <r>   -3.0722    0.0000 </r>
       <r>   -3.0663    0.0000 </r>
       <r>   -3.0432    0.0000 </r>
       <r>   -3.0368    0.0000 </r>
       <r>   -2.9578    0.0000 </r>
       <r>   -2.9477    0.0000 </r>
       <r>   -2.6818    0.0000 </r>
       <r>   -2.6339    0.0000 </r>
       <r>   -2.5307    0.0000 </r>
       <r>   -2.5089    0.0000 </r>
       <r>   -2.2994    0.0000 </r>
       <r>   -2.1261    0.0000 </r>
       <r>   -2.1249    0.0000 </r>
       <r>   -2.0883    0.0000 </r>
       <r>   -2.0404    0.0000 </r>
       <r>   -2.0113    0.0000 </r>
       <r>   -1.9510    0.0000 </r>
       <r>   -1.8938    0.0000 </r>
       <r>   -1.7949    0.0000 </r>
       <r>   -1.7210    0.0000 </r>
       <r>   -1.6661    0.0000 </r>
       <r>   -1.6546    0.0000 </r>
       <r>   -1.6140    0.0000 </r>
       <r>   -1.5784    0.0000 </r>
       <r>   -1.5438    0.0000 </r>
       <r>   -1.3949    0.0000 </r>
       <r>   -1.2544    0.0000 </r>
       <r>   -1.1885    0.0000 </r>
       <r>   -1.1134    0.0000 </r>
       <r>   -0.9985    0.0000 </r>
       <r>   -0.9934    0.0000 </r>
       <r>   -0.9873    0.0000 </r>
       <r>   -0.9583    0.0000 </r>
       <r>   -0.9387    0.0000 </r>
       <r>   -0.9244    0.0000 </r>
       <r>   -0.8984    0.0000 </r>
       <r>   -0.8198    0.0000 </r>
       <r>   -0.6454    0.0000 </r>
      </set>
     </set>
    </set>
   </array>
  </eigenvalues>
  <separator name="orbital magnetization" >
   <v name="MAGDIPOLOUT">      0.00000000      0.00000000      0.00000000</v>
  </separator>
  <dos>
   <i name="efermi">     -4.16390528 </i>
   <total>
    <array>
     <dimension dim="1">gridpoints</dimension>
     <dimension dim="2">spin</dimension>
     <field>energy</field>
     <field>total</field>
     <field>integrated</field>
     <set>
      <set comment="spin 1">
       <r>   -30.2173     0.0000     0.0000 </r>
       <r>   -30.1121     0.0000     0.0000 </r>
       <r>   -30.0068     0.0000     0.0000 </r>
       <r>   -29.9016     0.0000     0.0000 </r>
       <r>   -29.7964     0.0000     0.0000 </r>
       <r>   -29.6911     0.0000     0.0000 </r>
       <r>   -29.5859     0.0000     0.0000 </r>
       <r>   -29.4806     0.0000     0.0000 </r>
       <r>   -29.3754     0.0000     0.0000 </r>
       <r>   -29.2702     0.0000     0.0000 </r>
       <r>   -29.1649     0.0000     0.0000 </r>
       <r>   -29.0597     0.0000     0.0000 </r>
       <r>   -28.9544     0.0001     0.0000 </r>
       <r>   -28.8492     0.0025     0.0003 </r>
       <r>   -28.7440     0.0229     0.0027 </r>
       <r>   -28.6387     0.0646     0.0095 </r>
       <r>   -28.5335    -0.1974    -0.0113 </r>
       <r>   -28.4283    -0.8214    -0.0977 </r>
       <r>   -28.3230     1.8007     0.0918 </r>
       <r>   -28.2178     8.5857     0.9953 </r>
       <r>   -28.1125     8.6308     1.9036 </r>
       <r>   -28.0073     1.8491     2.0982 </r>
       <r>   -27.9021    -0.8209     2.0118 </r>
       <r>   -27.7968    -0.2027     1.9905 </r>
       <r>   -27.6916     0.0645     1.9973 </r>
       <r>   -27.5863     0.0232     1.9997 </r>
       <r>   -27.4811     0.0025     2.0000 </r>
       <r>   -27.3759     0.0001     2.0000 </r>
       <r>   -27.2706     0.0000     2.0000 </r>
       <r>   -27.1654     0.0000     2.0000 </r>
       <r>   -27.0601     0.0000     2.0000 </r>
       <r>   -26.9549     0.0000     2.0000 </r>
       <r>   -26.8497     0.0000     2.0000 </r>
       <r>   -26.7444     0.0000     2.0000 </r>
       <r>   -26.6392     0.0000     2.0000 </r>
       <r>   -26.5339     0.0000     2.0000 </r>
       <r>   -26.4287     0.0000     2.0000 </r>
       <r>   -26.3235     0.0000     2.0000 </r>
       <r>   -26.2182     0.0000     2.0000 </r>
       <r>   -26.1130     0.0000     2.0000 </r>
       <r>   -26.0077     0.0000     2.0000 </r>
       <r>   -25.9025     0.0000     2.0000 </r>
       <r>   -25.7973     0.0000     2.0000 </r>
       <r>   -25.6920     0.0000     2.0000 </r>
       <r>   -25.5868     0.0000     2.0000 </r>
       <r>   -25.4815     0.0000     2.0000 </r>
       <r>   -25.3763     0.0000     2.0000 </r>
       <r>   -25.2711     0.0000     2.0000 </r>
       <r>   -25.1658     0.0000     2.0000 </r>
       <r>   -25.0606     0.0000     2.0000 </r>
       <r>   -24.9553     0.0000     2.0000 </r>
       <r>   -24.8501     0.0000     2.0000 </r>
       <r>   -24.7449     0.0000     2.0000 </r>
       <r>   -24.6396     0.0000     2.0000 </r>
       <r>   -24.5344     0.0000     2.0000 </r>
       <r>   -24.4291     0.0000     2.0000 </r>
       <r>   -24.3239     0.0000     2.0000 </r>
       <r>   -24.2187     0.0000     2.0000 </r>
       <r>   -24.1134     0.0000     2.0000 </r>
       <r>   -24.0082     0.0000     2.0000 </r>
       <r>   -23.9029     0.0000     2.0000 </r>
       <r>   -23.7977     0.0000     2.0000 </r>
       <r>   -23.6925     0.0000     2.0000 </r>
       <r>   -23.5872     0.0000     2.0000 </r>
       <r>   -23.4820     0.0000     2.0000 </r>
       <r>   -23.3767     0.0000     2.0000 </r>
       <r>   -23.2715     0.0000     2.0000 </r>
       <r>   -23.1663     0.0000     2.0000 </r>
       <r>   -23.0610     0.0000     2.0000 </r>
       <r>   -22.9558     0.0000     2.0000 </r>
       <r>   -22.8505     0.0000     2.0000 </r>
       <r>   -22.7453     0.0000     2.0000 </r>
       <r>   -22.6401     0.0000     2.0000 </r>
       <r>   -22.5348     0.0000     2.0000 </r>
       <r>   -22.4296     0.0000     2.0000 </r>
       <r>   -22.3243     0.0000     2.0000 </r>
       <r>   -22.2191     0.0000     2.0000 </r>
       <r>   -22.1139     0.0000     2.0000 </r>
       <r>   -22.0086     0.0000     2.0000 </r>
       <r>   -21.9034     0.0000     2.0000 </r>
       <r>   -21.7981     0.0000     2.0000 </r>
       <r>   -21.6929     0.0000     2.0000 </r>
       <r>   -21.5877     0.0000     2.0000 </r>
       <r>   -21.4824     0.0000     2.0000 </r>
       <r>   -21.3772     0.0000     2.0000 </r>
       <r>   -21.2719     0.0000     2.0000 </r>
       <r>   -21.1667     0.0000     2.0000 </r>
       <r>   -21.0615     0.0000     2.0000 </r>
       <r>   -20.9562     0.0000     2.0000 </r>
       <r>   -20.8510     0.0000     2.0000 </r>
       <r>   -20.7457     0.0000     2.0000 </r>
       <r>   -20.6405     0.0000     2.0000 </r>
       <r>   -20.5353     0.0000     2.0000 </r>
       <r>   -20.4300     0.0000     2.0000 </r>
       <r>   -20.3248     0.0000     2.0000 </r>
       <r>   -20.2195     0.0000     2.0000 </r>
       <r>   -20.1143     0.0000     2.0000 </r>
       <r>   -20.0091     0.0000     2.0000 </r>
       <r>   -19.9038     0.0000     2.0000 </r>
       <r>   -19.7986     0.0000     2.0000 </r>
       <r>   -19.6933     0.0000     2.0000 </r>
       <r>   -19.5881     0.0000     2.0000 </r>
       <r>   -19.4829     0.0000     2.0000 </r>
       <r>   -19.3776     0.0000     2.0000 </r>
       <r>   -19.2724     0.0000     2.0000 </r>
       <r>   -19.1671     0.0000     2.0000 </r>
       <r>   -19.0619     0.0000     2.0000 </r>
       <r>   -18.9567     0.0000     2.0000 </r>
       <r>   -18.8514     0.0000     2.0000 </r>
       <r>   -18.7462     0.0000     2.0000 </r>
       <r>   -18.6409     0.0000     2.0000 </r>
       <r>   -18.5357     0.0000     2.0000 </r>
       <r>   -18.4305     0.0000     2.0000 </r>
       <r>   -18.3252     0.0000     2.0000 </r>
       <r>   -18.2200     0.0000     2.0000 </r>
       <r>   -18.1147     0.0000     2.0000 </r>
       <r>   -18.0095     0.0000     2.0000 </r>
       <r>   -17.9043     0.0000     2.0000 </r>
       <r>   -17.7990     0.0000     2.0000 </r>
       <r>   -17.6938     0.0000     2.0000 </r>
       <r>   -17.5885     0.0000     2.0000 </r>
       <r>   -17.4833     0.0000     2.0000 </r>
       <r>   -17.3781     0.0000     2.0000 </r>
       <r>   -17.2728     0.0000     2.0000 </r>
       <r>   -17.1676     0.0000     2.0000 </r>
       <r>   -17.0624     0.0000     2.0000 </r>
       <r>   -16.9571     0.0000     2.0000 </r>
       <r>   -16.8519     0.0000     2.0000 </r>
       <r>   -16.7466     0.0000     2.0000 </r>
       <r>   -16.6414     0.0000     2.0000 </r>
       <r>   -16.5362     0.0000     2.0000 </r>
       <r>   -16.4309     0.0000     2.0000 </r>
       <r>   -16.3257     0.0000     2.0000 </r>
       <r>   -16.2204     0.0000     2.0000 </r>
       <r>   -16.1152     0.0000     2.0000 </r>
       <r>   -16.0100     0.0000     2.0000 </r>
       <r>   -15.9047     0.0000     2.0000 </r>
       <r>   -15.7995     0.0000     2.0000 </r>
       <r>   -15.6942     0.0000     2.0000 </r>
       <r>   -15.5890     0.0000     2.0000 </r>
       <r>   -15.4838     0.0000     2.0000 </r>
       <r>   -15.3785     0.0000     2.0000 </r>
       <r>   -15.2733     0.0000     2.0000 </r>
       <r>   -15.1680     0.0000     2.0000 </r>
       <r>   -15.0628     0.0000     2.0000 </r>
       <r>   -14.9576     0.0000     2.0000 </r>
       <r>   -14.8523     0.0000     2.0000 </r>
       <r>   -14.7471     0.0000     2.0000 </r>
       <r>   -14.6418     0.0000     2.0000 </r>
       <r>   -14.5366     0.0000     2.0000 </r>
       <r>   -14.4314     0.0000     2.0000 </r>
       <r>   -14.3261     0.0000     2.0000 </r>
       <r>   -14.2209     0.0000     2.0000 </r>
       <r>   -14.1156     0.0000     2.0000 </r>
       <r>   -14.0104     0.0000     2.0000 </r>
       <r>   -13.9052     0.0009     2.0001 </r>
       <r>   -13.7999     0.0110     2.0013 </r>
       <r>   -13.6947     0.0539     2.0069 </r>
       <r>   -13.5894    -0.0210     2.0047 </r>
       <r>   -13.4842    -0.6696     1.9343 </r>
       <r>   -13.3790     0.1048     1.9453 </r>
       <r>   -13.2737     6.1334     2.5908 </r>
       <r>   -13.1685     9.9419     3.6370 </r>
       <r>   -13.0632     4.3473     4.0946 </r>
       <r>   -12.9580    -0.5025     4.0417 </r>
       <r>   -12.8528    -0.4806     3.9911 </r>
       <r>   -12.7475     0.0365     3.9949 </r>
       <r>   -12.6423     0.0412     3.9993 </r>
       <r>   -12.5370     0.0064     4.0000 </r>
       <r>   -12.4318     0.0004     4.0000 </r>
       <r>   -12.3266     0.0000     4.0000 </r>
       <r>   -12.2213     0.0000     4.0000 </r>
       <r>   -12.1161     0.0000     4.0000 </r>
       <r>   -12.0108     0.0000     4.0000 </r>
       <r>   -11.9056     0.0000     4.0000 </r>
       <r>   -11.8004     0.0000     4.0000 </r>
       <r>   -11.6951     0.0005     4.0001 </r>
       <r>   -11.5899     0.0078     4.0009 </r>
       <r>   -11.4846     0.0462     4.0057 </r>
       <r>   -11.3794     0.0296     4.0089 </r>
       <r>   -11.2742    -0.4998     3.9563 </r>
       <r>   -11.1689    -0.3221     3.9224 </r>
       <r>   -11.0637     4.3834     4.3837 </r>
       <r>   -10.9584     9.7800     5.4129 </r>
       <r>   -10.8532    10.7805     6.5475 </r>
       <r>   -10.7480     9.7221     7.5706 </r>
       <r>   -10.6427     3.8637     7.9772 </r>
       <r>   -10.5375     1.2680     8.1107 </r>
       <r>   -10.4322     7.7407     8.9253 </r>
       <r>   -10.3270     8.9334     9.8655 </r>
       <r>   -10.2218     2.2271    10.0998 </r>
       <r>   -10.1165    -0.8029    10.0153 </r>
       <r>   -10.0113    -0.2381     9.9903 </r>
       <r>    -9.9060     0.0637     9.9970 </r>
       <r>    -9.8008     0.0255     9.9997 </r>
       <r>    -9.6956     0.0029    10.0000 </r>
       <r>    -9.5903     0.0002    10.0000 </r>
       <r>    -9.4851     0.0000    10.0000 </r>
       <r>    -9.3798     0.0000    10.0000 </r>
       <r>    -9.2746     0.0000    10.0000 </r>
       <r>    -9.1694     0.0000    10.0000 </r>
       <r>    -9.0641     0.0000    10.0000 </r>
       <r>    -8.9589     0.0000    10.0000 </r>
       <r>    -8.8536     0.0000    10.0000 </r>
       <r>    -8.7484     0.0000    10.0000 </r>
       <r>    -8.6432     0.0000    10.0000 </r>
       <r>    -8.5379     0.0000    10.0000 </r>
       <r>    -8.4327     0.0000    10.0000 </r>
       <r>    -8.3274     0.0000    10.0000 </r>
       <r>    -8.2222     0.0000    10.0000 </r>
       <r>    -8.1170     0.0000    10.0000 </r>
       <r>    -8.0117     0.0000    10.0000 </r>
       <r>    -7.9065     0.0000    10.0000 </r>
       <r>    -7.8012     0.0000    10.0000 </r>
       <r>    -7.6960     0.0000    10.0000 </r>
       <r>    -7.5908     0.0000    10.0000 </r>
       <r>    -7.4855     0.0000    10.0000 </r>
       <r>    -7.3803     0.0002    10.0000 </r>
       <r>    -7.2750     0.0038    10.0004 </r>
       <r>    -7.1698     0.0302    10.0036 </r>
       <r>    -7.0646     0.0596    10.0099 </r>
       <r>    -6.9593    -0.3109     9.9772 </r>
       <r>    -6.8541    -0.7623     9.8969 </r>
       <r>    -6.7488     2.8485    10.1967 </r>
       <r>    -6.6436     9.4864    11.1951 </r>
       <r>    -6.5384     7.8080    12.0168 </r>
       <r>    -6.4331    -0.2704    11.9883 </r>
       <r>    -6.3279    -2.6917    11.7050 </r>
       <r>    -6.2227    11.3093    12.8952 </r>
       <r>    -6.1174    33.3842    16.4086 </r>
       <r>    -6.0122    33.2090    19.9035 </r>
       <r>    -5.9069    23.0548    22.3298 </r>
       <r>    -5.8017    39.7215    26.5101 </r>
       <r>    -5.6965    90.0174    35.9835 </r>
       <r>    -5.5912   180.8860    55.0199 </r>
       <r>    -5.4860   275.3547    83.9981 </r>
       <r>    -5.3807   276.6181   113.1094 </r>
       <r>    -5.2755   218.6198   136.1169 </r>
       <r>    -5.1703   230.9363   160.4206 </r>
       <r>    -5.0650   313.2936   193.3915 </r>
       <r>    -4.9598   354.9693   230.7484 </r>
       <r>    -4.8545   309.8879   263.3610 </r>
       <r>    -4.7493   297.3484   294.6539 </r>
       <r>    -4.6441   380.9830   334.7485 </r>
       <r>    -4.5388   426.9826   379.6840 </r>
       <r>    -4.4336   428.5214   424.7815 </r>
       <r>    -4.3283   511.3101   478.5917 </r>
       <r>    -4.2231   544.9017   535.9371 </r>
       <r>    -4.1179   341.9200   571.9207 </r>
       <r>    -4.0126    85.5805   580.9271 </r>
       <r>    -3.9074     4.2613   581.3756 </r>
       <r>    -3.8021    24.3222   583.9352 </r>
       <r>    -3.6969    24.6307   586.5274 </r>
       <r>    -3.5917    17.1597   588.3333 </r>
       <r>    -3.4864    21.8380   590.6315 </r>
       <r>    -3.3812    19.0814   592.6396 </r>
       <r>    -3.2759     6.7392   593.3488 </r>
       <r>    -3.1707    10.0240   594.4038 </r>
       <r>    -3.0655    43.8926   599.0230 </r>
       <r>    -2.9602    58.4661   605.1760 </r>
       <r>    -2.8550    26.8575   608.0024 </r>
       <r>    -2.7497     4.7548   608.5028 </r>
       <r>    -2.6445    16.9966   610.2915 </r>
       <r>    -2.5393    29.6615   613.4131 </r>
       <r>    -2.4340    21.7551   615.7026 </r>
       <r>    -2.3288     8.6414   616.6120 </r>
       <r>    -2.2235    10.9104   617.7602 </r>
       <r>    -2.1183    31.8492   621.1121 </r>
       <r>    -2.0131    48.5298   626.2193 </r>
       <r>    -1.9078    38.6126   630.2829 </r>
       <r>    -1.8026    25.1909   632.9340 </r>
       <r>    -1.6973    35.5579   636.6761 </r>
       <r>    -1.5921    49.9023   641.9278 </r>
       <r>    -1.4869    36.3779   645.7562 </r>
       <r>    -1.3816    15.4358   647.3807 </r>
       <r>    -1.2764    13.4192   648.7929 </r>
       <r>    -1.1711    19.5376   650.8490 </r>
       <r>    -1.0659    33.3199   654.3556 </r>
       <r>    -0.9607    62.0162   660.8822 </r>
       <r>    -0.8554    62.4870   667.4583 </r>
       <r>    -0.7502    27.2723   670.3284 </r>
       <r>    -0.6449     8.5357   671.2267 </r>
       <r>    -0.5397     6.2862   671.8883 </r>
       <r>    -0.4345     1.6865   672.0658 </r>
       <r>    -0.3292    -0.5912   672.0036 </r>
       <r>    -0.2240    -0.1318   671.9897 </r>
       <r>    -0.1187     0.0721   671.9973 </r>
       <r>    -0.0135     0.0233   671.9997 </r>
       <r>     0.0917     0.0025   672.0000 </r>
       <r>     0.1970     0.0001   672.0000 </r>
       <r>     0.3022     0.0000   672.0000 </r>
       <r>     0.4075     0.0000   672.0000 </r>
       <r>     0.5127     0.0000   672.0000 </r>
       <r>     0.6179     0.0000   672.0000 </r>
       <r>     0.7232     0.0000   672.0000 </r>
       <r>     0.8284     0.0000   672.0000 </r>
       <r>     0.9337     0.0000   672.0000 </r>
       <r>     1.0389     0.0000   672.0000 </r>
       <r>     1.1441     0.0000   672.0000 </r>
       <r>     1.2494     0.0000   672.0000 </r>
       <r>     1.3546     0.0000   672.0000 </r>
      </set>
     </set>
    </array>
   </total>
  </dos>
 </calculation>
 <structure name="finalpos" >
  <crystal>
   <varray name="basis" >
    <v>      30.00000000       0.00000000       0.00000000 </v>
    <v>       0.00000000      30.00000000       0.00000000 </v>
    <v>       0.00000000       0.00000000      30.00000000 </v>
   </varray>
   <i name="volume">  27000.00000000 </i>
   <varray name="rec_basis" >
    <v>       0.03333333       0.00000000       0.00000000 </v>
    <v>       0.00000000       0.03333333       0.00000000 </v>
    <v>       0.00000000       0.00000000       0.03333333 </v>
   </varray>
  </crystal>
  <varray name="positions" >
   <v>       0.44576020       0.32826710       0.41691983 </v>
   <v>       0.67173288       0.55423978       0.41691983 </v>
   <v>       0.55423980       0.32826710       0.41691983 </v>
   <v>       0.32826712       0.55423978       0.41691983 </v>
   <v>       0.50000000       0.38250690       0.34021317 </v>
   <v>       0.50000000       0.38250690       0.65978680 </v>
   <v>       0.50000000       0.27609440       0.50000000 </v>
   <v>       0.27609443       0.49999998       0.50000000 </v>
   <v>       0.72390557       0.49999998       0.50000000 </v>
   <v>       0.50000000       0.72390555       0.50000000 </v>
   <v>       0.61195280       0.38804720       0.34167483 </v>
   <v>       0.61195280       0.38804720       0.65832513 </v>
   <v>       0.38804722       0.61195278       0.34167483 </v>
   <v>       0.38804722       0.61195278       0.65832513 </v>
   <v>       0.38804720       0.38804720       0.34167483 </v>
   <v>       0.38804720       0.38804720       0.65832513 </v>
   <v>       0.61195278       0.61195278       0.34167483 </v>
   <v>       0.61195278       0.61195278       0.65832513 </v>
   <v>       0.44576020       0.32826710       0.58308023 </v>
   <v>       0.67173288       0.55423978       0.58308023 </v>
   <v>       0.55791699       0.44208301       0.41809300 </v>
   <v>       0.32826705       0.44576024       0.41691983 </v>
   <v>       0.55423973       0.67173293       0.41691983 </v>
   <v>       0.55423980       0.32826710       0.58308023 </v>
   <v>       0.32826712       0.55423978       0.58308023 </v>
   <v>       0.67173295       0.44576024       0.41691983 </v>
   <v>       0.44576027       0.67173293       0.41691983 </v>
   <v>       0.44208301       0.44208301       0.41809300 </v>
   <v>       0.50000000       0.38416601       0.50000000 </v>
   <v>       0.61749315       0.50000005       0.34021317 </v>
   <v>       0.61749315       0.50000005       0.65978680 </v>
   <v>       0.38250685       0.50000005       0.34021317 </v>
   <v>       0.38250685       0.50000005       0.65978680 </v>
   <v>       0.38317830       0.38317830       0.50000000 </v>
   <v>       0.61682172       0.61682172       0.50000000 </v>
   <v>       0.61682170       0.38317830       0.50000000 </v>
   <v>       0.38317828       0.61682172       0.50000000 </v>
   <v>       0.50000000       0.50000000       0.33478917 </v>
   <v>       0.50000000       0.50000000       0.66521087 </v>
   <v>       0.32826705       0.44576024       0.58308023 </v>
   <v>       0.55423973       0.67173293       0.58308023 </v>
   <v>       0.55791699       0.44208301       0.58190703 </v>
   <v>       0.44208298       0.55791702       0.41809300 </v>
   <v>       0.44208301       0.44208301       0.58190703 </v>
   <v>       0.67173295       0.44576024       0.58308023 </v>
   <v>       0.44576027       0.67173293       0.58308023 </v>
   <v>       0.55791702       0.55791702       0.41809300 </v>
   <v>       0.38416599       0.50000002       0.50000000 </v>
   <v>       0.61583401       0.50000002       0.50000000 </v>
   <v>       0.50000000       0.61749319       0.34021317 </v>
   <v>       0.50000000       0.61749319       0.65978680 </v>
   <v>       0.50000000       0.50000000       0.50000000 </v>
   <v>       0.44208298       0.55791702       0.58190703 </v>
   <v>       0.55791702       0.55791702       0.58190703 </v>
   <v>       0.50000000       0.61583404       0.50000000 </v>
   <v>       0.28350807       0.50354873       0.59484230 </v>
   <v>       0.24907187       0.50411320       0.60992837 </v>
  </varray>
  <varray name="selective"  type="logical" >
   <v type="logical" >  F  F  F </v>
   <v type="logical" >  F  F  F </v>
   <v type="logical" >  F  F  F </v>
   <v type="logical" >  F  F  F </v>
   <v type="logical" >  F  F  F </v>
   <v type="logical" >  F  F  F </v>
   <v type="logical" >  F  F  F </v>
   <v type="logical" >  F  F  F </v>
   <v type="logical" >  F  F  F </v>
   <v type="logical" >  F  F  F </v>
   <v type="logical" >  F  F  F </v>
   <v type="logical" >  F  F  F </v>
   <v type="logical" >  F  F  F </v>
   <v type="logical" >  F  F  F </v>
   <v type="logical" >  F  F  F </v>
   <v type="logical" >  F  F  F </v>
   <v type="logical" >  F  F  F </v>
   <v type="logical" >  F  F  F </v>
   <v type="logical" >  F  F  F </v>
   <v type="logical" >  F  F  F </v>
   <v type="logical" >  F  F  F </v>
   <v type="logical" >  F  F  F </v>
   <v type="logical" >  F  F  F </v>
   <v type="logical" >  F  F  F </v>
   <v type="logical" >  F  F  F </v>
   <v type="logical" >  F  F  F </v>
   <v type="logical" >  F  F  F </v>
   <v type="logical" >  F  F  F </v>
   <v type="logical" >  F  F  F </v>
   <v type="logical" >  F  F  F </v>
   <v type="logical" >  F  F  F </v>
   <v type="logical" >  F  F  F </v>
   <v type="logical" >  F  F  F </v>
   <v type="logical" >  F  F  F </v>
   <v type="logical" >  F  F  F </v>
   <v type="logical" >  F  F  F </v>
   <v type="logical" >  F  F  F </v>
   <v type="logical" >  F  F  F </v>
   <v type="logical" >  F  F  F </v>
   <v type="logical" >  F  F  F </v>
   <v type="logical" >  F  F  F </v>
   <v type="logical" >  F  F  F </v>
   <v type="logical" >  F  F  F </v>
   <v type="logical" >  F  F  F </v>
   <v type="logical" >  F  F  F </v>
   <v type="logical" >  F  F  F </v>
   <v type="logical" >  F  F  F </v>
   <v type="logical" >  F  F  F </v>
   <v type="logical" >  F  F  F </v>
   <v type="logical" >  F  F  F </v>
   <v type="logical" >  F  F  F </v>
   <v type="logical" >  F  F  F </v>
   <v type="logical" >  F  F  F </v>
   <v type="logical" >  F  F  F </v>
   <v type="logical" >  F  F  F </v>
   <v type="logical" >  F  F  F </v>
   <v type="logical" >  F  F  F </v>
  </varray>
  <nose>
   <v>      -3.00000000       0.00000000       0.00010000       0.00010000 </v>
  </nose>
 </structure>
</modeling>
