  57  57   0   0
  0.4736842E+03  0.3000000E-08  0.3000000E-08  0.3000000E-08  0.5000000E-15
  1.000000000000000E-004
  CAR 
 6_Pd100_top_free_z(O)                   
      1.40333332    -30.47880249  301     -4.15264309      1.00000000
    -30.479  0.0000E+00  0.0000E+00
    -30.373  0.0000E+00  0.0000E+00
    -30.266  0.0000E+00  0.0000E+00
    -30.160  0.3082E-27  0.3275E-28
    -30.054  0.1437E-23  0.1528E-24
    -29.947  0.3752E-20  0.3989E-21
    -29.841  0.5469E-17  0.5817E-18
    -29.735  0.4435E-14  0.4719E-15
    -29.629  0.1995E-11  0.2125E-12
    -29.522  0.4930E-09  0.5261E-10
    -29.416  0.6640E-07  0.7109E-08
    -29.310  0.4801E-05  0.5173E-06
    -29.204  0.1817E-03  0.1983E-04
    -29.097  0.3430E-02  0.3843E-03
    -28.991  0.2863E-01  0.3427E-02
    -28.885  0.6058E-01  0.9865E-02
    -28.778 -0.3011E+00 -0.2213E-01
    -28.672 -0.7629E+00 -0.1032E+00
    -28.566  0.2869E+01  0.2017E+00
    -28.460  0.9409E+01  0.1202E+01
    -28.353  0.7474E+01  0.1996E+01
    -28.247  0.8180E+00  0.2083E+01
    -28.141 -0.7724E+00  0.2001E+01
    -28.035 -0.8411E-01  0.1992E+01
    -27.928  0.6048E-01  0.1998E+01
    -27.822  0.1483E-01  0.2000E+01
    -27.716  0.1292E-02  0.2000E+01
    -27.609  0.5280E-04  0.2000E+01
    -27.503  0.1100E-05  0.2000E+01
    -27.397  0.1212E-07  0.2000E+01
    -27.291  0.7216E-10  0.2000E+01
    -27.184  0.2361E-12  0.2000E+01
    -27.078  0.0000E+00  0.2000E+01
    -26.972  0.0000E+00  0.2000E+01
    -26.865  0.0000E+00  0.2000E+01
    -26.759  0.0000E+00  0.2000E+01
    -26.653  0.0000E+00  0.2000E+01
    -26.547  0.0000E+00  0.2000E+01
    -26.440  0.0000E+00  0.2000E+01
    -26.334  0.0000E+00  0.2000E+01
    -26.228  0.0000E+00  0.2000E+01
    -26.122  0.0000E+00  0.2000E+01
    -26.015  0.0000E+00  0.2000E+01
    -25.909  0.0000E+00  0.2000E+01
    -25.803  0.0000E+00  0.2000E+01
    -25.696  0.0000E+00  0.2000E+01
    -25.590  0.0000E+00  0.2000E+01
    -25.484  0.0000E+00  0.2000E+01
    -25.378  0.0000E+00  0.2000E+01
    -25.271  0.0000E+00  0.2000E+01
    -25.165  0.0000E+00  0.2000E+01
    -25.059  0.0000E+00  0.2000E+01
    -24.953  0.0000E+00  0.2000E+01
    -24.846  0.0000E+00  0.2000E+01
    -24.740  0.0000E+00  0.2000E+01
    -24.634  0.0000E+00  0.2000E+01
    -24.527  0.0000E+00  0.2000E+01
    -24.421  0.0000E+00  0.2000E+01
    -24.315  0.0000E+00  0.2000E+01
    -24.209  0.0000E+00  0.2000E+01
    -24.102  0.0000E+00  0.2000E+01
    -23.996  0.0000E+00  0.2000E+01
    -23.890  0.0000E+00  0.2000E+01
    -23.784  0.0000E+00  0.2000E+01
    -23.677  0.0000E+00  0.2000E+01
    -23.571  0.0000E+00  0.2000E+01
    -23.465  0.0000E+00  0.2000E+01
    -23.358  0.0000E+00  0.2000E+01
    -23.252  0.0000E+00  0.2000E+01
    -23.146  0.0000E+00  0.2000E+01
    -23.040  0.0000E+00  0.2000E+01
    -22.933  0.0000E+00  0.2000E+01
    -22.827  0.0000E+00  0.2000E+01
    -22.721  0.0000E+00  0.2000E+01
    -22.615  0.0000E+00  0.2000E+01
    -22.508  0.0000E+00  0.2000E+01
    -22.402  0.0000E+00  0.2000E+01
    -22.296  0.0000E+00  0.2000E+01
    -22.189  0.0000E+00  0.2000E+01
    -22.083  0.0000E+00  0.2000E+01
    -21.977  0.0000E+00  0.2000E+01
    -21.871  0.0000E+00  0.2000E+01
    -21.764  0.0000E+00  0.2000E+01
    -21.658  0.0000E+00  0.2000E+01
    -21.552  0.0000E+00  0.2000E+01
    -21.446  0.0000E+00  0.2000E+01
    -21.339  0.0000E+00  0.2000E+01
    -21.233  0.0000E+00  0.2000E+01
    -21.127  0.0000E+00  0.2000E+01
    -21.020  0.0000E+00  0.2000E+01
    -20.914  0.0000E+00  0.2000E+01
    -20.808  0.0000E+00  0.2000E+01
    -20.702  0.0000E+00  0.2000E+01
    -20.595  0.0000E+00  0.2000E+01
    -20.489  0.0000E+00  0.2000E+01
    -20.383  0.0000E+00  0.2000E+01
    -20.277  0.0000E+00  0.2000E+01
    -20.170  0.0000E+00  0.2000E+01
    -20.064  0.0000E+00  0.2000E+01
    -19.958  0.0000E+00  0.2000E+01
    -19.851  0.0000E+00  0.2000E+01
    -19.745  0.0000E+00  0.2000E+01
    -19.639  0.0000E+00  0.2000E+01
    -19.533  0.0000E+00  0.2000E+01
    -19.426  0.0000E+00  0.2000E+01
    -19.320  0.0000E+00  0.2000E+01
    -19.214  0.0000E+00  0.2000E+01
    -19.108  0.0000E+00  0.2000E+01
    -19.001  0.0000E+00  0.2000E+01
    -18.895  0.0000E+00  0.2000E+01
    -18.789  0.0000E+00  0.2000E+01
    -18.682  0.0000E+00  0.2000E+01
    -18.576  0.0000E+00  0.2000E+01
    -18.470  0.0000E+00  0.2000E+01
    -18.364  0.0000E+00  0.2000E+01
    -18.257  0.0000E+00  0.2000E+01
    -18.151  0.0000E+00  0.2000E+01
    -18.045  0.0000E+00  0.2000E+01
    -17.938  0.0000E+00  0.2000E+01
    -17.832  0.0000E+00  0.2000E+01
    -17.726  0.0000E+00  0.2000E+01
    -17.620  0.0000E+00  0.2000E+01
    -17.513  0.0000E+00  0.2000E+01
    -17.407  0.0000E+00  0.2000E+01
    -17.301  0.0000E+00  0.2000E+01
    -17.195  0.0000E+00  0.2000E+01
    -17.088  0.0000E+00  0.2000E+01
    -16.982  0.0000E+00  0.2000E+01
    -16.876  0.0000E+00  0.2000E+01
    -16.769  0.0000E+00  0.2000E+01
    -16.663  0.0000E+00  0.2000E+01
    -16.557  0.0000E+00  0.2000E+01
    -16.451  0.0000E+00  0.2000E+01
    -16.344  0.0000E+00  0.2000E+01
    -16.238  0.0000E+00  0.2000E+01
    -16.132  0.0000E+00  0.2000E+01
    -16.026  0.0000E+00  0.2000E+01
    -15.919  0.0000E+00  0.2000E+01
    -15.813  0.0000E+00  0.2000E+01
    -15.707  0.0000E+00  0.2000E+01
    -15.600  0.0000E+00  0.2000E+01
    -15.494  0.0000E+00  0.2000E+01
    -15.388  0.0000E+00  0.2000E+01
    -15.282  0.0000E+00  0.2000E+01
    -15.175  0.0000E+00  0.2000E+01
    -15.069  0.0000E+00  0.2000E+01
    -14.963  0.1286E-26  0.2000E+01
    -14.857  0.5453E-23  0.2000E+01
    -14.750  0.1294E-19  0.2000E+01
    -14.644  0.1713E-16  0.2000E+01
    -14.538  0.1261E-13  0.2000E+01
    -14.431  0.5145E-11  0.2000E+01
    -14.325  0.1151E-08  0.2000E+01
    -14.219  0.1402E-06  0.2000E+01
    -14.113  0.9131E-05  0.2000E+01
    -14.006  0.3096E-03  0.2000E+01
    -13.900  0.5169E-02  0.2001E+01
    -13.794  0.3679E-01  0.2004E+01
    -13.688  0.4663E-01  0.2009E+01
    -13.581 -0.4285E+00  0.1964E+01
    -13.475 -0.5874E+00  0.1901E+01
    -13.369  0.4021E+01  0.2329E+01
    -13.262  0.9873E+01  0.3378E+01
    -13.156  0.6318E+01  0.4049E+01
    -13.050  0.1633E+00  0.4067E+01
    -12.944 -0.6732E+00  0.3995E+01
    -12.837 -0.2040E-01  0.3993E+01
    -12.731  0.5324E-01  0.3999E+01
    -12.625  0.1053E-01  0.4000E+01
    -12.519  0.8019E-03  0.4000E+01
    -12.412  0.2922E-04  0.4000E+01
    -12.306  0.5470E-06  0.4000E+01
    -12.200  0.5457E-08  0.4000E+01
    -12.093  0.2968E-08  0.4000E+01
    -11.987  0.3197E-06  0.4000E+01
    -11.881  0.1857E-04  0.4000E+01
    -11.775  0.5603E-03  0.4000E+01
    -11.668  0.8293E-02  0.4001E+01
    -11.562  0.5184E-01  0.4006E+01
    -11.456  0.5075E-01  0.4012E+01
    -11.350 -0.5316E+00  0.3955E+01
    -11.243 -0.6376E+00  0.3888E+01
    -11.137  0.4802E+01  0.4398E+01
    -11.031  0.1401E+02  0.5887E+01
    -10.924  0.1481E+02  0.7461E+01
    -10.818  0.5994E+01  0.8098E+01
    -10.712 -0.3024E+00  0.8066E+01
    -10.606 -0.6722E+00  0.7994E+01
    -10.499 -0.6586E+00  0.7924E+01
    -10.393  0.2601E+00  0.7952E+01
    -10.287  0.6406E+01  0.8633E+01
    -10.181  0.9853E+01  0.9680E+01
    -10.074  0.3944E+01  0.1010E+02
     -9.968 -0.6028E+00  0.1004E+02
     -9.862 -0.4200E+00  0.9990E+01
     -9.755  0.4790E-01  0.9996E+01
     -9.649  0.3624E-01  0.9999E+01
     -9.543  0.5039E-02  0.1000E+02
     -9.437  0.2994E-03  0.1000E+02
     -9.330  0.8767E-05  0.1000E+02
     -9.224  0.1337E-06  0.1000E+02
     -9.118  0.1091E-08  0.1000E+02
     -9.011  0.4843E-11  0.1000E+02
     -8.905  0.1254E-13  0.1000E+02
     -8.799  0.0000E+00  0.1000E+02
     -8.693  0.0000E+00  0.1000E+02
     -8.586  0.0000E+00  0.1000E+02
     -8.480  0.0000E+00  0.1000E+02
     -8.374  0.0000E+00  0.1000E+02
     -8.268  0.6183E-25  0.1000E+02
     -8.161  0.2013E-21  0.1000E+02
     -8.055  0.3665E-18  0.1000E+02
     -7.949  0.3716E-15  0.1000E+02
     -7.842  0.2091E-12  0.1000E+02
     -7.736  0.6503E-10  0.1000E+02
     -7.630  0.1105E-07  0.1000E+02
     -7.524  0.1015E-05  0.1000E+02
     -7.417  0.4932E-04  0.1000E+02
     -7.311  0.1223E-02  0.1000E+02
     -7.205  0.1427E-01  0.1000E+02
     -7.099  0.5977E-01  0.1001E+02
     -6.992 -0.7555E-01  0.1000E+02
     -6.886 -0.7627E+00  0.9919E+01
     -6.780  0.7388E+00  0.9997E+01
     -6.673  0.7409E+01  0.1078E+02
     -6.567  0.9690E+01  0.1181E+02
     -6.461  0.2559E+01  0.1209E+02
     -6.355 -0.3207E+01  0.1175E+02
     -6.248  0.4163E+01  0.1219E+02
     -6.142  0.2652E+02  0.1501E+02
     -6.036  0.3291E+02  0.1850E+02
     -5.930  0.2162E+02  0.2080E+02
     -5.823  0.3104E+02  0.2410E+02
     -5.717  0.6567E+02  0.3108E+02
     -5.611  0.1426E+03  0.4623E+02
     -5.504  0.2576E+03  0.7361E+02
     -5.398  0.2976E+03  0.1052E+03
     -5.292  0.2358E+03  0.1303E+03
     -5.186  0.2127E+03  0.1529E+03
     -5.079  0.2865E+03  0.1833E+03
     -4.973  0.3580E+03  0.2214E+03
     -4.867  0.3315E+03  0.2566E+03
     -4.761  0.3009E+03  0.2886E+03
     -4.654  0.3679E+03  0.3277E+03
     -4.548  0.4223E+03  0.3726E+03
     -4.442  0.4179E+03  0.4170E+03
     -4.335  0.4869E+03  0.4687E+03
     -4.229  0.5527E+03  0.5275E+03
     -4.123  0.3844E+03  0.5683E+03
     -4.017  0.1153E+03  0.5806E+03
     -3.910  0.9940E+01  0.5816E+03
     -3.804  0.2392E+02  0.5842E+03
     -3.698  0.2549E+02  0.5869E+03
     -3.592  0.1394E+02  0.5883E+03
     -3.485  0.2150E+02  0.5906E+03
     -3.379  0.2396E+02  0.5932E+03
     -3.273  0.5185E+01  0.5937E+03
     -3.166  0.3725E+01  0.5941E+03
     -3.060  0.4128E+02  0.5985E+03
     -2.954  0.6347E+02  0.6053E+03
     -2.848  0.3721E+02  0.6092E+03
     -2.741  0.7143E+01  0.6100E+03
     -2.635  0.2201E+01  0.6102E+03
     -2.529  0.1607E+02  0.6119E+03
     -2.423  0.2542E+02  0.6146E+03
     -2.316  0.2119E+02  0.6169E+03
     -2.210  0.1943E+02  0.6189E+03
     -2.104  0.3272E+02  0.6224E+03
     -1.997  0.3988E+02  0.6266E+03
     -1.891  0.3609E+02  0.6305E+03
     -1.785  0.3625E+02  0.6343E+03
     -1.679  0.3798E+02  0.6384E+03
     -1.572  0.3426E+02  0.6420E+03
     -1.466  0.2461E+02  0.6446E+03
     -1.360  0.2197E+02  0.6470E+03
     -1.254  0.2608E+02  0.6497E+03
     -1.147  0.2556E+02  0.6525E+03
     -1.041  0.3644E+02  0.6563E+03
     -0.935  0.6115E+02  0.6628E+03
     -0.828  0.5220E+02  0.6684E+03
     -0.722  0.1790E+02  0.6703E+03
     -0.616  0.6252E+01  0.6709E+03
     -0.510  0.7814E+01  0.6718E+03
     -0.403  0.2913E+01  0.6721E+03
     -0.297 -0.5860E+00  0.6720E+03
     -0.191 -0.2599E+00  0.6720E+03
     -0.084  0.6461E-01  0.6720E+03
      0.022  0.2883E-01  0.6720E+03
      0.128  0.3435E-02  0.6720E+03
      0.234  0.1818E-03  0.6720E+03
      0.341  0.4802E-05  0.6720E+03
      0.447  0.6640E-07  0.6720E+03
      0.553  0.4930E-09  0.6720E+03
      0.659  0.1995E-11  0.6720E+03
      0.766  0.4179E-14  0.6720E+03
      0.872  0.0000E+00  0.6720E+03
      0.978  0.0000E+00  0.6720E+03
      1.085  0.0000E+00  0.6720E+03
      1.191  0.0000E+00  0.6720E+03
      1.297  0.0000E+00  0.6720E+03
      1.403  0.0000E+00  0.6720E+03
