  57  57   0   0
  0.4736842E+03  0.3000000E-08  0.3000000E-08  0.3000000E-08  0.5000000E-15
  1.000000000000000E-004
  CAR 
 6_Pd100_top_free_z(O)                   
      1.37493522    -30.53507448  301     -4.14107366      1.00000000
    -30.535  0.0000E+00  0.0000E+00
    -30.429  0.0000E+00  0.0000E+00
    -30.322  0.0000E+00  0.0000E+00
    -30.216  0.3151E-27  0.3351E-28
    -30.110  0.1478E-23  0.1572E-24
    -30.003  0.3875E-20  0.4124E-21
    -29.897  0.5669E-17  0.6034E-18
    -29.791  0.4608E-14  0.4908E-15
    -29.684  0.2076E-11  0.2213E-12
    -29.578  0.5132E-09  0.5481E-10
    -29.471  0.6906E-07  0.7401E-08
    -29.365  0.4983E-05  0.5375E-06
    -29.259  0.1880E-03  0.2053E-04
    -29.152  0.3529E-02  0.3959E-03
    -29.046  0.2919E-01  0.3500E-02
    -28.940  0.5988E-01  0.9870E-02
    -28.833 -0.3111E+00 -0.2322E-01
    -28.727 -0.7524E+00 -0.1032E+00
    -28.620  0.2972E+01  0.2129E+00
    -28.514  0.9467E+01  0.1220E+01
    -28.408  0.7359E+01  0.2003E+01
    -28.301  0.7383E+00  0.2081E+01
    -28.195 -0.7631E+00  0.2000E+01
    -28.089 -0.7540E-01  0.1992E+01
    -27.982  0.5971E-01  0.1998E+01
    -27.876  0.1420E-01  0.2000E+01
    -27.770  0.1213E-02  0.2000E+01
    -27.663  0.4866E-04  0.2000E+01
    -27.557  0.9949E-06  0.2000E+01
    -27.450  0.1076E-07  0.2000E+01
    -27.344  0.6282E-10  0.2000E+01
    -27.238  0.2004E-12  0.2000E+01
    -27.131  0.0000E+00  0.2000E+01
    -27.025  0.0000E+00  0.2000E+01
    -26.919  0.0000E+00  0.2000E+01
    -26.812  0.0000E+00  0.2000E+01
    -26.706  0.0000E+00  0.2000E+01
    -26.600  0.0000E+00  0.2000E+01
    -26.493  0.0000E+00  0.2000E+01
    -26.387  0.0000E+00  0.2000E+01
    -26.280  0.0000E+00  0.2000E+01
    -26.174  0.0000E+00  0.2000E+01
    -26.068  0.0000E+00  0.2000E+01
    -25.961  0.0000E+00  0.2000E+01
    -25.855  0.0000E+00  0.2000E+01
    -25.749  0.0000E+00  0.2000E+01
    -25.642  0.0000E+00  0.2000E+01
    -25.536  0.0000E+00  0.2000E+01
    -25.429  0.0000E+00  0.2000E+01
    -25.323  0.0000E+00  0.2000E+01
    -25.217  0.0000E+00  0.2000E+01
    -25.110  0.0000E+00  0.2000E+01
    -25.004  0.0000E+00  0.2000E+01
    -24.898  0.0000E+00  0.2000E+01
    -24.791  0.0000E+00  0.2000E+01
    -24.685  0.0000E+00  0.2000E+01
    -24.579  0.0000E+00  0.2000E+01
    -24.472  0.0000E+00  0.2000E+01
    -24.366  0.0000E+00  0.2000E+01
    -24.259  0.0000E+00  0.2000E+01
    -24.153  0.0000E+00  0.2000E+01
    -24.047  0.0000E+00  0.2000E+01
    -23.940  0.0000E+00  0.2000E+01
    -23.834  0.0000E+00  0.2000E+01
    -23.728  0.0000E+00  0.2000E+01
    -23.621  0.0000E+00  0.2000E+01
    -23.515  0.0000E+00  0.2000E+01
    -23.409  0.0000E+00  0.2000E+01
    -23.302  0.0000E+00  0.2000E+01
    -23.196  0.0000E+00  0.2000E+01
    -23.089  0.0000E+00  0.2000E+01
    -22.983  0.0000E+00  0.2000E+01
    -22.877  0.0000E+00  0.2000E+01
    -22.770  0.0000E+00  0.2000E+01
    -22.664  0.0000E+00  0.2000E+01
    -22.558  0.0000E+00  0.2000E+01
    -22.451  0.0000E+00  0.2000E+01
    -22.345  0.0000E+00  0.2000E+01
    -22.238  0.0000E+00  0.2000E+01
    -22.132  0.0000E+00  0.2000E+01
    -22.026  0.0000E+00  0.2000E+01
    -21.919  0.0000E+00  0.2000E+01
    -21.813  0.0000E+00  0.2000E+01
    -21.707  0.0000E+00  0.2000E+01
    -21.600  0.0000E+00  0.2000E+01
    -21.494  0.0000E+00  0.2000E+01
    -21.388  0.0000E+00  0.2000E+01
    -21.281  0.0000E+00  0.2000E+01
    -21.175  0.0000E+00  0.2000E+01
    -21.068  0.0000E+00  0.2000E+01
    -20.962  0.0000E+00  0.2000E+01
    -20.856  0.0000E+00  0.2000E+01
    -20.749  0.0000E+00  0.2000E+01
    -20.643  0.0000E+00  0.2000E+01
    -20.537  0.0000E+00  0.2000E+01
    -20.430  0.0000E+00  0.2000E+01
    -20.324  0.0000E+00  0.2000E+01
    -20.218  0.0000E+00  0.2000E+01
    -20.111  0.0000E+00  0.2000E+01
    -20.005  0.0000E+00  0.2000E+01
    -19.898  0.0000E+00  0.2000E+01
    -19.792  0.0000E+00  0.2000E+01
    -19.686  0.0000E+00  0.2000E+01
    -19.579  0.0000E+00  0.2000E+01
    -19.473  0.0000E+00  0.2000E+01
    -19.367  0.0000E+00  0.2000E+01
    -19.260  0.0000E+00  0.2000E+01
    -19.154  0.0000E+00  0.2000E+01
    -19.047  0.0000E+00  0.2000E+01
    -18.941  0.0000E+00  0.2000E+01
    -18.835  0.0000E+00  0.2000E+01
    -18.728  0.0000E+00  0.2000E+01
    -18.622  0.0000E+00  0.2000E+01
    -18.516  0.0000E+00  0.2000E+01
    -18.409  0.0000E+00  0.2000E+01
    -18.303  0.0000E+00  0.2000E+01
    -18.197  0.0000E+00  0.2000E+01
    -18.090  0.0000E+00  0.2000E+01
    -17.984  0.0000E+00  0.2000E+01
    -17.877  0.0000E+00  0.2000E+01
    -17.771  0.0000E+00  0.2000E+01
    -17.665  0.0000E+00  0.2000E+01
    -17.558  0.0000E+00  0.2000E+01
    -17.452  0.0000E+00  0.2000E+01
    -17.346  0.0000E+00  0.2000E+01
    -17.239  0.0000E+00  0.2000E+01
    -17.133  0.0000E+00  0.2000E+01
    -17.027  0.0000E+00  0.2000E+01
    -16.920  0.0000E+00  0.2000E+01
    -16.814  0.0000E+00  0.2000E+01
    -16.707  0.0000E+00  0.2000E+01
    -16.601  0.0000E+00  0.2000E+01
    -16.495  0.0000E+00  0.2000E+01
    -16.388  0.0000E+00  0.2000E+01
    -16.282  0.0000E+00  0.2000E+01
    -16.176  0.0000E+00  0.2000E+01
    -16.069  0.0000E+00  0.2000E+01
    -15.963  0.0000E+00  0.2000E+01
    -15.856  0.0000E+00  0.2000E+01
    -15.750  0.0000E+00  0.2000E+01
    -15.644  0.0000E+00  0.2000E+01
    -15.537  0.0000E+00  0.2000E+01
    -15.431  0.0000E+00  0.2000E+01
    -15.325  0.0000E+00  0.2000E+01
    -15.218  0.0000E+00  0.2000E+01
    -15.112  0.4353E-28  0.2000E+01
    -15.006  0.2326E-24  0.2000E+01
    -14.899  0.6952E-21  0.2000E+01
    -14.793  0.1160E-17  0.2000E+01
    -14.686  0.1076E-14  0.2000E+01
    -14.580  0.5541E-12  0.2000E+01
    -14.474  0.1568E-09  0.2000E+01
    -14.367  0.2422E-07  0.2000E+01
    -14.261  0.2014E-05  0.2000E+01
    -14.155  0.8815E-04  0.2000E+01
    -14.048  0.1948E-02  0.2000E+01
    -13.942  0.1975E-01  0.2002E+01
    -13.836  0.6414E-01  0.2009E+01
    -13.729 -0.1617E+00  0.1992E+01
    -13.623 -0.8173E+00  0.1905E+01
    -13.516  0.1584E+01  0.2073E+01
    -13.410  0.8419E+01  0.2969E+01
    -13.304  0.8719E+01  0.3896E+01
    -13.197  0.1899E+01  0.4098E+01
    -13.091 -0.8182E+00  0.4011E+01
    -12.985 -0.1949E+00  0.3991E+01
    -12.878  0.6440E-01  0.3997E+01
    -12.772  0.2185E-01  0.4000E+01
    -12.665  0.2263E-02  0.4000E+01
    -12.559  0.1065E-03  0.4000E+01
    -12.453  0.2523E-05  0.4000E+01
    -12.346  0.3142E-07  0.4000E+01
    -12.240  0.2110E-09  0.4000E+01
    -12.134  0.1703E-09  0.4000E+01
    -12.027  0.2611E-07  0.4000E+01
    -11.921  0.2174E-05  0.4000E+01
    -11.815  0.9597E-04  0.4000E+01
    -11.708  0.2168E-02  0.4000E+01
    -11.602  0.2318E-01  0.4003E+01
    -11.495  0.9030E-01  0.4012E+01
    -11.389 -0.1061E+00  0.4001E+01
    -11.283 -0.1074E+01  0.3887E+01
    -11.176  0.9020E+00  0.3983E+01
    -11.070  0.1105E+02  0.5158E+01
    -10.964  0.1739E+02  0.7007E+01
    -10.857  0.9112E+01  0.7977E+01
    -10.751  0.4550E+01  0.8460E+01
    -10.645  0.8958E+01  0.9413E+01
    -10.538  0.5974E+01  0.1005E+02
    -10.432  0.1100E+00  0.1006E+02
    -10.325 -0.6236E+00  0.9994E+01
    -10.219 -0.5538E-02  0.9993E+01
    -10.113  0.5104E-01  0.9999E+01
    -10.006  0.9541E-02  0.1000E+02
     -9.900  0.6993E-03  0.1000E+02
     -9.794  0.2461E-04  0.1000E+02
     -9.687  0.4453E-06  0.1000E+02
     -9.581  0.4283E-08  0.1000E+02
     -9.474  0.2231E-10  0.1000E+02
     -9.368  0.6263E-13  0.1000E+02
     -9.262  0.0000E+00  0.1000E+02
     -9.155  0.0000E+00  0.1000E+02
     -9.049  0.0000E+00  0.1000E+02
     -8.943  0.0000E+00  0.1000E+02
     -8.836  0.0000E+00  0.1000E+02
     -8.730  0.0000E+00  0.1000E+02
     -8.624  0.0000E+00  0.1000E+02
     -8.517  0.0000E+00  0.1000E+02
     -8.411  0.0000E+00  0.1000E+02
     -8.304  0.2830E-26  0.1000E+02
     -8.198  0.1146E-22  0.1000E+02
     -8.092  0.2593E-19  0.1000E+02
     -7.985  0.3270E-16  0.1000E+02
     -7.879  0.2289E-13  0.1000E+02
     -7.773  0.8868E-11  0.1000E+02
     -7.666  0.1882E-08  0.1000E+02
     -7.560  0.2166E-06  0.1000E+02
     -7.454  0.1330E-04  0.1000E+02
     -7.347  0.4231E-03  0.1000E+02
     -7.241  0.6563E-02  0.1000E+02
     -7.134  0.4216E-01  0.1001E+02
     -7.028  0.3130E-01  0.1001E+02
     -6.922 -0.5110E+00  0.9954E+01
     -6.815 -0.3870E+00  0.9913E+01
     -6.709  0.4898E+01  0.1043E+02
     -6.603  0.1019E+02  0.1152E+02
     -6.496  0.4540E+01  0.1200E+02
     -6.390 -0.2444E+01  0.1174E+02
     -6.283  0.8646E+01  0.1266E+02
     -6.177  0.3545E+02  0.1643E+02
     -6.071  0.3940E+02  0.2062E+02
     -5.964  0.1308E+02  0.2201E+02
     -5.858  0.9112E+01  0.2298E+02
     -5.752  0.4566E+02  0.2784E+02
     -5.645  0.1105E+03  0.3959E+02
     -5.539  0.2141E+03  0.6236E+02
     -5.433  0.2967E+03  0.9393E+02
     -5.326  0.2655E+03  0.1222E+03
     -5.220  0.2036E+03  0.1438E+03
     -5.113  0.2436E+03  0.1697E+03
     -5.007  0.3433E+03  0.2063E+03
     -4.901  0.3573E+03  0.2443E+03
     -4.794  0.2943E+03  0.2756E+03
     -4.688  0.3187E+03  0.3095E+03
     -4.582  0.4019E+03  0.3522E+03
     -4.475  0.4166E+03  0.3965E+03
     -4.369  0.4536E+03  0.4448E+03
     -4.262  0.5507E+03  0.5034E+03
     -4.156  0.4843E+03  0.5549E+03
     -4.050  0.2155E+03  0.5778E+03
     -3.943  0.3317E+02  0.5813E+03
     -3.837  0.2309E+02  0.5838E+03
     -3.731  0.3110E+02  0.5871E+03
     -3.624  0.1006E+02  0.5882E+03
     -3.518  0.1178E+02  0.5894E+03
     -3.412  0.2538E+02  0.5921E+03
     -3.305  0.1460E+02  0.5937E+03
     -3.199 -0.3845E+00  0.5936E+03
     -3.092  0.2322E+02  0.5961E+03
     -2.986  0.6179E+02  0.6027E+03
     -2.880  0.5026E+02  0.6080E+03
     -2.773  0.1469E+02  0.6096E+03
     -2.667  0.5167E+01  0.6101E+03
     -2.561  0.2134E+02  0.6124E+03
     -2.454  0.2648E+02  0.6152E+03
     -2.348  0.7919E+01  0.6160E+03
     -2.242  0.8455E+01  0.6169E+03
     -2.135  0.2960E+02  0.6201E+03
     -2.029  0.3441E+02  0.6238E+03
     -1.922  0.3506E+02  0.6275E+03
     -1.816  0.4546E+02  0.6323E+03
     -1.710  0.4738E+02  0.6374E+03
     -1.603  0.3994E+02  0.6416E+03
     -1.497  0.2876E+02  0.6447E+03
     -1.391  0.2307E+02  0.6471E+03
     -1.284  0.1809E+02  0.6490E+03
     -1.178  0.5436E+01  0.6496E+03
     -1.071  0.1826E+02  0.6516E+03
     -0.965  0.6289E+02  0.6583E+03
     -0.859  0.7279E+02  0.6660E+03
     -0.752  0.3582E+02  0.6698E+03
     -0.646  0.1143E+02  0.6710E+03
     -0.540  0.7374E+01  0.6718E+03
     -0.433  0.2448E+01  0.6721E+03
     -0.327 -0.5584E+00  0.6720E+03
     -0.221 -0.2097E+00  0.6720E+03
     -0.114  0.7627E-01  0.6720E+03
     -0.008  0.3040E-01  0.6720E+03
      0.099  0.3574E-02  0.6720E+03
      0.205  0.1889E-03  0.6720E+03
      0.311  0.4993E-05  0.6720E+03
      0.418  0.6912E-07  0.6720E+03
      0.524  0.5134E-09  0.6720E+03
      0.630  0.2077E-11  0.6720E+03
      0.737  0.4175E-14  0.6720E+03
      0.843  0.0000E+00  0.6720E+03
      0.949  0.0000E+00  0.6720E+03
      1.056  0.0000E+00  0.6720E+03
      1.162  0.0000E+00  0.6720E+03
      1.269  0.0000E+00  0.6720E+03
      1.375  0.0000E+00  0.6720E+03
