 running on    1 total cores
 distrk:  each k-point on    1 cores,    1 groups
 distr:  one band on    1 cores,    1 groups
 using from now: INCAR     
 vasp.5.4.4.18Apr17-6-g9f103f2a35 (build Sep 03 2018 23:53:05) complex          
  
 POSCAR found type information on POSCAR  Pd C  O 
 POSCAR found :  3 types and      57 ions
 scaLAPACK will be used

 ----------------------------------------------------------------------------- 
|                                                                             |
|  ADVICE TO THIS USER RUNNING 'VASP/VAMP'   (HEAR YOUR MASTER'S VOICE ...):  |
|                                                                             |
|      You enforced a specific xc-type in the INCAR file,                     |
|      a different type was found on the POTCAR file                          |
|          I HOPE YOU KNOW, WHAT YOU ARE  DOING                               |
|                                                                             |
 ----------------------------------------------------------------------------- 

 LDA part: xc-table for Pade appr. of Perdew
 POSCAR, INCAR and KPOINTS ok, starting setup
 FFT: planning ...
 WAVECAR not read
 entering main loop
       N       E                     dE             d eps       ncg     rms          rms(c)
DAV:   1     0.439396542515E+04    0.43940E+04   -0.10051E+05   688   0.815E+02
DAV:   2     0.202911593400E+04   -0.23648E+04   -0.21248E+04  1208   0.105E+02
DAV:   3     0.243782407592E+03   -0.17853E+04   -0.16761E+04   992   0.923E+01
DAV:   4    -0.134522120418E+03   -0.37830E+03   -0.32161E+03   832   0.439E+01
DAV:   5    -0.180513684869E+03   -0.45992E+02   -0.38575E+02  1056   0.148E+01    0.176E+01
RMM:   6    -0.182080724154E+03   -0.15670E+01   -0.73623E+01   732   0.953E+00    0.295E+01
RMM:   7    -0.184293036033E+03   -0.22123E+01   -0.22528E+01   877   0.474E+00    0.275E+01
RMM:   8    -0.185139590195E+03   -0.84655E+00   -0.87276E+00   797   0.366E+00    0.252E+01
RMM:   9    -0.183763314373E+03    0.13763E+01   -0.82804E+00   728   0.383E+00    0.239E+01
RMM:  10    -0.181878007263E+03    0.18853E+01   -0.48160E+00   740   0.325E+00    0.241E+01
RMM:  11    -0.179765570902E+03    0.21124E+01   -0.39905E+00   721   0.286E+00    0.225E+01
RMM:  12    -0.179600373235E+03    0.16520E+00   -0.20845E+00   731   0.208E+00    0.231E+01
RMM:  13    -0.179679738412E+03   -0.79365E-01   -0.22195E+00   722   0.216E+00    0.293E+01
RMM:  14    -0.178872638727E+03    0.80710E+00   -0.26478E+00   718   0.230E+00    0.223E+01
RMM:  15    -0.177176085586E+03    0.16966E+01   -0.15022E+00   711   0.177E+00    0.155E+01
RMM:  16    -0.176616756646E+03    0.55933E+00   -0.10088E+00   713   0.149E+00    0.159E+01
RMM:  17    -0.176325320301E+03    0.29144E+00   -0.50519E-01   719   0.106E+00    0.127E+01
RMM:  18    -0.176099292069E+03    0.22603E+00   -0.58992E-01   710   0.113E+00    0.970E+00
RMM:  19    -0.175852642299E+03    0.24665E+00   -0.34448E-01   709   0.909E-01    0.920E+00
RMM:  20    -0.175814561786E+03    0.38081E-01   -0.18031E-01   708   0.666E-01    0.994E+00
RMM:  21    -0.175713411365E+03    0.10115E+00   -0.17129E-01   703   0.646E-01    0.102E+01
RMM:  22    -0.175504177238E+03    0.20923E+00   -0.20562E-01   696   0.692E-01    0.580E+00
RMM:  23    -0.175557117718E+03   -0.52940E-01   -0.25260E-01   698   0.746E-01    0.873E+00
RMM:  24    -0.175422980719E+03    0.13414E+00   -0.16143E-01   701   0.624E-01    0.628E+00
RMM:  25    -0.175318084401E+03    0.10490E+00   -0.12316E-01   697   0.550E-01    0.474E+00
RMM:  26    -0.175244013098E+03    0.74071E-01   -0.85966E-02   693   0.462E-01    0.380E+00
RMM:  27    -0.175226809202E+03    0.17204E-01   -0.68501E-02   696   0.417E-01    0.361E+00
RMM:  28    -0.175179208876E+03    0.47600E-01   -0.53570E-02   695   0.368E-01    0.239E+00
RMM:  29    -0.175172904033E+03    0.63048E-02   -0.32818E-02   691   0.291E-01    0.235E+00
RMM:  30    -0.175152816220E+03    0.20088E-01   -0.17253E-02   696   0.214E-01    0.165E+00
RMM:  31    -0.175143460561E+03    0.93557E-02   -0.91028E-03   694   0.164E-01    0.119E+00
RMM:  32    -0.175141775358E+03    0.16852E-02   -0.69283E-03   696   0.137E-01    0.116E+00
RMM:  33    -0.175137899484E+03    0.38759E-02   -0.59469E-03   695   0.126E-01    0.862E-01
RMM:  34    -0.175137972534E+03   -0.73050E-04   -0.43249E-03   692   0.107E-01    0.861E-01
RMM:  35    -0.175135716096E+03    0.22564E-02   -0.25776E-03   689   0.856E-02    0.489E-01
RMM:  36    -0.175135760054E+03   -0.43958E-04   -0.15228E-03   689   0.657E-02    0.390E-01
RMM:  37    -0.175137456889E+03   -0.16968E-02   -0.10405E-03   688   0.557E-02    0.400E-01
RMM:  38    -0.175138233361E+03   -0.77647E-03   -0.78400E-04   685   0.462E-02    0.277E-01
RMM:  39    -0.175141475651E+03   -0.32423E-02   -0.89348E-04   682   0.460E-02    0.413E-01
RMM:  40    -0.175144500064E+03   -0.30244E-02   -0.86684E-04   681   0.442E-02    0.247E-01
RMM:  41    -0.175145932200E+03   -0.14321E-02   -0.38818E-04   490   0.310E-02    0.218E-01
RMM:  42    -0.175149713708E+03   -0.37815E-02   -0.68711E-04   595   0.352E-02    0.226E-01
RMM:  43    -0.175151486299E+03   -0.17726E-02   -0.39121E-04   478   0.276E-02    0.179E-01
RMM:  44    -0.175153446498E+03   -0.19602E-02   -0.31121E-04   439   0.239E-02    0.151E-01
RMM:  45    -0.175155379275E+03   -0.19328E-02   -0.30861E-04   447   0.227E-02    0.109E-01
RMM:  46    -0.175156628285E+03   -0.12490E-02   -0.19026E-04   421   0.175E-02    0.105E-01
RMM:  47    -0.175158546070E+03   -0.19178E-02   -0.23870E-04   432   0.178E-02    0.108E-01
RMM:  48    -0.175158999464E+03   -0.45339E-03   -0.82436E-05   418   0.113E-02    0.594E-02
RMM:  49    -0.175160208344E+03   -0.12089E-02   -0.83748E-05   405   0.111E-02    0.690E-02
RMM:  50    -0.175160708972E+03   -0.50063E-03   -0.51350E-05   403   0.886E-03    0.387E-02
RMM:  51    -0.175161365099E+03   -0.65613E-03   -0.36002E-05   398   0.735E-03    0.346E-02
RMM:  52    -0.175161923009E+03   -0.55791E-03   -0.25385E-05   387   0.609E-03    0.213E-02
RMM:  53    -0.175162268884E+03   -0.34588E-03   -0.97812E-06   226   0.439E-03    0.232E-02
RMM:  54    -0.175162830583E+03   -0.56170E-03   -0.11964E-05   254   0.464E-03    0.174E-02
RMM:  55    -0.175163082046E+03   -0.25146E-03   -0.60441E-06   192   0.417E-03    0.155E-02
RMM:  56    -0.175163410459E+03   -0.32841E-03   -0.10957E-05   231   0.425E-03    0.162E-02
RMM:  57    -0.175163630205E+03   -0.21975E-03   -0.69096E-06   175   0.383E-03    0.794E-03
RMM:  58    -0.175163772957E+03   -0.14275E-03   -0.55072E-06   153   0.373E-03    0.974E-03
RMM:  59    -0.175163976075E+03   -0.20312E-03   -0.12992E-05   206   0.416E-03    0.609E-03
RMM:  60    -0.175164061793E+03   -0.85717E-04   -0.41021E-06   134   0.352E-03
   1 F= -.17516406E+03 E0= -.17515322E+03  d E =-.433864E-01
================================= SLURM INFO ===================================
Command: run-cluster -n 1 -m 10000 -j 0264_vasp --same-node /opt/VASP/vasp
Exit code: 0
Job name: 0264_vasp
Job time: 0 days 5h:7m:25s
MPI task count: 1
Working dir: /home/pashkov/pyFitIt/pyfitit/data/random_pd_co_new/sample/0264
Job was running on nodes: h6
Task per node: 1
       JobID     MaxRSS  MaxDiskRead MaxDiskWrite    Elapsed    JobName 
------------ ---------- ------------ ------------ ---------- ---------- 
105535                                              05:07:25  0264_vasp 
105535.batch                                        05:07:25      batch 
