 vasp.5.4.4.18Apr17-6-g9f103f2a35 (build Sep 03 2018 23:53:05) complex          
  
 executed on             LinuxIFC date 2021.11.26  09:41:46
 running on    1 total cores
 distrk:  each k-point on    1 cores,    1 groups
 distr:  one band on NCORES_PER_BAND=   1 cores,    1 groups


--------------------------------------------------------------------------------------------------------


 INCAR:
 POTCAR:    PAW_PBE Pd 04Jan2005                  
 POTCAR:    PAW_PBE C 08Apr2002                   
 POTCAR:    PAW_PBE O 08Apr2002                   
 POTCAR:    PAW_PBE Pd 04Jan2005                  
   VRHFIN =Pd : s1 d9                                                           
   LEXCH  = PE                                                                  
   EATOM  =   809.7530 eV,   59.5152 Ry                                         
                                                                                
   TITEL  = PAW_PBE Pd 04Jan2005                                                
   LULTRA =        F    use ultrasoft PP ?                                      
   IUNSCR =        1    unscreen: 0-lin 1-nonlin 2-no                           
   RPACOR =    2.000    partial core radius                                     
   POMASS =  106.420; ZVAL   =   10.000    mass and valenz                      
   RCORE  =    2.600    outmost cutoff radius                                   
   RWIGS  =    2.710; RWIGS  =    1.434    wigner-seitz radius (au A)           
   ENMAX  =  250.925; ENMIN  =  188.194 eV                                      
   ICORE  =        3    local potential                                         
   LCOR   =        T    correct aug charges                                     
   LPAW   =        T    paw PP                                                  
   EAUG   =  416.230                                                            
   DEXC   =    0.000                                                            
   RMAX   =    2.653    core radius for proj-oper                               
   RAUG   =    1.300    factor for augmentation sphere                          
   RDEP   =    2.734    radius for radial grids                                 
   RDEPT  =    2.103    core radius for aug-charge                              
                                                                                
   Atomic configuration                                                         
   12 entries                                                                   
     n  l   j            E        occ.                                          
     1  0  0.50    -24164.6631   2.0000                                         
     2  0  0.50     -3530.9218   2.0000                                         
     2  1  1.50     -3165.6822   6.0000                                         
     3  0  0.50      -639.4577   2.0000                                         
     3  1  1.50      -519.4532   6.0000                                         
     3  2  2.50      -328.9757  10.0000                                         
     4  0  0.50       -88.7014   2.0000                                         
     4  1  1.50       -54.4540   6.0000                                         
     4  2  2.50        -6.6878   9.0000                                         
     5  0  0.50        -4.3543   1.0000                                         
     5  1  0.50        -1.3606   0.0000                                         
     4  3  2.50        -1.3606   0.0000                                         
   Description                                                                  
     l       E           TYP  RCUT    TYP  RCUT                                 
     2     -6.6878251     23  2.400                                             
     2     -8.0484077     23  2.400                                             
     0     -4.3542939     23  2.400                                             
     0      4.3406793     23  2.400                                             
     1     -4.0817478     23  2.600                                             
     1     15.8380318     23  2.600                                             
     3     -4.0817478     23  2.400                                             
  local pseudopotential read in
  partial core-charges read in
  partial kinetic energy density read in
  atomic valenz-charges read in
  non local Contribution for L=           2  read in
    real space projection operators read in
  non local Contribution for L=           2  read in
    real space projection operators read in
  non local Contribution for L=           0  read in
    real space projection operators read in
  non local Contribution for L=           0  read in
    real space projection operators read in
  non local Contribution for L=           1  read in
    real space projection operators read in
  non local Contribution for L=           1  read in
    real space projection operators read in
    PAW grid and wavefunctions read in
 
   number of l-projection  operators is LMAX  =           6
   number of lm-projection operators is LMMAX =          18
 
 POTCAR:    PAW_PBE C 08Apr2002                   
   VRHFIN =C: s2p2                                                              
   LEXCH  = PE                                                                  
   EATOM  =   147.1560 eV,   10.8157 Ry                                         
                                                                                
   TITEL  = PAW_PBE C 08Apr2002                                                 
   LULTRA =        F    use ultrasoft PP ?                                      
   IUNSCR =        1    unscreen: 0-lin 1-nonlin 2-no                           
   RPACOR =    1.200    partial core radius                                     
   POMASS =   12.011; ZVAL   =    4.000    mass and valenz                      
   RCORE  =    1.500    outmost cutoff radius                                   
   RWIGS  =    1.630; RWIGS  =    0.863    wigner-seitz radius (au A)           
   ENMAX  =  400.000; ENMIN  =  300.000 eV                                      
   ICORE  =        2    local potential                                         
   LCOR   =        T    correct aug charges                                     
   LPAW   =        T    paw PP                                                  
   EAUG   =  644.873                                                            
   DEXC   =    0.000                                                            
   RMAX   =    1.529    core radius for proj-oper                               
   RAUG   =    1.300    factor for augmentation sphere                          
   RDEP   =    1.501    radius for radial grids                                 
   RDEPT  =    1.300    core radius for aug-charge                              
                                                                                
   Atomic configuration                                                         
    4 entries                                                                   
     n  l   j            E        occ.                                          
     1  0  0.50      -273.3789   2.0000                                         
     2  0  0.50       -13.7508   2.0000                                         
     2  1  0.50        -5.2854   2.0000                                         
     3  2  1.50        -5.4423   0.0000                                         
   Description                                                                  
     l       E           TYP  RCUT    TYP  RCUT                                 
     0    -13.7508458     23  1.200                                             
     0     -8.2022199     23  1.200                                             
     1     -5.2854383     23  1.500                                             
     1     34.0145650     23  1.500                                             
     2     -5.4423304      7  1.500                                             
  local pseudopotential read in
  partial core-charges read in
  partial kinetic energy density read in
  atomic valenz-charges read in
  non local Contribution for L=           0  read in
    real space projection operators read in
  non local Contribution for L=           0  read in
    real space projection operators read in
  non local Contribution for L=           1  read in
    real space projection operators read in
  non local Contribution for L=           1  read in
    real space projection operators read in
    PAW grid and wavefunctions read in
 
   number of l-projection  operators is LMAX  =           4
   number of lm-projection operators is LMMAX =           8
 
 POTCAR:    PAW_PBE O 08Apr2002                   
   VRHFIN =O: s2p4                                                              
   LEXCH  = PE                                                                  
   EATOM  =   432.3788 eV,   31.7789 Ry                                         
                                                                                
   TITEL  = PAW_PBE O 08Apr2002                                                 
   LULTRA =        F    use ultrasoft PP ?                                      
   IUNSCR =        1    unscreen: 0-lin 1-nonlin 2-no                           
   RPACOR =    1.200    partial core radius                                     
   POMASS =   16.000; ZVAL   =    6.000    mass and valenz                      
   RCORE  =    1.520    outmost cutoff radius                                   
   RWIGS  =    1.550; RWIGS  =    0.820    wigner-seitz radius (au A)           
   ENMAX  =  400.000; ENMIN  =  300.000 eV                                      
   ICORE  =        2    local potential                                         
   LCOR   =        T    correct aug charges                                     
   LPAW   =        T    paw PP                                                  
   EAUG   =  605.392                                                            
   DEXC   =    0.000                                                            
   RMAX   =    1.553    core radius for proj-oper                               
   RAUG   =    1.300    factor for augmentation sphere                          
   RDEP   =    1.550    radius for radial grids                                 
   RDEPT  =    1.329    core radius for aug-charge                              
                                                                                
   Atomic configuration                                                         
    4 entries                                                                   
     n  l   j            E        occ.                                          
     1  0  0.50      -514.6923   2.0000                                         
     2  0  0.50       -23.9615   2.0000                                         
     2  1  0.50        -9.0305   4.0000                                         
     3  2  1.50        -9.5241   0.0000                                         
   Description                                                                  
     l       E           TYP  RCUT    TYP  RCUT                                 
     0    -23.9615318     23  1.200                                             
     0     -9.5240782     23  1.200                                             
     1     -9.0304911     23  1.520                                             
     1      8.1634956     23  1.520                                             
     2     -9.5240782      7  1.500                                             
  local pseudopotential read in
  partial core-charges read in
  partial kinetic energy density read in
  kinetic energy density of atom read in
  atomic valenz-charges read in
  non local Contribution for L=           0  read in
    real space projection operators read in
  non local Contribution for L=           0  read in
    real space projection operators read in
  non local Contribution for L=           1  read in
    real space projection operators read in
  non local Contribution for L=           1  read in
    real space projection operators read in
    PAW grid and wavefunctions read in
 
   number of l-projection  operators is LMAX  =           4
   number of lm-projection operators is LMMAX =           8
 
 Optimization of the real space projectors (new method)

 maximal supplied QI-value         = 14.36
 optimisation between [QCUT,QGAM] = [ 10.20, 20.39] = [ 29.12,116.47] Ry 
 Optimized for a Real-space Cutoff    1.51 Angstroem

   l    n(q)    QCUT    max X(q) W(low)/X(q) W(high)/X(q)  e(spline) 
   2      8    10.197    59.108    0.26E-03    0.14E-03    0.96E-07
   2      8    10.197    58.101    0.27E-03    0.14E-03    0.98E-07
   0      9    10.197   102.235    0.54E-04    0.60E-05    0.72E-07
   0      9    10.197    58.388    0.52E-04    0.60E-05    0.68E-07
   1      9    10.197    22.191    0.18E-03    0.25E-03    0.79E-07
   1      9    10.197    15.590    0.15E-03    0.21E-03    0.69E-07
 Optimization of the real space projectors (new method)

 maximal supplied QI-value         = 25.13
 optimisation between [QCUT,QGAM] = [ 10.05, 20.36] = [ 28.30,116.06] Ry 
 Optimized for a Real-space Cutoff    1.30 Angstroem

   l    n(q)    QCUT    max X(q) W(low)/X(q) W(high)/X(q)  e(spline) 
   0      8    10.053   115.676    0.49E-03    0.72E-03    0.18E-06
   0      8    10.053    87.132    0.49E-03    0.71E-03    0.18E-06
   1      7    10.053     4.429    0.32E-03    0.31E-03    0.18E-06
   1      7    10.053     2.733    0.23E-03    0.19E-03    0.20E-06
 Optimization of the real space projectors (new method)

 maximal supplied QI-value         = 24.76
 optimisation between [QCUT,QGAM] = [ 10.15, 20.30] = [ 28.85,115.39] Ry 
 Optimized for a Real-space Cutoff    1.38 Angstroem

   l    n(q)    QCUT    max X(q) W(low)/X(q) W(high)/X(q)  e(spline) 
   0      8    10.150    20.381    0.22E-03    0.32E-03    0.29E-06
   0      8    10.150    15.268    0.23E-03    0.35E-03    0.30E-06
   1      8    10.150     5.964    0.46E-03    0.53E-03    0.21E-06
   1      8    10.150     5.382    0.38E-03    0.45E-03    0.19E-06

 ----------------------------------------------------------------------------- 
|                                                                             |
|  ADVICE TO THIS USER RUNNING 'VASP/VAMP'   (HEAR YOUR MASTER'S VOICE ...):  |
|                                                                             |
|      You enforced a specific xc-type in the INCAR file,                     |
|      a different type was found on the POTCAR file                          |
|          I HOPE YOU KNOW, WHAT YOU ARE  DOING                               |
|                                                                             |
 ----------------------------------------------------------------------------- 

  PAW_PBE Pd 04Jan2005                  :
 energy of atom  1       EATOM= -809.7530
 kinetic energy error for atom=    0.0091 (will be added to EATOM!!)
  PAW_PBE C 08Apr2002                   :
 energy of atom  2       EATOM= -147.1560
 kinetic energy error for atom=    0.0288 (will be added to EATOM!!)
  PAW_PBE O 08Apr2002                   :
 energy of atom  3       EATOM= -432.3788
 kinetic energy error for atom=    0.1156 (will be added to EATOM!!)
 
 
 POSCAR: Pd55PES                                 
  positions in cartesian coordinates
  No initial velocities read in
 exchange correlation table for  LEXCH =        9
   RHO(1)=    0.500       N(1)  =     2000
   RHO(2)=  100.500       N(2)  =     4000
 


--------------------------------------------------------------------------------------------------------


 ion  position               nearest neighbor table
   1  0.446  0.328  0.417-   3 3.25   5 3.25   7 3.36  15 3.36  29 3.42  28 3.42
   2  0.672  0.554  0.417-  26 3.25  30 3.25  17 3.36   9 3.36  47 3.42  49 3.42
   3  0.554  0.328  0.417-   1 3.25   5 3.25   7 3.36  11 3.36  29 3.42  21 3.42
   4  0.328  0.554  0.417-  32 3.25  22 3.25  13 3.36   8 3.36  43 3.42  48 3.42
   5  0.500  0.383  0.340-   1 3.25   3 3.25  11 3.36  15 3.36  21 3.42  28 3.42
   6  0.500  0.383  0.660-  24 3.25  19 3.25  16 3.36  12 3.36  42 3.42  44 3.42
   7  0.500  0.276  0.500-  29 3.24   3 3.36   1 3.36  19 3.36  24 3.36
   8  0.276  0.500  0.500-  56 2.61  48 3.24  22 3.36  40 3.36   4 3.36  25 3.36
   9  0.724  0.500  0.500-  49 3.24  26 3.36  45 3.36   2 3.36  20 3.36
  10  0.500  0.724  0.500-  55 3.24  27 3.36  23 3.36  46 3.36  41 3.36
  11  0.612  0.388  0.342-  21 3.24   5 3.36   3 3.36  30 3.36  26 3.36
  12  0.612  0.388  0.658-  42 3.24  24 3.36  45 3.36   6 3.36  31 3.36
  13  0.388  0.612  0.342-  43 3.24  32 3.36  50 3.36   4 3.36  27 3.36
  14  0.388  0.612  0.658-  53 3.24  25 3.36  33 3.36  51 3.36  46 3.36
  15  0.388  0.388  0.342-  28 3.24   5 3.36   1 3.36  32 3.36  22 3.36
  16  0.388  0.388  0.658-  44 3.24  19 3.36  40 3.36   6 3.36  33 3.36
  17  0.612  0.612  0.342-  47 3.24  30 3.36  50 3.36   2 3.36  23 3.36
  18  0.612  0.612  0.658-  54 3.24  31 3.36  20 3.36  51 3.36  41 3.36
  19  0.446  0.328  0.583-   6 3.25  24 3.25  16 3.36   7 3.36  44 3.42  29 3.42
  20  0.672  0.554  0.583-  31 3.25  45 3.25  18 3.36   9 3.36  54 3.42  49 3.42
  21  0.558  0.442  0.418-  11 3.24   5 3.42   3 3.42  30 3.42  26 3.42
  22  0.328  0.446  0.417-   4 3.25  32 3.25   8 3.36  15 3.36  48 3.42  28 3.42
  23  0.554  0.672  0.417-  27 3.25  50 3.25  10 3.36  17 3.36  55 3.42  47 3.42
  24  0.554  0.328  0.583-   6 3.25  19 3.25  12 3.36   7 3.36  42 3.42  29 3.42
  25  0.328  0.554  0.583-  33 3.25  40 3.25  14 3.36   8 3.36  53 3.42  48 3.42
  26  0.672  0.446  0.417-   2 3.25  30 3.25   9 3.36  11 3.36  49 3.42  21 3.42
  27  0.446  0.672  0.417-  23 3.25  50 3.25  10 3.36  13 3.36  55 3.42  43 3.42
  28  0.442  0.442  0.418-  15 3.24   5 3.42   1 3.42  32 3.42  22 3.42
  29  0.500  0.384  0.500-   7 3.24   3 3.42   1 3.42  24 3.42  19 3.42
  30  0.617  0.500  0.340-   2 3.25  26 3.25  17 3.36  11 3.36  47 3.42  21 3.42
  31  0.617  0.500  0.660-  20 3.25  45 3.25  18 3.36  12 3.36  54 3.42  42 3.42
  32  0.383  0.500  0.340-   4 3.25  22 3.25  13 3.36  15 3.36  43 3.42  28 3.42
  33  0.383  0.500  0.660-  25 3.25  40 3.25  14 3.36  16 3.36  53 3.42  44 3.42
  34  0.383  0.383  0.500-
  35  0.617  0.617  0.500-
  36  0.617  0.383  0.500-
  37  0.383  0.617  0.500-
  38  0.500  0.500  0.335-
  39  0.500  0.500  0.665-
  40  0.328  0.446  0.583-  56 1.91  57 2.55  33 3.25  25 3.25  16 3.36   8 3.36  44 3.42  48 3.42

  41  0.554  0.672  0.583-  46 3.25  51 3.25  10 3.36  18 3.36  54 3.42  55 3.42
  42  0.558  0.442  0.582-  12 3.24   6 3.42  24 3.42  31 3.42  45 3.42
  43  0.442  0.558  0.418-  13 3.24   4 3.42  32 3.42  27 3.42  50 3.42
  44  0.442  0.442  0.582-  16 3.24   6 3.42  19 3.42  33 3.42  40 3.42
  45  0.672  0.446  0.583-  20 3.25  31 3.25   9 3.36  12 3.36  49 3.42  42 3.42
  46  0.446  0.672  0.583-  41 3.25  51 3.25  10 3.36  14 3.36  53 3.42  55 3.42
  47  0.558  0.558  0.418-  17 3.24   2 3.42  30 3.42  23 3.42  50 3.42
  48  0.384  0.500  0.500-   8 3.24   4 3.42  22 3.42  25 3.42  40 3.42
  49  0.616  0.500  0.500-   9 3.24   2 3.42  26 3.42  20 3.42  45 3.42
  50  0.500  0.617  0.340-  27 3.25  23 3.25  13 3.36  17 3.36  43 3.42  47 3.42
  51  0.500  0.617  0.660-  41 3.25  46 3.25  14 3.36  18 3.36  53 3.42  54 3.42
  52  0.500  0.500  0.500-
  53  0.442  0.558  0.582-  14 3.24  25 3.42  33 3.42  51 3.42  46 3.42
  54  0.558  0.558  0.582-  18 3.24  31 3.42  20 3.42  51 3.42  41 3.42
  55  0.500  0.616  0.500-  10 3.24  23 3.42  27 3.42  41 3.42  46 3.42
  56  0.304  0.423  0.529-  57 1.13  40 1.91   8 2.61
  57  0.269  0.409  0.534-  56 1.13  40 2.55
 
  LATTYP: Found a simple cubic cell.
 ALAT       =    30.0000000000
  
  Lattice vectors:
  
 A1 = (  30.0000000000,   0.0000000000,   0.0000000000)
 A2 = (   0.0000000000,  30.0000000000,   0.0000000000)
 A3 = (   0.0000000000,   0.0000000000,  30.0000000000)


Analysis of symmetry for initial positions (statically):
=====================================================================
 Subroutine PRICEL returns:
 Original cell was already a primitive cell.
 

 Routine SETGRP: Setting up the symmetry group for a 
 simple cubic supercell.


 Subroutine GETGRP returns: Found  1 space group operations
 (whereof  1 operations were pure point group operations)
 out of a pool of 48 trial point group operations.


The static configuration has the point symmetry C_1 .


Analysis of symmetry for dynamics (positions and initial velocities):
=====================================================================
 Subroutine PRICEL returns:
 Original cell was already a primitive cell.
 

 Routine SETGRP: Setting up the symmetry group for a 
 simple cubic supercell.


 Subroutine GETGRP returns: Found  1 space group operations
 (whereof  1 operations were pure point group operations)
 out of a pool of 48 trial point group operations.


The dynamic configuration has the point symmetry C_1 .


Analysis of constrained symmetry for selective dynamics:
=====================================================================
 Subroutine PRICEL returns:
 Original cell was already a primitive cell.
 

 Routine SETGRP: Setting up the symmetry group for a 
 simple cubic supercell.


 Subroutine GETGRP returns: Found  1 space group operations
 (whereof  1 operations were pure point group operations)
 out of a pool of 48 trial point group operations.


The constrained configuration has the point symmetry C_1 .


 Subroutine INISYM returns: Found  1 space group operations
 (whereof  1 operations are pure point group operations),
 and found     1 'primitive' translations

 
 
 KPOINTS: K-points                                

Automatic generation of k-mesh.
Space group operators:
 irot       det(A)        alpha          n_x          n_y          n_z        tau_x        tau_y        tau_z
    1     1.000000     0.000000     1.000000     0.000000     0.000000     0.000000     0.000000     0.000000
 
 Subroutine IBZKPT returns following result:
 ===========================================
 
 Found      1 irreducible k-points:
 
 Following reciprocal coordinates:
            Coordinates               Weight
  0.000000  0.000000  0.000000      1.000000
 
 Following cartesian coordinates:
            Coordinates               Weight
  0.000000  0.000000  0.000000      1.000000
 


--------------------------------------------------------------------------------------------------------




 Dimension of arrays:
   k-points           NKPTS =      1   k-points in BZ     NKDIM =      1   number of bands    NBANDS=    336
   number of dos      NEDOS =    301   number of ions     NIONS =     57
   non local maximal  LDIM  =      6   non local SUM 2l+1 LMDIM =     18
   total plane-waves  NPLWV = ******
   max r-space proj   IRMAX =   1847   max aug-charges    IRDMAX=   6262
   dimension x,y,z NGX =   150 NGY =  150 NGZ =  150
   dimension x,y,z NGXF=   300 NGYF=  300 NGZF=  300
   support grid    NGXF=   300 NGYF=  300 NGZF=  300
   ions per type =              55   1   1
   NGX,Y,Z   is equivalent  to a cutoff of   8.31,  8.31,  8.31 a.u.
   NGXF,Y,Z  is equivalent  to a cutoff of  16.62, 16.62, 16.62 a.u.

 SYSTEM =  6_Pd100_top_free_z(O)                   
 POSCAR =  Pd55PES                                 

 Startparameter for this run:
   NWRITE =      2    write-flag & timer
   PREC   = normal    normal or accurate (medium, high low for compatibility)
   ISTART =      0    job   : 0-new  1-cont  2-samecut
   ICHARG =      2    charge: 1-file 2-atom 10-const
   ISPIN  =      1    spin polarized calculation?
   LNONCOLLINEAR =      F non collinear calculations
   LSORBIT =      F    spin-orbit coupling
   INIWAV =      1    electr: 0-lowe 1-rand  2-diag
   LASPH  =      F    aspherical Exc in radial PAW
   METAGGA=      F    non-selfconsistent MetaGGA calc.

 Electronic Relaxation 1
   ENCUT  =  400.0 eV  29.40 Ry    5.42 a.u.  48.92 48.92 48.92*2*pi/ulx,y,z
   ENINI  =  400.0     initial cutoff
   ENAUG  =  644.9 eV  augmentation charge cutoff
   NELM   =    100;   NELMIN=  6; NELMDL= -5     # of ELM steps 
   EDIFF  = 0.1E-03   stopping-criterion for ELM
   LREAL  =      T    real-space projection
   NLSPLINE    = F    spline interpolate recip. space projectors
   LCOMPAT=      F    compatible to vasp.4.4
   GGA_COMPAT  = T    GGA compatible to vasp.4.4-vasp.4.6
   LMAXPAW     = -100 max onsite density
   LMAXMIX     =    2 max onsite mixed and CHGCAR
   VOSKOWN=      0    Vosko Wilk Nusair interpolation
   ROPT   =   -0.00050  -0.00050  -0.00050
 Ionic relaxation
   EDIFFG = -.5E-01   stopping-criterion for IOM
   NSW    =      0    number of steps for IOM
   NBLOCK =      1;   KBLOCK =      1    inner block; outer block 
   IBRION =     -1    ionic relax: 0-MD 1-quasi-New 2-CG
   NFREE  =      1    steps in history (QN), initial steepest desc. (CG)
   ISIF   =      2    stress and relaxation
   IWAVPR =     10    prediction:  0-non 1-charg 2-wave 3-comb
   ISYM   =      2    0-nonsym 1-usesym 2-fastsym
   LCORR  =      T    Harris-Foulkes like correction to forces

   POTIM  = 0.5000    time-step for ionic-motion
   TEIN   =    0.0    initial temperature
   TEBEG  =    0.0;   TEEND  =   0.0 temperature during run
   SMASS  =  -3.00    Nose mass-parameter (am)
   estimated Nose-frequenzy (Omega)   =  0.10E-29 period in steps =****** mass=  -0.206E-25a.u.
   SCALEE = 1.0000    scale energy and forces
   NPACO  =    256;   APACO  = 16.0  distance and # of slots for P.C.
   PSTRESS=    0.0 pullay stress

  Mass of Ions in am
   POMASS = 106.42 12.01 16.00
  Ionic Valenz
   ZVAL   =  10.00  4.00  6.00
  Atomic Wigner-Seitz radii
   RWIGS  =  -1.00 -1.00 -1.00
  virtual crystal weights 
   VCA    =   1.00  1.00  1.00
   NELECT =     560.0000    total number of electrons
   NUPDOWN=      -1.0000    fix difference up-down

 DOS related values:
   EMIN   =  10.00;   EMAX   =-10.00  energy-range for DOS
   EFERMI =   0.00
   ISMEAR =     2;   SIGMA  =   0.20  broadening in eV -4-tet -1-fermi 0-gaus

 Electronic relaxation 2 (details)
   IALGO  =     68    algorithm
   LDIAG  =      T    sub-space diagonalisation (order eigenvalues)
   LSUBROT=      F    optimize rotation matrix (better conditioning)
   TURBO    =      0    0=normal 1=particle mesh
   IRESTART =      0    0=no restart 2=restart with 2 vectors
   NREBOOT  =      0    no. of reboots
   NMIN     =      0    reboot dimension
   EREF     =   0.00    reference energy to select bands
   IMIX   =      4    mixing-type and parameters
     AMIX     =   0.40;   BMIX     =  1.00
     AMIX_MAG =   1.60;   BMIX_MAG =  1.00
     AMIN     =   0.10
     WC   =   100.;   INIMIX=   1;  MIXPRE=   1;  MAXMIX= -45

 Intra band minimization:
   WEIMIN = 0.0000     energy-eigenvalue tresh-hold
   EBREAK =  0.74E-07  absolut break condition
   DEPER  =   0.30     relativ break condition  

   TIME   =   0.40     timestep for ELM

  volume/ion in A,a.u.               =     473.68      3196.58
  Fermi-wavevector in a.u.,A,eV,Ry     =   0.449797  0.849992  2.752691  0.202317
  Thomas-Fermi vector in A             =   1.430086
 
 Write flags
   LWAVE        =      F    write WAVECAR
   LDOWNSAMPLE  =      F    k-point downsampling of WAVECAR
   LCHARG       =      F    write CHGCAR
   LVTOT        =      F    write LOCPOT, total local potential
   LVHAR        =      F    write LOCPOT, Hartree potential only
   LELF         =      F    write electronic localiz. function (ELF)
   LORBIT       =      0    0 simple, 1 ext, 2 COOP (PROOUT), +10 PAW based schemes


 Dipole corrections
   LMONO  =      F    monopole corrections only (constant potential shift)
   LDIPOL =      F    correct potential (dipole corrections)
   IDIPOL =      0    1-x, 2-y, 3-z, 4-all directions 
   EPSILON=  1.0000000 bulk dielectric constant

 Exchange correlation treatment:
   GGA     =    RP    GGA type
   LEXCH   =     9    internal setting for exchange type
   VOSKOWN=      0    Vosko Wilk Nusair interpolation
   LHFCALC =     F    Hartree Fock is set to
   LHFONE  =     F    Hartree Fock one center treatment
   AEXX    =    0.0000 exact exchange contribution

 Linear response parameters
   LEPSILON=     F    determine dielectric tensor
   LRPA    =     F    only Hartree local field effects (RPA)
   LNABLA  =     F    use nabla operator in PAW spheres
   LVEL    =     F    velocity operator in full k-point grid
   LINTERFAST=   F  fast interpolation
   KINTER  =     0    interpolate to denser k-point grid
   CSHIFT  =0.1000    complex shift for real part using Kramers Kronig
   OMEGAMAX=  -1.0    maximum frequency
   DEG_THRESHOLD= 0.2000000E-02 threshold for treating states as degnerate
   RTIME   =   -0.100 relaxation time in fs
  (WPLASMAI=    0.000 imaginary part of plasma frequency in eV, 0.658/RTIME)
   DFIELD  = 0.0000000 0.0000000 0.0000000 field for delta impulse in time
 
 Orbital magnetization related:
   ORBITALMAG=     F  switch on orbital magnetization
   LCHIMAG   =     F  perturbation theory with respect to B field
   DQ        =  0.001000  dq finite difference perturbation B field
   LLRAUG    =     F  two centre corrections for induced B field



--------------------------------------------------------------------------------------------------------


 Static calculation
 charge density and potential will be updated during run
 non-spin polarized calculation
 RMM-DIIS sequential band-by-band and
  variant of blocked Davidson during initial phase
 perform sub-space diagonalisation
    before iterative eigenvector-optimisation
 modified Broyden-mixing scheme, WC =      100.0
 initial mixing is a Kerker type mixing with AMIX =  0.4000 and BMIX =      1.0000
 Hartree-type preconditioning will be used
 using additional bands           56
 real space projection scheme for non local part
 use partial core corrections
 calculate Harris-corrections to forces 
   (improved forces if not selfconsistent)
 use gradient corrections 
 use of overlap-Matrix (Vanderbilt PP)
 Methfessel and Paxton  Order N= 2 SIGMA  =   0.20


--------------------------------------------------------------------------------------------------------


  energy-cutoff  :      400.00
  volume of cell :    27000.00
      direct lattice vectors                 reciprocal lattice vectors
    30.000000000  0.000000000  0.000000000     0.033333333  0.000000000  0.000000000
     0.000000000 30.000000000  0.000000000     0.000000000  0.033333333  0.000000000
     0.000000000  0.000000000 30.000000000     0.000000000  0.000000000  0.033333333

  length of vectors
    30.000000000 30.000000000 30.000000000     0.033333333  0.033333333  0.033333333


 
 k-points in units of 2pi/SCALE and weight: K-points                                
   0.00000000  0.00000000  0.00000000       1.000
 
 k-points in reciprocal lattice and weights: K-points                                
   0.00000000  0.00000000  0.00000000       1.000
 
 position of ions in fractional coordinates (direct lattice) 
   0.44576020  0.32826710  0.41691983
   0.67173288  0.55423978  0.41691983
   0.55423980  0.32826710  0.41691983
   0.32826712  0.55423978  0.41691983
   0.50000000  0.38250690  0.34021317
   0.50000000  0.38250690  0.65978680
   0.50000000  0.27609440  0.50000000
   0.27609443  0.49999998  0.50000000
   0.72390557  0.49999998  0.50000000
   0.50000000  0.72390555  0.50000000
   0.61195280  0.38804720  0.34167483
   0.61195280  0.38804720  0.65832513
   0.38804722  0.61195278  0.34167483
   0.38804722  0.61195278  0.65832513
   0.38804720  0.38804720  0.34167483
   0.38804720  0.38804720  0.65832513
   0.61195278  0.61195278  0.34167483
   0.61195278  0.61195278  0.65832513
   0.44576020  0.32826710  0.58308023
   0.67173288  0.55423978  0.58308023
   0.55791699  0.44208301  0.41809300
   0.32826705  0.44576024  0.41691983
   0.55423973  0.67173293  0.41691983
   0.55423980  0.32826710  0.58308023
   0.32826712  0.55423978  0.58308023
   0.67173295  0.44576024  0.41691983
   0.44576027  0.67173293  0.41691983
   0.44208301  0.44208301  0.41809300
   0.50000000  0.38416601  0.50000000
   0.61749315  0.50000005  0.34021317
   0.61749315  0.50000005  0.65978680
   0.38250685  0.50000005  0.34021317
   0.38250685  0.50000005  0.65978680
   0.38317830  0.38317830  0.50000000
   0.61682172  0.61682172  0.50000000
   0.61682170  0.38317830  0.50000000
   0.38317828  0.61682172  0.50000000
   0.50000000  0.50000000  0.33478917
   0.50000000  0.50000000  0.66521087
   0.32826705  0.44576024  0.58308023
   0.55423973  0.67173293  0.58308023
   0.55791699  0.44208301  0.58190703
   0.44208298  0.55791702  0.41809300
   0.44208301  0.44208301  0.58190703
   0.67173295  0.44576024  0.58308023
   0.44576027  0.67173293  0.58308023
   0.55791702  0.55791702  0.41809300
   0.38416599  0.50000002  0.50000000
   0.61583401  0.50000002  0.50000000
   0.50000000  0.61749319  0.34021317
   0.50000000  0.61749319  0.65978680
   0.50000000  0.50000000  0.50000000
   0.44208298  0.55791702  0.58190703
   0.55791702  0.55791702  0.58190703
   0.50000000  0.61583404  0.50000000
   0.30402173  0.42285873  0.52902387
   0.26936213  0.40921597  0.53415683
 
 position of ions in cartesian coordinates  (Angst):
  13.37280588  9.84801292 12.50759500
  20.15198637 16.62719342 12.50759500
  16.62719412  9.84801292 12.50759500
   9.84801363 16.62719342 12.50759500
  15.00000000 11.47520705 10.20639500
  15.00000000 11.47520705 19.79360400
  15.00000000  8.28283206 15.00000000
   8.28283277 14.99999929 15.00000000
  21.71716723 14.99999929 15.00000000
  15.00000000 21.71716652 14.99999999
  18.35858397 11.64141603 10.25024500
  18.35858397 11.64141603 19.74975399
  11.64141674 18.35858326 10.25024500
  11.64141674 18.35858326 19.74975400
  11.64141603 11.64141603 10.25024500
  11.64141603 11.64141603 19.74975400
  18.35858326 18.35858326 10.25024500
  18.35858326 18.35858326 19.74975400
  13.37280588  9.84801291 17.49240700
  20.15198638 16.62719341 17.49240700
  16.73750985 13.26249015 12.54279000
   9.84801151 13.37280729 12.50759500
  16.62719200 20.15198779 12.50759500
  16.62719412  9.84801292 17.49240700
   9.84801363 16.62719342 17.49240700
  20.15198849 13.37280729 12.50759500
  13.37280800 20.15198779 12.50759500
  13.26249015 13.26249015 12.54279000
  15.00000000 11.52498029 15.00000000
  18.52479437 15.00000140 10.20639500
  18.52479437 15.00000141 19.79360400
  11.47520562 15.00000141 10.20639501
  11.47520563 15.00000141 19.79360400
  11.49534898 11.49534898 15.00000000
  18.50465172 18.50465172 15.00000000
  18.50465102 11.49534898 15.00000000
  11.49534828 18.50465172 15.00000000
  15.00000000 15.00000000 10.04367500
  15.00000000 15.00000000 19.95632599
   9.84801151 13.37280729 17.49240700
  16.62719200 20.15198779 17.49240700
  16.73750985 13.26249015 17.45721100
  13.26248944 16.73751056 12.54279001
  13.26249015 13.26249015 17.45721100
  20.15198849 13.37280729 17.49240699
  13.37280800 20.15198779 17.49240700
  16.73751056 16.73751056 12.54279000
  11.52497959 15.00000071 15.00000000
  18.47502041 15.00000071 15.00000000
  14.99999999 18.52479579 10.20639500
  15.00000000 18.52479578 19.79360400
  15.00000000 15.00000000 15.00000000
  13.26248944 16.73751057 17.45721101
  16.73751056 16.73751057 17.45721100
  15.00000000 18.47502112 15.00000000
   9.12065200 12.68576200 15.87071600
   8.08086400 12.27647900 16.02470500
 


--------------------------------------------------------------------------------------------------------


 k-point  1 :   0.0000 0.0000 0.0000  plane waves:  490521

 maximum and minimum number of plane-waves per node :    490521   490521

 maximum number of plane-waves:    490521
 maximum index in each direction: 
   IXMAX=   48   IYMAX=   48   IZMAX=   48
   IXMIN=  -48   IYMIN=  -48   IZMIN=  -48


 serial   3D FFT for wavefunctions
 parallel 3D FFT for charge:
    minimum data exchange during FFTs selected (reduces bandwidth)


 total amount of memory used by VASP MPI-rank0  5486940. kBytes
=======================================================================

   base      :      30000. kBytes
   nonlr-proj:      17125. kBytes
   fftplans  :     924480. kBytes
   grid      :    1872000. kBytes
   one-center:        886. kBytes
   wavefun   :    2642449. kBytes
 
     INWAV:  cpu time    0.0001: real time    0.0005
 Broyden mixing: mesh for mixing (old mesh)
   NGX = 97   NGY = 97   NGZ = 97
  (NGX  =300   NGY  =300   NGZ  =300)
  gives a total of 912673 points

 initial charge density was supplied:
 charge density of overlapping atoms calculated
 number of electron     560.0000000 magnetization 
 keeping initial charge density in first step


--------------------------------------------------------------------------------------------------------


 Maximum index for non-local projection operator         1763
 Maximum index for augmentation-charges         5898 (set IRDMAX)


--------------------------------------------------------------------------------------------------------


 First call to EWALD:  gamma=   0.059
 Maximum number of real-space cells 3x 3x 3
 Maximum number of reciprocal cells 3x 3x 3

    FEWALD:  cpu time    0.0122: real time    0.0122


--------------------------------------- Iteration      1(   1)  ---------------------------------------


    POTLOK:  cpu time   12.8422: real time   12.8460
    SETDIJ:  cpu time    0.0840: real time    0.0840
     EDDAV:  cpu time  399.9676: real time  399.9943
       DOS:  cpu time    0.0010: real time    0.0010
    --------------------------------------------
      LOOP:  cpu time  412.8949: real time  412.9253

 eigenvalue-minimisations  :   688
 total energy-change (2. order) : 0.4394516E+04  (-0.1005202E+05)
 number of electron     560.0000000 magnetization 
 augmentation part      560.0000000 magnetization 

 Free energy of the ion-electron system (eV)
  ---------------------------------------------------
  alpha Z        PSCENC =        75.25431677
  Ewald energy   TEWEN  =    139341.47447134
  -Hartree energ DENC   =   -182697.79754021
  -exchange      EXHF   =         0.00000000
  -V(xc)+E(xc)   XCENC  =     -1702.35483174
  PAW double counting   =     44873.02882129   -41398.84523641
  entropy T*S    EENTRO =        -0.00551716
  eigenvalues    EBANDS =       817.25585845
  atomic energy  EATOM  =     45086.50549395
  Solvation  Ediel_sol  =         0.00000000
  ---------------------------------------------------
  free energy    TOTEN  =      4394.51583628 eV

  energy without entropy =     4394.52135344  energy(sigma->0) =     4394.51721557


--------------------------------------------------------------------------------------------------------




--------------------------------------- Iteration      1(   2)  ---------------------------------------


     EDDAV:  cpu time  635.5577: real time  635.5566
       DOS:  cpu time    0.0011: real time    0.0011
    --------------------------------------------
      LOOP:  cpu time  635.5589: real time  635.5577

 eigenvalue-minimisations  :  1224
 total energy-change (2. order) :-0.2384578E+04  (-0.2144965E+04)
 number of electron     560.0000000 magnetization 
 augmentation part      560.0000000 magnetization 

 Free energy of the ion-electron system (eV)
  ---------------------------------------------------
  alpha Z        PSCENC =        75.25431677
  Ewald energy   TEWEN  =    139341.47447134
  -Hartree energ DENC   =   -182697.79754021
  -exchange      EXHF   =         0.00000000
  -V(xc)+E(xc)   XCENC  =     -1702.35483174
  PAW double counting   =     44873.02882129   -41398.84523641
  entropy T*S    EENTRO =        -0.03666337
  eigenvalues    EBANDS =     -1567.29138022
  atomic energy  EATOM  =     45086.50549395
  Solvation  Ediel_sol  =         0.00000000
  ---------------------------------------------------
  free energy    TOTEN  =      2009.93745139 eV

  energy without entropy =     2009.97411477  energy(sigma->0) =     2009.94661724


--------------------------------------------------------------------------------------------------------




--------------------------------------- Iteration      1(   3)  ---------------------------------------


     EDDAV:  cpu time  480.6095: real time  480.6257
       DOS:  cpu time    0.0009: real time    0.0009
    --------------------------------------------
      LOOP:  cpu time  480.6104: real time  480.6266

 eigenvalue-minimisations  :  1000
 total energy-change (2. order) :-0.1776827E+04  (-0.1671886E+04)
 number of electron     560.0000000 magnetization 
 augmentation part      560.0000000 magnetization 

 Free energy of the ion-electron system (eV)
  ---------------------------------------------------
  alpha Z        PSCENC =        75.25431677
  Ewald energy   TEWEN  =    139341.47447134
  -Hartree energ DENC   =   -182697.79754021
  -exchange      EXHF   =         0.00000000
  -V(xc)+E(xc)   XCENC  =     -1702.35483174
  PAW double counting   =     44873.02882129   -41398.84523641
  entropy T*S    EENTRO =         0.03278168
  eigenvalues    EBANDS =     -3344.18813250
  atomic energy  EATOM  =     45086.50549395
  Solvation  Ediel_sol  =         0.00000000
  ---------------------------------------------------
  free energy    TOTEN  =       233.11014417 eV

  energy without entropy =      233.07736249  energy(sigma->0) =      233.10194875


--------------------------------------------------------------------------------------------------------




--------------------------------------- Iteration      1(   4)  ---------------------------------------


     EDDAV:  cpu time  415.1200: real time  415.1315
       DOS:  cpu time    0.0010: real time    0.0010
    --------------------------------------------
      LOOP:  cpu time  415.1210: real time  415.1324

 eigenvalue-minimisations  :   840
 total energy-change (2. order) :-0.3692252E+03  (-0.3139890E+03)
 number of electron     560.0000000 magnetization 
 augmentation part      560.0000000 magnetization 

 Free energy of the ion-electron system (eV)
  ---------------------------------------------------
  alpha Z        PSCENC =        75.25431677
  Ewald energy   TEWEN  =    139341.47447134
  -Hartree energ DENC   =   -182697.79754021
  -exchange      EXHF   =         0.00000000
  -V(xc)+E(xc)   XCENC  =     -1702.35483174
  PAW double counting   =     44873.02882129   -41398.84523641
  entropy T*S    EENTRO =        -0.01037649
  eigenvalues    EBANDS =     -3713.37014646
  atomic energy  EATOM  =     45086.50549395
  Solvation  Ediel_sol  =         0.00000000
  ---------------------------------------------------
  free energy    TOTEN  =      -136.11502797 eV

  energy without entropy =     -136.10465147  energy(sigma->0) =     -136.11243384


--------------------------------------------------------------------------------------------------------




--------------------------------------- Iteration      1(   5)  ---------------------------------------


     EDDAV:  cpu time  498.7209: real time  498.7403
       DOS:  cpu time    0.0012: real time    0.0012
    CHARGE:  cpu time   21.5096: real time   21.5101
    MIXING:  cpu time    0.4020: real time    0.4021
    --------------------------------------------
      LOOP:  cpu time  520.6337: real time  520.6536

 eigenvalue-minimisations  :  1048
 total energy-change (2. order) :-0.4400325E+02  (-0.3631775E+02)
 number of electron     559.9999867 magnetization 
 augmentation part      245.1342839 magnetization 

 Broyden mixing:
  rms(total) = 0.15487E+01    rms(broyden)= 0.15478E+01
  rms(prec ) = 0.16497E+01
  weight for this iteration     100.00

 Free energy of the ion-electron system (eV)
  ---------------------------------------------------
  alpha Z        PSCENC =        75.25431677
  Ewald energy   TEWEN  =    139341.47447134
  -Hartree energ DENC   =   -182697.79754021
  -exchange      EXHF   =         0.00000000
  -V(xc)+E(xc)   XCENC  =     -1702.35483174
  PAW double counting   =     44873.02882129   -41398.84523641
  entropy T*S    EENTRO =         0.52526551
  eigenvalues    EBANDS =     -3757.90903913
  atomic energy  EATOM  =     45086.50549395
  Solvation  Ediel_sol  =         0.00000000
  ---------------------------------------------------
  free energy    TOTEN  =      -180.11827862 eV

  energy without entropy =     -180.64354414  energy(sigma->0) =     -180.24959500


--------------------------------------------------------------------------------------------------------




--------------------------------------- Iteration      1(   6)  ---------------------------------------


    POTLOK:  cpu time   12.0989: real time   12.1018
    SETDIJ:  cpu time    0.0838: real time    0.0838
    EDDIAG:  cpu time   60.8778: real time   60.8798
  RMM-DIIS:  cpu time  170.6481: real time  170.6522
    ORTHCH:  cpu time   12.4676: real time   12.4677
       DOS:  cpu time    0.0012: real time    0.0012
    CHARGE:  cpu time   20.8849: real time   20.8850
    MIXING:  cpu time    0.4163: real time    0.4163
    --------------------------------------------
      LOOP:  cpu time  277.4786: real time  277.4879

 eigenvalue-minimisations  :   725
 total energy-change (2. order) : 0.7863401E+00  (-0.5428369E+01)
 number of electron     559.9999905 magnetization 
 augmentation part      240.8378046 magnetization 

 Broyden mixing:
  rms(total) = 0.22191E+01    rms(broyden)= 0.22189E+01
  rms(prec ) = 0.25799E+01
  weight for this iteration     100.00

 eigenvalues of (default mixing * dielectric matrix)
  average eigenvalue GAMMA=   0.3561
  0.3561

 Free energy of the ion-electron system (eV)
  ---------------------------------------------------
  alpha Z        PSCENC =        75.25431677
  Ewald energy   TEWEN  =    139341.47447134
  -Hartree energ DENC   =   -183106.47352794
  -exchange      EXHF   =         0.00000000
  -V(xc)+E(xc)   XCENC  =     -1695.90937276
  PAW double counting   =     45652.72246633   -42151.80514004
  entropy T*S    EENTRO =        -0.15328365
  eigenvalues    EBANDS =     -3380.94736250
  atomic energy  EATOM  =     45086.50549395
  Solvation  Ediel_sol  =         0.00000000
  ---------------------------------------------------
  free energy    TOTEN  =      -179.33193851 eV

  energy without entropy =     -179.17865486  energy(sigma->0) =     -179.29361760


--------------------------------------------------------------------------------------------------------




--------------------------------------- Iteration      1(   7)  ---------------------------------------


    POTLOK:  cpu time   11.2913: real time   11.2935
    SETDIJ:  cpu time    0.0836: real time    0.0836
    EDDIAG:  cpu time   60.8879: real time   60.8904
  RMM-DIIS:  cpu time  200.6729: real time  200.6782
    ORTHCH:  cpu time   12.4733: real time   12.4736
       DOS:  cpu time    0.0012: real time    0.0012
    CHARGE:  cpu time   20.9695: real time   20.9698
    MIXING:  cpu time    0.4361: real time    0.4361
    --------------------------------------------
      LOOP:  cpu time  306.8158: real time  306.8265

 eigenvalue-minimisations  :   853
 total energy-change (2. order) :-0.3380774E+01  (-0.1918749E+01)
 number of electron     559.9999858 magnetization 
 augmentation part      240.2007353 magnetization 

 Broyden mixing:
  rms(total) = 0.22833E+01    rms(broyden)= 0.22830E+01
  rms(prec ) = 0.28182E+01
  weight for this iteration     100.00

 eigenvalues of (default mixing * dielectric matrix)
  average eigenvalue GAMMA=   0.3427
  0.5307  0.1547

 Free energy of the ion-electron system (eV)
  ---------------------------------------------------
  alpha Z        PSCENC =        75.25431677
  Ewald energy   TEWEN  =    139341.47447134
  -Hartree energ DENC   =   -183198.67332168
  -exchange      EXHF   =         0.00000000
  -V(xc)+E(xc)   XCENC  =     -1696.07300806
  PAW double counting   =     45731.46355895   -42227.65471798
  entropy T*S    EENTRO =        -0.16666316
  eigenvalues    EBANDS =     -3294.84284273
  atomic energy  EATOM  =     45086.50549395
  Solvation  Ediel_sol  =         0.00000000
  ---------------------------------------------------
  free energy    TOTEN  =      -182.71271260 eV

  energy without entropy =     -182.54604945  energy(sigma->0) =     -182.67104681


--------------------------------------------------------------------------------------------------------




--------------------------------------- Iteration      1(   8)  ---------------------------------------


    POTLOK:  cpu time   11.2843: real time   11.2872
    SETDIJ:  cpu time    0.0836: real time    0.0836
    EDDIAG:  cpu time   60.8440: real time   60.8452
  RMM-DIIS:  cpu time  182.4335: real time  182.4413
    ORTHCH:  cpu time   12.4635: real time   12.4637
       DOS:  cpu time    0.0012: real time    0.0012
    CHARGE:  cpu time   20.9239: real time   20.9243
    MIXING:  cpu time    0.4582: real time    0.4582
    --------------------------------------------
      LOOP:  cpu time  288.4923: real time  288.5047

 eigenvalue-minimisations  :   774
 total energy-change (2. order) :-0.2358420E+01  (-0.7108774E+00)
 number of electron     559.9999842 magnetization 
 augmentation part      239.8878498 magnetization 

 Broyden mixing:
  rms(total) = 0.28296E+01    rms(broyden)= 0.28293E+01
  rms(prec ) = 0.33239E+01
  weight for this iteration     100.00

 eigenvalues of (default mixing * dielectric matrix)
  average eigenvalue GAMMA=   0.3303
  0.7161  0.1373  0.1373

 Free energy of the ion-electron system (eV)
  ---------------------------------------------------
  alpha Z        PSCENC =        75.25431677
  Ewald energy   TEWEN  =    139341.47447134
  -Hartree energ DENC   =   -183243.81986495
  -exchange      EXHF   =         0.00000000
  -V(xc)+E(xc)   XCENC  =     -1696.16081731
  PAW double counting   =     45799.50655505   -42293.26959690
  entropy T*S    EENTRO =        -0.11466171
  eigenvalues    EBANDS =     -3254.44702922
  atomic energy  EATOM  =     45086.50549395
  Solvation  Ediel_sol  =         0.00000000
  ---------------------------------------------------
  free energy    TOTEN  =      -185.07113299 eV

  energy without entropy =     -184.95647128  energy(sigma->0) =     -185.04246756


--------------------------------------------------------------------------------------------------------




--------------------------------------- Iteration      1(   9)  ---------------------------------------


    POTLOK:  cpu time   11.2832: real time   11.2861
    SETDIJ:  cpu time    0.0835: real time    0.0835
    EDDIAG:  cpu time   61.3012: real time   61.3047
  RMM-DIIS:  cpu time  171.9132: real time  171.9179
    ORTHCH:  cpu time   12.4827: real time   12.4829
       DOS:  cpu time    0.0012: real time    0.0012
    CHARGE:  cpu time   20.9602: real time   20.9605
    MIXING:  cpu time    0.4806: real time    0.4806
    --------------------------------------------
      LOOP:  cpu time  278.5059: real time  278.5174

 eigenvalue-minimisations  :   729
 total energy-change (2. order) : 0.2436990E+01  (-0.5970620E+00)
 number of electron     559.9999836 magnetization 
 augmentation part      241.0293607 magnetization 

 Broyden mixing:
  rms(total) = 0.26383E+01    rms(broyden)= 0.26380E+01
  rms(prec ) = 0.31022E+01
  weight for this iteration     100.00

 eigenvalues of (default mixing * dielectric matrix)
  average eigenvalue GAMMA=   0.3075
  0.8172  0.1553  0.1553  0.1021

 Free energy of the ion-electron system (eV)
  ---------------------------------------------------
  alpha Z        PSCENC =        75.25431677
  Ewald energy   TEWEN  =    139341.47447134
  -Hartree energ DENC   =   -183255.48524339
  -exchange      EXHF   =         0.00000000
  -V(xc)+E(xc)   XCENC  =     -1696.18826493
  PAW double counting   =     45867.53236830   -42358.94106893
  entropy T*S    EENTRO =         0.03640605
  eigenvalues    EBANDS =     -3242.82262252
  atomic energy  EATOM  =     45086.50549395
  Solvation  Ediel_sol  =         0.00000000
  ---------------------------------------------------
  free energy    TOTEN  =      -182.63414337 eV

  energy without entropy =     -182.67054941  energy(sigma->0) =     -182.64324488


--------------------------------------------------------------------------------------------------------




--------------------------------------- Iteration      1(  10)  ---------------------------------------


    POTLOK:  cpu time   11.2585: real time   11.2615
    SETDIJ:  cpu time    0.0836: real time    0.0836
    EDDIAG:  cpu time   61.1424: real time   61.1448
  RMM-DIIS:  cpu time  171.8945: real time  171.9005
    ORTHCH:  cpu time   12.4857: real time   12.4859
       DOS:  cpu time    0.0012: real time    0.0012
    CHARGE:  cpu time   20.9905: real time   20.9907
    MIXING:  cpu time    0.5123: real time    0.5123
    --------------------------------------------
      LOOP:  cpu time  278.3687: real time  278.3803

 eigenvalue-minimisations  :   729
 total energy-change (2. order) : 0.2204966E+01  (-0.3162729E+00)
 number of electron     559.9999857 magnetization 
 augmentation part      241.4050268 magnetization 

 Broyden mixing:
  rms(total) = 0.22132E+01    rms(broyden)= 0.22129E+01
  rms(prec ) = 0.25918E+01
  weight for this iteration     100.00

 eigenvalues of (default mixing * dielectric matrix)
  average eigenvalue GAMMA=   0.2839
  0.8796  0.1621  0.1621  0.1322  0.0836

 Free energy of the ion-electron system (eV)
  ---------------------------------------------------
  alpha Z        PSCENC =        75.25431677
  Ewald energy   TEWEN  =    139341.47447134
  -Hartree energ DENC   =   -183282.51735246
  -exchange      EXHF   =         0.00000000
  -V(xc)+E(xc)   XCENC  =     -1696.05798292
  PAW double counting   =     45915.05501897   -42404.81140802
  entropy T*S    EENTRO =        -0.11942016
  eigenvalues    EBANDS =     -3215.21231434
  atomic energy  EATOM  =     45086.50549395
  Solvation  Ediel_sol  =         0.00000000
  ---------------------------------------------------
  free energy    TOTEN  =      -180.42917687 eV

  energy without entropy =     -180.30975671  energy(sigma->0) =     -180.39932183


--------------------------------------------------------------------------------------------------------




--------------------------------------- Iteration      1(  11)  ---------------------------------------


    POTLOK:  cpu time   11.2636: real time   11.2659
    SETDIJ:  cpu time    0.0836: real time    0.0836
    EDDIAG:  cpu time   61.3328: real time   61.3340
  RMM-DIIS:  cpu time  171.8275: real time  171.8318
    ORTHCH:  cpu time   12.4789: real time   12.4792
       DOS:  cpu time    0.0012: real time    0.0012
    CHARGE:  cpu time   20.9744: real time   20.9749
    MIXING:  cpu time    0.5357: real time    0.5357
    --------------------------------------------
      LOOP:  cpu time  278.4978: real time  278.5064

 eigenvalue-minimisations  :   731
 total energy-change (2. order) : 0.2215105E+01  (-0.2064823E+00)
 number of electron     559.9999880 magnetization 
 augmentation part      241.6348161 magnetization 

 Broyden mixing:
  rms(total) = 0.16642E+01    rms(broyden)= 0.16639E+01
  rms(prec ) = 0.19528E+01
  weight for this iteration     100.00

 eigenvalues of (default mixing * dielectric matrix)
  average eigenvalue GAMMA=   0.2783
  0.9662  0.1980  0.1980  0.1115  0.1115  0.0847

 Free energy of the ion-electron system (eV)
  ---------------------------------------------------
  alpha Z        PSCENC =        75.25431677
  Ewald energy   TEWEN  =    139341.47447134
  -Hartree energ DENC   =   -183303.47256264
  -exchange      EXHF   =         0.00000000
  -V(xc)+E(xc)   XCENC  =     -1695.92466390
  PAW double counting   =     45950.27424094   -42438.64125896
  entropy T*S    EENTRO =        -0.11363170
  eigenvalues    EBANDS =     -3193.57047791
  atomic energy  EATOM  =     45086.50549395
  Solvation  Ediel_sol  =         0.00000000
  ---------------------------------------------------
  free energy    TOTEN  =      -178.21407212 eV

  energy without entropy =     -178.10044042  energy(sigma->0) =     -178.18566420


--------------------------------------------------------------------------------------------------------




--------------------------------------- Iteration      1(  12)  ---------------------------------------


    POTLOK:  cpu time   11.2774: real time   11.2802
    SETDIJ:  cpu time    0.0836: real time    0.0836
    EDDIAG:  cpu time   61.2154: real time   61.2179
  RMM-DIIS:  cpu time  170.2161: real time  170.2212
    ORTHCH:  cpu time   12.4852: real time   12.4853
       DOS:  cpu time    0.0013: real time    0.0013
    CHARGE:  cpu time   20.9792: real time   20.9796
    MIXING:  cpu time    0.5669: real time    0.5669
    --------------------------------------------
      LOOP:  cpu time  276.8251: real time  276.8360

 eigenvalue-minimisations  :   722
 total energy-change (2. order) : 0.8003024E+00  (-0.1606076E+00)
 number of electron     559.9999870 magnetization 
 augmentation part      241.7603860 magnetization 

 Broyden mixing:
  rms(total) = 0.16775E+01    rms(broyden)= 0.16772E+01
  rms(prec ) = 0.19918E+01
  weight for this iteration     100.00

 eigenvalues of (default mixing * dielectric matrix)
  average eigenvalue GAMMA=   0.2731
  1.0301  0.2393  0.2393  0.1235  0.1235  0.0813  0.0747

 Free energy of the ion-electron system (eV)
  ---------------------------------------------------
  alpha Z        PSCENC =        75.25431677
  Ewald energy   TEWEN  =    139341.47447134
  -Hartree energ DENC   =   -183320.96164135
  -exchange      EXHF   =         0.00000000
  -V(xc)+E(xc)   XCENC  =     -1695.66720686
  PAW double counting   =     45990.87629687   -42477.54574151
  entropy T*S    EENTRO =        -0.13039763
  eigenvalues    EBANDS =     -3177.21936133
  atomic energy  EATOM  =     45086.50549395
  Solvation  Ediel_sol  =         0.00000000
  ---------------------------------------------------
  free energy    TOTEN  =      -177.41376975 eV

  energy without entropy =     -177.28337213  energy(sigma->0) =     -177.38117035


--------------------------------------------------------------------------------------------------------




--------------------------------------- Iteration      1(  13)  ---------------------------------------


    POTLOK:  cpu time   11.2868: real time   11.2896
    SETDIJ:  cpu time    0.0836: real time    0.0836
    EDDIAG:  cpu time   61.2678: real time   61.2690
  RMM-DIIS:  cpu time  168.7232: real time  168.7311
    ORTHCH:  cpu time   12.4780: real time   12.4783
       DOS:  cpu time    0.0013: real time    0.0013
    CHARGE:  cpu time   21.0512: real time   21.0515
    MIXING:  cpu time    0.6172: real time    0.6172
    --------------------------------------------
      LOOP:  cpu time  275.5090: real time  275.5216

 eigenvalue-minimisations  :   718
 total energy-change (2. order) : 0.8487147E+00  (-0.1258344E+00)
 number of electron     559.9999848 magnetization 
 augmentation part      241.7664833 magnetization 

 Broyden mixing:
  rms(total) = 0.13803E+01    rms(broyden)= 0.13799E+01
  rms(prec ) = 0.16294E+01
  weight for this iteration     100.00

 eigenvalues of (default mixing * dielectric matrix)
  average eigenvalue GAMMA=   0.2796
  1.1188  0.2994  0.2994  0.1404  0.1404  0.0850  0.0850  0.0687

 Free energy of the ion-electron system (eV)
  ---------------------------------------------------
  alpha Z        PSCENC =        75.25431677
  Ewald energy   TEWEN  =    139341.47447134
  -Hartree energ DENC   =   -183341.87486422
  -exchange      EXHF   =         0.00000000
  -V(xc)+E(xc)   XCENC  =     -1695.38458522
  PAW double counting   =     46026.65200552   -42511.75031422
  entropy T*S    EENTRO =        -0.04101913
  eigenvalues    EBANDS =     -3157.40055982
  atomic energy  EATOM  =     45086.50549395
  Solvation  Ediel_sol  =         0.00000000
  ---------------------------------------------------
  free energy    TOTEN  =      -176.56505503 eV

  energy without entropy =     -176.52403590  energy(sigma->0) =     -176.55480025


--------------------------------------------------------------------------------------------------------




--------------------------------------- Iteration      1(  14)  ---------------------------------------


    POTLOK:  cpu time   11.2627: real time   11.2657
    SETDIJ:  cpu time    0.0836: real time    0.0836
    EDDIAG:  cpu time   61.2833: real time   61.2848
  RMM-DIIS:  cpu time  169.4524: real time  169.4584
    ORTHCH:  cpu time   12.4614: real time   12.4617
       DOS:  cpu time    0.0012: real time    0.0012
    CHARGE:  cpu time   21.0035: real time   21.0039
    MIXING:  cpu time    0.6317: real time    0.6317
    --------------------------------------------
      LOOP:  cpu time  276.1798: real time  276.1911

 eigenvalue-minimisations  :   719
 total energy-change (2. order) : 0.1684683E-01  (-0.1127063E+00)
 number of electron     559.9999860 magnetization 
 augmentation part      241.6093593 magnetization 

 Broyden mixing:
  rms(total) = 0.16299E+01    rms(broyden)= 0.16296E+01
  rms(prec ) = 0.19138E+01
  weight for this iteration     100.00

 eigenvalues of (default mixing * dielectric matrix)
  average eigenvalue GAMMA=   0.3025
  1.3271  0.4980  0.2633  0.1401  0.1401  0.1058  0.1058  0.0809  0.0612

 Free energy of the ion-electron system (eV)
  ---------------------------------------------------
  alpha Z        PSCENC =        75.25431677
  Ewald energy   TEWEN  =    139341.47447134
  -Hartree energ DENC   =   -183370.60090192
  -exchange      EXHF   =         0.00000000
  -V(xc)+E(xc)   XCENC  =     -1694.96685423
  PAW double counting   =     46072.42676850   -42555.40074453
  entropy T*S    EENTRO =        -0.03002560
  eigenvalues    EBANDS =     -3131.21073248
  atomic energy  EATOM  =     45086.50549395
  Solvation  Ediel_sol  =         0.00000000
  ---------------------------------------------------
  free energy    TOTEN  =      -176.54820820 eV

  energy without entropy =     -176.51818260  energy(sigma->0) =     -176.54070180


--------------------------------------------------------------------------------------------------------




--------------------------------------- Iteration      1(  15)  ---------------------------------------


    POTLOK:  cpu time   11.2545: real time   11.2562
    SETDIJ:  cpu time    0.0836: real time    0.0836
    EDDIAG:  cpu time   61.2803: real time   61.2825
  RMM-DIIS:  cpu time  165.6084: real time  165.6139
    ORTHCH:  cpu time   12.6454: real time   12.6459
       DOS:  cpu time    0.0013: real time    0.0013
    CHARGE:  cpu time   22.2715: real time   22.2712
    MIXING:  cpu time    0.6929: real time    0.6929
    --------------------------------------------
      LOOP:  cpu time  273.8378: real time  273.8474

 eigenvalue-minimisations  :   705
 total energy-change (2. order) : 0.4080830E+00  (-0.1377508E+00)
 number of electron     559.9999852 magnetization 
 augmentation part      241.3161983 magnetization 

 Broyden mixing:
  rms(total) = 0.14479E+01    rms(broyden)= 0.14476E+01
  rms(prec ) = 0.16564E+01
  weight for this iteration     100.00

 eigenvalues of (default mixing * dielectric matrix)
  average eigenvalue GAMMA=   0.3114
  1.4605  0.6638  0.2059  0.1643  0.1643  0.1019  0.1019  0.1128  0.0808  0.0578

 Free energy of the ion-electron system (eV)
  ---------------------------------------------------
  alpha Z        PSCENC =        75.25431677
  Ewald energy   TEWEN  =    139341.47447134
  -Hartree energ DENC   =   -183421.74650259
  -exchange      EXHF   =         0.00000000
  -V(xc)+E(xc)   XCENC  =     -1694.20486750
  PAW double counting   =     46151.07285456   -42630.26841610
  entropy T*S    EENTRO =        -0.04324216
  eigenvalues    EBANDS =     -3084.18423351
  atomic energy  EATOM  =     45086.50549395
  Solvation  Ediel_sol  =         0.00000000
  ---------------------------------------------------
  free energy    TOTEN  =      -176.14012525 eV

  energy without entropy =     -176.09688308  energy(sigma->0) =     -176.12931471


--------------------------------------------------------------------------------------------------------




--------------------------------------- Iteration      1(  16)  ---------------------------------------


    POTLOK:  cpu time   11.7692: real time   11.7700
    SETDIJ:  cpu time    0.0898: real time    0.0898
    EDDIAG:  cpu time   70.5162: real time   70.5170
  RMM-DIIS:  cpu time  235.3690: real time  235.3824
    ORTHCH:  cpu time   19.3927: real time   19.3936
       DOS:  cpu time    0.0018: real time    0.0018
    CHARGE:  cpu time   32.6226: real time   32.6240
    MIXING:  cpu time    1.1394: real time    1.1400
    --------------------------------------------
      LOOP:  cpu time  370.9007: real time  370.9187

 eigenvalue-minimisations  :   707
 total energy-change (2. order) : 0.3216638E+00  (-0.8460207E-01)
 number of electron     559.9999875 magnetization 
 augmentation part      241.0186605 magnetization 

 Broyden mixing:
  rms(total) = 0.13897E+01    rms(broyden)= 0.13894E+01
  rms(prec ) = 0.16059E+01
  weight for this iteration     100.00

 eigenvalues of (default mixing * dielectric matrix)
  average eigenvalue GAMMA=   0.3118
  1.5734  0.7020  0.2274  0.2274  0.1510  0.1146  0.1146  0.0942  0.0942  0.0734
  0.0580

 Free energy of the ion-electron system (eV)
  ---------------------------------------------------
  alpha Z        PSCENC =        75.25431677
  Ewald energy   TEWEN  =    139341.47447134
  -Hartree energ DENC   =   -183458.55633325
  -exchange      EXHF   =         0.00000000
  -V(xc)+E(xc)   XCENC  =     -1693.72163589
  PAW double counting   =     46198.38842368   -42675.21270549
  entropy T*S    EENTRO =         0.03918743
  eigenvalues    EBANDS =     -3049.98967997
  atomic energy  EATOM  =     45086.50549395
  Solvation  Ediel_sol  =         0.00000000
  ---------------------------------------------------
  free energy    TOTEN  =      -175.81846143 eV

  energy without entropy =     -175.85764886  energy(sigma->0) =     -175.82825829


--------------------------------------------------------------------------------------------------------




--------------------------------------- Iteration      1(  17)  ---------------------------------------


    POTLOK:  cpu time   18.2727: real time   18.2748
    SETDIJ:  cpu time    0.1327: real time    0.1327
    EDDIAG:  cpu time   91.8309: real time   91.8313
  RMM-DIIS:  cpu time  241.0248: real time  241.0259
    ORTHCH:  cpu time   19.4337: real time   19.4333
       DOS:  cpu time    0.0018: real time    0.0018
    CHARGE:  cpu time   32.6258: real time   32.6251
    MIXING:  cpu time    1.2143: real time    1.2143
    --------------------------------------------
      LOOP:  cpu time  404.5368: real time  404.5392

 eigenvalue-minimisations  :   705
 total energy-change (2. order) : 0.4454873E+00  (-0.5687332E-01)
 number of electron     559.9999879 magnetization 
 augmentation part      241.0439373 magnetization 

 Broyden mixing:
  rms(total) = 0.95837E+00    rms(broyden)= 0.95808E+00
  rms(prec ) = 0.10944E+01
  weight for this iteration     100.00

 eigenvalues of (default mixing * dielectric matrix)
  average eigenvalue GAMMA=   0.3222
  1.6598  0.7966  0.3060  0.3060  0.1321  0.1321  0.1066  0.1066  0.1074  0.0875
  0.0685  0.0568

 Free energy of the ion-electron system (eV)
  ---------------------------------------------------
  alpha Z        PSCENC =        75.25431677
  Ewald energy   TEWEN  =    139341.47447134
  -Hartree energ DENC   =   -183470.44151412
  -exchange      EXHF   =         0.00000000
  -V(xc)+E(xc)   XCENC  =     -1693.55347178
  PAW double counting   =     46217.13372860   -42692.98589055
  entropy T*S    EENTRO =         0.04220112
  eigenvalues    EBANDS =     -3038.80230942
  atomic energy  EATOM  =     45086.50549395
  Solvation  Ediel_sol  =         0.00000000
  ---------------------------------------------------
  free energy    TOTEN  =      -175.37297408 eV

  energy without entropy =     -175.41517520  energy(sigma->0) =     -175.38352436


--------------------------------------------------------------------------------------------------------




--------------------------------------- Iteration      1(  18)  ---------------------------------------


    POTLOK:  cpu time   18.3221: real time   18.3239
    SETDIJ:  cpu time    0.1309: real time    0.1309
    EDDIAG:  cpu time   92.7115: real time   92.7117
  RMM-DIIS:  cpu time  243.4528: real time  243.4530
    ORTHCH:  cpu time   19.6114: real time   19.6109
       DOS:  cpu time    0.0019: real time    0.0019
    CHARGE:  cpu time   32.5471: real time   32.5464
    MIXING:  cpu time    1.3000: real time    1.3000
    --------------------------------------------
      LOOP:  cpu time  408.0776: real time  408.0785

 eigenvalue-minimisations  :   708
 total energy-change (2. order) :-0.1047787E+00  (-0.4321136E-01)
 number of electron     559.9999886 magnetization 
 augmentation part      241.1973801 magnetization 

 Broyden mixing:
  rms(total) = 0.12059E+01    rms(broyden)= 0.12057E+01
  rms(prec ) = 0.14204E+01
  weight for this iteration     100.00

 eigenvalues of (default mixing * dielectric matrix)
  average eigenvalue GAMMA=   0.3398
  1.7810  0.9940  0.3605  0.3605  0.1589  0.1589  0.1116  0.1116  0.0933  0.0933
  0.0750  0.0582  0.0609

 Free energy of the ion-electron system (eV)
  ---------------------------------------------------
  alpha Z        PSCENC =        75.25431677
  Ewald energy   TEWEN  =    139341.47447134
  -Hartree energ DENC   =   -183483.14665591
  -exchange      EXHF   =         0.00000000
  -V(xc)+E(xc)   XCENC  =     -1693.40875035
  PAW double counting   =     46228.21880844   -42703.15489374
  entropy T*S    EENTRO =         0.06042111
  eigenvalues    EBANDS =     -3027.28096439
  atomic energy  EATOM  =     45086.50549395
  Solvation  Ediel_sol  =         0.00000000
  ---------------------------------------------------
  free energy    TOTEN  =      -175.47775278 eV

  energy without entropy =     -175.53817389  energy(sigma->0) =     -175.49285806


--------------------------------------------------------------------------------------------------------




--------------------------------------- Iteration      1(  19)  ---------------------------------------


    POTLOK:  cpu time   18.2945: real time   18.2960
    SETDIJ:  cpu time    0.1317: real time    0.1317
    EDDIAG:  cpu time   92.2186: real time   92.2174
  RMM-DIIS:  cpu time  238.2347: real time  238.2350
    ORTHCH:  cpu time   19.2672: real time   19.2668
       DOS:  cpu time    0.0018: real time    0.0018
    CHARGE:  cpu time   32.5515: real time   32.5507
    MIXING:  cpu time    1.3957: real time    1.3957
    --------------------------------------------
      LOOP:  cpu time  402.0958: real time  402.0950

 eigenvalue-minimisations  :   695
 total energy-change (2. order) : 0.2246732E+00  (-0.4085674E-01)
 number of electron     559.9999875 magnetization 
 augmentation part      241.2249714 magnetization 

 Broyden mixing:
  rms(total) = 0.95824E+00    rms(broyden)= 0.95802E+00
  rms(prec ) = 0.11081E+01
  weight for this iteration     100.00

 eigenvalues of (default mixing * dielectric matrix)
  average eigenvalue GAMMA=   0.3409
  1.8427  1.1187  0.3744  0.3744  0.1764  0.1764  0.1149  0.1149  0.0974  0.0974
  0.0935  0.0761  0.0575  0.0575

 Free energy of the ion-electron system (eV)
  ---------------------------------------------------
  alpha Z        PSCENC =        75.25431677
  Ewald energy   TEWEN  =    139341.47447134
  -Hartree energ DENC   =   -183507.35593556
  -exchange      EXHF   =         0.00000000
  -V(xc)+E(xc)   XCENC  =     -1693.18408948
  PAW double counting   =     46242.19855572   -42715.79393510
  entropy T*S    EENTRO =         0.02692380
  eigenvalues    EBANDS =     -3004.37888102
  atomic energy  EATOM  =     45086.50549395
  Solvation  Ediel_sol  =         0.00000000
  ---------------------------------------------------
  free energy    TOTEN  =      -175.25307959 eV

  energy without entropy =     -175.28000339  energy(sigma->0) =     -175.25981054


--------------------------------------------------------------------------------------------------------




--------------------------------------- Iteration      1(  20)  ---------------------------------------


    POTLOK:  cpu time   18.2265: real time   18.2282
    SETDIJ:  cpu time    0.1325: real time    0.1325
    EDDIAG:  cpu time   92.7719: real time   92.7713
  RMM-DIIS:  cpu time  240.8202: real time  240.8180
    ORTHCH:  cpu time   19.6953: real time   19.6948
       DOS:  cpu time    0.0019: real time    0.0019
    CHARGE:  cpu time   32.6200: real time   32.6192
    MIXING:  cpu time    1.4701: real time    1.4701
    --------------------------------------------
      LOOP:  cpu time  405.7383: real time  405.7358

 eigenvalue-minimisations  :   700
 total energy-change (2. order) : 0.1477443E+00  (-0.2552389E-01)
 number of electron     559.9999875 magnetization 
 augmentation part      241.1994279 magnetization 

 Broyden mixing:
  rms(total) = 0.78742E+00    rms(broyden)= 0.78727E+00
  rms(prec ) = 0.89219E+00
  weight for this iteration     100.00

 eigenvalues of (default mixing * dielectric matrix)
  average eigenvalue GAMMA=   0.3387
  1.9566  1.1494  0.3689  0.3689  0.1943  0.1943  0.1541  0.1156  0.1156  0.0991
  0.0991  0.0757  0.0757  0.0568  0.0568

 Free energy of the ion-electron system (eV)
  ---------------------------------------------------
  alpha Z        PSCENC =        75.25431677
  Ewald energy   TEWEN  =    139341.47447134
  -Hartree energ DENC   =   -183523.97090339
  -exchange      EXHF   =         0.00000000
  -V(xc)+E(xc)   XCENC  =     -1693.03548860
  PAW double counting   =     46247.93221991   -42720.75739370
  entropy T*S    EENTRO =        -0.03418557
  eigenvalues    EBANDS =     -2988.47386600
  atomic energy  EATOM  =     45086.50549395
  Solvation  Ediel_sol  =         0.00000000
  ---------------------------------------------------
  free energy    TOTEN  =      -175.10533529 eV

  energy without entropy =     -175.07114972  energy(sigma->0) =     -175.09678890


--------------------------------------------------------------------------------------------------------




--------------------------------------- Iteration      1(  21)  ---------------------------------------


    POTLOK:  cpu time   18.2941: real time   18.2962
    SETDIJ:  cpu time    0.1320: real time    0.1320
    EDDIAG:  cpu time   91.9148: real time   91.9137
  RMM-DIIS:  cpu time  238.3315: real time  238.3294
    ORTHCH:  cpu time   19.3465: real time   19.3461
       DOS:  cpu time    0.0018: real time    0.0018
    CHARGE:  cpu time   32.6822: real time   32.6814
    MIXING:  cpu time    1.5382: real time    1.5382
    --------------------------------------------
      LOOP:  cpu time  402.2411: real time  402.2388

 eigenvalue-minimisations  :   695
 total energy-change (2. order) : 0.2046963E+00  (-0.2094359E-01)
 number of electron     559.9999878 magnetization 
 augmentation part      241.2045615 magnetization 

 Broyden mixing:
  rms(total) = 0.57848E+00    rms(broyden)= 0.57830E+00
  rms(prec ) = 0.67606E+00
  weight for this iteration     100.00

 eigenvalues of (default mixing * dielectric matrix)
  average eigenvalue GAMMA=   0.3456
  2.0594  1.1690  0.5267  0.3228  0.3228  0.1620  0.1620  0.1136  0.1136  0.1235
  0.0965  0.0965  0.0744  0.0744  0.0564  0.0564

 Free energy of the ion-electron system (eV)
  ---------------------------------------------------
  alpha Z        PSCENC =        75.25431677
  Ewald energy   TEWEN  =    139341.47447134
  -Hartree energ DENC   =   -183537.32113357
  -exchange      EXHF   =         0.00000000
  -V(xc)+E(xc)   XCENC  =     -1692.86540546
  PAW double counting   =     46254.05309655   -42726.12563149
  entropy T*S    EENTRO =        -0.01451102
  eigenvalues    EBANDS =     -2975.86133604
  atomic energy  EATOM  =     45086.50549395
  Solvation  Ediel_sol  =         0.00000000
  ---------------------------------------------------
  free energy    TOTEN  =      -174.90063897 eV

  energy without entropy =     -174.88612795  energy(sigma->0) =     -174.89701121


--------------------------------------------------------------------------------------------------------




--------------------------------------- Iteration      1(  22)  ---------------------------------------


    POTLOK:  cpu time   18.4882: real time   18.4901
    SETDIJ:  cpu time    0.1390: real time    0.1390
    EDDIAG:  cpu time   93.6427: real time   93.6414
  RMM-DIIS:  cpu time  241.2088: real time  241.2071
    ORTHCH:  cpu time   19.9397: real time   19.9393
       DOS:  cpu time    0.0018: real time    0.0018
    CHARGE:  cpu time   32.8530: real time   32.8524
    MIXING:  cpu time    1.6466: real time    1.6466
    --------------------------------------------
      LOOP:  cpu time  407.9199: real time  407.9177

 eigenvalue-minimisations  :   696
 total energy-change (2. order) : 0.7190319E-01  (-0.1781882E-01)
 number of electron     559.9999874 magnetization 
 augmentation part      241.2451947 magnetization 

 Broyden mixing:
  rms(total) = 0.55755E+00    rms(broyden)= 0.55737E+00
  rms(prec ) = 0.64935E+00
  weight for this iteration     100.00

 eigenvalues of (default mixing * dielectric matrix)
  average eigenvalue GAMMA=   0.3532
  2.1450  1.2447  0.6818  0.3338  0.3338  0.1665  0.1665  0.1614  0.1129  0.1129
  0.0957  0.0957  0.1009  0.0739  0.0663  0.0561  0.0561

 Free energy of the ion-electron system (eV)
  ---------------------------------------------------
  alpha Z        PSCENC =        75.25431677
  Ewald energy   TEWEN  =    139341.47447134
  -Hartree energ DENC   =   -183549.25353936
  -exchange      EXHF   =         0.00000000
  -V(xc)+E(xc)   XCENC  =     -1692.69873714
  PAW double counting   =     46255.09903048   -42726.56902977
  entropy T*S    EENTRO =        -0.03657563
  eigenvalues    EBANDS =     -2964.60416643
  atomic energy  EATOM  =     45086.50549395
  Solvation  Ediel_sol  =         0.00000000
  ---------------------------------------------------
  free energy    TOTEN  =      -174.82873578 eV

  energy without entropy =     -174.79216016  energy(sigma->0) =     -174.81959188


--------------------------------------------------------------------------------------------------------




--------------------------------------- Iteration      1(  23)  ---------------------------------------


    POTLOK:  cpu time   18.3898: real time   18.3919
    SETDIJ:  cpu time    0.1316: real time    0.1316
    EDDIAG:  cpu time   92.8143: real time   92.8167
  RMM-DIIS:  cpu time  241.6347: real time  241.6338
    ORTHCH:  cpu time   19.9703: real time   19.9698
       DOS:  cpu time    0.0020: real time    0.0020
    CHARGE:  cpu time   32.8667: real time   32.8659
    MIXING:  cpu time    1.7784: real time    1.7784
    --------------------------------------------
      LOOP:  cpu time  407.5877: real time  407.5902

 eigenvalue-minimisations  :   700
 total energy-change (2. order) : 0.3230623E-01  (-0.1408521E-01)
 number of electron     559.9999864 magnetization 
 augmentation part      241.1740687 magnetization 

 Broyden mixing:
  rms(total) = 0.51146E+00    rms(broyden)= 0.51128E+00
  rms(prec ) = 0.60771E+00
  weight for this iteration     100.00

 eigenvalues of (default mixing * dielectric matrix)
  average eigenvalue GAMMA=   0.3604
[...]
 -0.005  -0.012   0.003   0.005   0.005  -0.005  -0.012   0.003
 -0.008  -0.020   0.006   0.009   0.009  -0.008  -0.020   0.005
 -0.015  -0.005   0.012   0.000   0.022  -0.014  -0.005   0.012
  0.000  -0.022  -0.006  -0.015  -0.000   0.000  -0.022  -0.006
 -0.022   0.000   0.009  -0.005  -0.016  -0.021   0.000   0.009
 -0.018  -0.006   0.015   0.000   0.027  -0.017  -0.006   0.015
  0.000  -0.027  -0.007  -0.018   0.000   0.000  -0.026  -0.007
 -0.027   0.000   0.011  -0.006  -0.019  -0.026   0.000   0.010
 total augmentation occupancy for first ion, spin component:           1
  1.525  -0.025   0.006   0.022   0.019   0.081  -0.011  -0.002   0.037  -0.009   0.071  -0.021   0.011   0.000   0.004  -0.019
 -0.025   1.386   0.018   0.066   0.012  -0.009   0.078   0.014  -0.015  -0.012   0.220  -0.066   0.021   0.004   0.001  -0.007
  0.006   0.018   1.526  -0.001   0.008  -0.002   0.016   0.079  -0.014   0.016  -0.045   0.015  -0.003  -0.004  -0.006   0.016
  0.022   0.066  -0.001   1.348   0.043   0.035  -0.014  -0.013   0.091  -0.022  -0.092   0.026  -0.001  -0.009  -0.004   0.001
  0.019   0.012   0.008   0.043   1.432  -0.010  -0.012   0.015  -0.022   0.070  -0.093   0.029  -0.003  -0.012  -0.009   0.027
  0.081  -0.009  -0.002   0.035  -0.010   0.217   0.018  -0.001  -0.044   0.003  -0.049   0.003   0.017  -0.010   0.034  -0.004
 -0.011   0.078   0.016  -0.014  -0.012   0.018   0.263  -0.024  -0.005   0.007  -0.106   0.007  -0.001   0.051  -0.010  -0.001
 -0.002   0.014   0.079  -0.013   0.015  -0.001  -0.024   0.215   0.013  -0.019   0.029  -0.002  -0.012   0.009  -0.018   0.003
  0.037  -0.015  -0.014   0.091  -0.022  -0.044  -0.005   0.013   0.264   0.007   0.041  -0.003  -0.009   0.036   0.005   0.000
 -0.009  -0.012   0.016  -0.022   0.070   0.003   0.007  -0.019   0.007   0.259   0.046  -0.003  -0.038   0.003   0.049   0.007
  0.071   0.220  -0.045  -0.092  -0.093  -0.049  -0.106   0.029   0.041   0.046   0.949  -0.141   0.084   0.015   0.063  -0.012
 -0.021  -0.066   0.015   0.026   0.029   0.003   0.007  -0.002  -0.003  -0.003  -0.141   0.023  -0.014  -0.003  -0.009   0.003
  0.011   0.021  -0.003  -0.001  -0.003   0.017  -0.001  -0.012  -0.009  -0.038   0.084  -0.014   0.029  -0.008  -0.004  -0.003
  0.000   0.004  -0.004  -0.009  -0.012  -0.010   0.051   0.009   0.036   0.003   0.015  -0.003  -0.008   0.036   0.005   0.000
  0.004   0.001  -0.006  -0.004  -0.009   0.034  -0.010  -0.018   0.005   0.049   0.063  -0.009  -0.004   0.005   0.034  -0.000
 -0.019  -0.007   0.016   0.001   0.027  -0.004  -0.001   0.003   0.000   0.007  -0.012   0.003  -0.003   0.000  -0.000   0.001
  0.001  -0.028  -0.007  -0.018   0.001   0.001  -0.008  -0.002  -0.006   0.000  -0.003   0.001   0.000  -0.003  -0.000   0.000
 -0.029   0.001   0.012  -0.006  -0.019  -0.006   0.001   0.003  -0.001  -0.007  -0.007   0.001  -0.000  -0.000  -0.003   0.000


------------------------ aborting loop because EDIFF is reached ----------------------------------------


    CHARGE:  cpu time   32.6348: real time   32.6340
    FORLOC:  cpu time    8.8482: real time    8.8479
    FORNL :  cpu time   83.5609: real time   83.5588
    STRESS:  cpu time  256.1592: real time  256.1531
    FORCOR:  cpu time   29.0622: real time   29.0616
    FORHAR:  cpu time   13.0935: real time   13.0933
    MIXING:  cpu time    5.2753: real time    5.2753
    OFIELD:  cpu time    0.0001: real time    0.0001

  FORCE on cell =-STRESS in cart. coord.  units (eV):
  Direction    XX          YY          ZZ          XY          YZ          ZX
  --------------------------------------------------------------------------------------
  Alpha Z    75.25432    75.25432    75.25432
  Ewald   49017.41619 45386.25769 44937.69476  1281.84506  -191.76003  -307.21332
  Hartree 63676.16196 60243.29442 59785.95443  1171.30425  -201.97242  -326.38256
  E(xc)   -2905.06968 -2905.85761 -2905.91102     0.37811     0.28413     0.06043
  Local  ************************************ -2441.83680   396.76470   631.92725
  n-local  -891.64660  -884.85162  -880.57390    -1.94518     3.43501     4.01117
  augment  4104.47654  4104.14197  4102.02542    -0.08844    -2.67412    -1.33278
  Kinetic  7802.42794  7814.68397  7811.40529    -4.94865    -3.88759    -0.16393
  Fock        0.00000     0.00000     0.00000     0.00000     0.00000     0.00000
  -------------------------------------------------------------------------------------
  Total    -106.66243  -112.16330  -112.00378     4.70835     0.18968     0.90626
  in kB      -6.32934    -6.65576    -6.64629     0.27939     0.01126     0.05378
  external pressure =       -6.54 kB  Pullay stress =        0.00 kB


 VOLUME and BASIS-vectors are now :
 -----------------------------------------------------------------------------
  energy-cutoff  :      400.00
  volume of cell :    27000.00
      direct lattice vectors                 reciprocal lattice vectors
    30.000000000  0.000000000  0.000000000     0.033333333  0.000000000  0.000000000
     0.000000000 30.000000000  0.000000000     0.000000000  0.033333333  0.000000000
     0.000000000  0.000000000 30.000000000     0.000000000  0.000000000  0.033333333

  length of vectors
    30.000000000 30.000000000 30.000000000     0.033333333  0.033333333  0.033333333


 FORCES acting on ions
    electron-ion (+dipol)            ewald-force                    non-local-force                 convergence-correction
 -----------------------------------------------------------------------------------------------
   0.369E+03 0.983E+03 0.433E+03   -.367E+03 -.980E+03 -.433E+03   -.150E+01 -.188E+01 -.272E+00   0.510E-02 0.139E-01 -.404E-02
   -.975E+03 -.396E+03 0.418E+03   0.972E+03 0.394E+03 -.417E+03   0.184E+01 0.152E+01 -.200E+00   -.573E-02 -.156E-01 -.130E-01
   -.407E+03 0.975E+03 0.422E+03   0.404E+03 -.972E+03 -.421E+03   0.151E+01 -.182E+01 -.227E+00   -.294E-02 0.140E-01 -.700E-02
   0.960E+03 -.427E+03 0.443E+03   -.957E+03 0.425E+03 -.443E+03   -.186E+01 0.145E+01 -.235E+00   0.955E-02 -.109E-01 -.127E-01
   -.126E+02 0.588E+03 0.975E+03   0.126E+02 -.587E+03 -.971E+03   -.147E-02 -.308E+00 -.234E+01   0.330E-02 0.127E-01 0.972E-02
   -.197E+02 0.589E+03 -.975E+03   0.197E+02 -.588E+03 0.972E+03   -.739E-02 -.324E+00 0.235E+01   -.719E-03 -.442E-02 0.793E-03
   -.183E+02 0.114E+04 0.280E+01   0.183E+02 -.114E+04 -.278E+01   -.519E-03 -.312E+01 -.662E-03   0.455E-03 0.535E-02 -.153E-01
   0.115E+04 -.170E+03 0.636E+02   -.115E+04 0.169E+03 -.636E+02   -.299E+01 0.104E+00 0.601E-01   0.637E-02 -.510E-02 -.219E-01
   -.113E+04 -.156E+01 0.620E+00   0.113E+04 0.155E+01 -.589E+00   0.312E+01 0.137E-01 -.608E-02   0.944E-04 -.787E-02 -.208E-01
   -.536E+01 -.114E+04 0.861E+00   0.536E+01 0.113E+04 -.849E+00   -.897E-03 0.311E+01 0.686E-03   -.581E-03 0.650E-02 -.131E-01
   -.584E+03 0.578E+03 0.816E+03   0.582E+03 -.576E+03 -.813E+03   0.156E+01 -.156E+01 -.220E+01   -.951E-02 0.942E-02 0.897E-02
   -.587E+03 0.578E+03 -.816E+03   0.584E+03 -.576E+03 0.812E+03   0.156E+01 -.156E+01 0.220E+01   0.779E-03 -.886E-02 0.100E-02
   0.571E+03 -.589E+03 0.822E+03   -.569E+03 0.586E+03 -.819E+03   -.152E+01 0.156E+01 -.220E+01   0.289E-02 -.149E-01 0.185E-02
   0.568E+03 -.595E+03 -.823E+03   -.566E+03 0.592E+03 0.820E+03   -.150E+01 0.158E+01 0.223E+01   -.690E-02 0.425E-02 0.532E-02
   0.562E+03 0.581E+03 0.839E+03   -.560E+03 -.579E+03 -.836E+03   -.156E+01 -.158E+01 -.221E+01   0.612E-02 0.119E-01 0.836E-02
   0.543E+03 0.587E+03 -.855E+03   -.540E+03 -.584E+03 0.851E+03   -.161E+01 -.167E+01 0.221E+01   -.298E-02 -.822E-02 -.192E-02
   -.582E+03 -.581E+03 0.815E+03   0.580E+03 0.578E+03 -.811E+03   0.157E+01 0.156E+01 -.220E+01   -.764E-02 -.133E-01 -.276E-02
   -.583E+03 -.581E+03 -.814E+03   0.581E+03 0.579E+03 0.811E+03   0.156E+01 0.156E+01 0.220E+01   0.361E-02 0.653E-02 0.754E-02
   0.358E+03 0.990E+03 -.427E+03   -.355E+03 -.987E+03 0.427E+03   -.152E+01 -.184E+01 0.237E+00   -.207E-02 -.116E-02 -.142E-01
   -.975E+03 -.396E+03 -.417E+03   0.972E+03 0.394E+03 0.416E+03   0.184E+01 0.151E+01 0.206E+00   0.811E-02 -.381E-02 -.110E-01
   -.335E+03 0.319E+03 0.459E+03   0.335E+03 -.319E+03 -.459E+03   -.374E+00 0.362E+00 0.521E+00   -.511E-02 -.129E-02 -.153E-01
   0.938E+03 0.371E+03 0.504E+03   -.935E+03 -.368E+03 -.504E+03   -.183E+01 -.148E+01 0.296E-01   0.114E-01 0.625E-02 -.544E-02
   -.399E+03 -.976E+03 0.418E+03   0.397E+03 0.973E+03 -.418E+03   0.150E+01 0.182E+01 -.221E+00   -.433E-02 -.763E-02 -.166E-01
   -.409E+03 0.976E+03 -.419E+03   0.407E+03 -.973E+03 0.418E+03   0.152E+01 -.182E+01 0.226E+00   -.421E-03 -.311E-02 -.131E-01
   0.953E+03 -.452E+03 -.437E+03   -.949E+03 0.450E+03 0.437E+03   -.194E+01 0.134E+01 0.135E+00   -.956E-02 -.525E-02 -.180E-01
   -.976E+03 0.393E+03 0.418E+03   0.973E+03 -.391E+03 -.418E+03   0.184E+01 -.150E+01 -.232E+00   -.135E-01 -.101E-02 -.101E-01
   0.387E+03 -.980E+03 0.421E+03   -.385E+03 0.977E+03 -.420E+03   -.150E+01 0.180E+01 -.225E+00   -.472E-02 -.140E-01 -.183E-01
   0.288E+03 0.315E+03 0.476E+03   -.289E+03 -.315E+03 -.477E+03   0.340E+00 0.377E+00 0.514E+00   0.219E-02 0.456E-02 -.112E-01
   -.308E+02 0.642E+03 0.465E+01   0.308E+02 -.643E+03 -.463E+01   0.775E-01 0.743E+00 0.148E-01   -.152E-02 0.334E-02 -.283E-01
   -.592E+03 -.197E+01 0.968E+03   0.591E+03 0.199E+01 -.964E+03   0.311E+00 -.883E-02 -.236E+01   -.115E-01 -.984E-02 0.677E-02
   -.594E+03 -.247E+01 -.967E+03   0.593E+03 0.249E+01 0.963E+03   0.304E+00 -.139E-01 0.236E+01   -.729E-03 -.726E-02 0.565E-02
   0.574E+03 -.104E+02 0.987E+03   -.573E+03 0.104E+02 -.983E+03   -.276E+00 0.273E-01 -.239E+01   0.745E-02 0.179E-02 0.121E-01
   0.561E+03 -.217E+02 -.997E+03   -.560E+03 0.217E+02 0.993E+03   -.232E+00 0.631E-01 0.252E+01   -.231E-02 -.889E-02 0.609E-03
   0.636E+03 0.804E+03 0.411E+02   -.635E+03 -.802E+03 -.410E+02   -.744E+00 -.950E+00 -.103E-02   0.123E-02 0.541E-02 -.216E-01
   -.766E+03 -.764E+03 0.816E+00   0.764E+03 0.762E+03 -.777E+00   0.117E+01 0.113E+01 -.133E-01   0.126E-02 -.509E-02 -.206E-01
   -.770E+03 0.761E+03 0.127E+01   0.768E+03 -.759E+03 -.125E+01   0.112E+01 -.115E+01 0.360E-02   -.582E-02 0.128E-02 -.255E-01
   0.747E+03 -.786E+03 0.420E+01   -.745E+03 0.784E+03 -.419E+01   -.113E+01 0.121E+01 0.123E-01   -.698E-02 -.108E-01 -.277E-01
   -.108E+02 -.443E+01 0.108E+04   0.109E+02 0.442E+01 -.108E+04   -.602E-02 0.729E-02 -.161E+01   -.223E-02 -.438E-02 0.826E-02
   -.165E+02 -.670E+01 -.108E+04   0.165E+02 0.666E+01 0.108E+04   0.173E-01 0.375E-01 0.163E+01   0.460E-05 -.835E-02 0.298E-02
   0.816E+03 0.277E+03 -.631E+03   -.814E+03 -.277E+03 0.627E+03   0.455E+00 0.946E+00 0.441E+01   -.436E-02 -.960E-02 -.204E-01
   -.400E+03 -.976E+03 -.417E+03   0.398E+03 0.973E+03 0.416E+03   0.149E+01 0.182E+01 0.230E+00   0.414E-02 0.927E-02 -.441E-02
   -.338E+03 0.319E+03 -.456E+03   0.339E+03 -.319E+03 0.457E+03   -.361E+00 0.366E+00 -.523E+00   -.515E-02 -.778E-02 -.186E-01
   0.303E+03 -.336E+03 0.465E+03   -.304E+03 0.336E+03 -.466E+03   0.416E+00 -.324E+00 0.480E+00   -.505E-02 -.164E-01 -.222E-01
   0.268E+03 0.312E+03 -.470E+03   -.268E+03 -.312E+03 0.471E+03   0.271E+00 0.338E+00 -.631E+00   -.571E-03 -.759E-02 -.218E-01
   -.977E+03 0.393E+03 -.417E+03   0.974E+03 -.391E+03 0.416E+03   0.184E+01 -.150E+01 0.241E+00   0.392E-02 -.106E-01 -.150E-01
   0.386E+03 -.982E+03 -.418E+03   -.383E+03 0.979E+03 0.418E+03   -.149E+01 0.180E+01 0.230E+00   -.369E-02 0.733E-02 -.829E-02
   -.331E+03 -.326E+03 0.457E+03   0.331E+03 0.327E+03 -.458E+03   -.377E+00 -.366E+00 0.529E+00   -.893E-02 -.212E-01 -.217E-01
   0.573E+03 -.570E+02 0.215E+02   -.573E+03 0.576E+02 -.217E+02   0.290E+00 -.457E+00 0.186E+00   -.997E-03 -.109E-01 -.342E-01
   -.648E+03 -.309E+01 0.120E+01   0.649E+03 0.307E+01 -.116E+01   -.714E+00 0.205E-01 -.251E-03   -.478E-02 -.154E-01 -.327E-01
   -.663E+01 -.592E+03 0.969E+03   0.667E+01 0.591E+03 -.966E+03   -.244E-01 0.303E+00 -.235E+01   -.811E-02 -.175E-01 -.257E-02
   -.895E+01 -.594E+03 -.969E+03   0.898E+01 0.593E+03 0.965E+03   -.260E-01 0.298E+00 0.234E+01   0.229E-02 0.460E-03 0.753E-02
   -.256E+02 -.102E+02 0.390E+01   0.256E+02 0.102E+02 -.386E+01   0.186E-01 0.683E-02 -.407E-02   -.434E-02 -.143E-01 -.334E-01
   0.297E+03 -.342E+03 -.460E+03   -.298E+03 0.342E+03 0.461E+03   0.432E+00 -.322E+00 -.508E+00   -.302E-03 -.120E-01 -.186E-01
   -.333E+03 -.327E+03 -.455E+03   0.333E+03 0.328E+03 0.456E+03   -.389E+00 -.374E+00 -.513E+00   -.473E-02 -.955E-02 -.129E-01
   -.118E+02 -.649E+03 0.185E+01   0.119E+02 0.650E+03 -.182E+01   -.258E-01 -.734E+00 -.141E-02   -.481E-02 -.114E-01 -.264E-01
   0.219E+03 0.174E+03 0.502E+02   -.198E+03 -.167E+03 -.538E+02   -.153E+02 -.467E+01 0.289E+01   0.168E-02 -.903E-03 -.900E-02
   0.793E+03 0.409E+03 -.834E+02   -.854E+03 -.434E+03 0.916E+02   0.537E+02 0.212E+02 -.824E+01   0.223E-02 -.262E-03 -.871E-02
 -----------------------------------------------------------------------------------------------
   -.409E+02 -.184E+02 0.131E+01   0.125E-11 0.114E-12 -.205E-11   0.409E+02 0.186E+02 -.711E+00   -.794E-01 -.222E+00 -.593E+00
 
 
 POSITION                                       TOTAL-FORCE (eV/Angst)
 -----------------------------------------------------------------------------------
     13.37281      9.84801     12.50759         0.711305      1.101681      0.291968
     20.15199     16.62719     12.50759        -1.107974     -0.704168      0.278399
     16.62719      9.84801     12.50759        -0.705624      1.106537      0.302204
      9.84801     16.62719     12.50759         1.139854     -0.673129      0.237316
     15.00000     11.47521     10.20639        -0.000970      0.412506      1.277866
     15.00000     11.47521     19.79360        -0.004839      0.414108     -1.275079
     15.00000      8.28283     15.00000        -0.001101      1.517823      0.001315
      8.28283     15.00000     15.00000         1.607135     -0.281022      0.025506
     21.71717     15.00000     15.00000        -1.512246     -0.009481      0.003264
     15.00000     21.71717     15.00000         0.000049     -1.515909     -0.000577
     18.35858     11.64142     10.25025        -0.755401      0.755312      1.066310
     18.35858     11.64142     19.74975        -0.757412      0.755309     -1.065208
     11.64142     18.35858     10.25025         0.737534     -0.748823      1.072143
     11.64142     18.35858     19.74975         0.716858     -0.759913     -1.086833
     11.64142     11.64142     10.25025         0.754520      0.760758      1.069864
     11.64142     11.64142     19.74975         0.786812      0.731323     -1.006900
     18.35858     18.35858     10.25025        -0.759913     -0.753951      1.067474
     18.35858     18.35858     19.74975        -0.757130     -0.754919     -1.069237
     13.37281      9.84801     17.49241         0.738023      1.092465     -0.287098
     20.15199     16.62719     17.49241        -1.109498     -0.699396     -0.281674
     16.73751     13.26249     12.54279         0.111020     -0.110144     -0.141796
      9.84801     13.37281     12.50759         1.148598      0.693681      0.220541
     16.62719     20.15199     12.50759        -0.703293     -1.104479      0.291561
     16.62719      9.84801     17.49241        -0.709097      1.104756     -0.299590
      9.84801     16.62719     17.49241         1.156947     -0.577118     -0.199672
     20.15199     13.37281     12.50759        -1.108778      0.697549      0.292872
     13.37281     20.15199     12.50759         0.705198     -1.111101      0.297131
     13.26249     13.26249     12.54279        -0.093254     -0.105059     -0.184744
     15.00000     11.52498     15.00000         0.003552     -0.227544     -0.001433
     18.52479     15.00000     10.20639        -0.411269      0.002759      1.276078
     18.52479     15.00000     19.79360        -0.411685      0.002407     -1.279502
     11.47521     15.00000     10.20640         0.395236     -0.014501      1.289259
     11.47521     15.00000     19.79360         0.435156      0.026086     -1.229371
     11.49535     11.49535     15.00000         0.240015      1.034284      0.121799
     18.50465     18.50465     15.00000        -0.840226     -0.821005      0.005144
     18.50465     11.49535     15.00000        -0.814023      0.828070     -0.003279
     11.49535     18.50465     15.00000         0.836560     -0.833350     -0.005614
     15.00000     15.00000     10.04368         0.001985     -0.004603      1.181117
     15.00000     15.00000     19.95633        -0.002346     -0.008166     -1.183117
      9.84801     13.37281     17.49241         2.037618      1.095969      0.305175
     16.62719     20.15199     17.49241        -0.700694     -1.107593     -0.293678
     16.73751     13.26249     17.45721         0.125395     -0.107648      0.147284
     13.26249     16.73751     12.54279        -0.111424      0.109358     -0.145467
     13.26249     13.26249     17.45721        -0.052796     -0.096927      0.196529
     20.15199     13.37281     17.49241        -1.110330      0.696676     -0.293293
     13.37281     20.15199     17.49241         0.702570     -1.110801     -0.298966
     16.73751     16.73751     12.54279         0.108637      0.110270     -0.156934
     11.52498     15.00000     15.00000        -0.081030      0.128149     -0.065156
     18.47502     15.00000     15.00000         0.225074     -0.007954      0.001218
     15.00000     18.52480     10.20639         0.012327     -0.409041      1.281002
     15.00000     18.52480     19.79360         0.012525     -0.413391     -1.283671
     15.00000     15.00000     15.00000        -0.013028      0.008424     -0.000090
     13.26249     16.73751     17.45721        -0.113498      0.106059      0.152089
     16.73751     16.73751     17.45721         0.116599      0.112055      0.154740
     15.00000     18.47502     15.00000        -0.003491      0.228837     -0.001589
      9.12065     12.68576     15.87072         5.929677      2.760667     -0.714835
      8.08086     12.27648     16.02471        -6.744411     -3.322742     -0.052759
 -----------------------------------------------------------------------------------
    total drift:                                0.006351      0.002774      0.002802


--------------------------------------------------------------------------------------------------------



  FREE ENERGIE OF THE ION-ELECTRON SYSTEM (eV)
  ---------------------------------------------------
  free  energy   TOTEN  =      -174.62192415 eV

  energy  without entropy=     -174.58448807  energy(sigma->0) =     -174.61256513
 


--------------------------------------------------------------------------------------------------------


    POTLOK:  cpu time   19.2984: real time   19.2981


--------------------------------------------------------------------------------------------------------


     LOOP+:  cpu time20713.0179: real time20713.3345
    4ORBIT:  cpu time    0.0000: real time    0.0000

 total amount of memory used by VASP MPI-rank0  5486940. kBytes
=======================================================================

   base      :      30000. kBytes
   nonlr-proj:      17125. kBytes
   fftplans  :     924480. kBytes
   grid      :    1872000. kBytes
   one-center:        886. kBytes
   wavefun   :    2642449. kBytes
 
  
  
 General timing and accounting informations for this job:
 ========================================================
  
                  Total CPU time used (sec):    20782.025
                            User time (sec):    19138.387
                          System time (sec):     1643.637
                         Elapsed time (sec):    20782.387
  
                   Maximum memory used (kb):     7179268.
                   Average memory used (kb):           0.
  
                          Minor page faults:    769945826
                          Major page faults:            0
                 Voluntary context switches:          699
