 vasp.5.4.4.18Apr17-6-g9f103f2a35 (build Sep 03 2018 23:53:05) complex          
  
 executed on             LinuxIFC date 2021.12.02  05:53:45
 running on    1 total cores
 distrk:  each k-point on    1 cores,    1 groups
 distr:  one band on NCORES_PER_BAND=   1 cores,    1 groups


--------------------------------------------------------------------------------------------------------


 INCAR:
 POTCAR:    PAW_PBE Pd 04Jan2005                  
 POTCAR:    PAW_PBE C 08Apr2002                   
 POTCAR:    PAW_PBE O 08Apr2002                   
 POTCAR:    PAW_PBE Pd 04Jan2005                  
   VRHFIN =Pd : s1 d9                                                           
   LEXCH  = PE                                                                  
   EATOM  =   809.7530 eV,   59.5152 Ry                                         
                                                                                
   TITEL  = PAW_PBE Pd 04Jan2005                                                
   LULTRA =        F    use ultrasoft PP ?                                      
   IUNSCR =        1    unscreen: 0-lin 1-nonlin 2-no                           
   RPACOR =    2.000    partial core radius                                     
   POMASS =  106.420; ZVAL   =   10.000    mass and valenz                      
   RCORE  =    2.600    outmost cutoff radius                                   
   RWIGS  =    2.710; RWIGS  =    1.434    wigner-seitz radius (au A)           
   ENMAX  =  250.925; ENMIN  =  188.194 eV                                      
   ICORE  =        3    local potential                                         
   LCOR   =        T    correct aug charges                                     
   LPAW   =        T    paw PP                                                  
   EAUG   =  416.230                                                            
   DEXC   =    0.000                                                            
   RMAX   =    2.653    core radius for proj-oper                               
   RAUG   =    1.300    factor for augmentation sphere                          
   RDEP   =    2.734    radius for radial grids                                 
   RDEPT  =    2.103    core radius for aug-charge                              
                                                                                
   Atomic configuration                                                         
   12 entries                                                                   
     n  l   j            E        occ.                                          
     1  0  0.50    -24164.6631   2.0000                                         
     2  0  0.50     -3530.9218   2.0000                                         
     2  1  1.50     -3165.6822   6.0000                                         
     3  0  0.50      -639.4577   2.0000                                         
     3  1  1.50      -519.4532   6.0000                                         
     3  2  2.50      -328.9757  10.0000                                         
     4  0  0.50       -88.7014   2.0000                                         
     4  1  1.50       -54.4540   6.0000                                         
     4  2  2.50        -6.6878   9.0000                                         
     5  0  0.50        -4.3543   1.0000                                         
     5  1  0.50        -1.3606   0.0000                                         
     4  3  2.50        -1.3606   0.0000                                         
   Description                                                                  
     l       E           TYP  RCUT    TYP  RCUT                                 
     2     -6.6878251     23  2.400                                             
     2     -8.0484077     23  2.400                                             
     0     -4.3542939     23  2.400                                             
     0      4.3406793     23  2.400                                             
     1     -4.0817478     23  2.600                                             
     1     15.8380318     23  2.600                                             
     3     -4.0817478     23  2.400                                             
  local pseudopotential read in
  partial core-charges read in
  partial kinetic energy density read in
  atomic valenz-charges read in
  non local Contribution for L=           2  read in
    real space projection operators read in
  non local Contribution for L=           2  read in
    real space projection operators read in
  non local Contribution for L=           0  read in
    real space projection operators read in
  non local Contribution for L=           0  read in
    real space projection operators read in
  non local Contribution for L=           1  read in
    real space projection operators read in
  non local Contribution for L=           1  read in
    real space projection operators read in
    PAW grid and wavefunctions read in
 
   number of l-projection  operators is LMAX  =           6
   number of lm-projection operators is LMMAX =          18
 
 POTCAR:    PAW_PBE C 08Apr2002                   
   VRHFIN =C: s2p2                                                              
   LEXCH  = PE                                                                  
   EATOM  =   147.1560 eV,   10.8157 Ry                                         
                                                                                
   TITEL  = PAW_PBE C 08Apr2002                                                 
   LULTRA =        F    use ultrasoft PP ?                                      
   IUNSCR =        1    unscreen: 0-lin 1-nonlin 2-no                           
   RPACOR =    1.200    partial core radius                                     
   POMASS =   12.011; ZVAL   =    4.000    mass and valenz                      
   RCORE  =    1.500    outmost cutoff radius                                   
   RWIGS  =    1.630; RWIGS  =    0.863    wigner-seitz radius (au A)           
   ENMAX  =  400.000; ENMIN  =  300.000 eV                                      
   ICORE  =        2    local potential                                         
   LCOR   =        T    correct aug charges                                     
   LPAW   =        T    paw PP                                                  
   EAUG   =  644.873                                                            
   DEXC   =    0.000                                                            
   RMAX   =    1.529    core radius for proj-oper                               
   RAUG   =    1.300    factor for augmentation sphere                          
   RDEP   =    1.501    radius for radial grids                                 
   RDEPT  =    1.300    core radius for aug-charge                              
                                                                                
   Atomic configuration                                                         
    4 entries                                                                   
     n  l   j            E        occ.                                          
     1  0  0.50      -273.3789   2.0000                                         
     2  0  0.50       -13.7508   2.0000                                         
     2  1  0.50        -5.2854   2.0000                                         
     3  2  1.50        -5.4423   0.0000                                         
   Description                                                                  
     l       E           TYP  RCUT    TYP  RCUT                                 
     0    -13.7508458     23  1.200                                             
     0     -8.2022199     23  1.200                                             
     1     -5.2854383     23  1.500                                             
     1     34.0145650     23  1.500                                             
     2     -5.4423304      7  1.500                                             
  local pseudopotential read in
  partial core-charges read in
  partial kinetic energy density read in
  atomic valenz-charges read in
  non local Contribution for L=           0  read in
    real space projection operators read in
  non local Contribution for L=           0  read in
    real space projection operators read in
  non local Contribution for L=           1  read in
    real space projection operators read in
  non local Contribution for L=           1  read in
    real space projection operators read in
    PAW grid and wavefunctions read in
 
   number of l-projection  operators is LMAX  =           4
   number of lm-projection operators is LMMAX =           8
 
 POTCAR:    PAW_PBE O 08Apr2002                   
   VRHFIN =O: s2p4                                                              
   LEXCH  = PE                                                                  
   EATOM  =   432.3788 eV,   31.7789 Ry                                         
                                                                                
   TITEL  = PAW_PBE O 08Apr2002                                                 
   LULTRA =        F    use ultrasoft PP ?                                      
   IUNSCR =        1    unscreen: 0-lin 1-nonlin 2-no                           
   RPACOR =    1.200    partial core radius                                     
   POMASS =   16.000; ZVAL   =    6.000    mass and valenz                      
   RCORE  =    1.520    outmost cutoff radius                                   
   RWIGS  =    1.550; RWIGS  =    0.820    wigner-seitz radius (au A)           
   ENMAX  =  400.000; ENMIN  =  300.000 eV                                      
   ICORE  =        2    local potential                                         
   LCOR   =        T    correct aug charges                                     
   LPAW   =        T    paw PP                                                  
   EAUG   =  605.392                                                            
   DEXC   =    0.000                                                            
   RMAX   =    1.553    core radius for proj-oper                               
   RAUG   =    1.300    factor for augmentation sphere                          
   RDEP   =    1.550    radius for radial grids                                 
   RDEPT  =    1.329    core radius for aug-charge                              
                                                                                
   Atomic configuration                                                         
    4 entries                                                                   
     n  l   j            E        occ.                                          
     1  0  0.50      -514.6923   2.0000                                         
     2  0  0.50       -23.9615   2.0000                                         
     2  1  0.50        -9.0305   4.0000                                         
     3  2  1.50        -9.5241   0.0000                                         
   Description                                                                  
     l       E           TYP  RCUT    TYP  RCUT                                 
     0    -23.9615318     23  1.200                                             
     0     -9.5240782     23  1.200                                             
     1     -9.0304911     23  1.520                                             
     1      8.1634956     23  1.520                                             
     2     -9.5240782      7  1.500                                             
  local pseudopotential read in
  partial core-charges read in
  partial kinetic energy density read in
  kinetic energy density of atom read in
  atomic valenz-charges read in
  non local Contribution for L=           0  read in
    real space projection operators read in
  non local Contribution for L=           0  read in
    real space projection operators read in
  non local Contribution for L=           1  read in
    real space projection operators read in
  non local Contribution for L=           1  read in
    real space projection operators read in
    PAW grid and wavefunctions read in
 
   number of l-projection  operators is LMAX  =           4
   number of lm-projection operators is LMMAX =           8
 
 Optimization of the real space projectors (new method)

 maximal supplied QI-value         = 14.36
 optimisation between [QCUT,QGAM] = [ 10.20, 20.39] = [ 29.12,116.47] Ry 
 Optimized for a Real-space Cutoff    1.51 Angstroem

   l    n(q)    QCUT    max X(q) W(low)/X(q) W(high)/X(q)  e(spline) 
   2      8    10.197    59.108    0.26E-03    0.14E-03    0.96E-07
   2      8    10.197    58.101    0.27E-03    0.14E-03    0.98E-07
   0      9    10.197   102.235    0.54E-04    0.60E-05    0.72E-07
   0      9    10.197    58.388    0.52E-04    0.60E-05    0.68E-07
   1      9    10.197    22.191    0.18E-03    0.25E-03    0.79E-07
   1      9    10.197    15.590    0.15E-03    0.21E-03    0.69E-07
 Optimization of the real space projectors (new method)

 maximal supplied QI-value         = 25.13
 optimisation between [QCUT,QGAM] = [ 10.05, 20.36] = [ 28.30,116.06] Ry 
 Optimized for a Real-space Cutoff    1.30 Angstroem

   l    n(q)    QCUT    max X(q) W(low)/X(q) W(high)/X(q)  e(spline) 
   0      8    10.053   115.676    0.49E-03    0.72E-03    0.18E-06
   0      8    10.053    87.132    0.49E-03    0.71E-03    0.18E-06
   1      7    10.053     4.429    0.32E-03    0.31E-03    0.18E-06
   1      7    10.053     2.733    0.23E-03    0.19E-03    0.20E-06
 Optimization of the real space projectors (new method)

 maximal supplied QI-value         = 24.76
 optimisation between [QCUT,QGAM] = [ 10.15, 20.30] = [ 28.85,115.39] Ry 
 Optimized for a Real-space Cutoff    1.38 Angstroem

   l    n(q)    QCUT    max X(q) W(low)/X(q) W(high)/X(q)  e(spline) 
   0      8    10.150    20.381    0.22E-03    0.32E-03    0.29E-06
   0      8    10.150    15.268    0.23E-03    0.35E-03    0.30E-06
   1      8    10.150     5.964    0.46E-03    0.53E-03    0.21E-06
   1      8    10.150     5.382    0.38E-03    0.45E-03    0.19E-06

 ----------------------------------------------------------------------------- 
|                                                                             |
|  ADVICE TO THIS USER RUNNING 'VASP/VAMP'   (HEAR YOUR MASTER'S VOICE ...):  |
|                                                                             |
|      You enforced a specific xc-type in the INCAR file,                     |
|      a different type was found on the POTCAR file                          |
|          I HOPE YOU KNOW, WHAT YOU ARE  DOING                               |
|                                                                             |
 ----------------------------------------------------------------------------- 

  PAW_PBE Pd 04Jan2005                  :
 energy of atom  1       EATOM= -809.7530
 kinetic energy error for atom=    0.0091 (will be added to EATOM!!)
  PAW_PBE C 08Apr2002                   :
 energy of atom  2       EATOM= -147.1560
 kinetic energy error for atom=    0.0288 (will be added to EATOM!!)
  PAW_PBE O 08Apr2002                   :
 energy of atom  3       EATOM= -432.3788
 kinetic energy error for atom=    0.1156 (will be added to EATOM!!)
 
 
 POSCAR: Pd55PES                                 
  positions in cartesian coordinates
  No initial velocities read in
 exchange correlation table for  LEXCH =        9
   RHO(1)=    0.500       N(1)  =     2000
   RHO(2)=  100.500       N(2)  =     4000
 


--------------------------------------------------------------------------------------------------------


 ion  position               nearest neighbor table
   1  0.446  0.328  0.417-   3 3.25   5 3.25   7 3.36  15 3.36  29 3.42  28 3.42
   2  0.672  0.554  0.417-  26 3.25  30 3.25  17 3.36   9 3.36  47 3.42  49 3.42
   3  0.554  0.328  0.417-   1 3.25   5 3.25   7 3.36  11 3.36  29 3.42  21 3.42
   4  0.328  0.554  0.417-  32 3.25  22 3.25  13 3.36   8 3.36  43 3.42  48 3.42
   5  0.500  0.383  0.340-   1 3.25   3 3.25  11 3.36  15 3.36  21 3.42  28 3.42
   6  0.500  0.383  0.660-  24 3.25  19 3.25  16 3.36  12 3.36  42 3.42  44 3.42
   7  0.500  0.276  0.500-  29 3.24   3 3.36   1 3.36  19 3.36  24 3.36
   8  0.276  0.500  0.500-  48 3.24  22 3.36  40 3.36   4 3.36  25 3.36
   9  0.724  0.500  0.500-  49 3.24  26 3.36  45 3.36   2 3.36  20 3.36
  10  0.500  0.724  0.500-  55 3.24  27 3.36  23 3.36  46 3.36  41 3.36
  11  0.612  0.388  0.342-  21 3.24   5 3.36   3 3.36  30 3.36  26 3.36
  12  0.612  0.388  0.658-  42 3.24  24 3.36  45 3.36   6 3.36  31 3.36
  13  0.388  0.612  0.342-  43 3.24  32 3.36  50 3.36   4 3.36  27 3.36
  14  0.388  0.612  0.658-  53 3.24  25 3.36  33 3.36  51 3.36  46 3.36
  15  0.388  0.388  0.342-  28 3.24   5 3.36   1 3.36  32 3.36  22 3.36
  16  0.388  0.388  0.658-  44 3.24  19 3.36  40 3.36   6 3.36  33 3.36
  17  0.612  0.612  0.342-  47 3.24  30 3.36  50 3.36   2 3.36  23 3.36
  18  0.612  0.612  0.658-  54 3.24  31 3.36  20 3.36  51 3.36  41 3.36
  19  0.446  0.328  0.583-   6 3.25  24 3.25  16 3.36   7 3.36  44 3.42  29 3.42
  20  0.672  0.554  0.583-  31 3.25  45 3.25  18 3.36   9 3.36  54 3.42  49 3.42
  21  0.558  0.442  0.418-  11 3.24   5 3.42   3 3.42  30 3.42  26 3.42
  22  0.328  0.446  0.417-   4 3.25  32 3.25   8 3.36  15 3.36  48 3.42  28 3.42
  23  0.554  0.672  0.417-  27 3.25  50 3.25  10 3.36  17 3.36  55 3.42  47 3.42
  24  0.554  0.328  0.583-   6 3.25  19 3.25  12 3.36   7 3.36  42 3.42  29 3.42
  25  0.328  0.554  0.583-  33 3.25  40 3.25  14 3.36   8 3.36  53 3.42  48 3.42
  26  0.672  0.446  0.417-   2 3.25  30 3.25   9 3.36  11 3.36  49 3.42  21 3.42
  27  0.446  0.672  0.417-  23 3.25  50 3.25  10 3.36  13 3.36  55 3.42  43 3.42
  28  0.442  0.442  0.418-  15 3.24   5 3.42   1 3.42  32 3.42  22 3.42
  29  0.500  0.384  0.500-   7 3.24   3 3.42   1 3.42  24 3.42  19 3.42
  30  0.617  0.500  0.340-   2 3.25  26 3.25  17 3.36  11 3.36  47 3.42  21 3.42
  31  0.617  0.500  0.660-  20 3.25  45 3.25  18 3.36  12 3.36  54 3.42  42 3.42
  32  0.383  0.500  0.340-   4 3.25  22 3.25  13 3.36  15 3.36  43 3.42  28 3.42
  33  0.383  0.500  0.660-  25 3.25  40 3.25  14 3.36  16 3.36  53 3.42  44 3.42
  34  0.383  0.383  0.500-
  35  0.617  0.617  0.500-
  36  0.617  0.383  0.500-
  37  0.383  0.617  0.500-
  38  0.500  0.500  0.335-
  39  0.500  0.500  0.665-  56 1.92
  40  0.328  0.446  0.583-  33 3.25  25 3.25  16 3.36   8 3.36  44 3.42  48 3.42
  41  0.554  0.672  0.583-  46 3.25  51 3.25  10 3.36  18 3.36  54 3.42  55 3.42
  42  0.558  0.442  0.582-  12 3.24   6 3.42  24 3.42  31 3.42  45 3.42
  43  0.442  0.558  0.418-  13 3.24   4 3.42  32 3.42  27 3.42  50 3.42
  44  0.442  0.442  0.582-  16 3.24   6 3.42  19 3.42  33 3.42  40 3.42
  45  0.672  0.446  0.583-  20 3.25  31 3.25   9 3.36  12 3.36  49 3.42  42 3.42
  46  0.446  0.672  0.583-  41 3.25  51 3.25  10 3.36  14 3.36  53 3.42  55 3.42
  47  0.558  0.558  0.418-  17 3.24   2 3.42  30 3.42  23 3.42  50 3.42
  48  0.384  0.500  0.500-   8 3.24   4 3.42  22 3.42  25 3.42  40 3.42
  49  0.616  0.500  0.500-   9 3.24   2 3.42  26 3.42  20 3.42  45 3.42
  50  0.500  0.617  0.340-  27 3.25  23 3.25  13 3.36  17 3.36  43 3.42  47 3.42
  51  0.500  0.617  0.660-  41 3.25  46 3.25  14 3.36  18 3.36  53 3.42  54 3.42
  52  0.500  0.500  0.500-
  53  0.442  0.558  0.582-  14 3.24  25 3.42  33 3.42  51 3.42  46 3.42
  54  0.558  0.558  0.582-  18 3.24  31 3.42  20 3.42  51 3.42  41 3.42
  55  0.500  0.616  0.500-  10 3.24  23 3.42  27 3.42  41 3.42  46 3.42
  56  0.514  0.495  0.727-  57 1.13  39 1.92
  57  0.516  0.494  0.765-  56 1.13
 
  LATTYP: Found a simple cubic cell.
 ALAT       =    30.0000000000
  
  Lattice vectors:
  
 A1 = (  30.0000000000,   0.0000000000,   0.0000000000)
 A2 = (   0.0000000000,  30.0000000000,   0.0000000000)
 A3 = (   0.0000000000,   0.0000000000,  30.0000000000)


Analysis of symmetry for initial positions (statically):
=====================================================================
 Subroutine PRICEL returns:
 Original cell was already a primitive cell.
 

 Routine SETGRP: Setting up the symmetry group for a 
 simple cubic supercell.


 Subroutine GETGRP returns: Found  1 space group operations
 (whereof  1 operations were pure point group operations)
 out of a pool of 48 trial point group operations.


The static configuration has the point symmetry C_1 .


Analysis of symmetry for dynamics (positions and initial velocities):
=====================================================================
 Subroutine PRICEL returns:
 Original cell was already a primitive cell.
 

 Routine SETGRP: Setting up the symmetry group for a 
 simple cubic supercell.


 Subroutine GETGRP returns: Found  1 space group operations
 (whereof  1 operations were pure point group operations)
 out of a pool of 48 trial point group operations.


The dynamic configuration has the point symmetry C_1 .


Analysis of constrained symmetry for selective dynamics:
=====================================================================
 Subroutine PRICEL returns:
 Original cell was already a primitive cell.
 

 Routine SETGRP: Setting up the symmetry group for a 
 simple cubic supercell.


 Subroutine GETGRP returns: Found  1 space group operations
 (whereof  1 operations were pure point group operations)
 out of a pool of 48 trial point group operations.


The constrained configuration has the point symmetry C_1 .


 Subroutine INISYM returns: Found  1 space group operations
 (whereof  1 operations are pure point group operations),
 and found     1 'primitive' translations

 
 
 KPOINTS: K-points                                

Automatic generation of k-mesh.
Space group operators:
 irot       det(A)        alpha          n_x          n_y          n_z        tau_x        tau_y        tau_z
    1     1.000000     0.000000     1.000000     0.000000     0.000000     0.000000     0.000000     0.000000
 
 Subroutine IBZKPT returns following result:
 ===========================================
 
 Found      1 irreducible k-points:
 
 Following reciprocal coordinates:
            Coordinates               Weight
  0.000000  0.000000  0.000000      1.000000
 
 Following cartesian coordinates:
            Coordinates               Weight
  0.000000  0.000000  0.000000      1.000000
 


--------------------------------------------------------------------------------------------------------




 Dimension of arrays:
   k-points           NKPTS =      1   k-points in BZ     NKDIM =      1   number of bands    NBANDS=    336
   number of dos      NEDOS =    301   number of ions     NIONS =     57
   non local maximal  LDIM  =      6   non local SUM 2l+1 LMDIM =     18
   total plane-waves  NPLWV = ******
   max r-space proj   IRMAX =   1847   max aug-charges    IRDMAX=   6262
   dimension x,y,z NGX =   150 NGY =  150 NGZ =  150
   dimension x,y,z NGXF=   300 NGYF=  300 NGZF=  300
   support grid    NGXF=   300 NGYF=  300 NGZF=  300
   ions per type =              55   1   1
   NGX,Y,Z   is equivalent  to a cutoff of   8.31,  8.31,  8.31 a.u.
   NGXF,Y,Z  is equivalent  to a cutoff of  16.62, 16.62, 16.62 a.u.

 SYSTEM =  6_Pd100_top_free_z(O)                   
 POSCAR =  Pd55PES                                 

 Startparameter for this run:
   NWRITE =      2    write-flag & timer
   PREC   = normal    normal or accurate (medium, high low for compatibility)
   ISTART =      0    job   : 0-new  1-cont  2-samecut
   ICHARG =      2    charge: 1-file 2-atom 10-const
   ISPIN  =      1    spin polarized calculation?
   LNONCOLLINEAR =      F non collinear calculations
   LSORBIT =      F    spin-orbit coupling
   INIWAV =      1    electr: 0-lowe 1-rand  2-diag
   LASPH  =      F    aspherical Exc in radial PAW
   METAGGA=      F    non-selfconsistent MetaGGA calc.

 Electronic Relaxation 1
   ENCUT  =  400.0 eV  29.40 Ry    5.42 a.u.  48.92 48.92 48.92*2*pi/ulx,y,z
   ENINI  =  400.0     initial cutoff
   ENAUG  =  644.9 eV  augmentation charge cutoff
   NELM   =    100;   NELMIN=  6; NELMDL= -5     # of ELM steps 
   EDIFF  = 0.1E-03   stopping-criterion for ELM
   LREAL  =      T    real-space projection
   NLSPLINE    = F    spline interpolate recip. space projectors
   LCOMPAT=      F    compatible to vasp.4.4
   GGA_COMPAT  = T    GGA compatible to vasp.4.4-vasp.4.6
   LMAXPAW     = -100 max onsite density
   LMAXMIX     =    2 max onsite mixed and CHGCAR
   VOSKOWN=      0    Vosko Wilk Nusair interpolation
   ROPT   =   -0.00050  -0.00050  -0.00050
 Ionic relaxation
   EDIFFG = -.5E-01   stopping-criterion for IOM
   NSW    =      0    number of steps for IOM
   NBLOCK =      1;   KBLOCK =      1    inner block; outer block 
   IBRION =     -1    ionic relax: 0-MD 1-quasi-New 2-CG
   NFREE  =      1    steps in history (QN), initial steepest desc. (CG)
   ISIF   =      2    stress and relaxation
   IWAVPR =     10    prediction:  0-non 1-charg 2-wave 3-comb
   ISYM   =      2    0-nonsym 1-usesym 2-fastsym
   LCORR  =      T    Harris-Foulkes like correction to forces

   POTIM  = 0.5000    time-step for ionic-motion
   TEIN   =    0.0    initial temperature
   TEBEG  =    0.0;   TEEND  =   0.0 temperature during run
   SMASS  =  -3.00    Nose mass-parameter (am)
   estimated Nose-frequenzy (Omega)   =  0.10E-29 period in steps =****** mass=  -0.206E-25a.u.
   SCALEE = 1.0000    scale energy and forces
   NPACO  =    256;   APACO  = 16.0  distance and # of slots for P.C.
   PSTRESS=    0.0 pullay stress

  Mass of Ions in am
   POMASS = 106.42 12.01 16.00
  Ionic Valenz
   ZVAL   =  10.00  4.00  6.00
  Atomic Wigner-Seitz radii
   RWIGS  =  -1.00 -1.00 -1.00
  virtual crystal weights 
   VCA    =   1.00  1.00  1.00
   NELECT =     560.0000    total number of electrons
   NUPDOWN=      -1.0000    fix difference up-down

 DOS related values:
   EMIN   =  10.00;   EMAX   =-10.00  energy-range for DOS
   EFERMI =   0.00
   ISMEAR =     2;   SIGMA  =   0.20  broadening in eV -4-tet -1-fermi 0-gaus

 Electronic relaxation 2 (details)
   IALGO  =     68    algorithm
   LDIAG  =      T    sub-space diagonalisation (order eigenvalues)
   LSUBROT=      F    optimize rotation matrix (better conditioning)
   TURBO    =      0    0=normal 1=particle mesh
   IRESTART =      0    0=no restart 2=restart with 2 vectors
   NREBOOT  =      0    no. of reboots
   NMIN     =      0    reboot dimension
   EREF     =   0.00    reference energy to select bands
   IMIX   =      4    mixing-type and parameters
     AMIX     =   0.40;   BMIX     =  1.00
     AMIX_MAG =   1.60;   BMIX_MAG =  1.00
     AMIN     =   0.10
     WC   =   100.;   INIMIX=   1;  MIXPRE=   1;  MAXMIX= -45

 Intra band minimization:
   WEIMIN = 0.0000     energy-eigenvalue tresh-hold
   EBREAK =  0.74E-07  absolut break condition
   DEPER  =   0.30     relativ break condition  

   TIME   =   0.40     timestep for ELM

  volume/ion in A,a.u.               =     473.68      3196.58
  Fermi-wavevector in a.u.,A,eV,Ry     =   0.449797  0.849992  2.752691  0.202317
  Thomas-Fermi vector in A             =   1.430086
 
 Write flags
   LWAVE        =      F    write WAVECAR
   LDOWNSAMPLE  =      F    k-point downsampling of WAVECAR
   LCHARG       =      F    write CHGCAR
   LVTOT        =      F    write LOCPOT, total local potential
   LVHAR        =      F    write LOCPOT, Hartree potential only
   LELF         =      F    write electronic localiz. function (ELF)
   LORBIT       =      0    0 simple, 1 ext, 2 COOP (PROOUT), +10 PAW based schemes


 Dipole corrections
   LMONO  =      F    monopole corrections only (constant potential shift)
   LDIPOL =      F    correct potential (dipole corrections)
   IDIPOL =      0    1-x, 2-y, 3-z, 4-all directions 
   EPSILON=  1.0000000 bulk dielectric constant

 Exchange correlation treatment:
   GGA     =    RP    GGA type
   LEXCH   =     9    internal setting for exchange type
   VOSKOWN=      0    Vosko Wilk Nusair interpolation
   LHFCALC =     F    Hartree Fock is set to
   LHFONE  =     F    Hartree Fock one center treatment
   AEXX    =    0.0000 exact exchange contribution

 Linear response parameters
   LEPSILON=     F    determine dielectric tensor
   LRPA    =     F    only Hartree local field effects (RPA)
   LNABLA  =     F    use nabla operator in PAW spheres
   LVEL    =     F    velocity operator in full k-point grid
   LINTERFAST=   F  fast interpolation
   KINTER  =     0    interpolate to denser k-point grid
   CSHIFT  =0.1000    complex shift for real part using Kramers Kronig
   OMEGAMAX=  -1.0    maximum frequency
   DEG_THRESHOLD= 0.2000000E-02 threshold for treating states as degnerate
   RTIME   =   -0.100 relaxation time in fs
  (WPLASMAI=    0.000 imaginary part of plasma frequency in eV, 0.658/RTIME)
   DFIELD  = 0.0000000 0.0000000 0.0000000 field for delta impulse in time
 
 Orbital magnetization related:
   ORBITALMAG=     F  switch on orbital magnetization
   LCHIMAG   =     F  perturbation theory with respect to B field
   DQ        =  0.001000  dq finite difference perturbation B field
   LLRAUG    =     F  two centre corrections for induced B field



--------------------------------------------------------------------------------------------------------


 Static calculation
 charge density and potential will be updated during run
 non-spin polarized calculation
 RMM-DIIS sequential band-by-band and
  variant of blocked Davidson during initial phase
 perform sub-space diagonalisation
    before iterative eigenvector-optimisation
 modified Broyden-mixing scheme, WC =      100.0
 initial mixing is a Kerker type mixing with AMIX =  0.4000 and BMIX =      1.0000
 Hartree-type preconditioning will be used
 using additional bands           56
 real space projection scheme for non local part
 use partial core corrections
 calculate Harris-corrections to forces 
   (improved forces if not selfconsistent)
 use gradient corrections 
 use of overlap-Matrix (Vanderbilt PP)
 Methfessel and Paxton  Order N= 2 SIGMA  =   0.20


--------------------------------------------------------------------------------------------------------


  energy-cutoff  :      400.00
  volume of cell :    27000.00
      direct lattice vectors                 reciprocal lattice vectors
    30.000000000  0.000000000  0.000000000     0.033333333  0.000000000  0.000000000
     0.000000000 30.000000000  0.000000000     0.000000000  0.033333333  0.000000000
     0.000000000  0.000000000 30.000000000     0.000000000  0.000000000  0.033333333

  length of vectors
    30.000000000 30.000000000 30.000000000     0.033333333  0.033333333  0.033333333


 
 k-points in units of 2pi/SCALE and weight: K-points                                
   0.00000000  0.00000000  0.00000000       1.000
 
 k-points in reciprocal lattice and weights: K-points                                
   0.00000000  0.00000000  0.00000000       1.000
 
 position of ions in fractional coordinates (direct lattice) 
   0.44576020  0.32826710  0.41691983
   0.67173288  0.55423978  0.41691983
   0.55423980  0.32826710  0.41691983
   0.32826712  0.55423978  0.41691983
   0.50000000  0.38250690  0.34021317
   0.50000000  0.38250690  0.65978680
   0.50000000  0.27609440  0.50000000
   0.27609443  0.49999998  0.50000000
   0.72390557  0.49999998  0.50000000
   0.50000000  0.72390555  0.50000000
   0.61195280  0.38804720  0.34167483
   0.61195280  0.38804720  0.65832513
   0.38804722  0.61195278  0.34167483
   0.38804722  0.61195278  0.65832513
   0.38804720  0.38804720  0.34167483
   0.38804720  0.38804720  0.65832513
   0.61195278  0.61195278  0.34167483
   0.61195278  0.61195278  0.65832513
   0.44576020  0.32826710  0.58308023
   0.67173288  0.55423978  0.58308023
   0.55791699  0.44208301  0.41809300
   0.32826705  0.44576024  0.41691983
   0.55423973  0.67173293  0.41691983
   0.55423980  0.32826710  0.58308023
   0.32826712  0.55423978  0.58308023
   0.67173295  0.44576024  0.41691983
   0.44576027  0.67173293  0.41691983
   0.44208301  0.44208301  0.41809300
   0.50000000  0.38416601  0.50000000
   0.61749315  0.50000005  0.34021317
   0.61749315  0.50000005  0.65978680
   0.38250685  0.50000005  0.34021317
   0.38250685  0.50000005  0.65978680
   0.38317830  0.38317830  0.50000000
   0.61682172  0.61682172  0.50000000
   0.61682170  0.38317830  0.50000000
   0.38317828  0.61682172  0.50000000
   0.50000000  0.50000000  0.33478917
   0.50000000  0.50000000  0.66521087
   0.32826705  0.44576024  0.58308023
   0.55423973  0.67173293  0.58308023
   0.55791699  0.44208301  0.58190703
   0.44208298  0.55791702  0.41809300
   0.44208301  0.44208301  0.58190703
   0.67173295  0.44576024  0.58308023
   0.44576027  0.67173293  0.58308023
   0.55791702  0.55791702  0.41809300
   0.38416599  0.50000002  0.50000000
   0.61583401  0.50000002  0.50000000
   0.50000000  0.61749319  0.34021317
   0.50000000  0.61749319  0.65978680
   0.50000000  0.50000000  0.50000000
   0.44208298  0.55791702  0.58190703
   0.55791702  0.55791702  0.58190703
   0.50000000  0.61583404  0.50000000
   0.51409823  0.49463937  0.72746290
   0.51642360  0.49375517  0.76498050
 
 position of ions in cartesian coordinates  (Angst):
  13.37280588  9.84801292 12.50759500
  20.15198637 16.62719342 12.50759500
  16.62719412  9.84801292 12.50759500
   9.84801363 16.62719342 12.50759500
  15.00000000 11.47520705 10.20639500
  15.00000000 11.47520705 19.79360400
  15.00000000  8.28283206 15.00000000
   8.28283277 14.99999929 15.00000000
  21.71716723 14.99999929 15.00000000
  15.00000000 21.71716652 14.99999999
  18.35858397 11.64141603 10.25024500
  18.35858397 11.64141603 19.74975399
  11.64141674 18.35858326 10.25024500
  11.64141674 18.35858326 19.74975400
  11.64141603 11.64141603 10.25024500
  11.64141603 11.64141603 19.74975400
  18.35858326 18.35858326 10.25024500
  18.35858326 18.35858326 19.74975400
  13.37280588  9.84801291 17.49240700
  20.15198638 16.62719341 17.49240700
  16.73750985 13.26249015 12.54279000
   9.84801151 13.37280729 12.50759500
  16.62719200 20.15198779 12.50759500
  16.62719412  9.84801292 17.49240700
   9.84801363 16.62719342 17.49240700
  20.15198849 13.37280729 12.50759500
  13.37280800 20.15198779 12.50759500
  13.26249015 13.26249015 12.54279000
  15.00000000 11.52498029 15.00000000
  18.52479437 15.00000140 10.20639500
  18.52479437 15.00000141 19.79360400
  11.47520562 15.00000141 10.20639501
  11.47520563 15.00000141 19.79360400
  11.49534898 11.49534898 15.00000000
  18.50465172 18.50465172 15.00000000
  18.50465102 11.49534898 15.00000000
  11.49534828 18.50465172 15.00000000
  15.00000000 15.00000000 10.04367500
  15.00000000 15.00000000 19.95632599
   9.84801151 13.37280729 17.49240700
  16.62719200 20.15198779 17.49240700
  16.73750985 13.26249015 17.45721100
  13.26248944 16.73751056 12.54279001
  13.26249015 13.26249015 17.45721100
  20.15198849 13.37280729 17.49240699
  13.37280800 20.15198779 17.49240700
  16.73751056 16.73751056 12.54279000
  11.52497959 15.00000071 15.00000000
  18.47502041 15.00000071 15.00000000
  14.99999999 18.52479579 10.20639500
  15.00000000 18.52479578 19.79360400
  15.00000000 15.00000000 15.00000000
  13.26248944 16.73751057 17.45721101
  16.73751056 16.73751057 17.45721100
  15.00000000 18.47502112 15.00000000
  15.42294700 14.83918100 21.82388700
  15.49270800 14.81265500 22.94941500
 


--------------------------------------------------------------------------------------------------------


 k-point  1 :   0.0000 0.0000 0.0000  plane waves:  490521

 maximum and minimum number of plane-waves per node :    490521   490521

 maximum number of plane-waves:    490521
 maximum index in each direction: 
   IXMAX=   48   IYMAX=   48   IZMAX=   48
   IXMIN=  -48   IYMIN=  -48   IZMIN=  -48


 serial   3D FFT for wavefunctions
 parallel 3D FFT for charge:
    minimum data exchange during FFTs selected (reduces bandwidth)


 total amount of memory used by VASP MPI-rank0  5486941. kBytes
=======================================================================

   base      :      30000. kBytes
   nonlr-proj:      17126. kBytes
   fftplans  :     924480. kBytes
   grid      :    1872000. kBytes
   one-center:        886. kBytes
   wavefun   :    2642449. kBytes
 
     INWAV:  cpu time    0.0001: real time    0.0006
 Broyden mixing: mesh for mixing (old mesh)
   NGX = 97   NGY = 97   NGZ = 97
  (NGX  =300   NGY  =300   NGZ  =300)
  gives a total of 912673 points

 initial charge density was supplied:
 charge density of overlapping atoms calculated
 number of electron     560.0000000 magnetization 
 keeping initial charge density in first step


--------------------------------------------------------------------------------------------------------


 Maximum index for non-local projection operator         1763
 Maximum index for augmentation-charges         5898 (set IRDMAX)


--------------------------------------------------------------------------------------------------------


 First call to EWALD:  gamma=   0.059
 Maximum number of real-space cells 3x 3x 3
 Maximum number of reciprocal cells 3x 3x 3

    FEWALD:  cpu time    0.0149: real time    0.0149


--------------------------------------- Iteration      1(   1)  ---------------------------------------


    POTLOK:  cpu time   13.8582: real time   13.8622
    SETDIJ:  cpu time    0.1203: real time    0.1202
     EDDAV:  cpu time  355.0238: real time  355.0940
       DOS:  cpu time    0.0012: real time    0.0012
    --------------------------------------------
      LOOP:  cpu time  369.0034: real time  369.0777

 eigenvalue-minimisations  :   688
 total energy-change (2. order) : 0.4391391E+04  (-0.1004866E+05)
 number of electron     560.0000000 magnetization 
 augmentation part      560.0000000 magnetization 

 Free energy of the ion-electron system (eV)
  ---------------------------------------------------
  alpha Z        PSCENC =        75.25431677
  Ewald energy   TEWEN  =    138648.18449918
  -Hartree energ DENC   =   -182008.63767006
  -exchange      EXHF   =         0.00000000
  -V(xc)+E(xc)   XCENC  =     -1703.10079202
  PAW double counting   =     44873.02882129   -41398.84523641
  entropy T*S    EENTRO =        -0.01048841
  eigenvalues    EBANDS =       819.01206035
  atomic energy  EATOM  =     45086.50549395
  Solvation  Ediel_sol  =         0.00000000
  ---------------------------------------------------
  free energy    TOTEN  =      4391.39100465 eV

  energy without entropy =     4391.40149306  energy(sigma->0) =     4391.39362675


--------------------------------------------------------------------------------------------------------




--------------------------------------- Iteration      1(   2)  ---------------------------------------


     EDDAV:  cpu time  570.0026: real time  570.0279
       DOS:  cpu time    0.0013: real time    0.0013
    --------------------------------------------
      LOOP:  cpu time  570.0038: real time  570.0291

 eigenvalue-minimisations  :  1224
 total energy-change (2. order) :-0.2381118E+04  (-0.2141591E+04)
 number of electron     560.0000000 magnetization 
 augmentation part      560.0000000 magnetization 

 Free energy of the ion-electron system (eV)
  ---------------------------------------------------
  alpha Z        PSCENC =        75.25431677
  Ewald energy   TEWEN  =    138648.18449918
  -Hartree energ DENC   =   -182008.63767006
  -exchange      EXHF   =         0.00000000
  -V(xc)+E(xc)   XCENC  =     -1703.10079202
  PAW double counting   =     44873.02882129   -41398.84523641
  entropy T*S    EENTRO =         0.02234388
  eigenvalues    EBANDS =     -1562.13837081
  atomic energy  EATOM  =     45086.50549395
  Solvation  Ediel_sol  =         0.00000000
  ---------------------------------------------------
  free energy    TOTEN  =      2010.27340577 eV

  energy without entropy =     2010.25106189  energy(sigma->0) =     2010.26781980


--------------------------------------------------------------------------------------------------------




--------------------------------------- Iteration      1(   3)  ---------------------------------------


     EDDAV:  cpu time  479.7972: real time  479.8582
       DOS:  cpu time    0.0011: real time    0.0011
    --------------------------------------------
      LOOP:  cpu time  479.7983: real time  479.8592

 eigenvalue-minimisations  :   992
 total energy-change (2. order) :-0.1776384E+04  (-0.1671647E+04)
 number of electron     560.0000000 magnetization 
 augmentation part      560.0000000 magnetization 

 Free energy of the ion-electron system (eV)
  ---------------------------------------------------
  alpha Z        PSCENC =        75.25431677
  Ewald energy   TEWEN  =    138648.18449918
  -Hartree energ DENC   =   -182008.63767006
  -exchange      EXHF   =         0.00000000
  -V(xc)+E(xc)   XCENC  =     -1703.10079202
  PAW double counting   =     44873.02882129   -41398.84523641
  entropy T*S    EENTRO =        -0.01456867
  eigenvalues    EBANDS =     -3338.48568438
  atomic energy  EATOM  =     45086.50549395
  Solvation  Ediel_sol  =         0.00000000
  ---------------------------------------------------
  free energy    TOTEN  =       233.88917965 eV

  energy without entropy =      233.90374832  energy(sigma->0) =      233.89282182


--------------------------------------------------------------------------------------------------------




--------------------------------------- Iteration      1(   4)  ---------------------------------------


     EDDAV:  cpu time  413.4779: real time  413.5223
       DOS:  cpu time    0.0011: real time    0.0011
    --------------------------------------------
      LOOP:  cpu time  413.4790: real time  413.5234

 eigenvalue-minimisations  :   832
 total energy-change (2. order) :-0.3701159E+03  (-0.3150939E+03)
 number of electron     560.0000000 magnetization 
 augmentation part      560.0000000 magnetization 

 Free energy of the ion-electron system (eV)
  ---------------------------------------------------
  alpha Z        PSCENC =        75.25431677
  Ewald energy   TEWEN  =    138648.18449918
  -Hartree energ DENC   =   -182008.63767006
  -exchange      EXHF   =         0.00000000
  -V(xc)+E(xc)   XCENC  =     -1703.10079202
  PAW double counting   =     44873.02882129   -41398.84523641
  entropy T*S    EENTRO =         0.01401908
  eigenvalues    EBANDS =     -3708.63012488
  atomic energy  EATOM  =     45086.50549395
  Solvation  Ediel_sol  =         0.00000000
  ---------------------------------------------------
  free energy    TOTEN  =      -136.22667309 eV

  energy without entropy =     -136.24069217  energy(sigma->0) =     -136.23017786


--------------------------------------------------------------------------------------------------------




--------------------------------------- Iteration      1(   5)  ---------------------------------------


     EDDAV:  cpu time  507.1211: real time  507.1444
       DOS:  cpu time    0.0014: real time    0.0014
    CHARGE:  cpu time   24.9566: real time   24.9564
    MIXING:  cpu time    0.4388: real time    0.4388
    --------------------------------------------
      LOOP:  cpu time  532.5179: real time  532.5409

 eigenvalue-minimisations  :  1056
 total energy-change (2. order) :-0.4412526E+02  (-0.3639594E+02)
 number of electron     559.9999889 magnetization 
 augmentation part      245.0167983 magnetization 

 Broyden mixing:
  rms(total) = 0.16043E+01    rms(broyden)= 0.16034E+01
  rms(prec ) = 0.17085E+01
  weight for this iteration     100.00

 Free energy of the ion-electron system (eV)
  ---------------------------------------------------
  alpha Z        PSCENC =        75.25431677
  Ewald energy   TEWEN  =    138648.18449918
  -Hartree energ DENC   =   -182008.63767006
  -exchange      EXHF   =         0.00000000
  -V(xc)+E(xc)   XCENC  =     -1703.10079202
  PAW double counting   =     44873.02882129   -41398.84523641
  entropy T*S    EENTRO =         0.49296100
  eigenvalues    EBANDS =     -3753.23432344
  atomic energy  EATOM  =     45086.50549395
  Solvation  Ediel_sol  =         0.00000000
  ---------------------------------------------------
  free energy    TOTEN  =      -180.35192973 eV

  energy without entropy =     -180.84489073  energy(sigma->0) =     -180.47516998


--------------------------------------------------------------------------------------------------------




--------------------------------------- Iteration      1(   6)  ---------------------------------------


    POTLOK:  cpu time   12.9223: real time   12.9230
    SETDIJ:  cpu time    0.1250: real time    0.1250
    EDDIAG:  cpu time   67.4042: real time   67.4042
  RMM-DIIS:  cpu time  185.4068: real time  185.4088
    ORTHCH:  cpu time   13.3981: real time   13.4019
       DOS:  cpu time    0.0014: real time    0.0014
    CHARGE:  cpu time   25.2968: real time   25.2965
    MIXING:  cpu time    0.4702: real time    0.4702
    --------------------------------------------
      LOOP:  cpu time  305.0249: real time  305.0312

 eigenvalue-minimisations  :   727
 total energy-change (2. order) :-0.6557362E+00  (-0.6574501E+01)
 number of electron     559.9999899 magnetization 
 augmentation part      240.4364309 magnetization 

 Broyden mixing:
  rms(total) = 0.24204E+01    rms(broyden)= 0.24201E+01
  rms(prec ) = 0.27620E+01
  weight for this iteration     100.00

 eigenvalues of (default mixing * dielectric matrix)
  average eigenvalue GAMMA=   0.3329
  0.3329

 Free energy of the ion-electron system (eV)
  ---------------------------------------------------
  alpha Z        PSCENC =        75.25431677
  Ewald energy   TEWEN  =    138648.18449918
  -Hartree energ DENC   =   -182402.88164170
  -exchange      EXHF   =         0.00000000
  -V(xc)+E(xc)   XCENC  =     -1696.75649853
  PAW double counting   =     45650.08656014   -42149.57690068
  entropy T*S    EENTRO =        -0.14814415
  eigenvalues    EBANDS =     -3391.67535091
  atomic energy  EATOM  =     45086.50549395
  Solvation  Ediel_sol  =         0.00000000
  ---------------------------------------------------
  free energy    TOTEN  =      -181.00766593 eV

  energy without entropy =     -180.85952178  energy(sigma->0) =     -180.97062989


--------------------------------------------------------------------------------------------------------




--------------------------------------- Iteration      1(   7)  ---------------------------------------


    POTLOK:  cpu time   13.0187: real time   13.0206
    SETDIJ:  cpu time    0.1205: real time    0.1205
    EDDIAG:  cpu time   67.2240: real time   67.2239
  RMM-DIIS:  cpu time  214.5287: real time  214.5291
    ORTHCH:  cpu time   12.9818: real time   12.9817
       DOS:  cpu time    0.0014: real time    0.0014
    CHARGE:  cpu time   24.5885: real time   24.5882
    MIXING:  cpu time    0.4937: real time    0.4937
    --------------------------------------------
      LOOP:  cpu time  332.9573: real time  332.9590

 eigenvalue-minimisations  :   851
 total energy-change (2. order) :-0.1047713E+01  (-0.1967145E+01)
 number of electron     559.9999834 magnetization 
 augmentation part      240.4716769 magnetization 

 Broyden mixing:
  rms(total) = 0.20982E+01    rms(broyden)= 0.20980E+01
  rms(prec ) = 0.24715E+01
  weight for this iteration     100.00

 eigenvalues of (default mixing * dielectric matrix)
  average eigenvalue GAMMA=   0.3275
  0.4777  0.1773

 Free energy of the ion-electron system (eV)
  ---------------------------------------------------
  alpha Z        PSCENC =        75.25431677
  Ewald energy   TEWEN  =    138648.18449918
  -Hartree energ DENC   =   -182490.58141969
  -exchange      EXHF   =         0.00000000
  -V(xc)+E(xc)   XCENC  =     -1697.01396426
  PAW double counting   =     45722.31377733   -42219.37169780
  entropy T*S    EENTRO =        -0.06353845
  eigenvalues    EBANDS =     -3307.28284551
  atomic energy  EATOM  =     45086.50549395
  Solvation  Ediel_sol  =         0.00000000
  ---------------------------------------------------
  free energy    TOTEN  =      -182.05537849 eV

  energy without entropy =     -181.99184004  energy(sigma->0) =     -182.03949388


--------------------------------------------------------------------------------------------------------




--------------------------------------- Iteration      1(   8)  ---------------------------------------


    POTLOK:  cpu time   12.9022: real time   12.9026
    SETDIJ:  cpu time    0.1193: real time    0.1193
    EDDIAG:  cpu time   66.7272: real time   66.7273
  RMM-DIIS:  cpu time  202.0066: real time  202.0102
    ORTHCH:  cpu time   13.1085: real time   13.1083
       DOS:  cpu time    0.0014: real time    0.0014
    CHARGE:  cpu time   24.6539: real time   24.6535
    MIXING:  cpu time    0.5072: real time    0.5072
    --------------------------------------------
      LOOP:  cpu time  320.0264: real time  320.0298

 eigenvalue-minimisations  :   788
 total energy-change (2. order) :-0.2150200E+01  (-0.7440577E+00)
 number of electron     559.9999859 magnetization 
 augmentation part      240.1594999 magnetization 

 Broyden mixing:
  rms(total) = 0.27440E+01    rms(broyden)= 0.27438E+01
  rms(prec ) = 0.33089E+01
  weight for this iteration     100.00

 eigenvalues of (default mixing * dielectric matrix)
  average eigenvalue GAMMA=   0.2918
  0.5743  0.1506  0.1506

 Free energy of the ion-electron system (eV)
  ---------------------------------------------------
  alpha Z        PSCENC =        75.25431677
  Ewald energy   TEWEN  =    138648.18449918
  -Hartree energ DENC   =   -182529.66068909
  -exchange      EXHF   =         0.00000000
  -V(xc)+E(xc)   XCENC  =     -1697.00189929
  PAW double counting   =     45792.45511576   -42286.94666461
  entropy T*S    EENTRO =        -0.11212376
  eigenvalues    EBANDS =     -3272.88362702
  atomic energy  EATOM  =     45086.50549395
  Solvation  Ediel_sol  =         0.00000000
  ---------------------------------------------------
  free energy    TOTEN  =      -184.20557810 eV

  energy without entropy =     -184.09345434  energy(sigma->0) =     -184.17754716


--------------------------------------------------------------------------------------------------------




--------------------------------------- Iteration      1(   9)  ---------------------------------------


    POTLOK:  cpu time   12.9526: real time   12.9540
    SETDIJ:  cpu time    0.1201: real time    0.1201
    EDDIAG:  cpu time   67.5594: real time   67.5587
  RMM-DIIS:  cpu time  192.2007: real time  192.2041
    ORTHCH:  cpu time   13.0737: real time   13.0736
       DOS:  cpu time    0.0014: real time    0.0014
    CHARGE:  cpu time   24.8011: real time   24.8016
    MIXING:  cpu time    0.5175: real time    0.5175
    --------------------------------------------
      LOOP:  cpu time  311.2263: real time  311.2309

 eigenvalue-minimisations  :   755
 total energy-change (2. order) : 0.1728523E+01  (-0.4869593E+00)
 number of electron     559.9999870 magnetization 
 augmentation part      240.8224192 magnetization 

 Broyden mixing:
  rms(total) = 0.26579E+01    rms(broyden)= 0.26576E+01
  rms(prec ) = 0.31035E+01
  weight for this iteration     100.00

 eigenvalues of (default mixing * dielectric matrix)
  average eigenvalue GAMMA=   0.2772
  0.6770  0.1665  0.1665  0.0990

 Free energy of the ion-electron system (eV)
  ---------------------------------------------------
  alpha Z        PSCENC =        75.25431677
  Ewald energy   TEWEN  =    138648.18449918
  -Hartree energ DENC   =   -182547.08362866
  -exchange      EXHF   =         0.00000000
  -V(xc)+E(xc)   XCENC  =     -1696.99456080
  PAW double counting   =     45837.51671420   -42330.43771438
  entropy T*S    EENTRO =        -0.05497401
  eigenvalues    EBANDS =     -3255.36720096
  atomic energy  EATOM  =     45086.50549395
  Solvation  Ediel_sol  =         0.00000000
  ---------------------------------------------------
  free energy    TOTEN  =      -182.47705470 eV

  energy without entropy =     -182.42208069  energy(sigma->0) =     -182.46331120


--------------------------------------------------------------------------------------------------------




--------------------------------------- Iteration      1(  10)  ---------------------------------------


    POTLOK:  cpu time   12.9943: real time   12.9957
    SETDIJ:  cpu time    0.1237: real time    0.1237
    EDDIAG:  cpu time   66.8303: real time   66.8324
  RMM-DIIS:  cpu time  185.6057: real time  185.6050
    ORTHCH:  cpu time   13.4352: real time   13.4350
       DOS:  cpu time    0.0015: real time    0.0015
    CHARGE:  cpu time   25.4269: real time   25.4266
    MIXING:  cpu time    0.5672: real time    0.5672
    --------------------------------------------
      LOOP:  cpu time  304.9847: real time  304.9870

 eigenvalue-minimisations  :   731
 total energy-change (2. order) : 0.1764758E+01  (-0.3831496E+00)
 number of electron     559.9999869 magnetization 
 augmentation part      241.1733071 magnetization 

 Broyden mixing:
  rms(total) = 0.20398E+01    rms(broyden)= 0.20394E+01
  rms(prec ) = 0.24101E+01
  weight for this iteration     100.00

 eigenvalues of (default mixing * dielectric matrix)
  average eigenvalue GAMMA=   0.2725
  0.7821  0.1672  0.1672  0.1484  0.0974

 Free energy of the ion-electron system (eV)
  ---------------------------------------------------
  alpha Z        PSCENC =        75.25431677
  Ewald energy   TEWEN  =    138648.18449918
  -Hartree energ DENC   =   -182569.45796986
  -exchange      EXHF   =         0.00000000
  -V(xc)+E(xc)   XCENC  =     -1696.87454808
  PAW double counting   =     45883.67676984   -42374.94329916
  entropy T*S    EENTRO =        -0.20062741
  eigenvalues    EBANDS =     -3232.85693175
  atomic energy  EATOM  =     45086.50549395
  Solvation  Ediel_sol  =         0.00000000
  ---------------------------------------------------
  free energy    TOTEN  =      -180.71229652 eV

  energy without entropy =     -180.51166911  energy(sigma->0) =     -180.66213967


--------------------------------------------------------------------------------------------------------




--------------------------------------- Iteration      1(  11)  ---------------------------------------


    POTLOK:  cpu time   13.1554: real time   13.1561
    SETDIJ:  cpu time    0.1268: real time    0.1268
    EDDIAG:  cpu time   66.9963: real time   66.9965
  RMM-DIIS:  cpu time  184.3884: real time  184.3892
    ORTHCH:  cpu time   13.6656: real time   13.6655
       DOS:  cpu time    0.0014: real time    0.0014
    CHARGE:  cpu time   25.6699: real time   25.6697
    MIXING:  cpu time    0.6038: real time    0.6038
    --------------------------------------------
      LOOP:  cpu time  304.6076: real time  304.6090

 eigenvalue-minimisations  :   727
 total energy-change (2. order) : 0.1601453E+01  (-0.2798299E+00)
 number of electron     559.9999888 magnetization 
 augmentation part      241.4413562 magnetization 

 Broyden mixing:
  rms(total) = 0.21035E+01    rms(broyden)= 0.21031E+01
  rms(prec ) = 0.25130E+01
  weight for this iteration     100.00

 eigenvalues of (default mixing * dielectric matrix)
  average eigenvalue GAMMA=   0.2674
  0.8697  0.2114  0.2114  0.1177  0.1177  0.0767

 Free energy of the ion-electron system (eV)
  ---------------------------------------------------
  alpha Z        PSCENC =        75.25431677
  Ewald energy   TEWEN  =    138648.18449918
  -Hartree energ DENC   =   -182596.31981760
  -exchange      EXHF   =         0.00000000
  -V(xc)+E(xc)   XCENC  =     -1696.68429947
  PAW double counting   =     45930.56060052   -42420.01058573
  entropy T*S    EENTRO =         0.09483569
  eigenvalues    EBANDS =     -3206.69588714
  atomic energy  EATOM  =     45086.50549395
  Solvation  Ediel_sol  =         0.00000000
  ---------------------------------------------------
  free energy    TOTEN  =      -179.11084382 eV

  energy without entropy =     -179.20567951  energy(sigma->0) =     -179.13455274


--------------------------------------------------------------------------------------------------------




--------------------------------------- Iteration      1(  12)  ---------------------------------------


    POTLOK:  cpu time   13.3094: real time   13.3099
    SETDIJ:  cpu time    0.1222: real time    0.1222
    EDDIAG:  cpu time   67.6919: real time   67.6923
  RMM-DIIS:  cpu time  187.0147: real time  187.0181
    ORTHCH:  cpu time   13.4956: real time   13.4956
       DOS:  cpu time    0.0014: real time    0.0014
    CHARGE:  cpu time   25.2518: real time   25.2517
    MIXING:  cpu time    0.6613: real time    0.6613
    --------------------------------------------
      LOOP:  cpu time  307.5482: real time  307.5525

 eigenvalue-minimisations  :   735
 total energy-change (2. order) : 0.8379691E+00  (-0.1854611E+00)
 number of electron     559.9999882 magnetization 
 augmentation part      241.5391972 magnetization 

 Broyden mixing:
  rms(total) = 0.18344E+01    rms(broyden)= 0.18342E+01
  rms(prec ) = 0.22304E+01
  weight for this iteration     100.00

 eigenvalues of (default mixing * dielectric matrix)
  average eigenvalue GAMMA=   0.2728
  0.9719  0.2667  0.2667  0.1287  0.1287  0.0736  0.0736

 Free energy of the ion-electron system (eV)
  ---------------------------------------------------
  alpha Z        PSCENC =        75.25431677
  Ewald energy   TEWEN  =    138648.18449918
  -Hartree energ DENC   =   -182615.15153428
  -exchange      EXHF   =         0.00000000
  -V(xc)+E(xc)   XCENC  =     -1696.48450500
  PAW double counting   =     45965.79582754   -42453.79562587
  entropy T*S    EENTRO =         0.03539355
  eigenvalues    EBANDS =     -3188.61674060
  atomic energy  EATOM  =     45086.50549395
  Solvation  Ediel_sol  =         0.00000000
  ---------------------------------------------------
  free energy    TOTEN  =      -178.27287476 eV

  energy without entropy =     -178.30826831  energy(sigma->0) =     -178.28172315


--------------------------------------------------------------------------------------------------------




--------------------------------------- Iteration      1(  13)  ---------------------------------------


    POTLOK:  cpu time   13.0333: real time   13.0367
    SETDIJ:  cpu time    0.1329: real time    0.1344
    EDDIAG:  cpu time   68.0532: real time   68.0569
  RMM-DIIS:  cpu time  187.3534: real time  187.3542
    ORTHCH:  cpu time   13.2265: real time   13.2263
       DOS:  cpu time    0.0014: real time    0.0014
    CHARGE:  cpu time   24.7039: real time   24.7036
    MIXING:  cpu time    0.6722: real time    0.6722
    --------------------------------------------
      LOOP:  cpu time  307.1769: real time  307.1858

 eigenvalue-minimisations  :   725
 total energy-change (2. order) :-0.2521002E+00  (-0.1738078E+00)
 number of electron     559.9999854 magnetization 
 augmentation part      241.4425736 magnetization 

 Broyden mixing:
  rms(total) = 0.20652E+01    rms(broyden)= 0.20649E+01
  rms(prec ) = 0.24835E+01
  weight for this iteration     100.00

 eigenvalues of (default mixing * dielectric matrix)
  average eigenvalue GAMMA=   0.2736
  1.0710  0.3059  0.3059  0.1429  0.1429  0.0741  0.0732  0.0732

 Free energy of the ion-electron system (eV)
  ---------------------------------------------------
  alpha Z        PSCENC =        75.25431677
  Ewald energy   TEWEN  =    138648.18449918
  -Hartree energ DENC   =   -182639.84337920
  -exchange      EXHF   =         0.00000000
  -V(xc)+E(xc)   XCENC  =     -1696.20294604
  PAW double counting   =     46009.30399226   -42495.46105443
  entropy T*S    EENTRO =         0.00117973
  eigenvalues    EBANDS =     -3166.26707714
  atomic energy  EATOM  =     45086.50549395
  Solvation  Ediel_sol  =         0.00000000
  ---------------------------------------------------
  free energy    TOTEN  =      -178.52497492 eV

  energy without entropy =     -178.52615465  energy(sigma->0) =     -178.52526985


--------------------------------------------------------------------------------------------------------




--------------------------------------- Iteration      1(  14)  ---------------------------------------


    POTLOK:  cpu time   12.9971: real time   12.9994
    SETDIJ:  cpu time    0.1205: real time    0.1205
    EDDIAG:  cpu time   68.2485: real time   68.2575
  RMM-DIIS:  cpu time  185.5105: real time  185.5207
    ORTHCH:  cpu time   13.5320: real time   13.5319
       DOS:  cpu time    0.0015: real time    0.0015
    CHARGE:  cpu time   25.3603: real time   25.3601
    MIXING:  cpu time    0.7130: real time    0.7130
    --------------------------------------------
      LOOP:  cpu time  306.4833: real time  306.5045

 eigenvalue-minimisations  :   722
 total energy-change (2. order) : 0.4755476E+00  (-0.1566221E+00)
 number of electron     559.9999856 magnetization 
 augmentation part      241.5168136 magnetization 

 Broyden mixing:
  rms(total) = 0.23544E+01    rms(broyden)= 0.23541E+01
  rms(prec ) = 0.27131E+01
  weight for this iteration     100.00

 eigenvalues of (default mixing * dielectric matrix)
  average eigenvalue GAMMA=   0.2837
  1.2452  0.4205  0.2775  0.1523  0.1523  0.0868  0.0868  0.0692  0.0626

 Free energy of the ion-electron system (eV)
  ---------------------------------------------------
  alpha Z        PSCENC =        75.25431677
  Ewald energy   TEWEN  =    138648.18449918
  -Hartree energ DENC   =   -182664.44067105
  -exchange      EXHF   =         0.00000000
  -V(xc)+E(xc)   XCENC  =     -1695.90802371
  PAW double counting   =     46051.41820711   -42535.78242039
  entropy T*S    EENTRO =         0.05921451
  eigenvalues    EBANDS =     -3143.34004373
  atomic energy  EATOM  =     45086.50549395
  Solvation  Ediel_sol  =         0.00000000
  ---------------------------------------------------
  free energy    TOTEN  =      -178.04942735 eV

  energy without entropy =     -178.10864185  energy(sigma->0) =     -178.06423097


--------------------------------------------------------------------------------------------------------




--------------------------------------- Iteration      1(  15)  ---------------------------------------


    POTLOK:  cpu time   13.5019: real time   13.5066
    SETDIJ:  cpu time    0.1301: real time    0.1301
    EDDIAG:  cpu time   68.8003: real time   68.8043
  RMM-DIIS:  cpu time  179.5376: real time  179.5487
    ORTHCH:  cpu time   13.2111: real time   13.2110
       DOS:  cpu time    0.0014: real time    0.0014
    CHARGE:  cpu time   24.7293: real time   24.7290
    MIXING:  cpu time    0.7509: real time    0.7509
    --------------------------------------------
      LOOP:  cpu time  300.6626: real time  300.6821

 eigenvalue-minimisations  :   705
 total energy-change (2. order) : 0.9913898E+00  (-0.1962106E+00)
 number of electron     559.9999865 magnetization 
 augmentation part      241.3708241 magnetization 

 Broyden mixing:
  rms(total) = 0.14485E+01    rms(broyden)= 0.14481E+01
  rms(prec ) = 0.16286E+01
  weight for this iteration     100.00

 eigenvalues of (default mixing * dielectric matrix)
  average eigenvalue GAMMA=   0.2895
  1.3727  0.5357  0.2315  0.1647  0.1647  0.0908  0.0908  0.0922  0.0922  0.0600

 Free energy of the ion-electron system (eV)
  ---------------------------------------------------
  alpha Z        PSCENC =        75.25431677
  Ewald energy   TEWEN  =    138648.18449918
  -Hartree energ DENC   =   -182701.05594834
  -exchange      EXHF   =         0.00000000
  -V(xc)+E(xc)   XCENC  =     -1695.43924516
  PAW double counting   =     46112.84147664   -42594.60831791
  entropy T*S    EENTRO =        -0.01913436
  eigenvalues    EBANDS =     -3108.72117828
  atomic energy  EATOM  =     45086.50549395
  Solvation  Ediel_sol  =         0.00000000
  ---------------------------------------------------
  free energy    TOTEN  =      -177.05803751 eV

  energy without entropy =     -177.03890315  energy(sigma->0) =     -177.05325392


--------------------------------------------------------------------------------------------------------




--------------------------------------- Iteration      1(  16)  ---------------------------------------


    POTLOK:  cpu time   13.1193: real time   13.1214
    SETDIJ:  cpu time    0.1302: real time    0.1302
    EDDIAG:  cpu time   67.8903: real time   67.8904
  RMM-DIIS:  cpu time  182.9248: real time  182.9290
    ORTHCH:  cpu time   13.2493: real time   13.2493
       DOS:  cpu time    0.0014: real time    0.0014
    CHARGE:  cpu time   24.7358: real time   24.7356
    MIXING:  cpu time    0.8196: real time    0.8196
    --------------------------------------------
      LOOP:  cpu time  302.8706: real time  302.8767

 eigenvalue-minimisations  :   708
 total energy-change (2. order) : 0.8219848E+00  (-0.1144002E+00)
 number of electron     559.9999869 magnetization 
 augmentation part      241.3338646 magnetization 

 Broyden mixing:
  rms(total) = 0.10607E+01    rms(broyden)= 0.10605E+01
  rms(prec ) = 0.12178E+01
  weight for this iteration     100.00

 eigenvalues of (default mixing * dielectric matrix)
  average eigenvalue GAMMA=   0.2914
  1.4517  0.5747  0.2382  0.2382  0.1499  0.1499  0.0931  0.0931  0.0786  0.0786
  0.0589

 Free energy of the ion-electron system (eV)
  ---------------------------------------------------
  alpha Z        PSCENC =        75.25431677
  Ewald energy   TEWEN  =    138648.18449918
  -Hartree energ DENC   =   -182732.77177854
  -exchange      EXHF   =         0.00000000
  -V(xc)+E(xc)   XCENC  =     -1695.04797905
  PAW double counting   =     46158.66859846   -42638.38992655
  entropy T*S    EENTRO =        -0.00701761
  eigenvalues    EBANDS =     -3078.63225930
  atomic energy  EATOM  =     45086.50549395
  Solvation  Ediel_sol  =         0.00000000
  ---------------------------------------------------
  free energy    TOTEN  =      -176.23605268 eV

  energy without entropy =     -176.22903507  energy(sigma->0) =     -176.23429828


--------------------------------------------------------------------------------------------------------




--------------------------------------- Iteration      1(  17)  ---------------------------------------


    POTLOK:  cpu time   12.9471: real time   12.9511
    SETDIJ:  cpu time    0.1203: real time    0.1203
    EDDIAG:  cpu time   67.6289: real time   67.6287
  RMM-DIIS:  cpu time  181.5102: real time  181.5105
    ORTHCH:  cpu time   13.5510: real time   13.5508
       DOS:  cpu time    0.0015: real time    0.0015
    CHARGE:  cpu time   25.4445: real time   25.4442
    MIXING:  cpu time    0.9012: real time    0.9012
    --------------------------------------------
      LOOP:  cpu time  302.1048: real time  302.1083

 eigenvalue-minimisations  :   705
 total energy-change (2. order) : 0.2631442E+00  (-0.5624312E-01)
 number of electron     559.9999883 magnetization 
 augmentation part      241.3857903 magnetization 

 Broyden mixing:
  rms(total) = 0.10487E+01    rms(broyden)= 0.10485E+01
  rms(prec ) = 0.12347E+01
  weight for this iteration     100.00

 eigenvalues of (default mixing * dielectric matrix)
  average eigenvalue GAMMA=   0.2941
  1.4968  0.6467  0.2927  0.2927  0.1560  0.1560  0.0890  0.0890  0.0857  0.0857
  0.0817  0.0576

 Free energy of the ion-electron system (eV)
  ---------------------------------------------------
  alpha Z        PSCENC =        75.25431677
  Ewald energy   TEWEN  =    138648.18449918
  -Hartree energ DENC   =   -182743.60817815
  -exchange      EXHF   =         0.00000000
  -V(xc)+E(xc)   XCENC  =     -1694.83054164
  PAW double counting   =     46177.98413363   -42656.66484625
  entropy T*S    EENTRO =         0.05823675
  eigenvalues    EBANDS =     -3068.85602270
  atomic energy  EATOM  =     45086.50549395
  Solvation  Ediel_sol  =         0.00000000
  ---------------------------------------------------
  free energy    TOTEN  =      -175.97290846 eV

  energy without entropy =     -176.03114521  energy(sigma->0) =     -175.98746765


--------------------------------------------------------------------------------------------------------




--------------------------------------- Iteration      1(  18)  ---------------------------------------


    POTLOK:  cpu time   13.0800: real time   13.0833
    SETDIJ:  cpu time    0.1238: real time    0.1238
    EDDIAG:  cpu time   68.3335: real time   68.3347
  RMM-DIIS:  cpu time  182.7830: real time  182.7874
    ORTHCH:  cpu time   13.2793: real time   13.2793
       DOS:  cpu time    0.0014: real time    0.0014
    CHARGE:  cpu time   24.8981: real time   24.8981
    MIXING:  cpu time    0.9000: real time    0.9000
    --------------------------------------------
      LOOP:  cpu time  303.3992: real time  303.4079

 eigenvalue-minimisations  :   717
 total energy-change (2. order) :-0.1108424E-01  (-0.3914952E-01)
 number of electron     559.9999882 magnetization 
 augmentation part      241.2729801 magnetization 

 Broyden mixing:
  rms(total) = 0.11480E+01    rms(broyden)= 0.11478E+01
  rms(prec ) = 0.13948E+01
  weight for this iteration     100.00

 eigenvalues of (default mixing * dielectric matrix)
  average eigenvalue GAMMA=   0.3087
  1.5856  0.7823  0.3625  0.3625  0.1604  0.1604  0.1162  0.1162  0.0824  0.0824
  0.0827  0.0639  0.0550

 Free energy of the ion-electron system (eV)
  ---------------------------------------------------
  alpha Z        PSCENC =        75.25431677
  Ewald energy   TEWEN  =    138648.18449918
  -Hartree energ DENC   =   -182764.24248400
  -exchange      EXHF   =         0.00000000
  -V(xc)+E(xc)   XCENC  =     -1694.58664861
  PAW double counting   =     46196.59690295   -42674.11723577
  entropy T*S    EENTRO =         0.02985294
  eigenvalues    EBANDS =     -3049.60869011
  atomic energy  EATOM  =     45086.50549395
  Solvation  Ediel_sol  =         0.00000000
  ---------------------------------------------------
  free energy    TOTEN  =      -175.98399270 eV

  energy without entropy =     -176.01384563  energy(sigma->0) =     -175.99145593


--------------------------------------------------------------------------------------------------------




--------------------------------------- Iteration      1(  19)  ---------------------------------------


    POTLOK:  cpu time   13.0537: real time   13.0578
    SETDIJ:  cpu time    0.1309: real time    0.1309
    EDDIAG:  cpu time   68.0405: real time   68.0424
  RMM-DIIS:  cpu time  181.4507: real time  181.4511
    ORTHCH:  cpu time   13.2498: real time   13.2497
       DOS:  cpu time    0.0015: real time    0.0015
    CHARGE:  cpu time   25.0305: real time   25.0305
    MIXING:  cpu time    0.9506: real time    0.9506
    --------------------------------------------
      LOOP:  cpu time  301.9082: real time  301.9145

 eigenvalue-minimisations  :   710
 total energy-change (2. order) :-0.8788142E-01  (-0.4143806E-01)
 number of electron     559.9999872 magnetization 
 augmentation part      241.0974889 magnetization 

 Broyden mixing:
  rms(total) = 0.11419E+01    rms(broyden)= 0.11417E+01
  rms(prec ) = 0.13534E+01
  weight for this iteration     100.00

 eigenvalues of (default mixing * dielectric matrix)
  average eigenvalue GAMMA=   0.3128
  1.7018  0.9129  0.3609  0.3609  0.1625  0.1625  0.1340  0.1340  0.0840  0.0840
  0.0845  0.0845  0.0592  0.0537

 Free energy of the ion-electron system (eV)
  ---------------------------------------------------
  alpha Z        PSCENC =        75.25431677
  Ewald energy   TEWEN  =    138648.18449918
  -Hartree energ DENC   =   -182793.08438393
  -exchange      EXHF   =         0.00000000
  -V(xc)+E(xc)   XCENC  =     -1694.23235309
  PAW double counting   =     46220.35889512   -42696.18977430
  entropy T*S    EENTRO =        -0.02354367
  eigenvalues    EBANDS =     -3022.84502416
  atomic energy  EATOM  =     45086.50549395
  Solvation  Ediel_sol  =         0.00000000
  ---------------------------------------------------
  free energy    TOTEN  =      -176.07187412 eV

  energy without entropy =     -176.04833045  energy(sigma->0) =     -176.06598820


--------------------------------------------------------------------------------------------------------




--------------------------------------- Iteration      1(  20)  ---------------------------------------


    POTLOK:  cpu time   13.1300: real time   13.1307
    SETDIJ:  cpu time    0.1201: real time    0.1201
    EDDIAG:  cpu time   67.4688: real time   67.4689
  RMM-DIIS:  cpu time  180.8562: real time  180.8573
    ORTHCH:  cpu time   13.1452: real time   13.1450
       DOS:  cpu time    0.0014: real time    0.0014
    CHARGE:  cpu time   24.9511: real time   24.9508
    MIXING:  cpu time    1.0136: real time    1.0136
    --------------------------------------------
      LOOP:  cpu time  300.6865: real time  300.6878

 eigenvalue-minimisations  :   709
 total energy-change (2. order) : 0.3768458E+00  (-0.3427161E-01)
 number of electron     559.9999890 magnetization 
 augmentation part      241.0183572 magnetization 

 Broyden mixing:
  rms(total) = 0.78271E+00    rms(broyden)= 0.78245E+00
  rms(prec ) = 0.90839E+00
  weight for this iteration     100.00

 eigenvalues of (default mixing * dielectric matrix)
  average eigenvalue GAMMA=   0.3072
  1.7964  0.8828  0.3373  0.3373  0.2424  0.1607  0.1607  0.1395  0.1107  0.0876
  0.0876  0.0762  0.0762  0.0565  0.0565

 Free energy of the ion-electron system (eV)
  ---------------------------------------------------
  alpha Z        PSCENC =        75.25431677
  Ewald energy   TEWEN  =    138648.18449918
  -Hartree energ DENC   =   -182819.32291074
  -exchange      EXHF   =         0.00000000
  -V(xc)+E(xc)   XCENC  =     -1693.88373146
  PAW double counting   =     46241.88656820   -42716.16276146
  entropy T*S    EENTRO =        -0.03013412
  eigenvalues    EBANDS =     -2998.12636860
  atomic energy  EATOM  =     45086.50549395
  Solvation  Ediel_sol  =         0.00000000
  ---------------------------------------------------
  free energy    TOTEN  =      -175.69502827 eV

  energy without entropy =     -175.66489416  energy(sigma->0) =     -175.68749474


--------------------------------------------------------------------------------------------------------




--------------------------------------- Iteration      1(  21)  ---------------------------------------


    POTLOK:  cpu time   13.0749: real time   13.0756
    SETDIJ:  cpu time    0.1236: real time    0.1236
    EDDIAG:  cpu time   67.3574: real time   67.3571
  RMM-DIIS:  cpu time  178.5792: real time  178.5797
    ORTHCH:  cpu time   13.1664: real time   13.1662
       DOS:  cpu time    0.0015: real time    0.0015
    CHARGE:  cpu time   25.1456: real time   25.1453
    MIXING:  cpu time    1.0937: real time    1.0938
    --------------------------------------------
      LOOP:  cpu time  298.5424: real time  298.5428

 eigenvalue-minimisations  :   700
 total energy-change (2. order) : 0.2133163E+00  (-0.2420890E-01)
 number of electron     559.9999877 magnetization 
 augmentation part      241.0853829 magnetization 

 Broyden mixing:
  rms(total) = 0.60960E+00    rms(broyden)= 0.60942E+00
  rms(prec ) = 0.71305E+00
  weight for this iteration     100.00

 eigenvalues of (default mixing * dielectric matrix)
  average eigenvalue GAMMA=   0.3148
  1.8501  0.9168  0.4808  0.3176  0.3176  0.1612  0.1612  0.1833  0.1098  0.1098
  0.0828  0.0828  0.0752  0.0752  0.0571  0.0547

 Free energy of the ion-electron system (eV)
  ---------------------------------------------------
  alpha Z        PSCENC =        75.25431677
  Ewald energy   TEWEN  =    138648.18449918
  -Hartree energ DENC   =   -182827.57086773
  -exchange      EXHF   =         0.00000000
  -V(xc)+E(xc)   XCENC  =     -1693.74379966
  PAW double counting   =     46248.49735786   -42722.13315544
  entropy T*S    EENTRO =        -0.03935998
  eigenvalues    EBANDS =     -2990.43619691
  atomic energy  EATOM  =     45086.50549395
  Solvation  Ediel_sol  =         0.00000000
  ---------------------------------------------------
  free energy    TOTEN  =      -175.48171197 eV

  energy without entropy =     -175.44235198  energy(sigma->0) =     -175.47187197


--------------------------------------------------------------------------------------------------------




--------------------------------------- Iteration      1(  22)  ---------------------------------------


    POTLOK:  cpu time   13.0108: real time   13.0138
    SETDIJ:  cpu time    0.1217: real time    0.1217
    EDDIAG:  cpu time   67.7731: real time   67.7918
  RMM-DIIS:  cpu time  178.3277: real time  178.3425
    ORTHCH:  cpu time   13.2162: real time   13.2166
       DOS:  cpu time    0.0015: real time    0.0015
    CHARGE:  cpu time   25.3316: real time   25.3329
    MIXING:  cpu time    1.1743: real time    1.1753
    --------------------------------------------
      LOOP:  cpu time  298.9568: real time  298.9961

 eigenvalue-minimisations  :   697
 total energy-change (2. order) : 0.1967254E-01  (-0.1987352E-01)
 number of electron     559.9999879 magnetization 
 augmentation part      241.0096931 magnetization 

 Broyden mixing:
  rms(total) = 0.60042E+00    rms(broyden)= 0.60025E+00
  rms(prec ) = 0.68745E+00
  weight for this iteration     100.00

 eigenvalues of (default mixing * dielectric matrix)
  average eigenvalue GAMMA=   0.3327
  1.9463  1.0317  0.6942  0.3494  0.3494  0.1615  0.1615  0.1792  0.1423  0.1069
  0.1069  0.0832  0.0832  0.0746  0.0746  0.0559  0.0559

 Free energy of the ion-electron system (eV)
  ---------------------------------------------------
  alpha Z        PSCENC =        75.25431677
  Ewald energy   TEWEN  =    138648.18449918
  -Hartree energ DENC   =   -182842.09617178
  -exchange      EXHF   =         0.00000000
  -V(xc)+E(xc)   XCENC  =     -1693.56886199
  PAW double counting   =     46252.85666163   -42725.76686640
  entropy T*S    EENTRO =        -0.03023988
  eigenvalues    EBANDS =     -2976.80087092
  atomic energy  EATOM  =     45086.50549395
  Solvation  Ediel_sol  =         0.00000000
  ---------------------------------------------------
  free energy    TOTEN  =      -175.46203943 eV

  energy without entropy =     -175.43179955  energy(sigma->0) =     -175.45447946


--------------------------------------------------------------------------------------------------------




--------------------------------------- Iteration      1(  23)  ---------------------------------------


    POTLOK:  cpu time   13.0408: real time   13.0425
    SETDIJ:  cpu time    0.1247: real time    0.1247
    EDDIAG:  cpu time   67.8989: real time   67.9040
  RMM-DIIS:  cpu time  178.0696: real time  178.0837
    ORTHCH:  cpu time   13.2521: real time   13.2532
       DOS:  cpu time    0.0015: real time    0.0015
    CHARGE:  cpu time   25.1012: real time   25.1030
    MIXING:  cpu time    1.2172: real time    1.2173
    --------------------------------------------
      LOOP:  cpu time  298.7059: real time  298.7298

 eigenvalue-minimisations  :   697
 total energy-change (2. order) : 0.8024994E-01  (-0.1994050E-01)
 number of electron     559.9999883 magnetization 
 augmentation part      241.0251582 magnetization 

 Broyden mixing:
  rms(total) = 0.50986E+00    rms(broyden)= 0.50970E+00
  rms(prec ) = 0.58711E+00
  weight for this iteration     100.00

 eigenvalues of (default mixing * dielectric matrix)
  average eigenvalue GAMMA=   0.3431
  2.0350  1.2954  0.5348  0.5348  0.2709  0.2709  0.1605  0.1605  0.1453  0.1338
[...]
 -0.007  -0.012   0.004   0.004   0.005  -0.006  -0.012   0.004
 -0.011  -0.021   0.006   0.007   0.009  -0.011  -0.020   0.006
 -0.014  -0.005   0.013   0.000   0.022  -0.014  -0.004   0.012
  0.000  -0.023  -0.006  -0.015  -0.000   0.000  -0.022  -0.006
 -0.022   0.000   0.009  -0.005  -0.016  -0.022   0.000   0.008
 -0.017  -0.006   0.015   0.000   0.027  -0.017  -0.006   0.015
  0.000  -0.027  -0.007  -0.018  -0.000   0.000  -0.027  -0.007
 -0.027   0.000   0.010  -0.006  -0.019  -0.026   0.000   0.010
 total augmentation occupancy for first ion, spin component:           1
  1.534  -0.028   0.006   0.016   0.024   0.077  -0.008  -0.002   0.036  -0.010   0.093  -0.032   0.012   0.001   0.002  -0.019
 -0.028   1.396   0.029   0.071  -0.002  -0.007   0.073   0.011  -0.014  -0.007   0.226  -0.068   0.018   0.003   0.003  -0.006
  0.006   0.029   1.540   0.002   0.002  -0.002   0.013   0.075  -0.012   0.017  -0.052   0.018  -0.003  -0.007  -0.005   0.016
  0.016   0.071   0.002   1.336   0.043   0.033  -0.013  -0.012   0.092  -0.022  -0.076   0.020  -0.001  -0.008  -0.003   0.001
  0.024  -0.002   0.002   0.043   1.438  -0.010  -0.008   0.016  -0.022   0.068  -0.094   0.031  -0.003  -0.009  -0.010   0.027
  0.077  -0.007  -0.002   0.033  -0.010   0.218   0.019  -0.002  -0.045   0.004  -0.048   0.002   0.017  -0.010   0.034  -0.004
 -0.008   0.073   0.013  -0.013  -0.008   0.019   0.263  -0.023  -0.003   0.006  -0.110   0.007  -0.001   0.051  -0.010  -0.000
 -0.002   0.011   0.075  -0.012   0.016  -0.002  -0.023   0.215   0.014  -0.020   0.028  -0.001  -0.012   0.009  -0.018   0.003
  0.036  -0.014  -0.012   0.092  -0.022  -0.045  -0.003   0.014   0.261   0.007   0.043  -0.004  -0.009   0.036   0.004   0.000
 -0.010  -0.007   0.017  -0.022   0.068   0.004   0.006  -0.020   0.007   0.259   0.046  -0.003  -0.038   0.002   0.049   0.007
  0.093   0.226  -0.052  -0.076  -0.094  -0.048  -0.110   0.028   0.043   0.046   0.951  -0.141   0.084   0.014   0.064  -0.013
 -0.032  -0.068   0.018   0.020   0.031   0.002   0.007  -0.001  -0.004  -0.003  -0.141   0.023  -0.014  -0.003  -0.010   0.003
  0.012   0.018  -0.003  -0.001  -0.003   0.017  -0.001  -0.012  -0.009  -0.038   0.084  -0.014   0.029  -0.008  -0.004  -0.003
  0.001   0.003  -0.007  -0.008  -0.009  -0.010   0.051   0.009   0.036   0.002   0.014  -0.003  -0.008   0.035   0.004   0.000
  0.002   0.003  -0.005  -0.003  -0.010   0.034  -0.010  -0.018   0.004   0.049   0.064  -0.010  -0.004   0.004   0.034  -0.000
 -0.019  -0.006   0.016   0.001   0.027  -0.004  -0.000   0.003   0.000   0.007  -0.013   0.003  -0.003   0.000  -0.000   0.001
  0.001  -0.028  -0.007  -0.018   0.001   0.001  -0.008  -0.001  -0.006  -0.000  -0.004   0.001   0.000  -0.003  -0.000   0.000
 -0.028   0.001   0.012  -0.005  -0.019  -0.006   0.001   0.003  -0.001  -0.007  -0.008   0.001  -0.000  -0.000  -0.003   0.000


------------------------ aborting loop because EDIFF is reached ----------------------------------------


    CHARGE:  cpu time   25.7353: real time   25.7349
    FORLOC:  cpu time    6.7901: real time    6.7900
    FORNL :  cpu time   65.3061: real time   65.3088
    STRESS:  cpu time  199.0166: real time  199.0292
    FORCOR:  cpu time   22.1175: real time   22.1174
    FORHAR:  cpu time    9.7142: real time    9.7142
    MIXING:  cpu time    3.5393: real time    3.5393
    OFIELD:  cpu time    0.0000: real time    0.0000

  FORCE on cell =-STRESS in cart. coord.  units (eV):
  Direction    XX          YY          ZZ          XY          YZ          ZX
  --------------------------------------------------------------------------------------
  Alpha Z    75.25432    75.25432    75.25432
  Ewald   44312.24519 44282.49046 50053.34300    -8.02697  -103.60888   271.07660
  Hartree 59242.92829 59220.84431 64545.20144    -5.54169   -86.39659   226.16394
  E(xc)   -2905.95058 -2906.04618 -2902.79625    -0.03549    -0.17606     0.45088
  Local  ************************************    13.04338   187.31974  -490.25475
  n-local  -879.42014  -879.26847  -887.68169     0.09329     0.25557    -0.65839
  augment  4106.04684  4106.32574  4098.16072     0.11792     0.56407    -1.45710
  Kinetic  7818.35991  7819.31394  7777.11308     0.40806     2.14094    -5.54688
  Fock        0.00000     0.00000     0.00000     0.00000     0.00000     0.00000
  -------------------------------------------------------------------------------------
  Total    -113.19916  -113.07039  -110.83436     0.05853     0.09879    -0.22571
  in kB      -6.71723    -6.70959    -6.57690     0.00347     0.00586    -0.01339
  external pressure =       -6.67 kB  Pullay stress =        0.00 kB


 VOLUME and BASIS-vectors are now :
 -----------------------------------------------------------------------------
  energy-cutoff  :      400.00
  volume of cell :    27000.00
      direct lattice vectors                 reciprocal lattice vectors
    30.000000000  0.000000000  0.000000000     0.033333333  0.000000000  0.000000000
     0.000000000 30.000000000  0.000000000     0.000000000  0.033333333  0.000000000
     0.000000000  0.000000000 30.000000000     0.000000000  0.000000000  0.033333333

  length of vectors
    30.000000000 30.000000000 30.000000000     0.033333333  0.033333333  0.033333333


 FORCES acting on ions
    electron-ion (+dipol)            ewald-force                    non-local-force                 convergence-correction
 -----------------------------------------------------------------------------------------------
   0.395E+03 0.974E+03 0.423E+03   -.393E+03 -.971E+03 -.422E+03   -.150E+01 -.184E+01 -.201E+00   -.162E-02 0.223E-03 -.568E-02
   -.974E+03 -.395E+03 0.423E+03   0.971E+03 0.393E+03 -.423E+03   0.183E+01 0.150E+01 -.194E+00   0.223E-02 0.725E-02 -.960E-03
   -.395E+03 0.975E+03 0.423E+03   0.392E+03 -.972E+03 -.423E+03   0.150E+01 -.183E+01 -.194E+00   0.318E-03 -.326E-02 -.165E-02
   0.975E+03 -.395E+03 0.422E+03   -.972E+03 0.393E+03 -.422E+03   -.184E+01 0.150E+01 -.208E+00   -.942E-03 -.917E-03 -.724E-02
   0.323E+00 0.588E+03 0.968E+03   -.315E+00 -.587E+03 -.964E+03   -.941E-03 -.299E+00 -.237E+01   -.601E-02 -.306E-02 -.305E-02
   0.815E+01 0.645E+03 -.917E+03   -.817E+01 -.645E+03 0.914E+03   0.175E-01 -.699E-01 0.239E+01   -.409E-02 0.158E-02 0.289E-02
   0.621E+00 0.114E+04 0.934E+01   -.618E+00 -.114E+04 -.930E+01   -.296E-03 -.310E+01 -.328E-01   0.229E-04 -.167E-02 -.130E-02
   0.114E+04 -.209E+00 0.813E+01   -.114E+04 0.206E+00 -.809E+01   -.310E+01 -.647E-04 -.192E-01   -.230E-02 0.212E-02 -.721E-02
   -.114E+04 -.255E+00 0.999E+01   0.114E+04 0.250E+00 -.993E+01   0.310E+01 0.232E-03 -.394E-01   0.220E-02 0.380E-02 -.397E-02
   0.578E+00 -.114E+04 0.863E+01   -.574E+00 0.114E+04 -.860E+01   -.456E-05 0.310E+01 -.256E-01   -.180E-02 0.365E-03 0.957E-03
   -.579E+03 0.579E+03 0.816E+03   0.577E+03 -.577E+03 -.812E+03   0.155E+01 -.156E+01 -.221E+01   0.430E-03 -.548E-02 -.169E-02
   -.608E+03 0.611E+03 -.783E+03   0.606E+03 -.609E+03 0.780E+03   0.152E+01 -.152E+01 0.223E+01   -.188E-02 -.244E-02 0.542E-02
   0.580E+03 -.579E+03 0.815E+03   -.577E+03 0.577E+03 -.812E+03   -.156E+01 0.155E+01 -.221E+01   -.186E-03 -.110E-02 -.147E-02
   0.604E+03 -.602E+03 -.793E+03   -.601E+03 0.599E+03 0.790E+03   -.155E+01 0.155E+01 0.223E+01   0.990E-02 0.290E-02 -.111E-02
   0.580E+03 0.579E+03 0.815E+03   -.577E+03 -.577E+03 -.812E+03   -.156E+01 -.155E+01 -.221E+01   -.415E-02 0.574E-02 -.167E-02
   0.607E+03 0.602E+03 -.791E+03   -.604E+03 -.599E+03 0.788E+03   -.154E+01 -.154E+01 0.223E+01   0.328E-03 0.375E-03 0.354E-02
   -.579E+03 -.580E+03 0.816E+03   0.577E+03 0.577E+03 -.812E+03   0.155E+01 0.156E+01 -.221E+01   -.360E-02 0.809E-02 -.734E-03
   -.604E+03 -.610E+03 -.787E+03   0.602E+03 0.608E+03 0.783E+03   0.153E+01 0.153E+01 0.223E+01   -.776E-02 0.502E-02 0.239E-02
   0.401E+03 0.987E+03 -.399E+03   -.399E+03 -.984E+03 0.398E+03   -.154E+01 -.183E+01 0.204E+00   -.200E-02 -.607E-03 0.440E-02
   -.988E+03 -.401E+03 -.397E+03   0.985E+03 0.398E+03 0.396E+03   0.183E+01 0.155E+01 0.214E+00   -.187E-02 0.102E-01 0.302E-02
   -.322E+03 0.322E+03 0.463E+03   0.322E+03 -.323E+03 -.464E+03   -.358E+00 0.358E+00 0.533E+00   -.170E-02 -.414E-02 0.953E-03
   0.975E+03 0.395E+03 0.422E+03   -.972E+03 -.393E+03 -.422E+03   -.184E+01 -.150E+01 -.205E+00   -.201E-02 0.567E-02 -.803E-02
   -.395E+03 -.975E+03 0.423E+03   0.392E+03 0.972E+03 -.422E+03   0.150E+01 0.183E+01 -.199E+00   -.347E-02 0.351E-02 -.232E-02
   -.398E+03 0.989E+03 -.397E+03   0.396E+03 -.986E+03 0.397E+03   0.154E+01 -.183E+01 0.224E+00   -.764E-03 -.162E-02 0.102E-02
   0.986E+03 -.399E+03 -.401E+03   -.984E+03 0.397E+03 0.401E+03   -.184E+01 0.153E+01 0.203E+00   0.158E-02 0.393E-02 0.282E-03
   -.974E+03 0.395E+03 0.423E+03   0.972E+03 -.393E+03 -.423E+03   0.183E+01 -.150E+01 -.191E+00   0.405E-02 -.160E-02 -.362E-03
   0.395E+03 -.974E+03 0.422E+03   -.393E+03 0.972E+03 -.422E+03   -.150E+01 0.184E+01 -.206E+00   0.583E-03 0.186E-02 -.426E-02
   0.323E+03 0.322E+03 0.463E+03   -.324E+03 -.323E+03 -.463E+03   0.363E+00 0.363E+00 0.521E+00   -.950E-02 0.938E-03 -.732E-02
   0.115E+01 0.646E+03 0.179E+02   -.115E+01 -.647E+03 -.178E+02   -.167E-02 0.719E+00 -.515E-01   -.420E-03 -.976E-03 -.155E-03
   -.588E+03 -.128E+00 0.968E+03   0.587E+03 0.122E+00 -.964E+03   0.301E+00 0.415E-03 -.237E+01   0.304E-02 0.498E-02 -.226E-02
   -.651E+03 -.370E+01 -.909E+03   0.650E+03 0.370E+01 0.905E+03   0.191E-01 -.722E-02 0.235E+01   -.478E-02 0.774E-02 0.566E-02
   0.588E+03 -.118E+00 0.968E+03   -.587E+03 0.115E+00 -.964E+03   -.293E+00 0.442E-03 -.238E+01   -.692E-02 0.269E-02 -.126E-02
   0.636E+03 -.223E+01 -.930E+03   -.636E+03 0.223E+01 0.927E+03   -.180E+00 -.521E-02 0.244E+01   0.438E-02 0.340E-02 0.285E-02
   0.766E+03 0.765E+03 0.125E+02   -.764E+03 -.763E+03 -.125E+02   -.113E+01 -.113E+01 0.155E-01   -.244E-02 0.103E-02 -.334E-02
   -.765E+03 -.766E+03 0.136E+02   0.763E+03 0.764E+03 -.136E+02   0.114E+01 0.114E+01 -.487E-02   -.645E-03 0.704E-02 0.516E-04
   -.766E+03 0.766E+03 0.144E+02   0.764E+03 -.764E+03 -.143E+02   0.114E+01 -.114E+01 -.175E-01   0.589E-03 -.494E-02 -.280E-02
   0.766E+03 -.766E+03 0.119E+02   -.764E+03 0.764E+03 -.119E+02   -.113E+01 0.113E+01 0.273E-01   0.125E-03 0.487E-02 -.240E-03
   0.369E+00 -.142E+00 0.107E+04   -.343E+00 0.131E+00 -.107E+04   -.994E-02 0.373E-02 -.163E+01   -.106E-01 0.531E-02 -.472E-02
   0.515E+02 -.196E+02 -.814E+03   -.494E+02 0.188E+02 0.822E+03   -.181E+01 0.689E+00 -.741E+01   -.411E-02 0.945E-02 0.194E-02
   0.987E+03 0.398E+03 -.401E+03   -.984E+03 -.396E+03 0.400E+03   -.183E+01 -.153E+01 0.210E+00   -.124E-02 0.175E-02 0.204E-02
   -.398E+03 -.988E+03 -.399E+03   0.395E+03 0.985E+03 0.398E+03   0.153E+01 0.183E+01 0.219E+00   -.690E-02 -.312E-03 0.497E-02
   -.332E+03 0.335E+03 -.408E+03   0.333E+03 -.335E+03 0.408E+03   -.315E+00 0.332E+00 -.387E+00   -.577E-02 0.173E-02 0.268E-02
   0.323E+03 -.323E+03 0.462E+03   -.323E+03 0.323E+03 -.463E+03   0.365E+00 -.365E+00 0.516E+00   -.849E-02 0.640E-02 -.867E-02
   0.338E+03 0.333E+03 -.414E+03   -.338E+03 -.333E+03 0.415E+03   0.263E+00 0.223E+00 -.551E+00   0.497E-04 0.393E-02 0.595E-02
   -.989E+03 0.399E+03 -.396E+03   0.986E+03 -.397E+03 0.395E+03   0.182E+01 -.154E+01 0.223E+00   -.425E-05 -.405E-03 0.116E-02
   0.400E+03 -.987E+03 -.400E+03   -.398E+03 0.984E+03 0.400E+03   -.154E+01 0.184E+01 0.201E+00   0.346E-02 -.394E-03 0.468E-02
   -.322E+03 -.323E+03 0.463E+03   0.322E+03 0.323E+03 -.464E+03   -.359E+00 -.360E+00 0.528E+00   -.882E-03 0.120E-01 -.210E-02
   0.646E+03 -.400E+00 0.161E+02   -.647E+03 0.395E+00 -.160E+02   0.722E+00 0.388E-03 -.282E-01   -.420E-02 0.422E-02 -.403E-02
   -.645E+03 -.465E+00 0.188E+02   0.646E+03 0.459E+00 -.187E+02   -.718E+00 0.715E-03 -.619E-01   -.562E-03 0.478E-02 -.883E-03
   0.315E+00 -.588E+03 0.968E+03   -.308E+00 0.587E+03 -.964E+03   -.978E-03 0.296E+00 -.237E+01   -.466E-02 0.730E-02 -.295E-02
   0.673E+01 -.640E+03 -.925E+03   -.675E+01 0.639E+03 0.922E+03   0.152E-01 0.131E+00 0.242E+01   -.184E-02 0.292E-02 0.175E-03
   0.153E+01 -.585E+00 0.239E+02   -.153E+01 0.582E+00 -.239E+02   0.109E-02 -.380E-03 -.399E-01   -.421E-02 0.362E-02 0.453E-02
   0.337E+03 -.335E+03 -.416E+03   -.337E+03 0.335E+03 0.417E+03   0.213E+00 -.193E+00 -.625E+00   0.304E-02 0.825E-02 0.827E-02
   -.332E+03 -.337E+03 -.410E+03   0.332E+03 0.337E+03 0.411E+03   -.278E+00 -.315E+00 -.445E+00   -.651E-02 0.101E-01 0.812E-02
   0.109E+01 -.646E+03 0.168E+02   -.109E+01 0.647E+03 -.168E+02   -.131E-02 -.720E+00 -.391E-01   -.231E-02 0.964E-02 0.430E-02
   -.257E+02 0.992E+01 -.292E+03   0.241E+02 -.932E+01 0.270E+03   0.882E+00 -.331E+00 0.174E+02   -.124E-02 0.239E-02 -.474E-03
   -.446E+02 0.170E+02 -.789E+03   0.486E+02 -.185E+02 0.854E+03   -.353E+01 0.133E+01 -.611E+02   -.118E-02 0.239E-02 -.111E-02
 -----------------------------------------------------------------------------------------------
   0.484E+01 -.196E+01 0.527E+02   0.433E-12 0.102E-11 -.171E-11   -.475E+01 0.180E+01 -.527E+02   -.993E-01 0.159E+00 -.128E-01
 
 
 POSITION                                       TOTAL-FORCE (eV/Angst)
 -----------------------------------------------------------------------------------
     13.37281      9.84801     12.50759         0.696915      1.110393      0.287020
     20.15199     16.62719     12.50759        -1.110798     -0.697394      0.286123
     16.62719      9.84801     12.50759        -0.698400      1.109577      0.286983
      9.84801     16.62719     12.50759         1.108727     -0.697823      0.288907
     15.00000     11.47521     10.20639         0.001199      0.404059      1.280835
     15.00000     11.47521     19.79360        -0.007772      0.387104     -1.334564
     15.00000      8.28283     15.00000         0.002293      1.506841      0.012405
      8.28283     15.00000     15.00000         1.509435     -0.000733      0.008181
     21.71717     15.00000     15.00000        -1.505733     -0.000841      0.014367
     15.00000     21.71717     15.00000         0.002179     -1.508263      0.010168
     18.35858     11.64142     10.25025        -0.752325      0.753437      1.073641
     18.35858     11.64142     19.74975        -0.735020      0.733899     -1.074828
     11.64142     18.35858     10.25025         0.752996     -0.751796      1.074896
     11.64142     18.35858     19.74975         0.746073     -0.746197     -1.072670
     11.64142     11.64142     10.25025         0.753633      0.751460      1.074622
     11.64142     11.64142     19.74975         0.742983      0.744350     -1.073675
     18.35858     18.35858     10.25025        -0.751589     -0.753738      1.074091
     18.35858     18.35858     19.74975        -0.739374     -0.737158     -1.074472
     13.37281      9.84801     17.49241         0.703692      1.103968     -0.289361
     20.15199     16.62719     17.49241        -1.100594     -0.703279     -0.293285
     16.73751     13.26249     12.54279         0.113371     -0.113755     -0.152078
      9.84801     13.37281     12.50759         1.108353      0.698381      0.288485
     16.62719     20.15199     12.50759        -0.698415     -1.108539      0.287653
     16.62719      9.84801     17.49241        -0.701084      1.099434     -0.296593
      9.84801     16.62719     17.49241         1.104693     -0.700624     -0.288576
     20.15199     13.37281     12.50759        -1.110439      0.698176      0.286253
     13.37281     20.15199     12.50759         0.697222     -1.109521      0.288241
     13.26249     13.26249     12.54279        -0.113948     -0.113720     -0.150936
     15.00000     11.52498     15.00000         0.000157     -0.211959     -0.000825
     18.52479     15.00000     10.20639        -0.404658     -0.000356      1.280335
     18.52479     15.00000     19.79360        -0.399084      0.002430     -1.326051
     11.47521     15.00000     10.20640         0.401358     -0.000407      1.281677
     11.47521     15.00000     19.79360         0.385574      0.002265     -1.333548
     11.49535     11.49535     15.00000         0.814572      0.817102     -0.020681
     18.50465     18.50465     15.00000        -0.821466     -0.819099     -0.012679
     18.50465     11.49535     15.00000        -0.823628      0.822731     -0.007350
     11.49535     18.50465     15.00000         0.813047     -0.814083     -0.024631
     15.00000     15.00000     10.04368         0.005111     -0.001847      1.186760
     15.00000     15.00000     19.95633         0.249346     -0.096023      0.125038
      9.84801     13.37281     17.49241         1.103771      0.699777     -0.290664
     16.62719     20.15199     17.49241        -0.700168     -1.101453     -0.294286
     16.73751     13.26249     17.45721         0.142751     -0.150020      0.113417
     13.26249     16.73751     12.54279        -0.113905      0.114073     -0.150260
     13.26249     13.26249     17.45721        -0.120836     -0.100164      0.143671
     20.15199     13.37281     17.49241        -1.098334      0.702363     -0.296227
     13.37281     20.15199     17.49241         0.702822     -1.104972     -0.287915
     16.73751     16.73751     12.54279         0.113376      0.114157     -0.151776
     11.52498     15.00000     15.00000        -0.209928      0.000197      0.000351
     18.47502     15.00000     15.00000         0.212781     -0.000057     -0.001227
     15.00000     18.52480     10.20639         0.001210     -0.402618      1.281365
     15.00000     18.52480     19.79360        -0.007070     -0.384259     -1.335750
     15.00000     15.00000     15.00000        -0.000745      0.000312      0.014454
     13.26249     16.73751     17.45721        -0.092411      0.082127      0.165231
     16.73751     16.73751     17.45721         0.127768      0.145401      0.122050
     15.00000     18.47502     15.00000        -0.000151      0.211176     -0.000281
     15.42295     14.83918     21.82389        -0.691199      0.273139     -5.217321
     15.49271     14.81265     22.94942         0.391666     -0.157630      4.215289
 -----------------------------------------------------------------------------------
    total drift:                               -0.004998     -0.003358      0.001764


--------------------------------------------------------------------------------------------------------



  FREE ENERGIE OF THE ION-ELECTRON SYSTEM (eV)
  ---------------------------------------------------
  free  energy   TOTEN  =      -175.17032597 eV

  energy  without entropy=     -175.12204395  energy(sigma->0) =     -175.15825546
 


--------------------------------------------------------------------------------------------------------


    POTLOK:  cpu time   13.8429: real time   13.8430


--------------------------------------------------------------------------------------------------------


     LOOP+:  cpu time18081.1105: real time18081.8246
    4ORBIT:  cpu time    0.0000: real time    0.0000

 total amount of memory used by VASP MPI-rank0  5486941. kBytes
=======================================================================

   base      :      30000. kBytes
   nonlr-proj:      17126. kBytes
   fftplans  :     924480. kBytes
   grid      :    1872000. kBytes
   one-center:        886. kBytes
   wavefun   :    2642449. kBytes
 
  
  
 General timing and accounting informations for this job:
 ========================================================
  
                  Total CPU time used (sec):    18154.465
                            User time (sec):    17141.953
                          System time (sec):     1012.512
                         Elapsed time (sec):    18155.236
  
                   Maximum memory used (kb):     7179120.
                   Average memory used (kb):           0.
  
                          Minor page faults:    830360622
                          Major page faults:            0
                 Voluntary context switches:          486
