 vasp.5.4.4.18Apr17-6-g9f103f2a35 (build Sep 03 2018 23:53:05) complex          
  
 executed on             LinuxIFC date 2021.12.01  10:28:03
 running on    1 total cores
 distrk:  each k-point on    1 cores,    1 groups
 distr:  one band on NCORES_PER_BAND=   1 cores,    1 groups


--------------------------------------------------------------------------------------------------------


 INCAR:
 POTCAR:    PAW_PBE Pd 04Jan2005                  
 POTCAR:    PAW_PBE C 08Apr2002                   
 POTCAR:    PAW_PBE O 08Apr2002                   
 POTCAR:    PAW_PBE Pd 04Jan2005                  
   VRHFIN =Pd : s1 d9                                                           
   LEXCH  = PE                                                                  
   EATOM  =   809.7530 eV,   59.5152 Ry                                         
                                                                                
   TITEL  = PAW_PBE Pd 04Jan2005                                                
   LULTRA =        F    use ultrasoft PP ?                                      
   IUNSCR =        1    unscreen: 0-lin 1-nonlin 2-no                           
   RPACOR =    2.000    partial core radius                                     
   POMASS =  106.420; ZVAL   =   10.000    mass and valenz                      
   RCORE  =    2.600    outmost cutoff radius                                   
   RWIGS  =    2.710; RWIGS  =    1.434    wigner-seitz radius (au A)           
   ENMAX  =  250.925; ENMIN  =  188.194 eV                                      
   ICORE  =        3    local potential                                         
   LCOR   =        T    correct aug charges                                     
   LPAW   =        T    paw PP                                                  
   EAUG   =  416.230                                                            
   DEXC   =    0.000                                                            
   RMAX   =    2.653    core radius for proj-oper                               
   RAUG   =    1.300    factor for augmentation sphere                          
   RDEP   =    2.734    radius for radial grids                                 
   RDEPT  =    2.103    core radius for aug-charge                              
                                                                                
   Atomic configuration                                                         
   12 entries                                                                   
     n  l   j            E        occ.                                          
     1  0  0.50    -24164.6631   2.0000                                         
     2  0  0.50     -3530.9218   2.0000                                         
     2  1  1.50     -3165.6822   6.0000                                         
     3  0  0.50      -639.4577   2.0000                                         
     3  1  1.50      -519.4532   6.0000                                         
     3  2  2.50      -328.9757  10.0000                                         
     4  0  0.50       -88.7014   2.0000                                         
     4  1  1.50       -54.4540   6.0000                                         
     4  2  2.50        -6.6878   9.0000                                         
     5  0  0.50        -4.3543   1.0000                                         
     5  1  0.50        -1.3606   0.0000                                         
     4  3  2.50        -1.3606   0.0000                                         
   Description                                                                  
     l       E           TYP  RCUT    TYP  RCUT                                 
     2     -6.6878251     23  2.400                                             
     2     -8.0484077     23  2.400                                             
     0     -4.3542939     23  2.400                                             
     0      4.3406793     23  2.400                                             
     1     -4.0817478     23  2.600                                             
     1     15.8380318     23  2.600                                             
     3     -4.0817478     23  2.400                                             
  local pseudopotential read in
  partial core-charges read in
  partial kinetic energy density read in
  atomic valenz-charges read in
  non local Contribution for L=           2  read in
    real space projection operators read in
  non local Contribution for L=           2  read in
    real space projection operators read in
  non local Contribution for L=           0  read in
    real space projection operators read in
  non local Contribution for L=           0  read in
    real space projection operators read in
  non local Contribution for L=           1  read in
    real space projection operators read in
  non local Contribution for L=           1  read in
    real space projection operators read in
    PAW grid and wavefunctions read in
 
   number of l-projection  operators is LMAX  =           6
   number of lm-projection operators is LMMAX =          18
 
 POTCAR:    PAW_PBE C 08Apr2002                   
   VRHFIN =C: s2p2                                                              
   LEXCH  = PE                                                                  
   EATOM  =   147.1560 eV,   10.8157 Ry                                         
                                                                                
   TITEL  = PAW_PBE C 08Apr2002                                                 
   LULTRA =        F    use ultrasoft PP ?                                      
   IUNSCR =        1    unscreen: 0-lin 1-nonlin 2-no                           
   RPACOR =    1.200    partial core radius                                     
   POMASS =   12.011; ZVAL   =    4.000    mass and valenz                      
   RCORE  =    1.500    outmost cutoff radius                                   
   RWIGS  =    1.630; RWIGS  =    0.863    wigner-seitz radius (au A)           
   ENMAX  =  400.000; ENMIN  =  300.000 eV                                      
   ICORE  =        2    local potential                                         
   LCOR   =        T    correct aug charges                                     
   LPAW   =        T    paw PP                                                  
   EAUG   =  644.873                                                            
   DEXC   =    0.000                                                            
   RMAX   =    1.529    core radius for proj-oper                               
   RAUG   =    1.300    factor for augmentation sphere                          
   RDEP   =    1.501    radius for radial grids                                 
   RDEPT  =    1.300    core radius for aug-charge                              
                                                                                
   Atomic configuration                                                         
    4 entries                                                                   
     n  l   j            E        occ.                                          
     1  0  0.50      -273.3789   2.0000                                         
     2  0  0.50       -13.7508   2.0000                                         
     2  1  0.50        -5.2854   2.0000                                         
     3  2  1.50        -5.4423   0.0000                                         
   Description                                                                  
     l       E           TYP  RCUT    TYP  RCUT                                 
     0    -13.7508458     23  1.200                                             
     0     -8.2022199     23  1.200                                             
     1     -5.2854383     23  1.500                                             
     1     34.0145650     23  1.500                                             
     2     -5.4423304      7  1.500                                             
  local pseudopotential read in
  partial core-charges read in
  partial kinetic energy density read in
  atomic valenz-charges read in
  non local Contribution for L=           0  read in
    real space projection operators read in
  non local Contribution for L=           0  read in
    real space projection operators read in
  non local Contribution for L=           1  read in
    real space projection operators read in
  non local Contribution for L=           1  read in
    real space projection operators read in
    PAW grid and wavefunctions read in
 
   number of l-projection  operators is LMAX  =           4
   number of lm-projection operators is LMMAX =           8
 
 POTCAR:    PAW_PBE O 08Apr2002                   
   VRHFIN =O: s2p4                                                              
   LEXCH  = PE                                                                  
   EATOM  =   432.3788 eV,   31.7789 Ry                                         
                                                                                
   TITEL  = PAW_PBE O 08Apr2002                                                 
   LULTRA =        F    use ultrasoft PP ?                                      
   IUNSCR =        1    unscreen: 0-lin 1-nonlin 2-no                           
   RPACOR =    1.200    partial core radius                                     
   POMASS =   16.000; ZVAL   =    6.000    mass and valenz                      
   RCORE  =    1.520    outmost cutoff radius                                   
   RWIGS  =    1.550; RWIGS  =    0.820    wigner-seitz radius (au A)           
   ENMAX  =  400.000; ENMIN  =  300.000 eV                                      
   ICORE  =        2    local potential                                         
   LCOR   =        T    correct aug charges                                     
   LPAW   =        T    paw PP                                                  
   EAUG   =  605.392                                                            
   DEXC   =    0.000                                                            
   RMAX   =    1.553    core radius for proj-oper                               
   RAUG   =    1.300    factor for augmentation sphere                          
   RDEP   =    1.550    radius for radial grids                                 
   RDEPT  =    1.329    core radius for aug-charge                              
                                                                                
   Atomic configuration                                                         
    4 entries                                                                   
     n  l   j            E        occ.                                          
     1  0  0.50      -514.6923   2.0000                                         
     2  0  0.50       -23.9615   2.0000                                         
     2  1  0.50        -9.0305   4.0000                                         
     3  2  1.50        -9.5241   0.0000                                         
   Description                                                                  
     l       E           TYP  RCUT    TYP  RCUT                                 
     0    -23.9615318     23  1.200                                             
     0     -9.5240782     23  1.200                                             
     1     -9.0304911     23  1.520                                             
     1      8.1634956     23  1.520                                             
     2     -9.5240782      7  1.500                                             
  local pseudopotential read in
  partial core-charges read in
  partial kinetic energy density read in
  kinetic energy density of atom read in
  atomic valenz-charges read in
  non local Contribution for L=           0  read in
    real space projection operators read in
  non local Contribution for L=           0  read in
    real space projection operators read in
  non local Contribution for L=           1  read in
    real space projection operators read in
  non local Contribution for L=           1  read in
    real space projection operators read in
    PAW grid and wavefunctions read in
 
   number of l-projection  operators is LMAX  =           4
   number of lm-projection operators is LMMAX =           8
 
 Optimization of the real space projectors (new method)

 maximal supplied QI-value         = 14.36
 optimisation between [QCUT,QGAM] = [ 10.20, 20.39] = [ 29.12,116.47] Ry 
 Optimized for a Real-space Cutoff    1.51 Angstroem

   l    n(q)    QCUT    max X(q) W(low)/X(q) W(high)/X(q)  e(spline) 
   2      8    10.197    59.108    0.26E-03    0.14E-03    0.96E-07
   2      8    10.197    58.101    0.27E-03    0.14E-03    0.98E-07
   0      9    10.197   102.235    0.54E-04    0.60E-05    0.72E-07
   0      9    10.197    58.388    0.52E-04    0.60E-05    0.68E-07
   1      9    10.197    22.191    0.18E-03    0.25E-03    0.79E-07
   1      9    10.197    15.590    0.15E-03    0.21E-03    0.69E-07
 Optimization of the real space projectors (new method)

 maximal supplied QI-value         = 25.13
 optimisation between [QCUT,QGAM] = [ 10.05, 20.36] = [ 28.30,116.06] Ry 
 Optimized for a Real-space Cutoff    1.30 Angstroem

   l    n(q)    QCUT    max X(q) W(low)/X(q) W(high)/X(q)  e(spline) 
   0      8    10.053   115.676    0.49E-03    0.72E-03    0.18E-06
   0      8    10.053    87.132    0.49E-03    0.71E-03    0.18E-06
   1      7    10.053     4.429    0.32E-03    0.31E-03    0.18E-06
   1      7    10.053     2.733    0.23E-03    0.19E-03    0.20E-06
 Optimization of the real space projectors (new method)

 maximal supplied QI-value         = 24.76
 optimisation between [QCUT,QGAM] = [ 10.15, 20.30] = [ 28.85,115.39] Ry 
 Optimized for a Real-space Cutoff    1.38 Angstroem

   l    n(q)    QCUT    max X(q) W(low)/X(q) W(high)/X(q)  e(spline) 
   0      8    10.150    20.381    0.22E-03    0.32E-03    0.29E-06
   0      8    10.150    15.268    0.23E-03    0.35E-03    0.30E-06
   1      8    10.150     5.964    0.46E-03    0.53E-03    0.21E-06
   1      8    10.150     5.382    0.38E-03    0.45E-03    0.19E-06

 ----------------------------------------------------------------------------- 
|                                                                             |
|  ADVICE TO THIS USER RUNNING 'VASP/VAMP'   (HEAR YOUR MASTER'S VOICE ...):  |
|                                                                             |
|      You enforced a specific xc-type in the INCAR file,                     |
|      a different type was found on the POTCAR file                          |
|          I HOPE YOU KNOW, WHAT YOU ARE  DOING                               |
|                                                                             |
 ----------------------------------------------------------------------------- 

  PAW_PBE Pd 04Jan2005                  :
 energy of atom  1       EATOM= -809.7530
 kinetic energy error for atom=    0.0091 (will be added to EATOM!!)
  PAW_PBE C 08Apr2002                   :
 energy of atom  2       EATOM= -147.1560
 kinetic energy error for atom=    0.0288 (will be added to EATOM!!)
  PAW_PBE O 08Apr2002                   :
 energy of atom  3       EATOM= -432.3788
 kinetic energy error for atom=    0.1156 (will be added to EATOM!!)
 
 
 POSCAR: Pd55PES                                 
  positions in cartesian coordinates
  No initial velocities read in
 exchange correlation table for  LEXCH =        9
   RHO(1)=    0.500       N(1)  =     2000
   RHO(2)=  100.500       N(2)  =     4000
 


--------------------------------------------------------------------------------------------------------


 ion  position               nearest neighbor table
   1  0.446  0.328  0.417-   3 3.25   5 3.25   7 3.36  15 3.36  29 3.42  28 3.42
   2  0.672  0.554  0.417-  26 3.25  30 3.25  17 3.36   9 3.36  47 3.42  49 3.42
   3  0.554  0.328  0.417-   1 3.25   5 3.25   7 3.36  11 3.36  29 3.42  21 3.42
   4  0.328  0.554  0.417-  32 3.25  22 3.25  13 3.36   8 3.36  43 3.42  48 3.42
   5  0.500  0.383  0.340-   1 3.25   3 3.25  11 3.36  15 3.36  21 3.42  28 3.42
   6  0.500  0.383  0.660-  24 3.25  19 3.25  16 3.36  12 3.36  42 3.42  44 3.42
   7  0.500  0.276  0.500-  29 3.24   3 3.36   1 3.36  19 3.36  24 3.36
   8  0.276  0.500  0.500-  48 3.24  22 3.36  40 3.36   4 3.36  25 3.36
   9  0.724  0.500  0.500-  49 3.24  26 3.36  45 3.36   2 3.36  20 3.36
  10  0.500  0.724  0.500-  55 3.24  27 3.36  23 3.36  46 3.36  41 3.36
  11  0.612  0.388  0.342-  21 3.24   5 3.36   3 3.36  30 3.36  26 3.36
  12  0.612  0.388  0.658-  42 3.24  24 3.36  45 3.36   6 3.36  31 3.36
  13  0.388  0.612  0.342-  43 3.24  32 3.36  50 3.36   4 3.36  27 3.36
  14  0.388  0.612  0.658-  53 3.24  25 3.36  33 3.36  51 3.36  46 3.36
  15  0.388  0.388  0.342-  28 3.24   5 3.36   1 3.36  32 3.36  22 3.36
  16  0.388  0.388  0.658-  44 3.24  19 3.36  40 3.36   6 3.36  33 3.36
  17  0.612  0.612  0.342-  47 3.24  30 3.36  50 3.36   2 3.36  23 3.36
  18  0.612  0.612  0.658-  54 3.24  31 3.36  20 3.36  51 3.36  41 3.36
  19  0.446  0.328  0.583-   6 3.25  24 3.25  16 3.36   7 3.36  44 3.42  29 3.42
  20  0.672  0.554  0.583-  31 3.25  45 3.25  18 3.36   9 3.36  54 3.42  49 3.42
  21  0.558  0.442  0.418-  11 3.24   5 3.42   3 3.42  30 3.42  26 3.42
  22  0.328  0.446  0.417-   4 3.25  32 3.25   8 3.36  15 3.36  48 3.42  28 3.42
  23  0.554  0.672  0.417-  27 3.25  50 3.25  10 3.36  17 3.36  55 3.42  47 3.42
  24  0.554  0.328  0.583-   6 3.25  19 3.25  12 3.36   7 3.36  42 3.42  29 3.42
  25  0.328  0.554  0.583-  33 3.25  40 3.25  14 3.36   8 3.36  53 3.42  48 3.42
  26  0.672  0.446  0.417-   2 3.25  30 3.25   9 3.36  11 3.36  49 3.42  21 3.42
  27  0.446  0.672  0.417-  23 3.25  50 3.25  10 3.36  13 3.36  55 3.42  43 3.42
  28  0.442  0.442  0.418-  15 3.24   5 3.42   1 3.42  32 3.42  22 3.42
  29  0.500  0.384  0.500-   7 3.24   3 3.42   1 3.42  24 3.42  19 3.42
  30  0.617  0.500  0.340-   2 3.25  26 3.25  17 3.36  11 3.36  47 3.42  21 3.42
  31  0.617  0.500  0.660-  20 3.25  45 3.25  18 3.36  12 3.36  54 3.42  42 3.42
  32  0.383  0.500  0.340-   4 3.25  22 3.25  13 3.36  15 3.36  43 3.42  28 3.42
  33  0.383  0.500  0.660-  25 3.25  40 3.25  14 3.36  16 3.36  53 3.42  44 3.42
  34  0.383  0.383  0.500-
  35  0.617  0.617  0.500-
  36  0.617  0.383  0.500-
  37  0.383  0.617  0.500-
  38  0.500  0.500  0.335-
  39  0.500  0.500  0.665-
  40  0.328  0.446  0.583-  33 3.25  25 3.25  16 3.36   8 3.36  44 3.42  48 3.42
  41  0.554  0.672  0.583-  46 3.25  51 3.25  10 3.36  18 3.36  54 3.42  55 3.42
  42  0.558  0.442  0.582-  12 3.24   6 3.42  24 3.42  31 3.42  45 3.42
  43  0.442  0.558  0.418-  13 3.24   4 3.42  32 3.42  27 3.42  50 3.42
  44  0.442  0.442  0.582-  16 3.24   6 3.42  19 3.42  33 3.42  40 3.42
  45  0.672  0.446  0.583-  20 3.25  31 3.25   9 3.36  12 3.36  49 3.42  42 3.42
  46  0.446  0.672  0.583-  41 3.25  51 3.25  10 3.36  14 3.36  53 3.42  55 3.42
  47  0.558  0.558  0.418-  17 3.24   2 3.42  30 3.42  23 3.42  50 3.42
  48  0.384  0.500  0.500-   8 3.24   4 3.42  22 3.42  25 3.42  40 3.42
  49  0.616  0.500  0.500-   9 3.24   2 3.42  26 3.42  20 3.42  45 3.42
  50  0.500  0.617  0.340-  27 3.25  23 3.25  13 3.36  17 3.36  43 3.42  47 3.42
  51  0.500  0.617  0.660-  41 3.25  46 3.25  14 3.36  18 3.36  53 3.42  54 3.42
  52  0.500  0.500  0.500-
  53  0.442  0.558  0.582-  14 3.24  25 3.42  33 3.42  51 3.42  46 3.42
  54  0.558  0.558  0.582-  18 3.24  31 3.42  20 3.42  51 3.42  41 3.42
  55  0.500  0.616  0.500-  10 3.24  23 3.42  27 3.42  41 3.42  46 3.42
  56  0.528  0.316  0.721-  57 1.13
  57  0.532  0.292  0.750-  56 1.13
 
  LATTYP: Found a simple cubic cell.
 ALAT       =    30.0000000000
  
  Lattice vectors:
  
 A1 = (  30.0000000000,   0.0000000000,   0.0000000000)
 A2 = (   0.0000000000,  30.0000000000,   0.0000000000)
 A3 = (   0.0000000000,   0.0000000000,  30.0000000000)


Analysis of symmetry for initial positions (statically):
=====================================================================
 Subroutine PRICEL returns:
 Original cell was already a primitive cell.
 

 Routine SETGRP: Setting up the symmetry group for a 
 simple cubic supercell.


 Subroutine GETGRP returns: Found  1 space group operations
 (whereof  1 operations were pure point group operations)
 out of a pool of 48 trial point group operations.


The static configuration has the point symmetry C_1 .


Analysis of symmetry for dynamics (positions and initial velocities):
=====================================================================
 Subroutine PRICEL returns:
 Original cell was already a primitive cell.
 

 Routine SETGRP: Setting up the symmetry group for a 
 simple cubic supercell.


 Subroutine GETGRP returns: Found  1 space group operations
 (whereof  1 operations were pure point group operations)
 out of a pool of 48 trial point group operations.


The dynamic configuration has the point symmetry C_1 .


Analysis of constrained symmetry for selective dynamics:
=====================================================================
 Subroutine PRICEL returns:
 Original cell was already a primitive cell.
 

 Routine SETGRP: Setting up the symmetry group for a 
 simple cubic supercell.


 Subroutine GETGRP returns: Found  1 space group operations
 (whereof  1 operations were pure point group operations)
 out of a pool of 48 trial point group operations.


The constrained configuration has the point symmetry C_1 .


 Subroutine INISYM returns: Found  1 space group operations
 (whereof  1 operations are pure point group operations),
 and found     1 'primitive' translations

 
 
 KPOINTS: K-points                                

Automatic generation of k-mesh.
Space group operators:
 irot       det(A)        alpha          n_x          n_y          n_z        tau_x        tau_y        tau_z
    1     1.000000     0.000000     1.000000     0.000000     0.000000     0.000000     0.000000     0.000000
 
 Subroutine IBZKPT returns following result:
 ===========================================
 
 Found      1 irreducible k-points:
 
 Following reciprocal coordinates:
            Coordinates               Weight
  0.000000  0.000000  0.000000      1.000000
 
 Following cartesian coordinates:
            Coordinates               Weight
  0.000000  0.000000  0.000000      1.000000
 


--------------------------------------------------------------------------------------------------------




 Dimension of arrays:
   k-points           NKPTS =      1   k-points in BZ     NKDIM =      1   number of bands    NBANDS=    336
   number of dos      NEDOS =    301   number of ions     NIONS =     57
   non local maximal  LDIM  =      6   non local SUM 2l+1 LMDIM =     18
   total plane-waves  NPLWV = ******
   max r-space proj   IRMAX =   1847   max aug-charges    IRDMAX=   6262
   dimension x,y,z NGX =   150 NGY =  150 NGZ =  150
   dimension x,y,z NGXF=   300 NGYF=  300 NGZF=  300
   support grid    NGXF=   300 NGYF=  300 NGZF=  300
   ions per type =              55   1   1
   NGX,Y,Z   is equivalent  to a cutoff of   8.31,  8.31,  8.31 a.u.
   NGXF,Y,Z  is equivalent  to a cutoff of  16.62, 16.62, 16.62 a.u.

 SYSTEM =  6_Pd100_top_free_z(O)                   
 POSCAR =  Pd55PES                                 

 Startparameter for this run:
   NWRITE =      2    write-flag & timer
   PREC   = normal    normal or accurate (medium, high low for compatibility)
   ISTART =      0    job   : 0-new  1-cont  2-samecut
   ICHARG =      2    charge: 1-file 2-atom 10-const
   ISPIN  =      1    spin polarized calculation?
   LNONCOLLINEAR =      F non collinear calculations
   LSORBIT =      F    spin-orbit coupling
   INIWAV =      1    electr: 0-lowe 1-rand  2-diag
   LASPH  =      F    aspherical Exc in radial PAW
   METAGGA=      F    non-selfconsistent MetaGGA calc.

 Electronic Relaxation 1
   ENCUT  =  400.0 eV  29.40 Ry    5.42 a.u.  48.92 48.92 48.92*2*pi/ulx,y,z
   ENINI  =  400.0     initial cutoff
   ENAUG  =  644.9 eV  augmentation charge cutoff
   NELM   =    100;   NELMIN=  6; NELMDL= -5     # of ELM steps 
   EDIFF  = 0.1E-03   stopping-criterion for ELM
   LREAL  =      T    real-space projection
   NLSPLINE    = F    spline interpolate recip. space projectors
   LCOMPAT=      F    compatible to vasp.4.4
   GGA_COMPAT  = T    GGA compatible to vasp.4.4-vasp.4.6
   LMAXPAW     = -100 max onsite density
   LMAXMIX     =    2 max onsite mixed and CHGCAR
   VOSKOWN=      0    Vosko Wilk Nusair interpolation
   ROPT   =   -0.00050  -0.00050  -0.00050
 Ionic relaxation
   EDIFFG = -.5E-01   stopping-criterion for IOM
   NSW    =      0    number of steps for IOM
   NBLOCK =      1;   KBLOCK =      1    inner block; outer block 
   IBRION =     -1    ionic relax: 0-MD 1-quasi-New 2-CG
   NFREE  =      1    steps in history (QN), initial steepest desc. (CG)
   ISIF   =      2    stress and relaxation
   IWAVPR =     10    prediction:  0-non 1-charg 2-wave 3-comb
   ISYM   =      2    0-nonsym 1-usesym 2-fastsym
   LCORR  =      T    Harris-Foulkes like correction to forces

   POTIM  = 0.5000    time-step for ionic-motion
   TEIN   =    0.0    initial temperature
   TEBEG  =    0.0;   TEEND  =   0.0 temperature during run
   SMASS  =  -3.00    Nose mass-parameter (am)
   estimated Nose-frequenzy (Omega)   =  0.10E-29 period in steps =****** mass=  -0.206E-25a.u.
   SCALEE = 1.0000    scale energy and forces
   NPACO  =    256;   APACO  = 16.0  distance and # of slots for P.C.
   PSTRESS=    0.0 pullay stress

  Mass of Ions in am
   POMASS = 106.42 12.01 16.00
  Ionic Valenz
   ZVAL   =  10.00  4.00  6.00
  Atomic Wigner-Seitz radii
   RWIGS  =  -1.00 -1.00 -1.00
  virtual crystal weights 
   VCA    =   1.00  1.00  1.00
   NELECT =     560.0000    total number of electrons
   NUPDOWN=      -1.0000    fix difference up-down

 DOS related values:
   EMIN   =  10.00;   EMAX   =-10.00  energy-range for DOS
   EFERMI =   0.00
   ISMEAR =     2;   SIGMA  =   0.20  broadening in eV -4-tet -1-fermi 0-gaus

 Electronic relaxation 2 (details)
   IALGO  =     68    algorithm
   LDIAG  =      T    sub-space diagonalisation (order eigenvalues)
   LSUBROT=      F    optimize rotation matrix (better conditioning)
   TURBO    =      0    0=normal 1=particle mesh
   IRESTART =      0    0=no restart 2=restart with 2 vectors
   NREBOOT  =      0    no. of reboots
   NMIN     =      0    reboot dimension
   EREF     =   0.00    reference energy to select bands
   IMIX   =      4    mixing-type and parameters
     AMIX     =   0.40;   BMIX     =  1.00
     AMIX_MAG =   1.60;   BMIX_MAG =  1.00
     AMIN     =   0.10
     WC   =   100.;   INIMIX=   1;  MIXPRE=   1;  MAXMIX= -45

 Intra band minimization:
   WEIMIN = 0.0000     energy-eigenvalue tresh-hold
   EBREAK =  0.74E-07  absolut break condition
   DEPER  =   0.30     relativ break condition  

   TIME   =   0.40     timestep for ELM

  volume/ion in A,a.u.               =     473.68      3196.58
  Fermi-wavevector in a.u.,A,eV,Ry     =   0.449797  0.849992  2.752691  0.202317
  Thomas-Fermi vector in A             =   1.430086
 
 Write flags
   LWAVE        =      F    write WAVECAR
   LDOWNSAMPLE  =      F    k-point downsampling of WAVECAR
   LCHARG       =      F    write CHGCAR
   LVTOT        =      F    write LOCPOT, total local potential
   LVHAR        =      F    write LOCPOT, Hartree potential only
   LELF         =      F    write electronic localiz. function (ELF)
   LORBIT       =      0    0 simple, 1 ext, 2 COOP (PROOUT), +10 PAW based schemes


 Dipole corrections
   LMONO  =      F    monopole corrections only (constant potential shift)
   LDIPOL =      F    correct potential (dipole corrections)
   IDIPOL =      0    1-x, 2-y, 3-z, 4-all directions 
   EPSILON=  1.0000000 bulk dielectric constant

 Exchange correlation treatment:
   GGA     =    RP    GGA type
   LEXCH   =     9    internal setting for exchange type
   VOSKOWN=      0    Vosko Wilk Nusair interpolation
   LHFCALC =     F    Hartree Fock is set to
   LHFONE  =     F    Hartree Fock one center treatment
   AEXX    =    0.0000 exact exchange contribution

 Linear response parameters
   LEPSILON=     F    determine dielectric tensor
   LRPA    =     F    only Hartree local field effects (RPA)
   LNABLA  =     F    use nabla operator in PAW spheres
   LVEL    =     F    velocity operator in full k-point grid
   LINTERFAST=   F  fast interpolation
   KINTER  =     0    interpolate to denser k-point grid
   CSHIFT  =0.1000    complex shift for real part using Kramers Kronig
   OMEGAMAX=  -1.0    maximum frequency
   DEG_THRESHOLD= 0.2000000E-02 threshold for treating states as degnerate
   RTIME   =   -0.100 relaxation time in fs
  (WPLASMAI=    0.000 imaginary part of plasma frequency in eV, 0.658/RTIME)
   DFIELD  = 0.0000000 0.0000000 0.0000000 field for delta impulse in time
 
 Orbital magnetization related:
   ORBITALMAG=     F  switch on orbital magnetization
   LCHIMAG   =     F  perturbation theory with respect to B field
   DQ        =  0.001000  dq finite difference perturbation B field
   LLRAUG    =     F  two centre corrections for induced B field



--------------------------------------------------------------------------------------------------------


 Static calculation
 charge density and potential will be updated during run
 non-spin polarized calculation
 RMM-DIIS sequential band-by-band and
  variant of blocked Davidson during initial phase
 perform sub-space diagonalisation
    before iterative eigenvector-optimisation
 modified Broyden-mixing scheme, WC =      100.0
 initial mixing is a Kerker type mixing with AMIX =  0.4000 and BMIX =      1.0000
 Hartree-type preconditioning will be used
 using additional bands           56
 real space projection scheme for non local part
 use partial core corrections
 calculate Harris-corrections to forces 
   (improved forces if not selfconsistent)
 use gradient corrections 
 use of overlap-Matrix (Vanderbilt PP)
 Methfessel and Paxton  Order N= 2 SIGMA  =   0.20


--------------------------------------------------------------------------------------------------------


  energy-cutoff  :      400.00
  volume of cell :    27000.00
      direct lattice vectors                 reciprocal lattice vectors
    30.000000000  0.000000000  0.000000000     0.033333333  0.000000000  0.000000000
     0.000000000 30.000000000  0.000000000     0.000000000  0.033333333  0.000000000
     0.000000000  0.000000000 30.000000000     0.000000000  0.000000000  0.033333333

  length of vectors
    30.000000000 30.000000000 30.000000000     0.033333333  0.033333333  0.033333333


 
 k-points in units of 2pi/SCALE and weight: K-points                                
   0.00000000  0.00000000  0.00000000       1.000
 
 k-points in reciprocal lattice and weights: K-points                                
   0.00000000  0.00000000  0.00000000       1.000
 
 position of ions in fractional coordinates (direct lattice) 
   0.44576020  0.32826710  0.41691983
   0.67173288  0.55423978  0.41691983
   0.55423980  0.32826710  0.41691983
   0.32826712  0.55423978  0.41691983
   0.50000000  0.38250690  0.34021317
   0.50000000  0.38250690  0.65978680
   0.50000000  0.27609440  0.50000000
   0.27609443  0.49999998  0.50000000
   0.72390557  0.49999998  0.50000000
   0.50000000  0.72390555  0.50000000
   0.61195280  0.38804720  0.34167483
   0.61195280  0.38804720  0.65832513
   0.38804722  0.61195278  0.34167483
   0.38804722  0.61195278  0.65832513
   0.38804720  0.38804720  0.34167483
   0.38804720  0.38804720  0.65832513
   0.61195278  0.61195278  0.34167483
   0.61195278  0.61195278  0.65832513
   0.44576020  0.32826710  0.58308023
   0.67173288  0.55423978  0.58308023
   0.55791699  0.44208301  0.41809300
   0.32826705  0.44576024  0.41691983
   0.55423973  0.67173293  0.41691983
   0.55423980  0.32826710  0.58308023
   0.32826712  0.55423978  0.58308023
   0.67173295  0.44576024  0.41691983
   0.44576027  0.67173293  0.41691983
   0.44208301  0.44208301  0.41809300
   0.50000000  0.38416601  0.50000000
   0.61749315  0.50000005  0.34021317
   0.61749315  0.50000005  0.65978680
   0.38250685  0.50000005  0.34021317
   0.38250685  0.50000005  0.65978680
   0.38317830  0.38317830  0.50000000
   0.61682172  0.61682172  0.50000000
   0.61682170  0.38317830  0.50000000
   0.38317828  0.61682172  0.50000000
   0.50000000  0.50000000  0.33478917
   0.50000000  0.50000000  0.66521087
   0.32826705  0.44576024  0.58308023
   0.55423973  0.67173293  0.58308023
   0.55791699  0.44208301  0.58190703
   0.44208298  0.55791702  0.41809300
   0.44208301  0.44208301  0.58190703
   0.67173295  0.44576024  0.58308023
   0.44576027  0.67173293  0.58308023
   0.55791702  0.55791702  0.41809300
   0.38416599  0.50000002  0.50000000
   0.61583401  0.50000002  0.50000000
   0.50000000  0.61749319  0.34021317
   0.50000000  0.61749319  0.65978680
   0.50000000  0.50000000  0.50000000
   0.44208298  0.55791702  0.58190703
   0.55791702  0.55791702  0.58190703
   0.50000000  0.61583404  0.50000000
   0.52818917  0.31564203  0.72112433
   0.53185323  0.29167897  0.74986637
 
 position of ions in cartesian coordinates  (Angst):
  13.37280588  9.84801292 12.50759500
  20.15198637 16.62719342 12.50759500
  16.62719412  9.84801292 12.50759500
   9.84801363 16.62719342 12.50759500
  15.00000000 11.47520705 10.20639500
  15.00000000 11.47520705 19.79360400
  15.00000000  8.28283206 15.00000000
   8.28283277 14.99999929 15.00000000
  21.71716723 14.99999929 15.00000000
  15.00000000 21.71716652 14.99999999
  18.35858397 11.64141603 10.25024500
  18.35858397 11.64141603 19.74975399
  11.64141674 18.35858326 10.25024500
  11.64141674 18.35858326 19.74975400
  11.64141603 11.64141603 10.25024500
  11.64141603 11.64141603 19.74975400
  18.35858326 18.35858326 10.25024500
  18.35858326 18.35858326 19.74975400
  13.37280588  9.84801291 17.49240700
  20.15198638 16.62719341 17.49240700
  16.73750985 13.26249015 12.54279000
   9.84801151 13.37280729 12.50759500
  16.62719200 20.15198779 12.50759500
  16.62719412  9.84801292 17.49240700
   9.84801363 16.62719342 17.49240700
  20.15198849 13.37280729 12.50759500
  13.37280800 20.15198779 12.50759500
  13.26249015 13.26249015 12.54279000
  15.00000000 11.52498029 15.00000000
  18.52479437 15.00000140 10.20639500
  18.52479437 15.00000141 19.79360400
  11.47520562 15.00000141 10.20639501
  11.47520563 15.00000141 19.79360400
  11.49534898 11.49534898 15.00000000
  18.50465172 18.50465172 15.00000000
  18.50465102 11.49534898 15.00000000
  11.49534828 18.50465172 15.00000000
  15.00000000 15.00000000 10.04367500
  15.00000000 15.00000000 19.95632599
   9.84801151 13.37280729 17.49240700
  16.62719200 20.15198779 17.49240700
  16.73750985 13.26249015 17.45721100
  13.26248944 16.73751056 12.54279001
  13.26249015 13.26249015 17.45721100
  20.15198849 13.37280729 17.49240699
  13.37280800 20.15198779 17.49240700
  16.73751056 16.73751056 12.54279000
  11.52497959 15.00000071 15.00000000
  18.47502041 15.00000071 15.00000000
  14.99999999 18.52479579 10.20639500
  15.00000000 18.52479578 19.79360400
  15.00000000 15.00000000 15.00000000
  13.26248944 16.73751057 17.45721101
  16.73751056 16.73751057 17.45721100
  15.00000000 18.47502112 15.00000000
  15.84567500  9.46926100 21.63373000
  15.95559700  8.75036900 22.49599100
 


--------------------------------------------------------------------------------------------------------


 k-point  1 :   0.0000 0.0000 0.0000  plane waves:  490521

 maximum and minimum number of plane-waves per node :    490521   490521

 maximum number of plane-waves:    490521
 maximum index in each direction: 
   IXMAX=   48   IYMAX=   48   IZMAX=   48
   IXMIN=  -48   IYMIN=  -48   IZMIN=  -48


 serial   3D FFT for wavefunctions
 parallel 3D FFT for charge:
    minimum data exchange during FFTs selected (reduces bandwidth)


 total amount of memory used by VASP MPI-rank0  5486941. kBytes
=======================================================================

   base      :      30000. kBytes
   nonlr-proj:      17126. kBytes
   fftplans  :     924480. kBytes
   grid      :    1872000. kBytes
   one-center:        886. kBytes
   wavefun   :    2642449. kBytes
 
     INWAV:  cpu time    0.0002: real time    0.0005
 Broyden mixing: mesh for mixing (old mesh)
   NGX = 97   NGY = 97   NGZ = 97
  (NGX  =300   NGY  =300   NGZ  =300)
  gives a total of 912673 points

 initial charge density was supplied:
 charge density of overlapping atoms calculated
 number of electron     560.0000000 magnetization 
 keeping initial charge density in first step


--------------------------------------------------------------------------------------------------------


 Maximum index for non-local projection operator         1763
 Maximum index for augmentation-charges         5898 (set IRDMAX)


--------------------------------------------------------------------------------------------------------


 First call to EWALD:  gamma=   0.059
 Maximum number of real-space cells 3x 3x 3
 Maximum number of reciprocal cells 3x 3x 3

    FEWALD:  cpu time    0.0171: real time    0.0171


--------------------------------------- Iteration      1(   1)  ---------------------------------------


    POTLOK:  cpu time   16.6310: real time   16.6355
    SETDIJ:  cpu time    0.1288: real time    0.1288
     EDDAV:  cpu time  497.5073: real time  497.7009
       DOS:  cpu time    0.0016: real time    0.0016
    --------------------------------------------
      LOOP:  cpu time  514.2687: real time  514.4669

 eigenvalue-minimisations  :   688
 total energy-change (2. order) : 0.4381167E+04  (-0.1004841E+05)
 number of electron     560.0000000 magnetization 
 augmentation part      560.0000000 magnetization 

 Free energy of the ion-electron system (eV)
  ---------------------------------------------------
  alpha Z        PSCENC =        75.25431677
  Ewald energy   TEWEN  =    137106.84295189
  -Hartree energ DENC   =   -180475.25612567
  -exchange      EXHF   =         0.00000000
  -V(xc)+E(xc)   XCENC  =     -1704.09210522
  PAW double counting   =     44873.02882129   -41398.84523641
  entropy T*S    EENTRO =         0.03183796
  eigenvalues    EBANDS =       817.69699786
  atomic energy  EATOM  =     45086.50549395
  Solvation  Ediel_sol  =         0.00000000
  ---------------------------------------------------
  free energy    TOTEN  =      4381.16695242 eV

  energy without entropy =     4381.13511446  energy(sigma->0) =     4381.15899293


--------------------------------------------------------------------------------------------------------




--------------------------------------- Iteration      1(   2)  ---------------------------------------


     EDDAV:  cpu time  798.5614: real time  798.6198
       DOS:  cpu time    0.0016: real time    0.0016
    --------------------------------------------
      LOOP:  cpu time  798.5630: real time  798.6214

 eigenvalue-minimisations  :  1232
 total energy-change (2. order) :-0.2372502E+04  (-0.2134298E+04)
 number of electron     560.0000000 magnetization 
 augmentation part      560.0000000 magnetization 

 Free energy of the ion-electron system (eV)
  ---------------------------------------------------
  alpha Z        PSCENC =        75.25431677
  Ewald energy   TEWEN  =    137106.84295189
  -Hartree energ DENC   =   -180475.25612567
  -exchange      EXHF   =         0.00000000
  -V(xc)+E(xc)   XCENC  =     -1704.09210522
  PAW double counting   =     44873.02882129   -41398.84523641
  entropy T*S    EENTRO =        -0.03649297
  eigenvalues    EBANDS =     -1554.73665201
  atomic energy  EATOM  =     45086.50549395
  Solvation  Ediel_sol  =         0.00000000
  ---------------------------------------------------
  free energy    TOTEN  =      2008.66497162 eV

  energy without entropy =     2008.70146459  energy(sigma->0) =     2008.67409486


--------------------------------------------------------------------------------------------------------




--------------------------------------- Iteration      1(   3)  ---------------------------------------


     EDDAV:  cpu time  654.7525: real time  654.7948
       DOS:  cpu time    0.0014: real time    0.0014
    --------------------------------------------
      LOOP:  cpu time  654.7538: real time  654.7961

 eigenvalue-minimisations  :   984
 total energy-change (2. order) :-0.1769672E+04  (-0.1662057E+04)
 number of electron     560.0000000 magnetization 
 augmentation part      560.0000000 magnetization 

 Free energy of the ion-electron system (eV)
  ---------------------------------------------------
  alpha Z        PSCENC =        75.25431677
  Ewald energy   TEWEN  =    137106.84295189
  -Hartree energ DENC   =   -180475.25612567
  -exchange      EXHF   =         0.00000000
  -V(xc)+E(xc)   XCENC  =     -1704.09210522
  PAW double counting   =     44873.02882129   -41398.84523641
  entropy T*S    EENTRO =        -0.03984754
  eigenvalues    EBANDS =     -3324.40569830
  atomic energy  EATOM  =     45086.50549395
  Solvation  Ediel_sol  =         0.00000000
  ---------------------------------------------------
  free energy    TOTEN  =       238.99257076 eV

  energy without entropy =      239.03241830  energy(sigma->0) =      239.00253265


--------------------------------------------------------------------------------------------------------




--------------------------------------- Iteration      1(   4)  ---------------------------------------


     EDDAV:  cpu time  567.4450: real time  567.4805
       DOS:  cpu time    0.0015: real time    0.0014
    --------------------------------------------
      LOOP:  cpu time  567.4464: real time  567.4820

 eigenvalue-minimisations  :   832
 total energy-change (2. order) :-0.3713742E+03  (-0.3136235E+03)
 number of electron     560.0000000 magnetization 
 augmentation part      560.0000000 magnetization 

 Free energy of the ion-electron system (eV)
  ---------------------------------------------------
  alpha Z        PSCENC =        75.25431677
  Ewald energy   TEWEN  =    137106.84295189
  -Hartree energ DENC   =   -180475.25612567
  -exchange      EXHF   =         0.00000000
  -V(xc)+E(xc)   XCENC  =     -1704.09210522
  PAW double counting   =     44873.02882129   -41398.84523641
  entropy T*S    EENTRO =        -0.01764142
  eigenvalues    EBANDS =     -3695.80210141
  atomic energy  EATOM  =     45086.50549395
  Solvation  Ediel_sol  =         0.00000000
  ---------------------------------------------------
  free energy    TOTEN  =      -132.38162622 eV

  energy without entropy =     -132.36398480  energy(sigma->0) =     -132.37721587


--------------------------------------------------------------------------------------------------------




--------------------------------------- Iteration      1(   5)  ---------------------------------------


     EDDAV:  cpu time  679.1058: real time  679.1503
       DOS:  cpu time    0.0016: real time    0.0016
    CHARGE:  cpu time   29.9640: real time   29.9655
    MIXING:  cpu time    0.4919: real time    0.4920
    --------------------------------------------
      LOOP:  cpu time  709.5634: real time  709.6095

 eigenvalue-minimisations  :  1032
 total energy-change (2. order) :-0.4595552E+02  (-0.3788100E+02)
 number of electron     559.9999842 magnetization 
 augmentation part      245.2280705 magnetization 

 Broyden mixing:
  rms(total) = 0.13893E+01    rms(broyden)= 0.13883E+01
  rms(prec ) = 0.14931E+01
  weight for this iteration     100.00

 Free energy of the ion-electron system (eV)
  ---------------------------------------------------
  alpha Z        PSCENC =        75.25431677
  Ewald energy   TEWEN  =    137106.84295189
  -Hartree energ DENC   =   -180475.25612567
  -exchange      EXHF   =         0.00000000
  -V(xc)+E(xc)   XCENC  =     -1704.09210522
  PAW double counting   =     44873.02882129   -41398.84523641
  entropy T*S    EENTRO =         0.52232776
  eigenvalues    EBANDS =     -3742.29759154
  atomic energy  EATOM  =     45086.50549395
  Solvation  Ediel_sol  =         0.00000000
  ---------------------------------------------------
  free energy    TOTEN  =      -178.33714717 eV

  energy without entropy =     -178.85947494  energy(sigma->0) =     -178.46772911


--------------------------------------------------------------------------------------------------------




--------------------------------------- Iteration      1(   6)  ---------------------------------------


    POTLOK:  cpu time   15.2958: real time   15.2986
    SETDIJ:  cpu time    0.1321: real time    0.1322
    EDDIAG:  cpu time   95.3973: real time   95.4039
  RMM-DIIS:  cpu time  229.5716: real time  229.5899
    ORTHCH:  cpu time   25.2609: real time   25.2621
       DOS:  cpu time    0.0017: real time    0.0017
    CHARGE:  cpu time   31.4778: real time   31.4794
    MIXING:  cpu time    0.5275: real time    0.5275
    --------------------------------------------
      LOOP:  cpu time  397.6648: real time  397.6954

 eigenvalue-minimisations  :   728
 total energy-change (2. order) : 0.4793104E+00  (-0.5127576E+01)
 number of electron     559.9999867 magnetization 
 augmentation part      240.7679580 magnetization 

 Broyden mixing:
  rms(total) = 0.20142E+01    rms(broyden)= 0.20140E+01
  rms(prec ) = 0.23319E+01
  weight for this iteration     100.00

 eigenvalues of (default mixing * dielectric matrix)
  average eigenvalue GAMMA=   0.3575
  0.3575

 Free energy of the ion-electron system (eV)
  ---------------------------------------------------
  alpha Z        PSCENC =        75.25431677
  Ewald energy   TEWEN  =    137106.84295189
  -Hartree energ DENC   =   -180884.76246986
  -exchange      EXHF   =         0.00000000
  -V(xc)+E(xc)   XCENC  =     -1697.82920569
  PAW double counting   =     45615.87181343   -42114.48939523
  entropy T*S    EENTRO =        -0.20267339
  eigenvalues    EBANDS =     -3365.04866869
  atomic energy  EATOM  =     45086.50549395
  Solvation  Ediel_sol  =         0.00000000
  ---------------------------------------------------
  free energy    TOTEN  =      -177.85783680 eV

  energy without entropy =     -177.65516342  energy(sigma->0) =     -177.80716846


--------------------------------------------------------------------------------------------------------




--------------------------------------- Iteration      1(   7)  ---------------------------------------


    POTLOK:  cpu time   15.3571: real time   15.3596
    SETDIJ:  cpu time    0.1324: real time    0.1324
    EDDIAG:  cpu time   96.4612: real time   96.4671
  RMM-DIIS:  cpu time  268.5891: real time  268.6091
    ORTHCH:  cpu time   25.6728: real time   25.6747
       DOS:  cpu time    0.0018: real time    0.0017
    CHARGE:  cpu time   32.4085: real time   32.4101
    MIXING:  cpu time    0.5625: real time    0.5626
    --------------------------------------------
      LOOP:  cpu time  439.1853: real time  439.2173

 eigenvalue-minimisations  :   842
 total energy-change (2. order) :-0.1757073E+01  (-0.1789007E+01)
 number of electron     559.9999807 magnetization 
 augmentation part      240.6042677 magnetization 

 Broyden mixing:
  rms(total) = 0.20221E+01    rms(broyden)= 0.20218E+01
  rms(prec ) = 0.24510E+01
  weight for this iteration     100.00

 eigenvalues of (default mixing * dielectric matrix)
  average eigenvalue GAMMA=   0.3522
  0.5501  0.1543

 Free energy of the ion-electron system (eV)
  ---------------------------------------------------
  alpha Z        PSCENC =        75.25431677
  Ewald energy   TEWEN  =    137106.84295189
  -Hartree energ DENC   =   -180976.65002665
  -exchange      EXHF   =         0.00000000
  -V(xc)+E(xc)   XCENC  =     -1697.95761840
  PAW double counting   =     45679.72165271   -42175.34411495
  entropy T*S    EENTRO =        -0.08643759
  eigenvalues    EBANDS =     -3277.90112741
  atomic energy  EATOM  =     45086.50549395
  Solvation  Ediel_sol  =         0.00000000
  ---------------------------------------------------
  free energy    TOTEN  =      -179.61490968 eV

  energy without entropy =     -179.52847209  energy(sigma->0) =     -179.59330028


--------------------------------------------------------------------------------------------------------




--------------------------------------- Iteration      1(   8)  ---------------------------------------


    POTLOK:  cpu time   15.5273: real time   15.5298
    SETDIJ:  cpu time    0.1316: real time    0.1316
    EDDIAG:  cpu time   96.0490: real time   96.0668
  RMM-DIIS:  cpu time  255.1001: real time  255.1749
    ORTHCH:  cpu time   25.7600: real time   25.7680
       DOS:  cpu time    0.0017: real time    0.0017
    CHARGE:  cpu time   32.5329: real time   32.5425
    MIXING:  cpu time    0.6201: real time    0.6201
    --------------------------------------------
      LOOP:  cpu time  425.7229: real time  425.8356

 eigenvalue-minimisations  :   785
 total energy-change (2. order) :-0.3709474E+01  (-0.6124892E+00)
 number of electron     559.9999841 magnetization 
 augmentation part      240.0994671 magnetization 

 Broyden mixing:
  rms(total) = 0.26734E+01    rms(broyden)= 0.26731E+01
  rms(prec ) = 0.32089E+01
  weight for this iteration     100.00

 eigenvalues of (default mixing * dielectric matrix)
  average eigenvalue GAMMA=   0.3268
  0.7074  0.1512  0.1217

 Free energy of the ion-electron system (eV)
  ---------------------------------------------------
  alpha Z        PSCENC =        75.25431677
  Ewald energy   TEWEN  =    137106.84295189
  -Hartree energ DENC   =   -181017.72298257
  -exchange      EXHF   =         0.00000000
  -V(xc)+E(xc)   XCENC  =     -1697.86737583
  PAW double counting   =     45741.73672588   -42234.24823754
  entropy T*S    EENTRO =        -0.16091266
  eigenvalues    EBANDS =     -3243.66436331
  atomic energy  EATOM  =     45086.50549395
  Solvation  Ediel_sol  =         0.00000000
  ---------------------------------------------------
  free energy    TOTEN  =      -183.32438343 eV

  energy without entropy =     -183.16347077  energy(sigma->0) =     -183.28415526


--------------------------------------------------------------------------------------------------------




--------------------------------------- Iteration      1(   9)  ---------------------------------------


    POTLOK:  cpu time   15.7715: real time   15.7748
    SETDIJ:  cpu time    0.1326: real time    0.1326
    EDDIAG:  cpu time   95.7326: real time   95.7624
  RMM-DIIS:  cpu time  240.0857: real time  240.1199
    ORTHCH:  cpu time   25.7307: real time   25.7325
       DOS:  cpu time    0.0018: real time    0.0018
    CHARGE:  cpu time   33.2238: real time   33.2265
    MIXING:  cpu time    0.6192: real time    0.6193
    --------------------------------------------
      LOOP:  cpu time  411.2979: real time  411.3697

 eigenvalue-minimisations  :   735
 total energy-change (2. order) : 0.1431899E+01  (-0.4402010E+00)
 number of electron     559.9999856 magnetization 
 augmentation part      240.6472123 magnetization 

 Broyden mixing:
  rms(total) = 0.24494E+01    rms(broyden)= 0.24489E+01
  rms(prec ) = 0.28328E+01
  weight for this iteration     100.00

 eigenvalues of (default mixing * dielectric matrix)
  average eigenvalue GAMMA=   0.3061
  0.8199  0.1505  0.1505  0.1034

 Free energy of the ion-electron system (eV)
  ---------------------------------------------------
  alpha Z        PSCENC =        75.25431677
  Ewald energy   TEWEN  =    137106.84295189
  -Hartree energ DENC   =   -181040.12217928
  -exchange      EXHF   =         0.00000000
  -V(xc)+E(xc)   XCENC  =     -1697.81544531
  PAW double counting   =     45793.57649115   -42283.57961492
  entropy T*S    EENTRO =        -0.18213871
  eigenvalues    EBANDS =     -3222.37236030
  atomic energy  EATOM  =     45086.50549395
  Solvation  Ediel_sol  =         0.00000000
  ---------------------------------------------------
  free energy    TOTEN  =      -181.89248476 eV

  energy without entropy =     -181.71034604  energy(sigma->0) =     -181.84695008


--------------------------------------------------------------------------------------------------------




--------------------------------------- Iteration      1(  10)  ---------------------------------------


    POTLOK:  cpu time   15.5418: real time   15.5453
    SETDIJ:  cpu time    0.1323: real time    0.1323
    EDDIAG:  cpu time   97.0658: real time   97.0767
  RMM-DIIS:  cpu time  237.5730: real time  237.5971
    ORTHCH:  cpu time   25.7199: real time   25.7217
       DOS:  cpu time    0.0018: real time    0.0018
    CHARGE:  cpu time   32.7709: real time   32.7735
    MIXING:  cpu time    0.7303: real time    0.7304
    --------------------------------------------
      LOOP:  cpu time  409.5359: real time  409.5789

 eigenvalue-minimisations  :   728
 total energy-change (2. order) : 0.3539457E+01  (-0.2653862E+00)
 number of electron     559.9999838 magnetization 
 augmentation part      241.3638242 magnetization 

 Broyden mixing:
  rms(total) = 0.21433E+01    rms(broyden)= 0.21429E+01
  rms(prec ) = 0.25575E+01
  weight for this iteration     100.00

 eigenvalues of (default mixing * dielectric matrix)
  average eigenvalue GAMMA=   0.2724
  0.8560  0.1586  0.1586  0.0945  0.0945

 Free energy of the ion-electron system (eV)
  ---------------------------------------------------
  alpha Z        PSCENC =        75.25431677
  Ewald energy   TEWEN  =    137106.84295189
  -Hartree energ DENC   =   -181067.21671856
  -exchange      EXHF   =         0.00000000
  -V(xc)+E(xc)   XCENC  =     -1697.68215179
  PAW double counting   =     45835.70546672   -42323.80323552
  entropy T*S    EENTRO =        -0.14816380
  eigenvalues    EBANDS =     -3193.81098692
  atomic energy  EATOM  =     45086.50549395
  Solvation  Ediel_sol  =         0.00000000
  ---------------------------------------------------
  free energy    TOTEN  =      -178.35302726 eV

  energy without entropy =     -178.20486346  energy(sigma->0) =     -178.31598631


--------------------------------------------------------------------------------------------------------




--------------------------------------- Iteration      1(  11)  ---------------------------------------


    POTLOK:  cpu time   15.5389: real time   15.5418
    SETDIJ:  cpu time    0.1324: real time    0.1324
    EDDIAG:  cpu time   96.8824: real time   96.8907
  RMM-DIIS:  cpu time  237.6402: real time  237.6611
    ORTHCH:  cpu time   25.5507: real time   25.5521
       DOS:  cpu time    0.0018: real time    0.0018
    CHARGE:  cpu time   32.3841: real time   32.3859
    MIXING:  cpu time    0.7577: real time    0.7577
    --------------------------------------------
      LOOP:  cpu time  408.8882: real time  408.9235

 eigenvalue-minimisations  :   730
 total energy-change (2. order) : 0.1787940E+01  (-0.1117248E+00)
 number of electron     559.9999850 magnetization 
 augmentation part      241.6272723 magnetization 

 Broyden mixing:
  rms(total) = 0.16426E+01    rms(broyden)= 0.16423E+01
  rms(prec ) = 0.19017E+01
  weight for this iteration     100.00

 eigenvalues of (default mixing * dielectric matrix)
  average eigenvalue GAMMA=   0.2586
  0.8942  0.1857  0.1857  0.1324  0.0914  0.0619

 Free energy of the ion-electron system (eV)
  ---------------------------------------------------
  alpha Z        PSCENC =        75.25431677
  Ewald energy   TEWEN  =    137106.84295189
  -Hartree energ DENC   =   -181078.92771030
  -exchange      EXHF   =         0.00000000
  -V(xc)+E(xc)   XCENC  =     -1697.59481480
  PAW double counting   =     45854.81077352   -42341.89660485
  entropy T*S    EENTRO =        -0.10853254
  eigenvalues    EBANDS =     -3181.45096062
  atomic energy  EATOM  =     45086.50549395
  Solvation  Ediel_sol  =         0.00000000
  ---------------------------------------------------
  free energy    TOTEN  =      -176.56508698 eV

  energy without entropy =     -176.45655444  energy(sigma->0) =     -176.53795384


--------------------------------------------------------------------------------------------------------




--------------------------------------- Iteration      1(  12)  ---------------------------------------


    POTLOK:  cpu time   15.6870: real time   15.6904
    SETDIJ:  cpu time    0.1326: real time    0.1326
    EDDIAG:  cpu time   96.7712: real time   96.7788
  RMM-DIIS:  cpu time  232.6692: real time  232.6913
    ORTHCH:  cpu time   25.7108: real time   25.7144
       DOS:  cpu time    0.0019: real time    0.0019
    CHARGE:  cpu time   32.7401: real time   32.7438
    MIXING:  cpu time    0.7452: real time    0.7454
    --------------------------------------------
      LOOP:  cpu time  404.4580: real time  404.4985

 eigenvalue-minimisations  :   717
 total energy-change (2. order) : 0.1205383E+01  (-0.1086113E+00)
 number of electron     559.9999850 magnetization 
 augmentation part      241.7012937 magnetization 

 Broyden mixing:
  rms(total) = 0.10545E+01    rms(broyden)= 0.10541E+01
  rms(prec ) = 0.12062E+01
  weight for this iteration     100.00

 eigenvalues of (default mixing * dielectric matrix)
  average eigenvalue GAMMA=   0.2662
  0.9299  0.2676  0.2676  0.1186  0.1186  0.1023  0.0590

 Free energy of the ion-electron system (eV)
  ---------------------------------------------------
  alpha Z        PSCENC =        75.25431677
  Ewald energy   TEWEN  =    137106.84295189
  -Hartree energ DENC   =   -181096.42423761
  -exchange      EXHF   =         0.00000000
  -V(xc)+E(xc)   XCENC  =     -1697.37618133
  PAW double counting   =     45880.35250064   -42366.09004042
  entropy T*S    EENTRO =        -0.11433515
  eigenvalues    EBANDS =     -3164.31017321
  atomic energy  EATOM  =     45086.50549395
  Solvation  Ediel_sol  =         0.00000000
  ---------------------------------------------------
  free energy    TOTEN  =      -175.35970447 eV

  energy without entropy =     -175.24536932  energy(sigma->0) =     -175.33112068


--------------------------------------------------------------------------------------------------------




--------------------------------------- Iteration      1(  13)  ---------------------------------------


    POTLOK:  cpu time   15.8351: real time   15.8389
    SETDIJ:  cpu time    0.1317: real time    0.1317
    EDDIAG:  cpu time   98.7449: real time   98.7578
  RMM-DIIS:  cpu time  263.5383: real time  263.5761
    ORTHCH:  cpu time   27.7378: real time   27.7412
       DOS:  cpu time    0.0019: real time    0.0019
    CHARGE:  cpu time   36.9716: real time   36.9763
    MIXING:  cpu time    1.0286: real time    1.0288
    --------------------------------------------
      LOOP:  cpu time  443.9899: real time  444.0527

 eigenvalue-minimisations  :   721
 total energy-change (2. order) : 0.8633045E-01  (-0.9581235E-01)
 number of electron     559.9999836 magnetization 
 augmentation part      241.5587586 magnetization 

 Broyden mixing:
  rms(total) = 0.12734E+01    rms(broyden)= 0.12732E+01
  rms(prec ) = 0.14628E+01
  weight for this iteration     100.00

 eigenvalues of (default mixing * dielectric matrix)
  average eigenvalue GAMMA=   0.2983
  1.0363  0.5659  0.2727  0.1267  0.1267  0.1017  0.1017  0.0547

 Free energy of the ion-electron system (eV)
  ---------------------------------------------------
  alpha Z        PSCENC =        75.25431677
  Ewald energy   TEWEN  =    137106.84295189
  -Hartree energ DENC   =   -181127.29574122
  -exchange      EXHF   =         0.00000000
  -V(xc)+E(xc)   XCENC  =     -1696.97666066
  PAW double counting   =     45917.62471600   -42401.20964156
  entropy T*S    EENTRO =        -0.15764633
  eigenvalues    EBANDS =     -3135.86116286
  atomic energy  EATOM  =     45086.50549395
  Solvation  Ediel_sol  =         0.00000000
  ---------------------------------------------------
  free energy    TOTEN  =      -175.27337402 eV

  energy without entropy =     -175.11572769  energy(sigma->0) =     -175.23396244


--------------------------------------------------------------------------------------------------------




--------------------------------------- Iteration      1(  14)  ---------------------------------------


    POTLOK:  cpu time   17.1127: real time   17.1167
    SETDIJ:  cpu time    0.1372: real time    0.1372
    EDDIAG:  cpu time  106.2006: real time  106.2133
  RMM-DIIS:  cpu time  275.8567: real time  275.8882
    ORTHCH:  cpu time   27.8732: real time   27.8754
       DOS:  cpu time    0.0018: real time    0.0018
    CHARGE:  cpu time   38.8949: real time   38.8978
    MIXING:  cpu time    1.1446: real time    1.1448
    --------------------------------------------
      LOOP:  cpu time  467.2219: real time  467.2752

 eigenvalue-minimisations  :   715
 total energy-change (2. order) :-0.3913479E+00  (-0.1256026E+00)
 number of electron     559.9999836 magnetization 
 augmentation part      241.2321879 magnetization 

 Broyden mixing:
  rms(total) = 0.20923E+01    rms(broyden)= 0.20921E+01
  rms(prec ) = 0.23908E+01
  weight for this iteration     100.00

 eigenvalues of (default mixing * dielectric matrix)
  average eigenvalue GAMMA=   0.3059
  1.1698  0.7254  0.2519  0.1465  0.1465  0.0926  0.0926  0.0723  0.0552

 Free energy of the ion-electron system (eV)
  ---------------------------------------------------
  alpha Z        PSCENC =        75.25431677
  Ewald energy   TEWEN  =    137106.84295189
  -Hartree energ DENC   =   -181181.49567605
  -exchange      EXHF   =         0.00000000
  -V(xc)+E(xc)   XCENC  =     -1696.18921072
  PAW double counting   =     45986.50670196   -42466.05261469
  entropy T*S    EENTRO =        -0.10195893
  eigenvalues    EBANDS =     -3086.93472605
  atomic energy  EATOM  =     45086.50549395
  Solvation  Ediel_sol  =         0.00000000
  ---------------------------------------------------
  free energy    TOTEN  =      -175.66472188 eV

  energy without entropy =     -175.56276295  energy(sigma->0) =     -175.63923214


--------------------------------------------------------------------------------------------------------




--------------------------------------- Iteration      1(  15)  ---------------------------------------


    POTLOK:  cpu time   18.9562: real time   18.9596
    SETDIJ:  cpu time    0.1354: real time    0.1354
    EDDIAG:  cpu time  109.4333: real time  109.4456
  RMM-DIIS:  cpu time  284.0829: real time  284.1136
    ORTHCH:  cpu time   28.0210: real time   28.0231
       DOS:  cpu time    0.0019: real time    0.0018
    CHARGE:  cpu time   37.9266: real time   37.9295
    MIXING:  cpu time    1.2061: real time    1.2063
    --------------------------------------------
      LOOP:  cpu time  479.7635: real time  479.8149

 eigenvalue-minimisations  :   718
 total energy-change (2. order) : 0.3602680E+00  (-0.9303971E-01)
 number of electron     559.9999837 magnetization 
 augmentation part      240.9966361 magnetization 

 Broyden mixing:
  rms(total) = 0.17416E+01    rms(broyden)= 0.17413E+01
  rms(prec ) = 0.20927E+01
  weight for this iteration     100.00

 eigenvalues of (default mixing * dielectric matrix)
  average eigenvalue GAMMA=   0.3200
  1.3910  0.7928  0.2253  0.1953  0.1953  0.1008  0.1008  0.0795  0.0536  0.0653

 Free energy of the ion-electron system (eV)
  ---------------------------------------------------
  alpha Z        PSCENC =        75.25431677
  Ewald energy   TEWEN  =    137106.84295189
  -Hartree energ DENC   =   -181212.27711085
  -exchange      EXHF   =         0.00000000
  -V(xc)+E(xc)   XCENC  =     -1695.76088765
  PAW double counting   =     46024.81275882   -42502.16763686
  entropy T*S    EENTRO =         0.02596834
  eigenvalues    EBANDS =     -3058.54030826
  atomic energy  EATOM  =     45086.50549395
  Solvation  Ediel_sol  =         0.00000000
  ---------------------------------------------------
  free energy    TOTEN  =      -175.30445384 eV

  energy without entropy =     -175.33042218  energy(sigma->0) =     -175.31094592


--------------------------------------------------------------------------------------------------------




--------------------------------------- Iteration      1(  16)  ---------------------------------------


    POTLOK:  cpu time   19.4381: real time   19.4414
    SETDIJ:  cpu time    0.1368: real time    0.1368
    EDDIAG:  cpu time  107.2195: real time  107.2299
  RMM-DIIS:  cpu time  236.7585: real time  236.7812
    ORTHCH:  cpu time   25.2859: real time   25.2877
       DOS:  cpu time    0.0018: real time    0.0018
    CHARGE:  cpu time   31.9132: real time   31.9158
    MIXING:  cpu time    0.9948: real time    0.9948
    --------------------------------------------
      LOOP:  cpu time  421.7486: real time  421.7893

 eigenvalue-minimisations  :   713
 total energy-change (2. order) : 0.3648214E+00  (-0.8209647E-01)
 number of electron     559.9999846 magnetization 
 augmentation part      240.9629226 magnetization 

 Broyden mixing:
  rms(total) = 0.14645E+01    rms(broyden)= 0.14643E+01
  rms(prec ) = 0.17421E+01
  weight for this iteration     100.00

 eigenvalues of (default mixing * dielectric matrix)
  average eigenvalue GAMMA=   0.3182
  1.5195  0.8478  0.2233  0.2233  0.1946  0.1036  0.1036  0.0839  0.0839  0.0545
  0.0621

 Free energy of the ion-electron system (eV)
  ---------------------------------------------------
  alpha Z        PSCENC =        75.25431677
  Ewald energy   TEWEN  =    137106.84295189
  -Hartree energ DENC   =   -181238.64315716
  -exchange      EXHF   =         0.00000000
  -V(xc)+E(xc)   XCENC  =     -1695.43772074
  PAW double counting   =     46056.55810513   -42532.08182856
  entropy T*S    EENTRO =        -0.01630872
  eigenvalues    EBANDS =     -3033.92148505
  atomic energy  EATOM  =     45086.50549395
  Solvation  Ediel_sol  =         0.00000000
  ---------------------------------------------------
  free energy    TOTEN  =      -174.93963248 eV

  energy without entropy =     -174.92332376  energy(sigma->0) =     -174.93555530


--------------------------------------------------------------------------------------------------------




--------------------------------------- Iteration      1(  17)  ---------------------------------------


    POTLOK:  cpu time   15.6747: real time   15.6774
    SETDIJ:  cpu time    0.1326: real time    0.1326
    EDDIAG:  cpu time   96.5234: real time   96.5318
  RMM-DIIS:  cpu time  231.6511: real time  231.6680
    ORTHCH:  cpu time   25.2125: real time   25.2137
       DOS:  cpu time    0.0018: real time    0.0018
    CHARGE:  cpu time   32.0789: real time   32.0805
    MIXING:  cpu time    1.0452: real time    1.0452
    --------------------------------------------
      LOOP:  cpu time  402.3200: real time  402.3510

 eigenvalue-minimisations  :   722
 total energy-change (2. order) : 0.8814890E-01  (-0.5018161E-01)
 number of electron     559.9999845 magnetization 
 augmentation part      240.9793256 magnetization 

 Broyden mixing:
  rms(total) = 0.13535E+01    rms(broyden)= 0.13533E+01
  rms(prec ) = 0.16424E+01
  weight for this iteration     100.00

 eigenvalues of (default mixing * dielectric matrix)
  average eigenvalue GAMMA=   0.3224
  1.6045  0.9188  0.2940  0.2940  0.1539  0.1539  0.1003  0.1003  0.0722  0.0722
  0.0538  0.0514

 Free energy of the ion-electron system (eV)
  ---------------------------------------------------
  alpha Z        PSCENC =        75.25431677
  Ewald energy   TEWEN  =    137106.84295189
  -Hartree energ DENC   =   -181254.03359398
  -exchange      EXHF   =         0.00000000
  -V(xc)+E(xc)   XCENC  =     -1695.23379264
  PAW double counting   =     46073.20450130   -42547.58218553
  entropy T*S    EENTRO =         0.04651887
  eigenvalues    EBANDS =     -3019.85569422
  atomic energy  EATOM  =     45086.50549395
  Solvation  Ediel_sol  =         0.00000000
  ---------------------------------------------------
  free energy    TOTEN  =      -174.85148359 eV

  energy without entropy =     -174.89800246  energy(sigma->0) =     -174.86311331


--------------------------------------------------------------------------------------------------------




--------------------------------------- Iteration      1(  18)  ---------------------------------------


    POTLOK:  cpu time   15.3870: real time   15.3896
    SETDIJ:  cpu time    0.1326: real time    0.1326
    EDDIAG:  cpu time   96.7978: real time   96.8041
  RMM-DIIS:  cpu time  230.7756: real time  230.7928
    ORTHCH:  cpu time   25.2607: real time   25.2627
       DOS:  cpu time    0.0018: real time    0.0018
    CHARGE:  cpu time   31.6974: real time   31.6997
    MIXING:  cpu time    0.9826: real time    0.9826
    --------------------------------------------
      LOOP:  cpu time  401.0355: real time  401.0659

 eigenvalue-minimisations  :   721
 total energy-change (2. order) :-0.1023524E+00  (-0.3895123E-01)
 number of electron     559.9999838 magnetization 
 augmentation part      241.0898956 magnetization 

 Broyden mixing:
  rms(total) = 0.16153E+01    rms(broyden)= 0.16151E+01
  rms(prec ) = 0.19374E+01
  weight for this iteration     100.00

 eigenvalues of (default mixing * dielectric matrix)
  average eigenvalue GAMMA=   0.3219
  1.6043  1.0516  0.3469  0.3469  0.1625  0.1625  0.1019  0.1019  0.0743  0.0743
  0.0600  0.0562  0.0422

 Free energy of the ion-electron system (eV)
  ---------------------------------------------------
  alpha Z        PSCENC =        75.25431677
  Ewald energy   TEWEN  =    137106.84295189
  -Hartree energ DENC   =   -181263.74026617
  -exchange      EXHF   =         0.00000000
  -V(xc)+E(xc)   XCENC  =     -1695.12270948
  PAW double counting   =     46079.29257961   -42552.96157905
  entropy T*S    EENTRO =         0.12232833
  eigenvalues    EBANDS =     -3011.14695189
  atomic energy  EATOM  =     45086.50549395
  Solvation  Ediel_sol  =         0.00000000
  ---------------------------------------------------
  free energy    TOTEN  =      -174.95383604 eV

  energy without entropy =     -175.07616437  energy(sigma->0) =     -174.98441812


--------------------------------------------------------------------------------------------------------




--------------------------------------- Iteration      1(  19)  ---------------------------------------


    POTLOK:  cpu time   15.2727: real time   15.2760
    SETDIJ:  cpu time    0.1321: real time    0.1321
    EDDIAG:  cpu time   96.3669: real time   96.3751
  RMM-DIIS:  cpu time  229.3102: real time  229.3350
    ORTHCH:  cpu time   25.2897: real time   25.2917
       DOS:  cpu time    0.0018: real time    0.0018
    CHARGE:  cpu time   31.7518: real time   31.7553
    MIXING:  cpu time    1.0602: real time    1.0603
    --------------------------------------------
      LOOP:  cpu time  399.1855: real time  399.2272

 eigenvalue-minimisations  :   713
 total energy-change (2. order) : 0.5348892E+00  (-0.3346824E-01)
 number of electron     559.9999855 magnetization 
 augmentation part      241.1429450 magnetization 

 Broyden mixing:
  rms(total) = 0.93707E+00    rms(broyden)= 0.93693E+00
  rms(prec ) = 0.10593E+01
  weight for this iteration     100.00

 eigenvalues of (default mixing * dielectric matrix)
  average eigenvalue GAMMA=   0.3257
  1.6274  1.2111  0.3835  0.3835  0.1696  0.1696  0.1035  0.1035  0.1044  0.0683
  0.0683  0.0704  0.0548  0.0423

 Free energy of the ion-electron system (eV)
  ---------------------------------------------------
  alpha Z        PSCENC =        75.25431677
  Ewald energy   TEWEN  =    137106.84295189
  -Hartree energ DENC   =   -181275.23840516
  -exchange      EXHF   =         0.00000000
  -V(xc)+E(xc)   XCENC  =     -1695.05564024
  PAW double counting   =     46080.46980415   -42553.60849114
  entropy T*S    EENTRO =         0.02324781
  eigenvalues    EBANDS =     -2999.61222489
  atomic energy  EATOM  =     45086.50549395
  Solvation  Ediel_sol  =         0.00000000
  ---------------------------------------------------
  free energy    TOTEN  =      -174.41894685 eV

  energy without entropy =     -174.44219466  energy(sigma->0) =     -174.42475880


--------------------------------------------------------------------------------------------------------




--------------------------------------- Iteration      1(  20)  ---------------------------------------


    POTLOK:  cpu time   15.3199: real time   15.3245
    SETDIJ:  cpu time    0.1325: real time    0.1326
    EDDIAG:  cpu time   96.5418: real time   96.5518
  RMM-DIIS:  cpu time  226.6923: real time  226.7094
    ORTHCH:  cpu time   25.2020: real time   25.2032
       DOS:  cpu time    0.0018: real time    0.0018
    CHARGE:  cpu time   31.4389: real time   31.4405
    MIXING:  cpu time    1.0948: real time    1.0948
    --------------------------------------------
      LOOP:  cpu time  396.4239: real time  396.4585

 eigenvalue-minimisations  :   713
 total energy-change (2. order) : 0.2088938E+00  (-0.2823007E-01)
 number of electron     559.9999857 magnetization 
 augmentation part      241.2413585 magnetization 

 Broyden mixing:
  rms(total) = 0.85522E+00    rms(broyden)= 0.85508E+00
  rms(prec ) = 0.10075E+01
  weight for this iteration     100.00

 eigenvalues of (default mixing * dielectric matrix)
  average eigenvalue GAMMA=   0.3217
  1.7275  1.2157  0.4009  0.4009  0.1785  0.1785  0.1038  0.1038  0.1030  0.1030
  0.0886  0.0622  0.0622  0.0554  0.0422

 Free energy of the ion-electron system (eV)
  ---------------------------------------------------
  alpha Z        PSCENC =        75.25431677
  Ewald energy   TEWEN  =    137106.84295189
  -Hartree energ DENC   =   -181289.57985238
  -exchange      EXHF   =         0.00000000
  -V(xc)+E(xc)   XCENC  =     -1694.94853828
  PAW double counting   =     46081.87172149   -42554.37180972
  entropy T*S    EENTRO =        -0.05525555
  eigenvalues    EBANDS =     -2985.72908124
  atomic energy  EATOM  =     45086.50549395
  Solvation  Ediel_sol  =         0.00000000
  ---------------------------------------------------
  free energy    TOTEN  =      -174.21005307 eV

  energy without entropy =     -174.15479752  energy(sigma->0) =     -174.19623918


--------------------------------------------------------------------------------------------------------




--------------------------------------- Iteration      1(  21)  ---------------------------------------


    POTLOK:  cpu time   15.3052: real time   15.3079
    SETDIJ:  cpu time    0.1325: real time    0.1325
    EDDIAG:  cpu time   96.9512: real time   96.9578
  RMM-DIIS:  cpu time  229.5884: real time  229.6073
    ORTHCH:  cpu time   25.2908: real time   25.2920
       DOS:  cpu time    0.0018: real time    0.0018
    CHARGE:  cpu time   31.7754: real time   31.7769
    MIXING:  cpu time    1.1561: real time    1.1562
    --------------------------------------------
      LOOP:  cpu time  400.2014: real time  400.2323

 eigenvalue-minimisations  :   716
 total energy-change (2. order) : 0.1193224E+00  (-0.1641776E-01)
 number of electron     559.9999853 magnetization 
 augmentation part      241.2307236 magnetization 

 Broyden mixing:
  rms(total) = 0.74722E+00    rms(broyden)= 0.74707E+00
  rms(prec ) = 0.89606E+00
  weight for this iteration     100.00

 eigenvalues of (default mixing * dielectric matrix)
  average eigenvalue GAMMA=   0.3337
  1.8539  1.3358  0.4910  0.3030  0.3030  0.1697  0.1697  0.1385  0.1035  0.1035
  0.0761  0.0761  0.0597  0.0597  0.0538  0.0415

 Free energy of the ion-electron system (eV)
  ---------------------------------------------------
  alpha Z        PSCENC =        75.25431677
  Ewald energy   TEWEN  =    137106.84295189
  -Hartree energ DENC   =   -181300.99079326
  -exchange      EXHF   =         0.00000000
  -V(xc)+E(xc)   XCENC  =     -1694.83317046
  PAW double counting   =     46086.03171882   -42557.94924967
  entropy T*S    EENTRO =        -0.06677742
  eigenvalues    EBANDS =     -2974.88522133
  atomic energy  EATOM  =     45086.50549395
  Solvation  Ediel_sol  =         0.00000000
  ---------------------------------------------------
  free energy    TOTEN  =      -174.09073070 eV

  energy without entropy =     -174.02395328  energy(sigma->0) =     -174.07403634


--------------------------------------------------------------------------------------------------------




--------------------------------------- Iteration      1(  22)  ---------------------------------------


    POTLOK:  cpu time   15.2795: real time   15.2819
    SETDIJ:  cpu time    0.1332: real time    0.1332
    EDDIAG:  cpu time   95.9072: real time   95.9161
  RMM-DIIS:  cpu time  230.7972: real time  230.8184
    ORTHCH:  cpu time   25.3411: real time   25.3424
       DOS:  cpu time    0.0019: real time    0.0019
    CHARGE:  cpu time   31.5583: real time   31.5599
    MIXING:  cpu time    1.2194: real time    1.2195
    --------------------------------------------
      LOOP:  cpu time  400.2380: real time  400.2732

 eigenvalue-minimisations  :   717
 total energy-change (2. order) : 0.9659621E-01  (-0.1961761E-01)
 number of electron     559.9999851 magnetization 
 augmentation part      241.1175625 magnetization 

 Broyden mixing:
  rms(total) = 0.58260E+00    rms(broyden)= 0.58243E+00
  rms(prec ) = 0.66824E+00
  weight for this iteration     100.00

 eigenvalues of (default mixing * dielectric matrix)
  average eigenvalue GAMMA=   0.3529
  2.1300  1.2472  0.7881  0.3327  0.3327  0.1688  0.1688  0.1445  0.1030  0.1030
  0.1187  0.0730  0.0730  0.0601  0.0601  0.0535  0.0414

 Free energy of the ion-electron system (eV)
  ---------------------------------------------------
  alpha Z        PSCENC =        75.25431677
  Ewald energy   TEWEN  =    137106.84295189
  -Hartree energ DENC   =   -181327.22738464
  -exchange      EXHF   =         0.00000000
  -V(xc)+E(xc)   XCENC  =     -1694.57481862
  PAW double counting   =     46090.77938332   -42561.61248442
  entropy T*S    EENTRO =        -0.08323327
  eigenvalues    EBANDS =     -2949.87835947
  atomic energy  EATOM  =     45086.50549395
  Solvation  Ediel_sol  =         0.00000000
  ---------------------------------------------------
  free energy    TOTEN  =      -173.99413450 eV

  energy without entropy =     -173.91090122  energy(sigma->0) =     -173.97332618


--------------------------------------------------------------------------------------------------------




--------------------------------------- Iteration      1(  23)  ---------------------------------------


    POTLOK:  cpu time   15.3819: real time   15.3846
    SETDIJ:  cpu time    0.1329: real time    0.1329
    EDDIAG:  cpu time   97.0358: real time   97.0417
  RMM-DIIS:  cpu time  228.7704: real time  228.7873
    ORTHCH:  cpu time   25.3236: real time   25.3248
       DOS:  cpu time    0.0018: real time    0.0018
    CHARGE:  cpu time   31.0472: real time   31.0488
    MIXING:  cpu time    1.2671: real time    1.2672
    --------------------------------------------
      LOOP:  cpu time  398.9607: real time  398.9891

 eigenvalue-minimisations  :   710
 total energy-change (2. order) : 0.8657510E-01  (-0.1528712E-01)
 number of electron     559.9999849 magnetization 
 augmentation part      241.1963245 magnetization 

 Broyden mixing:
  rms(total) = 0.51376E+00    rms(broyden)= 0.51361E+00
  rms(prec ) = 0.60392E+00
  weight for this iteration     100.00

 eigenvalues of (default mixing * dielectric matrix)
  average eigenvalue GAMMA=   0.3562
  2.1673  1.3964  0.8197  0.3492  0.3492  0.2026  0.1704  0.1704  0.1288  0.1031
[...]
 -0.007  -0.012   0.004   0.004   0.006  -0.006  -0.011   0.004
 -0.011  -0.020   0.006   0.007   0.009  -0.011  -0.019   0.006
 -0.015  -0.005   0.013   0.000   0.022  -0.014  -0.005   0.012
  0.000  -0.023  -0.006  -0.015  -0.000   0.000  -0.022  -0.006
 -0.022   0.000   0.009  -0.005  -0.016  -0.022   0.000   0.008
 -0.017  -0.006   0.015   0.000   0.027  -0.017  -0.006   0.015
  0.000  -0.027  -0.007  -0.018  -0.000   0.000  -0.027  -0.007
 -0.027   0.000   0.010  -0.006  -0.019  -0.026   0.000   0.010
 total augmentation occupancy for first ion, spin component:           1
  1.537  -0.030   0.005   0.017   0.024   0.076  -0.008  -0.002   0.036  -0.010   0.092  -0.031   0.012   0.002   0.002  -0.019
 -0.030   1.402   0.029   0.070   0.000  -0.007   0.071   0.011  -0.014  -0.008   0.217  -0.065   0.019   0.001   0.002  -0.006
  0.005   0.029   1.543   0.001   0.001  -0.002   0.012   0.074  -0.012   0.017  -0.054   0.018  -0.003  -0.007  -0.005   0.016
  0.017   0.070   0.001   1.338   0.044   0.033  -0.013  -0.012   0.091  -0.023  -0.082   0.021  -0.001  -0.009  -0.004   0.001
  0.024   0.000   0.001   0.044   1.440  -0.010  -0.009   0.016  -0.022   0.067  -0.096   0.031  -0.002  -0.010  -0.010   0.026
  0.076  -0.007  -0.002   0.033  -0.010   0.217   0.019  -0.002  -0.045   0.004  -0.048   0.002   0.017  -0.010   0.034  -0.004
 -0.008   0.071   0.012  -0.013  -0.009   0.019   0.263  -0.023  -0.003   0.006  -0.109   0.007  -0.001   0.051  -0.010  -0.000
 -0.002   0.011   0.074  -0.012   0.016  -0.002  -0.023   0.215   0.014  -0.020   0.028  -0.001  -0.012   0.009  -0.018   0.003
  0.036  -0.014  -0.012   0.091  -0.022  -0.045  -0.003   0.014   0.260   0.007   0.043  -0.004  -0.009   0.036   0.004   0.000
 -0.010  -0.008   0.017  -0.023   0.067   0.004   0.006  -0.020   0.007   0.258   0.046  -0.002  -0.038   0.002   0.049   0.007
  0.092   0.217  -0.054  -0.082  -0.096  -0.048  -0.109   0.028   0.043   0.046   0.949  -0.141   0.084   0.014   0.064  -0.013
 -0.031  -0.065   0.018   0.021   0.031   0.002   0.007  -0.001  -0.004  -0.002  -0.141   0.023  -0.014  -0.003  -0.010   0.003
  0.012   0.019  -0.003  -0.001  -0.002   0.017  -0.001  -0.012  -0.009  -0.038   0.084  -0.014   0.029  -0.008  -0.004  -0.003
  0.002   0.001  -0.007  -0.009  -0.010  -0.010   0.051   0.009   0.036   0.002   0.014  -0.003  -0.008   0.036   0.004   0.000
  0.002   0.002  -0.005  -0.004  -0.010   0.034  -0.010  -0.018   0.004   0.049   0.064  -0.010  -0.004   0.004   0.035  -0.000
 -0.019  -0.006   0.016   0.001   0.026  -0.004  -0.000   0.003   0.000   0.007  -0.013   0.003  -0.003   0.000  -0.000   0.001
  0.001  -0.028  -0.007  -0.018   0.001   0.001  -0.008  -0.001  -0.006  -0.000  -0.003   0.001   0.000  -0.003  -0.000   0.000
 -0.028   0.001   0.012  -0.005  -0.019  -0.006   0.001   0.003  -0.001  -0.007  -0.008   0.001  -0.000  -0.000  -0.003   0.000


------------------------ aborting loop because EDIFF is reached ----------------------------------------


    CHARGE:  cpu time   30.0179: real time   30.0252
    FORLOC:  cpu time    7.4270: real time    7.4274
    FORNL :  cpu time   80.2777: real time   80.2817
    STRESS:  cpu time  253.9016: real time  253.9147
    FORCOR:  cpu time   26.4691: real time   26.4706
    FORHAR:  cpu time   11.2152: real time   11.2159
    MIXING:  cpu time    4.4701: real time    4.4704
    OFIELD:  cpu time    0.0001: real time    0.0001

  FORCE on cell =-STRESS in cart. coord.  units (eV):
  Direction    XX          YY          ZZ          XY          YZ          ZX
  --------------------------------------------------------------------------------------
  Alpha Z    75.25432    75.25432    75.25432
  Ewald   43548.00920 46136.02205 47422.70626  -260.67988 -2184.90304   347.34570
  Hartree 58458.05444 60904.62900 62120.10031  -237.37962 -1999.10464   318.25984
  E(xc)   -2904.71319 -2903.87791 -2903.61396    -0.19442    -1.05361     0.20139
  Local  ************************************   495.45402  4167.78290  -662.89155
  n-local  -881.98481  -886.19740  -888.27111     1.31404     5.92535    -1.19893
  augment  4104.24360  4103.68750  4103.39705     0.06196     0.75936    -0.07751
  Kinetic  7809.31697  7801.22432  7798.18153     1.65133     9.97441    -1.81004
  Fock        0.00000     0.00000     0.00000     0.00000     0.00000     0.00000
  -------------------------------------------------------------------------------------
  Total    -113.94556  -113.54066  -112.85238     0.22743    -0.61926    -0.17110
  in kB      -6.76152    -6.73749    -6.69665     0.01350    -0.03675    -0.01015
  external pressure =       -6.73 kB  Pullay stress =        0.00 kB


 VOLUME and BASIS-vectors are now :
 -----------------------------------------------------------------------------
  energy-cutoff  :      400.00
  volume of cell :    27000.00
      direct lattice vectors                 reciprocal lattice vectors
    30.000000000  0.000000000  0.000000000     0.033333333  0.000000000  0.000000000
     0.000000000 30.000000000  0.000000000     0.000000000  0.033333333  0.000000000
     0.000000000  0.000000000 30.000000000     0.000000000  0.000000000  0.033333333

  length of vectors
    30.000000000 30.000000000 30.000000000     0.033333333  0.033333333  0.033333333


 FORCES acting on ions
    electron-ion (+dipol)            ewald-force                    non-local-force                 convergence-correction
 -----------------------------------------------------------------------------------------------
   0.397E+03 0.969E+03 0.427E+03   -.395E+03 -.966E+03 -.426E+03   -.149E+01 -.182E+01 -.221E+00   0.277E-02 0.207E-02 -.323E-02
   -.972E+03 -.397E+03 0.420E+03   0.970E+03 0.395E+03 -.419E+03   0.181E+01 0.150E+01 -.230E+00   0.906E-03 0.157E-02 0.601E-02
   -.395E+03 0.969E+03 0.428E+03   0.392E+03 -.966E+03 -.428E+03   0.149E+01 -.182E+01 -.225E+00   -.474E-02 0.241E-02 -.778E-03
   0.973E+03 -.397E+03 0.419E+03   -.970E+03 0.395E+03 -.419E+03   -.181E+01 0.150E+01 -.231E+00   0.420E-03 0.262E-02 0.909E-03
   0.692E+00 0.584E+03 0.969E+03   -.690E+00 -.583E+03 -.965E+03   -.125E-03 -.316E+00 -.234E+01   -.230E-02 -.615E-03 0.216E-02
   0.341E+02 0.498E+03 -.880E+03   -.342E+02 -.497E+03 0.877E+03   0.238E+00 -.442E+00 0.220E+01   0.370E-02 0.212E-02 -.748E-03
   0.332E+01 0.113E+04 0.253E+02   -.331E+01 -.113E+04 -.253E+02   -.518E-02 -.311E+01 -.147E-02   -.535E-04 0.404E-02 -.591E-02
   0.114E+04 -.408E+01 0.472E+01   -.113E+04 0.408E+01 -.473E+01   -.311E+01 -.936E-03 0.717E-02   0.303E-05 0.828E-03 -.221E-03
   -.114E+04 -.553E+01 0.644E+01   0.113E+04 0.553E+01 -.646E+01   0.311E+01 -.414E-02 0.827E-02   -.172E-02 0.129E-02 0.156E-02
   0.412E+00 -.113E+04 0.284E+01   -.415E+00 0.113E+04 -.283E+01   0.541E-03 0.311E+01 -.683E-02   0.289E-02 0.218E-02 -.385E-03
   -.579E+03 0.576E+03 0.817E+03   0.577E+03 -.573E+03 -.813E+03   0.156E+01 -.156E+01 -.220E+01   -.497E-02 -.195E-02 0.230E-03
   -.623E+03 0.531E+03 -.769E+03   0.621E+03 -.528E+03 0.766E+03   0.141E+01 -.155E+01 0.217E+01   -.181E-03 0.285E-02 -.263E-02
   0.579E+03 -.580E+03 0.814E+03   -.577E+03 0.577E+03 -.810E+03   -.156E+01 0.155E+01 -.220E+01   0.142E-02 -.363E-03 0.338E-03
   0.582E+03 -.587E+03 -.809E+03   -.580E+03 0.584E+03 0.806E+03   -.156E+01 0.155E+01 0.220E+01   -.929E-03 0.152E-02 0.192E-02
   0.580E+03 0.576E+03 0.816E+03   -.578E+03 -.573E+03 -.813E+03   -.155E+01 -.156E+01 -.220E+01   0.535E-02 -.363E-02 0.645E-03
   0.613E+03 0.556E+03 -.792E+03   -.611E+03 -.554E+03 0.789E+03   -.153E+01 -.156E+01 0.220E+01   0.105E-02 0.923E-03 -.123E-02
   -.578E+03 -.580E+03 0.814E+03   0.576E+03 0.578E+03 -.810E+03   0.156E+01 0.156E+01 -.220E+01   -.122E-02 -.204E-03 0.192E-02
   -.581E+03 -.589E+03 -.808E+03   0.578E+03 0.586E+03 0.805E+03   0.155E+01 0.155E+01 0.220E+01   0.374E-03 0.243E-03 -.181E-02
   0.417E+03 0.963E+03 -.373E+03   -.415E+03 -.960E+03 0.372E+03   -.146E+01 -.179E+01 0.267E+00   0.199E-02 0.336E-02 -.158E-02
   -.976E+03 -.403E+03 -.409E+03   0.973E+03 0.401E+03 0.409E+03   0.182E+01 0.149E+01 0.222E+00   0.289E-02 -.403E-02 -.682E-02
   -.321E+03 0.316E+03 0.462E+03   0.322E+03 -.316E+03 -.462E+03   -.368E+00 0.367E+00 0.529E+00   -.476E-02 -.130E-02 0.101E-02
   0.974E+03 0.391E+03 0.421E+03   -.971E+03 -.388E+03 -.421E+03   -.182E+01 -.150E+01 -.223E+00   0.190E-03 0.537E-03 0.648E-03
   -.394E+03 -.973E+03 0.419E+03   0.392E+03 0.970E+03 -.418E+03   0.149E+01 0.182E+01 -.222E+00   0.271E-02 -.170E-02 -.658E-03
   -.403E+03 0.960E+03 -.354E+03   0.401E+03 -.958E+03 0.353E+03   0.146E+01 -.176E+01 0.326E+00   0.193E-02 0.612E-02 -.879E-03
   0.976E+03 -.401E+03 -.411E+03   -.973E+03 0.399E+03 0.410E+03   -.182E+01 0.149E+01 0.225E+00   -.418E-02 -.179E-02 -.399E-02
   -.974E+03 0.390E+03 0.423E+03   0.971E+03 -.388E+03 -.422E+03   0.181E+01 -.150E+01 -.216E+00   0.145E-02 0.324E-02 0.607E-02
   0.395E+03 -.973E+03 0.418E+03   -.392E+03 0.970E+03 -.418E+03   -.149E+01 0.182E+01 -.219E+00   -.550E-03 -.238E-02 -.303E-02
   0.323E+03 0.316E+03 0.461E+03   -.324E+03 -.317E+03 -.462E+03   0.372E+00 0.362E+00 0.531E+00   0.529E-02 -.318E-02 -.197E-02
   0.286E+01 0.630E+03 0.218E+02   -.286E+01 -.631E+03 -.218E+02   -.323E-02 0.732E+00 -.181E-01   0.187E-02 0.231E-02 -.343E-02
   -.587E+03 -.298E+01 0.967E+03   0.586E+03 0.297E+01 -.963E+03   0.305E+00 0.493E-02 -.234E+01   -.330E-02 0.248E-02 0.956E-03
   -.597E+03 -.247E+02 -.954E+03   0.596E+03 0.247E+02 0.950E+03   0.323E+00 0.107E-01 0.235E+01   0.206E-02 -.514E-02 -.261E-02
   0.588E+03 -.267E+01 0.967E+03   -.587E+03 0.265E+01 -.963E+03   -.311E+00 0.837E-02 -.234E+01   0.403E-02 0.172E-02 0.785E-03
   0.598E+03 -.169E+02 -.957E+03   -.598E+03 0.169E+02 0.953E+03   -.319E+00 0.867E-02 0.234E+01   -.152E-02 -.300E-02 -.445E-03
   0.768E+03 0.755E+03 0.138E+02   -.766E+03 -.753E+03 -.138E+02   -.114E+01 -.113E+01 -.102E-01   0.299E-02 -.125E-03 -.246E-02
   -.761E+03 -.765E+03 0.467E+01   0.759E+03 0.763E+03 -.467E+01   0.114E+01 0.114E+01 -.213E-03   0.470E-02 -.728E-03 -.199E-02
   -.766E+03 0.753E+03 0.186E+02   0.764E+03 -.751E+03 -.186E+02   0.115E+01 -.114E+01 -.173E-01   -.105E-02 0.231E-02 0.183E-02
   0.762E+03 -.764E+03 0.406E+01   -.760E+03 0.762E+03 -.405E+01   -.114E+01 0.115E+01 -.366E-02   -.418E-02 -.337E-03 -.496E-02
   0.506E+00 -.306E+01 0.107E+04   -.506E+00 0.306E+01 -.107E+04   0.701E-03 0.177E-02 -.161E+01   -.194E-03 -.164E-03 0.807E-04
   0.489E+01 -.316E+02 -.106E+04   -.489E+01 0.316E+02 0.105E+04   -.541E-03 0.148E-01 0.164E+01   0.357E-02 -.439E-02 0.216E-03
   0.982E+03 0.385E+03 -.407E+03   -.979E+03 -.383E+03 0.406E+03   -.182E+01 -.149E+01 0.218E+00   -.189E-02 0.205E-03 -.228E-02
   -.394E+03 -.976E+03 -.412E+03   0.392E+03 0.973E+03 0.412E+03   0.150E+01 0.181E+01 0.218E+00   0.358E-02 0.247E-02 -.198E-02
   -.325E+03 0.297E+03 -.427E+03   0.326E+03 -.298E+03 0.427E+03   -.332E+00 0.357E+00 -.528E+00   0.212E-02 -.226E-02 -.219E-02
   0.322E+03 -.325E+03 0.457E+03   -.323E+03 0.325E+03 -.458E+03   0.362E+00 -.370E+00 0.518E+00   0.871E-03 -.970E-03 -.405E-02
   0.332E+03 0.302E+03 -.432E+03   -.333E+03 -.302E+03 0.433E+03   0.287E+00 0.424E+00 -.607E+00   0.423E-02 -.272E-02 -.293E-02
   -.983E+03 0.380E+03 -.402E+03   0.980E+03 -.378E+03 0.401E+03   0.183E+01 -.148E+01 0.206E+00   -.138E-03 0.162E-02 -.343E-02
   0.395E+03 -.976E+03 -.412E+03   -.393E+03 0.973E+03 0.412E+03   -.150E+01 0.181E+01 0.219E+00   0.205E-02 0.327E-02 -.736E-03
   -.321E+03 -.325E+03 0.458E+03   0.321E+03 0.326E+03 -.458E+03   -.363E+00 -.372E+00 0.521E+00   0.624E-03 -.566E-03 -.130E-02
   0.643E+03 -.687E+01 0.804E+01   -.644E+03 0.688E+01 -.806E+01   0.738E+00 -.119E-01 0.132E-01   -.112E-02 -.147E-03 -.265E-02
   -.641E+03 -.848E+01 0.997E+01   0.642E+03 0.850E+01 -.999E+01   -.745E+00 -.122E-01 0.119E-01   0.462E-02 0.220E-03 0.128E-02
   0.345E+00 -.588E+03 0.966E+03   -.349E+00 0.587E+03 -.962E+03   0.383E-02 0.313E+00 -.235E+01   -.597E-03 -.346E-02 -.767E-03
   0.129E+01 -.597E+03 -.960E+03   -.129E+01 0.597E+03 0.956E+03   0.319E-03 0.293E+00 0.234E+01   0.260E-02 0.253E-02 0.266E-02
   0.149E+01 -.947E+01 0.112E+02   -.150E+01 0.947E+01 -.111E+02   0.224E-04 0.837E-03 0.527E-03   0.279E-02 -.595E-02 -.330E-02
   0.325E+03 -.332E+03 -.445E+03   -.325E+03 0.333E+03 0.446E+03   0.372E+00 -.367E+00 -.520E+00   0.166E-04 -.277E-02 -.217E-02
   -.322E+03 -.334E+03 -.444E+03   0.322E+03 0.334E+03 0.445E+03   -.373E+00 -.359E+00 -.530E+00   0.544E-02 -.285E-02 -.309E-02
   0.701E+00 -.644E+03 0.505E+01   -.706E+00 0.645E+03 -.505E+01   0.352E-03 -.729E+00 -.977E-03   0.388E-02 0.345E-03 -.438E-02
   -.141E+02 0.925E+02 -.116E+03   0.112E+02 -.742E+02 0.936E+02   0.244E+01 -.162E+02 0.196E+02   0.318E-03 0.983E-03 -.514E-03
   -.622E+02 0.409E+03 -.493E+03   0.683E+02 -.450E+03 0.541E+03   -.588E+01 0.387E+02 -.464E+02   0.490E-03 0.716E-03 -.370E-03
 -----------------------------------------------------------------------------------------------
   0.334E+01 -.225E+02 0.271E+02   0.526E-12 0.796E-12 -.341E-12   -.338E+01 0.225E+02 -.270E+02   0.486E-01 0.236E-02 -.567E-01
 
 
 POSITION                                       TOTAL-FORCE (eV/Angst)
 -----------------------------------------------------------------------------------
     13.37281      9.84801     12.50759         0.703132      1.109273      0.292005
     20.15199     16.62719     12.50759        -1.107034     -0.708209      0.297667
     16.62719      9.84801     12.50759        -0.704025      1.107842      0.291690
      9.84801     16.62719     12.50759         1.105825     -0.706031      0.295541
     15.00000     11.47521     10.20639        -0.000537      0.414455      1.280446
     15.00000     11.47521     19.79360         0.136597     -0.019439     -0.840394
     15.00000      8.28283     15.00000         0.003521      1.519949      0.005005
      8.28283     15.00000     15.00000         1.519411      0.001093     -0.003977
     21.71717     15.00000     15.00000        -1.518540      0.002090     -0.006470
     15.00000     21.71717     15.00000         0.000058     -1.517657      0.004119
     18.35858     11.64142     10.25025        -0.755601      0.758320      1.073433
     18.35858     11.64142     19.74975        -0.722615      0.759949     -1.078267
     11.64142     18.35858     10.25025         0.757479     -0.754462      1.071695
     11.64142     18.35858     19.74975         0.757461     -0.754924     -1.073592
     11.64142     11.64142     10.25025         0.755289      0.757653      1.073424
     11.64142     11.64142     19.74975         0.742800      0.767537     -1.086512
     18.35858     18.35858     10.25025        -0.756211     -0.757025      1.073039
     18.35858     18.35858     19.74975        -0.758237     -0.754456     -1.073881
     13.37281      9.84801     17.49241         0.681591      1.106243     -0.328493
     20.15199     16.62719     17.49241        -1.109396     -0.704549     -0.290685
     16.73751     13.26249     12.54279         0.112830     -0.112444     -0.156614
      9.84801     13.37281     12.50759         1.105710      0.704418      0.291598
     16.62719     20.15199     12.50759        -0.704091     -1.108596      0.291586
     16.62719      9.84801     17.49241        -0.688931      1.097524     -0.340784
      9.84801     16.62719     17.49241         1.108600     -0.703343     -0.292438
     20.15199     13.37281     12.50759        -1.107150      0.707314      0.290783
     13.37281     20.15199     12.50759         0.703816     -1.110051      0.291348
     13.26249     13.26249     12.54279        -0.114335     -0.110901     -0.158741
     15.00000     11.52498     15.00000         0.000602     -0.228635      0.001407
     18.52479     15.00000     10.20639        -0.413256     -0.002267      1.282475
     18.52479     15.00000     19.79360        -0.409724      0.002669     -1.281077
     11.47521     15.00000     10.20640         0.415273     -0.004307      1.283094
     11.47521     15.00000     19.79360         0.413482     -0.001536     -1.280914
     11.49535     11.49535     15.00000         0.832872      0.824484      0.004066
     18.50465     18.50465     15.00000        -0.828286     -0.827773     -0.000733
     18.50465     11.49535     15.00000        -0.832964      0.824877      0.002141
     11.49535     18.50465     15.00000         0.828724     -0.829127      0.001382
     15.00000     15.00000     10.04368        -0.000094      0.000346      1.178637
     15.00000     15.00000     19.95633        -0.002526      0.002039     -1.192129
      9.84801     13.37281     17.49241         1.110952      0.700839     -0.289493
     16.62719     20.15199     17.49241        -0.706761     -1.109793     -0.290380
     16.73751     13.26249     17.45721         0.106132     -0.089413      0.140411
     13.26249     16.73751     12.54279        -0.108250      0.113094     -0.156543
     13.26249     13.26249     17.45721        -0.078305     -0.134517      0.197777
     20.15199     13.37281     17.49241        -1.113711      0.697122     -0.283020
     13.37281     20.15199     17.49241         0.706006     -1.107797     -0.290958
     16.73751     16.73751     12.54279         0.110220      0.113925     -0.159589
     11.52498     15.00000     15.00000        -0.239294      0.002293     -0.005946
     18.47502     15.00000     15.00000         0.235192      0.004611     -0.011017
     15.00000     18.52480     10.20639        -0.001120     -0.413975      1.281959
     15.00000     18.52480     19.79360        -0.000317     -0.404305     -1.288176
     15.00000     15.00000     15.00000         0.000557     -0.006493      0.004200
     13.26249     16.73751     17.45721        -0.111144      0.108898      0.161766
     16.73751     16.73751     17.45721         0.110803      0.109763      0.159945
     15.00000     18.47502     15.00000        -0.000738      0.232383      0.000378
     15.84567      9.46926     21.63373        -0.442800      2.101104     -2.333163
     15.95560      8.75037     22.49599         0.271060     -1.670083      1.970969
 -----------------------------------------------------------------------------------
    total drift:                                0.008391      0.003357     -0.008445


--------------------------------------------------------------------------------------------------------



  FREE ENERGIE OF THE ION-ELECTRON SYSTEM (eV)
  ---------------------------------------------------
  free  energy   TOTEN  =      -173.74361367 eV

  energy  without entropy=     -173.63078020  energy(sigma->0) =     -173.71540530
 


--------------------------------------------------------------------------------------------------------


    POTLOK:  cpu time   16.6936: real time   16.6946


--------------------------------------------------------------------------------------------------------


     LOOP+:  cpu time23781.9485: real time23784.4405
    4ORBIT:  cpu time    0.0000: real time    0.0000

 total amount of memory used by VASP MPI-rank0  5486941. kBytes
=======================================================================

   base      :      30000. kBytes
   nonlr-proj:      17126. kBytes
   fftplans  :     924480. kBytes
   grid      :    1872000. kBytes
   one-center:        886. kBytes
   wavefun   :    2642449. kBytes
 
  
  
 General timing and accounting informations for this job:
 ========================================================
  
                  Total CPU time used (sec):    23883.354
                            User time (sec):    22191.899
                          System time (sec):     1691.454
                         Elapsed time (sec):    23885.898
  
                   Maximum memory used (kb):     7185672.
                   Average memory used (kb):           0.
  
                          Minor page faults:    802083087
                          Major page faults:           47
                 Voluntary context switches:          804
