   57   57    1    1
  0.4736842E+03  0.3000000E-08  0.3000000E-08  0.3000000E-08  0.5000000E-15
  1.000000000000000E-004
  CAR 
 6_Pd100_top_free_z(O)                   
    560      1    336
 
  0.0000000E+00  0.0000000E+00  0.0000000E+00  0.1000000E+01
    1      -29.070009   1.000000
    2      -13.884494   1.000000
    3      -12.273459   1.000000
    4      -11.847351   1.000000
    5      -10.179129   1.000000
    6       -7.045172   1.000000
    7       -6.581794   1.000000
    8       -6.516602   1.000000
    9       -6.113730   1.000000
   10       -6.110885   1.000000
   11       -6.047604   1.000000
   12       -5.997135   1.000000
   13       -5.870033   1.000000
   14       -5.834088   1.000000
   15       -5.789426   1.000000
   16       -5.771287   1.000000
   17       -5.737098   1.000000
   18       -5.685502   1.000000
   19       -5.672642   1.000000
   20       -5.664460   1.000000
   21       -5.649037   1.000000
   22       -5.609506   1.000000
   23       -5.600931   1.000000
   24       -5.585706   1.000000
   25       -5.584162   1.000000
   26       -5.573371   1.000000
   27       -5.562497   1.000000
   28       -5.537192   1.000000
   29       -5.532531   1.000000
   30       -5.528361   1.000000
   31       -5.516024   1.000000
   32       -5.507874   1.000000
   33       -5.500507   1.000000
   34       -5.498719   1.000000
   35       -5.494411   1.000000
   36       -5.491473   1.000000
   37       -5.490182   1.000000
   38       -5.482380   1.000000
   39       -5.475407   1.000000
   40       -5.456372   1.000000
   41       -5.454327   1.000000
   42       -5.451848   1.000000
   43       -5.449531   1.000000
   44       -5.447749   1.000000
   45       -5.443771   1.000000
   46       -5.434231   1.000000
   47       -5.413930   1.000000
   48       -5.411435   1.000000
   49       -5.408798   1.000000
   50       -5.408127   1.000000
   51       -5.403820   1.000000
   52       -5.396941   1.000000
   53       -5.394285   1.000000
   54       -5.392973   1.000000
   55       -5.387809   1.000000
   56       -5.385534   1.000000
   57       -5.373661   1.000000
   58       -5.354373   1.000000
   59       -5.314293   1.000000
   60       -5.309426   1.000000
   61       -5.307492   1.000000
   62       -5.304701   1.000000
   63       -5.300318   1.000000
   64       -5.292981   1.000000
   65       -5.285057   1.000000
   66       -5.282130   1.000000
   67       -5.279843   1.000000
   68       -5.268176   1.000000
   69       -5.263555   1.000000
   70       -5.242356   1.000000
   71       -5.223139   1.000000
   72       -5.191813   1.000000
   73       -5.190436   1.000000
   74       -5.178674   1.000000
   75       -5.172304   1.000000
   76       -5.159084   1.000000
   77       -5.157701   1.000000
   78       -5.155015   1.000000
   79       -5.149309   1.000000
   80       -5.148017   1.000000
   81       -5.143306   1.000000
   82       -5.138379   1.000000
   83       -5.122469   1.000000
   84       -5.113784   1.000000
   85       -5.109798   1.000000
   86       -5.099399   1.000000
   87       -5.096577   1.000000
   88       -5.092066   1.000000
   89       -5.080419   1.000000
   90       -5.076244   1.000000
   91       -5.044828   1.000000
   92       -5.039272   1.000000
   93       -5.037661   1.000000
   94       -5.032029   1.000000
   95       -5.029883   1.000000
   96       -5.026934   1.000000
   97       -5.017875   1.000000
   98       -5.015596   1.000000
   99       -5.013457   1.000000
  100       -5.009823   1.000000
  101       -5.009009   1.000000
  102       -5.005240   1.000000
  103       -4.994985   1.000000
  104       -4.989155   1.000000
  105       -4.986346   1.000000
  106       -4.979252   1.000000
  107       -4.976496   1.000000
  108       -4.973523   1.000000
  109       -4.970035   1.000000
  110       -4.960125   1.000000
  111       -4.957433   1.000000
  112       -4.955752   1.000000
  113       -4.951983   1.000000
  114       -4.949370   1.000000
  115       -4.940269   0.999999
  116       -4.937290   0.999999
  117       -4.934529   0.999999
  118       -4.926849   0.999999
  119       -4.923625   0.999999
  120       -4.911459   0.999999
  121       -4.900741   0.999998
  122       -4.898975   0.999998
  123       -4.886788   0.999997
  124       -4.884396   0.999996
  125       -4.882733   0.999996
  126       -4.879561   0.999996
  127       -4.876307   0.999995
  128       -4.859296   0.999992
  129       -4.852748   0.999990
  130       -4.833897   0.999982
  131       -4.825119   0.999977
  132       -4.823296   0.999976
  133       -4.822512   0.999975
  134       -4.820891   0.999974
  135       -4.813590   0.999968
  136       -4.812427   0.999967
  137       -4.809831   0.999964
  138       -4.788645   0.999935
  139       -4.775993   0.999909
  140       -4.772537   0.999901
  141       -4.771500   0.999898
  142       -4.766454   0.999884
  143       -4.752920   0.999836
  144       -4.750687   0.999827
  145       -4.747728   0.999814
  146       -4.741649   0.999784
  147       -4.734769   0.999745
  148       -4.713658   0.999587
  149       -4.703672   0.999486
  150       -4.701280   0.999459
  151       -4.700177   0.999447
  152       -4.689903   0.999315
  153       -4.672313   0.999030
  154       -4.668393   0.998955
  155       -4.665830   0.998904
  156       -4.662253   0.998830
  157       -4.654471   0.998655
  158       -4.652331   0.998604
  159       -4.648166   0.998500
  160       -4.642493   0.998350
  161       -4.639219   0.998259
  162       -4.635032   0.998139
  163       -4.632541   0.998064
  164       -4.629916   0.997984
  165       -4.627910   0.997921
  166       -4.626102   0.997864
  167       -4.624690   0.997818
  168       -4.621356   0.997709
  169       -4.615343   0.997505
  170       -4.611926   0.997385
  171       -4.601721   0.997015
  172       -4.591764   0.996642
  173       -4.589190   0.996545
  174       -4.579136   0.996171
  175       -4.577459   0.996110
  176       -4.575658   0.996045
  177       -4.574984   0.996021
  178       -4.564415   0.995664
  179       -4.559236   0.995508
  180       -4.558387   0.995484
  181       -4.556899   0.995443
  182       -4.554664   0.995385
  183       -4.547691   0.995228
  184       -4.538282   0.995093
  185       -4.536389   0.995079
  186       -4.533854   0.995067
  187       -4.531484   0.995065
  188       -4.529504   0.995070
  189       -4.528068   0.995077
  190       -4.521602   0.995155
  191       -4.502450   0.995907
  192       -4.493172   0.996619
  193       -4.489897   0.996933
  194       -4.486562   0.997291
  195       -4.485103   0.997459
  196       -4.475050   0.998830
  197       -4.474048   0.998988
  198       -4.471992   0.999325
  199       -4.462024   1.001202
  200       -4.455574   1.002645
  201       -4.451522   1.003646
  202       -4.450764   1.003842
  203       -4.446810   1.004904
  204       -4.440237   1.006828
  205       -4.436825   1.007905
  206       -4.432199   1.009448
  207       -4.427057   1.011276
  208       -4.424055   1.012395
  209       -4.421481   1.013385
  210       -4.420813   1.013646
  211       -4.416405   1.015414
  212       -4.402354   1.021508
  213       -4.394118   1.025333
  214       -4.390852   1.026884
  215       -4.388692   1.027918
  216       -4.386143   1.029142
  217       -4.384601   1.029884
  218       -4.382569   1.030863
  219       -4.375592   1.034210
  220       -4.359851   1.041401
  221       -4.353586   1.043975
  222       -4.349119   1.045658
  223       -4.344228   1.047322
  224       -4.336710   1.049440
  225       -4.330747   1.050665
  226       -4.322667   1.051553
  227       -4.318904   1.051619
  228       -4.316615   1.051540
  229       -4.315475   1.051466
  230       -4.312943   1.051214
  231       -4.312110   1.051105
  232       -4.308595   1.050489
  233       -4.308015   1.050363
  234       -4.306627   1.050032
  235       -4.304954   1.049578
  236       -4.300530   1.048075
  237       -4.299859   1.047808
  238       -4.298349   1.047166
  239       -4.294718   1.045392
  240       -4.287239   1.040655
  241       -4.285455   1.039298
  242       -4.280285   1.034845
  243       -4.273077   1.027278
  244       -4.266366   1.018727
  245       -4.264912   1.016675
  246       -4.264376   1.015899
  247       -4.260833   1.010528
  248       -4.258919   1.007441
  249       -4.258429   1.006630
  250       -4.256851   1.003961
  251       -4.249753   0.990827
  252       -4.245535   0.982135
  253       -4.242485   0.975432
  254       -4.236853   0.962120
  255       -4.233069   0.952487
  256       -4.232717   0.951562
  257       -4.228167   0.939185
  258       -4.227138   0.936272
  259       -4.224983   0.930044
  260       -4.221998   0.921120
  261       -4.221645   0.920040
  262       -4.219671   0.913923
  263       -4.216944   0.905225
  264       -4.215129   0.899280
  265       -4.213162   0.892694
  266       -4.212990   0.892113
  267       -4.201996   0.852593
  268       -4.200529   0.846988
  269       -4.197602   0.835581
  270       -4.195268   0.826275
  271       -4.193126   0.817568
  272       -4.186655   0.790364
  273       -4.183561   0.776891
  274       -4.182093   0.770401
  275       -4.162268   0.677113
  276       -4.160103   0.666380
  277       -4.156084   0.646224
  278       -4.151791   0.624392
  279       -4.150957   0.620120
  280       -4.150319   0.616844
  281       -4.143695   0.582550
  282       -4.135437   0.539221
  283       -4.113868   0.425473
  284       -4.111686   0.414087
  285       -4.107724   0.393539
  286       -4.104799   0.378492
  287       -4.095089   0.329473
  288       -4.090282   0.305848
  289       -4.000986  -0.000786
  290       -3.942839  -0.051244
  291       -3.887392  -0.037480
  292       -3.795335  -0.001485
  293       -3.794328  -0.001271
  294       -3.652303   0.002911
  295       -3.477894   0.000086
  296       -3.462861   0.000057
  297       -3.325340   0.000001
  298       -3.068774   0.000000
  299       -3.042556   0.000000
  300       -3.024123   0.000000
  301       -3.014664   0.000000
  302       -2.992495   0.000000
  303       -2.961509   0.000000
  304       -2.916566   0.000000
  305       -2.735136   0.000000
  306       -2.567994   0.000000
  307       -2.508271   0.000000
  308       -2.342473   0.000000
  309       -2.255254   0.000000
  310       -2.100960   0.000000
  311       -2.099895   0.000000
  312       -2.087157   0.000000
  313       -2.004496   0.000000
  314       -1.942511   0.000000
  315       -1.890039   0.000000
  316       -1.845657   0.000000
  317       -1.843773   0.000000
  318       -1.762832   0.000000
  319       -1.662803   0.000000
  320       -1.599070   0.000000
  321       -1.572432   0.000000
  322       -1.551468   0.000000
  323       -1.418880   0.000000
  324       -1.281195   0.000000
  325       -1.260006   0.000000
  326       -1.135478   0.000000
  327       -1.048458   0.000000
  328       -1.004116   0.000000
  329       -0.969871   0.000000
  330       -0.957936   0.000000
  331       -0.935914   0.000000
  332       -0.923546   0.000000
  333       -0.896268   0.000000
  334       -0.848662   0.000000
  335       -0.781878   0.000000
  336       -0.741958   0.000000
