   57   57    1    1
  0.4736842E+03  0.3000000E-08  0.3000000E-08  0.3000000E-08  0.5000000E-15
  1.000000000000000E-004
  CAR 
 6_Pd100_top_free_z(O)                   
    560      1    336
 
  0.0000000E+00  0.0000000E+00  0.0000000E+00  0.1000000E+01
    1      -28.336933   1.000000
    2      -13.431970   1.000000
    3      -11.458814   1.000000
    4      -11.180381   1.000000
    5      -10.378996   1.000000
    6       -6.647453   1.000000
    7       -6.325107   1.000000
    8       -6.283480   1.000000
    9       -6.128193   1.000000
   10       -6.119845   1.000000
   11       -6.039769   1.000000
   12       -5.818417   1.000000
   13       -5.803300   1.000000
   14       -5.796950   1.000000
   15       -5.739884   1.000000
   16       -5.736000   1.000000
   17       -5.694129   1.000000
   18       -5.676877   1.000000
   19       -5.672737   1.000000
   20       -5.668951   1.000000
   21       -5.658163   1.000000
   22       -5.622989   1.000000
   23       -5.616977   1.000000
   24       -5.595280   1.000000
   25       -5.586016   1.000000
   26       -5.584721   1.000000
   27       -5.579041   1.000000
   28       -5.551576   1.000000
   29       -5.535273   1.000000
   30       -5.528655   1.000000
   31       -5.519587   1.000000
   32       -5.514447   1.000000
   33       -5.512573   1.000000
   34       -5.511877   1.000000
   35       -5.503624   1.000000
   36       -5.498427   1.000000
   37       -5.492426   1.000000
   38       -5.488052   1.000000
   39       -5.475925   1.000000
   40       -5.471287   1.000000
   41       -5.467432   1.000000
   42       -5.463469   1.000000
   43       -5.461698   1.000000
   44       -5.457514   1.000000
   45       -5.453040   1.000000
   46       -5.448163   1.000000
   47       -5.436452   1.000000
   48       -5.427560   1.000000
   49       -5.419483   1.000000
   50       -5.414562   1.000000
   51       -5.409704   1.000000
   52       -5.398890   1.000000
   53       -5.396846   1.000000
   54       -5.390439   1.000000
   55       -5.381991   1.000000
   56       -5.373099   1.000000
   57       -5.365019   1.000000
   58       -5.348557   1.000000
   59       -5.342206   1.000000
   60       -5.328301   1.000000
   61       -5.314677   1.000000
   62       -5.307618   1.000000
   63       -5.303360   1.000000
   64       -5.301601   1.000000
   65       -5.299620   1.000000
   66       -5.292596   1.000000
   67       -5.288735   1.000000
   68       -5.283472   1.000000
   69       -5.261406   1.000000
   70       -5.246926   1.000000
   71       -5.240715   1.000000
   72       -5.210590   1.000000
   73       -5.188686   1.000000
   74       -5.185855   1.000000
   75       -5.173784   1.000000
   76       -5.167784   1.000000
   77       -5.165692   1.000000
   78       -5.165425   1.000000
   79       -5.161416   1.000000
   80       -5.152424   1.000000
   81       -5.142948   1.000000
   82       -5.137633   1.000000
   83       -5.130341   1.000000
   84       -5.128468   1.000000
   85       -5.111832   1.000000
   86       -5.108986   1.000000
   87       -5.104682   1.000000
   88       -5.091090   1.000000
   89       -5.088222   1.000000
   90       -5.071856   1.000000
   91       -5.068574   1.000000
   92       -5.057852   1.000000
   93       -5.052951   1.000000
   94       -5.041242   1.000000
   95       -5.039180   1.000000
   96       -5.037514   1.000000
   97       -5.034955   1.000000
   98       -5.028896   1.000000
   99       -5.015171   1.000000
  100       -5.010474   1.000000
  101       -5.007766   1.000000
  102       -5.007054   1.000000
  103       -5.000786   1.000000
  104       -4.997725   1.000000
  105       -4.993763   1.000000
  106       -4.991804   1.000000
  107       -4.989394   1.000000
  108       -4.986694   1.000000
  109       -4.977440   1.000000
  110       -4.971976   1.000000
  111       -4.967312   1.000000
  112       -4.966254   1.000000
  113       -4.959352   1.000000
  114       -4.951476   1.000000
  115       -4.950180   1.000000
  116       -4.942865   0.999999
  117       -4.940394   0.999999
  118       -4.938598   0.999999
  119       -4.920491   0.999999
  120       -4.914633   0.999999
  121       -4.909073   0.999998
  122       -4.908062   0.999998
  123       -4.901194   0.999998
  124       -4.896687   0.999997
  125       -4.888939   0.999996
  126       -4.888015   0.999996
  127       -4.877376   0.999995
  128       -4.869483   0.999993
  129       -4.858517   0.999991
  130       -4.853519   0.999989
  131       -4.838181   0.999983
  132       -4.829431   0.999977
  133       -4.825345   0.999974
  134       -4.823503   0.999973
  135       -4.819934   0.999970
  136       -4.816744   0.999967
  137       -4.808077   0.999958
  138       -4.799215   0.999946
  139       -4.795771   0.999941
  140       -4.786122   0.999923
  141       -4.782995   0.999916
  142       -4.757499   0.999839
  143       -4.744172   0.999776
  144       -4.736237   0.999730
  145       -4.728204   0.999674
  146       -4.725240   0.999652
  147       -4.722995   0.999633
  148       -4.722227   0.999627
  149       -4.712767   0.999540
  150       -4.698894   0.999382
  151       -4.696225   0.999347
  152       -4.689477   0.999250
  153       -4.685366   0.999186
  154       -4.671814   0.998944
  155       -4.666284   0.998831
  156       -4.665581   0.998816
  157       -4.660510   0.998703
  158       -4.658847   0.998664
  159       -4.658260   0.998650
  160       -4.651454   0.998482
  161       -4.645051   0.998311
  162       -4.643251   0.998260
  163       -4.641515   0.998211
  164       -4.637550   0.998095
  165       -4.635160   0.998022
  166       -4.630704   0.997883
  167       -4.628697   0.997819
  168       -4.626080   0.997733
  169       -4.620606   0.997548
  170       -4.618112   0.997462
  171       -4.612503   0.997263
  172       -4.610442   0.997188
  173       -4.596332   0.996663
  174       -4.586413   0.996292
  175       -4.583926   0.996200
  176       -4.582203   0.996137
  177       -4.579320   0.996033
  178       -4.575605   0.995903
  179       -4.572787   0.995807
  180       -4.565932   0.995588
  181       -4.558206   0.995373
  182       -4.553502   0.995264
  183       -4.545929   0.995133
  184       -4.543955   0.995109
  185       -4.538364   0.995069
  186       -4.537398   0.995066
  187       -4.535730   0.995065
  188       -4.534310   0.995067
  189       -4.532995   0.995072
  190       -4.522676   0.995217
  191       -4.503884   0.996078
  192       -4.503638   0.996096
  193       -4.500066   0.996369
  194       -4.493864   0.996936
  195       -4.490251   0.997325
  196       -4.482563   0.998307
  197       -4.477648   0.999052
  198       -4.471121   1.000189
  199       -4.468903   1.000616
  200       -4.461765   1.002133
  201       -4.460505   1.002425
  202       -4.455167   1.003737
  203       -4.454490   1.003912
  204       -4.450105   1.005100
  205       -4.446194   1.006234
  206       -4.443619   1.007018
  207       -4.440845   1.007897
  208       -4.436516   1.009338
  209       -4.430043   1.011648
  210       -4.425062   1.013547
  211       -4.414902   1.017722
  212       -4.406064   1.021638
  213       -4.399252   1.024797
  214       -4.398048   1.025364
  215       -4.396942   1.025888
  216       -4.393487   1.027535
  217       -4.391041   1.028709
  218       -4.387429   1.030447
  219       -4.385962   1.031154
  220       -4.381709   1.033197
  221       -4.374825   1.036461
  222       -4.371739   1.037891
  223       -4.345776   1.048075
  224       -4.344468   1.048453
  225       -4.337099   1.050234
  226       -4.333049   1.050929
  227       -4.327689   1.051494
  228       -4.322404   1.051610
  229       -4.320218   1.051518
  230       -4.319149   1.051441
  231       -4.315300   1.050985
  232       -4.314528   1.050859
  233       -4.312280   1.050422
  234       -4.310755   1.050065
  235       -4.309349   1.049692
  236       -4.305572   1.048471
  237       -4.304419   1.048033
  238       -4.301034   1.046563
  239       -4.299874   1.045994
  240       -4.295922   1.043799
  241       -4.288751   1.038741
  242       -4.284224   1.034791
  243       -4.283299   1.033909
  244       -4.280656   1.031242
  245       -4.276868   1.027038
  246       -4.275028   1.024830
  247       -4.270030   1.018264
  248       -4.267870   1.015164
  249       -4.265400   1.011422
  250       -4.259170   1.001023
  251       -4.253728   0.990785
  252       -4.250782   0.984782
  253       -4.246686   0.975893
  254       -4.240232   0.960585
  255       -4.238282   0.955644
  256       -4.234651   0.946052
  257       -4.233730   0.943538
  258       -4.232532   0.940217
  259       -4.227498   0.925657
  260       -4.225534   0.919713
  261       -4.225156   0.918551
  262       -4.221537   0.907154
  263       -4.220496   0.903782
  264       -4.220109   0.902519
  265       -4.217805   0.894878
  266       -4.209670   0.866305
  267       -4.204900   0.848427
  268       -4.203879   0.844498
  269       -4.201466   0.835060
  270       -4.198807   0.824429
  271       -4.197828   0.820454
  272       -4.184704   0.764218
  273       -4.182152   0.752681
  274       -4.176125   0.724735
  275       -4.173044   0.710097
  276       -4.168461   0.687911
  277       -4.164075   0.666257
  278       -4.155314   0.621972
  279       -4.153654   0.613447
  280       -4.151766   0.603708
  281       -4.147049   0.579200
  282       -4.138701   0.535364
  283       -4.134199   0.511579
  284       -4.116793   0.419876
  285       -4.113428   0.402374
  286       -4.110750   0.388536
  287       -4.102653   0.347298
  288       -4.092502   0.297244
  289       -3.972355  -0.040968
  290       -3.940642  -0.051624
  291       -3.895293  -0.039259
  292       -3.814512  -0.005269
  293       -3.802705  -0.002237
  294       -3.720570   0.004896
  295       -3.485637   0.000095
  296       -3.474925   0.000071
  297       -3.240722   0.000000
  298       -3.056054   0.000000
  299       -3.048311   0.000000
  300       -3.035973   0.000000
  301       -3.013683   0.000000
  302       -2.999344   0.000000
  303       -2.986574   0.000000
  304       -2.930168   0.000000
  305       -2.793419   0.000000
  306       -2.550829   0.000000
  307       -2.504797   0.000000
  308       -2.427949   0.000000
  309       -2.234498   0.000000
  310       -2.136793   0.000000
  311       -2.103353   0.000000
  312       -2.050926   0.000000
  313       -1.974322   0.000000
  314       -1.934246   0.000000
  315       -1.882279   0.000000
  316       -1.839531   0.000000
  317       -1.830735   0.000000
  318       -1.771081   0.000000
  319       -1.700913   0.000000
  320       -1.622791   0.000000
  321       -1.566861   0.000000
  322       -1.545596   0.000000
  323       -1.476153   0.000000
  324       -1.410861   0.000000
  325       -1.291771   0.000000
  326       -1.152687   0.000000
  327       -1.032299   0.000000
  328       -1.000149   0.000000
  329       -0.956993   0.000000
  330       -0.952337   0.000000
  331       -0.916884   0.000000
  332       -0.909730   0.000000
  333       -0.862196   0.000000
  334       -0.824467   0.000000
  335       -0.797787   0.000000
  336       -0.655786   0.000000
