  57  57   0   0
  0.4736842E+03  0.3000000E-08  0.3000000E-08  0.3000000E-08  0.5000000E-15
  1.000000000000000E-004
  CAR 
 6_Pd100_top_free_z(O)                   
      1.37775010    -31.19711841  301     -4.13392907      1.00000000
    -31.197  0.0000E+00  0.0000E+00
    -31.089  0.0000E+00  0.0000E+00
    -30.980  0.0000E+00  0.0000E+00
    -30.871  0.5325E-27  0.5782E-28
    -30.763  0.2852E-23  0.3098E-24
    -30.654  0.8336E-20  0.9055E-21
    -30.546  0.1325E-16  0.1440E-17
    -30.437  0.1142E-13  0.1241E-14
    -30.328  0.5314E-11  0.5782E-12
    -30.220  0.1322E-08  0.1441E-09
    -30.111  0.1740E-06  0.1903E-07
    -30.003  0.1191E-04  0.1312E-05
    -29.894  0.4114E-03  0.4598E-04
    -29.786  0.6729E-02  0.7766E-03
    -29.677  0.4370E-01  0.5522E-02
    -29.568  0.2057E-01  0.7755E-02
    -29.460 -0.5681E+00 -0.5393E-01
    -29.351 -0.1757E+00 -0.7300E-01
    -29.243  0.5622E+01  0.5374E+00
    -29.134  0.9954E+01  0.1618E+01
    -29.025  0.4394E+01  0.2095E+01
    -28.917 -0.5316E+00  0.2038E+01
    -28.808 -0.4348E+00  0.1991E+01
    -28.700  0.4748E-01  0.1996E+01
    -28.591  0.3497E-01  0.1999E+01
    -28.483  0.4525E-02  0.2000E+01
    -28.374  0.2434E-03  0.2000E+01
    -28.265  0.6291E-05  0.2000E+01
    -28.157  0.8252E-07  0.2000E+01
    -28.048  0.5650E-09  0.2000E+01
    -27.940  0.2053E-11  0.2000E+01
    -27.831  0.4090E-14  0.2000E+01
    -27.722  0.0000E+00  0.2000E+01
    -27.614  0.0000E+00  0.2000E+01
    -27.505  0.0000E+00  0.2000E+01
    -27.397  0.0000E+00  0.2000E+01
    -27.288  0.0000E+00  0.2000E+01
    -27.180  0.0000E+00  0.2000E+01
    -27.071  0.0000E+00  0.2000E+01
    -26.962  0.0000E+00  0.2000E+01
    -26.854  0.0000E+00  0.2000E+01
    -26.745  0.0000E+00  0.2000E+01
    -26.637  0.0000E+00  0.2000E+01
    -26.528  0.0000E+00  0.2000E+01
    -26.419  0.0000E+00  0.2000E+01
    -26.311  0.0000E+00  0.2000E+01
    -26.202  0.0000E+00  0.2000E+01
    -26.094  0.0000E+00  0.2000E+01
    -25.985  0.0000E+00  0.2000E+01
    -25.877  0.0000E+00  0.2000E+01
    -25.768  0.0000E+00  0.2000E+01
    -25.659  0.0000E+00  0.2000E+01
    -25.551  0.0000E+00  0.2000E+01
    -25.442  0.0000E+00  0.2000E+01
    -25.334  0.0000E+00  0.2000E+01
    -25.225  0.0000E+00  0.2000E+01
    -25.116  0.0000E+00  0.2000E+01
    -25.008  0.0000E+00  0.2000E+01
    -24.899  0.0000E+00  0.2000E+01
    -24.791  0.0000E+00  0.2000E+01
    -24.682  0.0000E+00  0.2000E+01
    -24.574  0.0000E+00  0.2000E+01
    -24.465  0.0000E+00  0.2000E+01
    -24.356  0.0000E+00  0.2000E+01
    -24.248  0.0000E+00  0.2000E+01
    -24.139  0.0000E+00  0.2000E+01
    -24.031  0.0000E+00  0.2000E+01
    -23.922  0.0000E+00  0.2000E+01
    -23.813  0.0000E+00  0.2000E+01
    -23.705  0.0000E+00  0.2000E+01
    -23.596  0.0000E+00  0.2000E+01
    -23.488  0.0000E+00  0.2000E+01
    -23.379  0.0000E+00  0.2000E+01
    -23.271  0.0000E+00  0.2000E+01
    -23.162  0.0000E+00  0.2000E+01
    -23.053  0.0000E+00  0.2000E+01
    -22.945  0.0000E+00  0.2000E+01
    -22.836  0.0000E+00  0.2000E+01
    -22.728  0.0000E+00  0.2000E+01
    -22.619  0.0000E+00  0.2000E+01
    -22.510  0.0000E+00  0.2000E+01
    -22.402  0.0000E+00  0.2000E+01
    -22.293  0.0000E+00  0.2000E+01
    -22.185  0.0000E+00  0.2000E+01
    -22.076  0.0000E+00  0.2000E+01
    -21.968  0.0000E+00  0.2000E+01
    -21.859  0.0000E+00  0.2000E+01
    -21.750  0.0000E+00  0.2000E+01
    -21.642  0.0000E+00  0.2000E+01
    -21.533  0.0000E+00  0.2000E+01
    -21.425  0.0000E+00  0.2000E+01
    -21.316  0.0000E+00  0.2000E+01
    -21.207  0.0000E+00  0.2000E+01
    -21.099  0.0000E+00  0.2000E+01
    -20.990  0.0000E+00  0.2000E+01
    -20.882  0.0000E+00  0.2000E+01
    -20.773  0.0000E+00  0.2000E+01
    -20.665  0.0000E+00  0.2000E+01
    -20.556  0.0000E+00  0.2000E+01
    -20.447  0.0000E+00  0.2000E+01
    -20.339  0.0000E+00  0.2000E+01
    -20.230  0.0000E+00  0.2000E+01
    -20.122  0.0000E+00  0.2000E+01
    -20.013  0.0000E+00  0.2000E+01
    -19.904  0.0000E+00  0.2000E+01
    -19.796  0.0000E+00  0.2000E+01
    -19.687  0.0000E+00  0.2000E+01
    -19.579  0.0000E+00  0.2000E+01
    -19.470  0.0000E+00  0.2000E+01
    -19.362  0.0000E+00  0.2000E+01
    -19.253  0.0000E+00  0.2000E+01
    -19.144  0.0000E+00  0.2000E+01
    -19.036  0.0000E+00  0.2000E+01
    -18.927  0.0000E+00  0.2000E+01
    -18.819  0.0000E+00  0.2000E+01
    -18.710  0.0000E+00  0.2000E+01
    -18.602  0.0000E+00  0.2000E+01
    -18.493  0.0000E+00  0.2000E+01
    -18.384  0.0000E+00  0.2000E+01
    -18.276  0.0000E+00  0.2000E+01
    -18.167  0.0000E+00  0.2000E+01
    -18.059  0.0000E+00  0.2000E+01
    -17.950  0.0000E+00  0.2000E+01
    -17.841  0.0000E+00  0.2000E+01
    -17.733  0.0000E+00  0.2000E+01
    -17.624  0.0000E+00  0.2000E+01
    -17.516  0.0000E+00  0.2000E+01
    -17.407  0.0000E+00  0.2000E+01
    -17.299  0.0000E+00  0.2000E+01
    -17.190  0.0000E+00  0.2000E+01
    -17.081  0.0000E+00  0.2000E+01
    -16.973  0.0000E+00  0.2000E+01
    -16.864  0.0000E+00  0.2000E+01
    -16.756  0.0000E+00  0.2000E+01
    -16.647  0.0000E+00  0.2000E+01
    -16.538  0.0000E+00  0.2000E+01
    -16.430  0.0000E+00  0.2000E+01
    -16.321  0.0000E+00  0.2000E+01
    -16.213  0.0000E+00  0.2000E+01
    -16.104  0.0000E+00  0.2000E+01
    -15.996  0.0000E+00  0.2000E+01
    -15.887  0.0000E+00  0.2000E+01
    -15.778  0.0000E+00  0.2000E+01
    -15.670  0.0000E+00  0.2000E+01
    -15.561  0.0000E+00  0.2000E+01
    -15.453  0.0000E+00  0.2000E+01
    -15.344  0.9730E-25  0.2000E+01
    -15.235  0.3629E-21  0.2000E+01
    -15.127  0.7372E-18  0.2000E+01
    -15.018  0.8129E-15  0.2000E+01
    -14.910  0.4853E-12  0.2000E+01
    -14.801  0.1553E-09  0.2000E+01
    -14.693  0.2644E-07  0.2000E+01
    -14.584  0.2361E-05  0.2000E+01
    -14.475  0.1079E-03  0.2000E+01
    -14.367  0.2410E-02  0.2000E+01
    -14.258  0.2357E-01  0.2003E+01
    -14.150  0.6330E-01  0.2010E+01
    -14.041 -0.2501E+00  0.1983E+01
    -13.932 -0.7847E+00  0.1897E+01
    -13.824  0.2678E+01  0.2188E+01
    -13.715  0.9356E+01  0.3204E+01
    -13.607  0.7377E+01  0.4005E+01
    -13.498  0.6773E+00  0.4079E+01
    -13.390 -0.7402E+00  0.3998E+01
    -13.281 -0.5263E-01  0.3993E+01
    -13.172  0.5623E-01  0.3999E+01
    -13.064  0.1161E-01  0.4000E+01
    -12.955  0.8647E-03  0.4000E+01
    -12.847  0.2973E-04  0.4000E+01
    -12.738  0.5099E-06  0.4000E+01
    -12.629  0.4543E-08  0.4000E+01
    -12.521  0.4671E-08  0.4000E+01
    -12.412  0.5683E-06  0.4000E+01
    -12.304  0.3608E-04  0.4000E+01
    -12.195  0.1151E-02  0.4000E+01
    -12.087  0.1722E-01  0.4002E+01
    -11.978  0.9858E-01  0.4013E+01
    -11.869 -0.1291E-01  0.4011E+01
    -11.761 -0.1295E+01  0.3871E+01
    -11.652  0.3005E+00  0.3903E+01
    -11.544  0.1279E+02  0.5292E+01
    -11.435  0.1953E+02  0.7413E+01
    -11.326  0.7272E+01  0.8203E+01
    -11.218 -0.1341E+01  0.8057E+01
    -11.109 -0.7049E+00  0.7980E+01
    -11.001  0.1134E+00  0.7993E+01
    -10.892  0.5966E-01  0.7999E+01
    -10.784  0.6995E-02  0.8000E+01
    -10.675  0.3495E-03  0.8000E+01
    -10.566  0.8586E-05  0.8000E+01
    -10.458  0.9329E-05  0.8000E+01
    -10.349  0.3336E-03  0.8000E+01
    -10.241  0.5749E-02  0.8001E+01
    -10.132  0.4012E-01  0.8005E+01
    -10.023  0.3333E-01  0.8009E+01
     -9.915 -0.5145E+00  0.7953E+01
     -9.806 -0.3394E+00  0.7916E+01
     -9.698  0.5125E+01  0.8472E+01
     -9.589  0.9994E+01  0.9558E+01
     -9.481  0.4888E+01  0.1009E+02
     -9.372 -0.4078E+00  0.1004E+02
     -9.263 -0.4887E+00  0.9991E+01
     -9.155  0.3849E-01  0.9995E+01
     -9.046  0.3844E-01  0.9999E+01
     -8.938  0.5326E-02  0.1000E+02
     -8.829  0.3016E-03  0.1000E+02
     -8.720  0.8157E-05  0.1000E+02
     -8.612  0.1117E-06  0.1000E+02
     -8.503  0.7978E-09  0.1000E+02
     -8.395  0.3018E-11  0.1000E+02
     -8.286  0.6135E-14  0.1000E+02
     -8.178  0.1274E-22  0.1000E+02
     -8.069  0.3334E-19  0.1000E+02
     -7.960  0.4743E-16  0.1000E+02
     -7.852  0.3653E-13  0.1000E+02
     -7.743  0.1519E-10  0.1000E+02
     -7.635  0.3367E-08  0.1000E+02
     -7.526  0.3941E-06  0.1000E+02
     -7.417  0.2390E-04  0.1000E+02
     -7.309  0.7250E-03  0.1000E+02
     -7.200  0.1022E-01  0.1000E+02
     -7.092  0.5342E-01  0.1001E+02
     -6.983 -0.3074E-01  0.1000E+02
     -6.875 -0.7041E+00  0.9927E+01
     -6.766  0.4371E+00  0.9975E+01
     -6.657  0.7016E+01  0.1074E+02
     -6.549  0.9749E+01  0.1180E+02
     -6.440  0.2726E+01  0.1209E+02
     -6.332 -0.3080E+01  0.1176E+02
     -6.223  0.4129E+01  0.1220E+02
     -6.114  0.2488E+02  0.1491E+02
     -6.006  0.2376E+02  0.1749E+02
     -5.897  0.7439E+01  0.1829E+02
     -5.789  0.2423E+02  0.2093E+02
     -5.680  0.6824E+02  0.2834E+02
     -5.572  0.1580E+03  0.4549E+02
     -5.463  0.2818E+03  0.7608E+02
     -5.354  0.2992E+03  0.1086E+03
     -5.246  0.2222E+03  0.1327E+03
     -5.137  0.2233E+03  0.1569E+03
     -5.029  0.3152E+03  0.1912E+03
     -4.920  0.3636E+03  0.2306E+03
     -4.811  0.3162E+03  0.2650E+03
     -4.703  0.3181E+03  0.2995E+03
     -4.594  0.4013E+03  0.3431E+03
     -4.486  0.4203E+03  0.3887E+03
     -4.377  0.4335E+03  0.4358E+03
     -4.269  0.5390E+03  0.4943E+03
     -4.160  0.5164E+03  0.5504E+03
     -4.051  0.2500E+03  0.5775E+03
     -3.943  0.3577E+02  0.5814E+03
     -3.834  0.1336E+02  0.5829E+03
     -3.726  0.3114E+02  0.5863E+03
     -3.617  0.1612E+02  0.5880E+03
     -3.508  0.1804E+02  0.5900E+03
     -3.400  0.2835E+02  0.5930E+03
     -3.291  0.9220E+01  0.5941E+03
     -3.183 -0.4312E+01  0.5936E+03
     -3.074  0.2493E+02  0.5963E+03
     -2.966  0.6317E+02  0.6031E+03
     -2.857  0.4973E+02  0.6085E+03
     -2.748  0.1257E+02  0.6099E+03
     -2.640  0.1653E+01  0.6101E+03
     -2.531  0.2012E+02  0.6123E+03
     -2.423  0.2969E+02  0.6155E+03
     -2.314  0.1551E+02  0.6172E+03
     -2.205  0.1100E+02  0.6184E+03
     -2.097  0.2575E+02  0.6212E+03
     -1.988  0.4002E+02  0.6255E+03
     -1.880  0.4651E+02  0.6306E+03
     -1.771  0.4368E+02  0.6353E+03
     -1.663  0.3926E+02  0.6396E+03
     -1.554  0.4119E+02  0.6440E+03
     -1.445  0.3177E+02  0.6475E+03
     -1.337  0.2035E+02  0.6497E+03
     -1.228  0.2404E+02  0.6523E+03
     -1.120  0.2354E+02  0.6549E+03
     -1.011  0.2616E+02  0.6577E+03
     -0.902  0.5174E+02  0.6633E+03
     -0.794  0.4804E+02  0.6686E+03
     -0.685  0.1943E+02  0.6707E+03
     -0.577  0.8477E+01  0.6716E+03
     -0.468  0.4265E+01  0.6720E+03
     -0.360 -0.7505E-01  0.6720E+03
     -0.251 -0.4219E+00  0.6720E+03
     -0.142  0.4839E-01  0.6720E+03
     -0.034  0.4592E-01  0.6720E+03
      0.075  0.6814E-02  0.6720E+03
      0.183  0.4131E-03  0.6720E+03
      0.292  0.1193E-04  0.6720E+03
      0.401  0.1740E-06  0.6720E+03
      0.509  0.1322E-08  0.6720E+03
      0.618  0.5315E-11  0.6720E+03
      0.726  0.1227E-13  0.6720E+03
      0.835  0.0000E+00  0.6720E+03
      0.943  0.0000E+00  0.6720E+03
      1.052  0.0000E+00  0.6720E+03
      1.161  0.0000E+00  0.6720E+03
      1.269  0.0000E+00  0.6720E+03
      1.378  0.0000E+00  0.6720E+03
