   57   57    1    1
  0.4736842E+03  0.3000000E-08  0.3000000E-08  0.3000000E-08  0.5000000E-15
  1.000000000000000E-004
  CAR 
 6_Pd100_top_free_z(O)                   
    560      1    336
 
  0.0000000E+00  0.0000000E+00  0.0000000E+00  0.1000000E+01
    1      -28.948175   1.000000
    2      -13.521265   1.000000
    3      -11.311225   1.000000
    4      -11.278940   1.000000
    5       -9.511801   1.000000
    6       -6.633600   1.000000
    7       -6.117046   1.000000
    8       -6.116386   1.000000
    9       -6.106062   1.000000
   10       -5.806725   1.000000
   11       -5.802663   1.000000
   12       -5.799606   1.000000
   13       -5.735598   1.000000
   14       -5.681423   1.000000
   15       -5.677480   1.000000
   16       -5.673687   1.000000
   17       -5.672879   1.000000
   18       -5.617018   1.000000
   19       -5.611453   1.000000
   20       -5.609181   1.000000
   21       -5.600752   1.000000
   22       -5.592984   1.000000
   23       -5.584580   1.000000
   24       -5.554161   1.000000
   25       -5.547652   1.000000
   26       -5.538358   1.000000
   27       -5.535769   1.000000
   28       -5.534886   1.000000
   29       -5.517210   1.000000
   30       -5.509471   1.000000
   31       -5.507229   1.000000
   32       -5.506100   1.000000
   33       -5.502536   1.000000
   34       -5.502330   1.000000
   35       -5.501772   1.000000
   36       -5.477327   1.000000
   37       -5.468139   1.000000
   38       -5.465047   1.000000
   39       -5.461795   1.000000
   40       -5.457616   1.000000
   41       -5.457299   1.000000
   42       -5.456120   1.000000
   43       -5.455501   1.000000
   44       -5.431791   1.000000
   45       -5.425473   1.000000
   46       -5.421505   1.000000
   47       -5.417363   1.000000
   48       -5.416664   1.000000
   49       -5.412824   1.000000
   50       -5.411906   1.000000
   51       -5.408950   1.000000
   52       -5.394629   1.000000
   53       -5.394136   1.000000
   54       -5.385846   1.000000
   55       -5.377350   1.000000
   56       -5.342007   1.000000
   57       -5.323191   1.000000
   58       -5.315067   1.000000
   59       -5.314361   1.000000
   60       -5.313364   1.000000
   61       -5.308355   1.000000
   62       -5.305987   1.000000
   63       -5.304260   1.000000
   64       -5.289948   1.000000
   65       -5.288685   1.000000
   66       -5.282024   1.000000
   67       -5.278499   1.000000
   68       -5.217857   1.000000
   69       -5.205340   1.000000
   70       -5.194133   1.000000
   71       -5.192920   1.000000
   72       -5.181101   1.000000
   73       -5.177814   1.000000
   74       -5.171144   1.000000
   75       -5.168984   1.000000
   76       -5.167550   1.000000
   77       -5.166624   1.000000
   78       -5.151867   1.000000
   79       -5.151042   1.000000
   80       -5.140094   1.000000
   81       -5.131278   1.000000
   82       -5.115326   1.000000
   83       -5.113029   1.000000
   84       -5.109088   1.000000
   85       -5.097387   1.000000
   86       -5.094213   1.000000
   87       -5.092517   1.000000
   88       -5.062708   1.000000
   89       -5.053187   1.000000
   90       -5.045902   1.000000
   91       -5.044576   1.000000
   92       -5.042154   1.000000
   93       -5.042068   1.000000
   94       -5.040269   1.000000
   95       -5.037164   1.000000
   96       -5.027574   1.000000
   97       -5.022473   1.000000
   98       -5.016832   1.000000
   99       -5.016126   1.000000
  100       -5.010661   1.000000
  101       -5.005310   1.000000
  102       -4.997252   1.000000
  103       -4.993395   1.000000
  104       -4.988134   1.000000
  105       -4.985744   1.000000
  106       -4.979875   1.000000
  107       -4.978461   1.000000
  108       -4.974170   1.000000
  109       -4.970752   1.000000
  110       -4.962228   1.000000
  111       -4.961107   1.000000
  112       -4.951060   1.000000
  113       -4.946964   0.999999
  114       -4.944589   0.999999
  115       -4.943934   0.999999
  116       -4.942258   0.999999
  117       -4.928117   0.999999
  118       -4.917663   0.999998
  119       -4.909409   0.999998
  120       -4.905715   0.999998
  121       -4.901373   0.999997
  122       -4.895375   0.999997
  123       -4.892476   0.999996
  124       -4.889640   0.999996
  125       -4.889188   0.999996
  126       -4.887873   0.999996
  127       -4.845755   0.999984
  128       -4.843540   0.999983
  129       -4.833793   0.999977
  130       -4.830860   0.999975
  131       -4.828963   0.999974
  132       -4.828347   0.999973
  133       -4.819855   0.999966
  134       -4.819265   0.999965
  135       -4.817901   0.999964
  136       -4.793591   0.999929
  137       -4.787889   0.999917
  138       -4.781128   0.999901
  139       -4.780913   0.999901
  140       -4.759161   0.999827
  141       -4.757864   0.999821
  142       -4.753012   0.999799
  143       -4.737761   0.999711
  144       -4.734033   0.999685
  145       -4.725255   0.999615
  146       -4.723757   0.999602
  147       -4.711532   0.999480
  148       -4.696287   0.999286
  149       -4.687495   0.999149
  150       -4.683220   0.999075
  151       -4.675182   0.998923
  152       -4.672126   0.998860
  153       -4.670792   0.998832
  154       -4.664567   0.998694
  155       -4.662767   0.998652
  156       -4.660542   0.998599
  157       -4.660292   0.998592
  158       -4.659328   0.998569
  159       -4.656014   0.998485
  160       -4.643371   0.998136
  161       -4.641965   0.998094
  162       -4.637503   0.997958
  163       -4.634866   0.997875
  164       -4.634732   0.997870
  165       -4.633497   0.997831
  166       -4.632546   0.997800
  167       -4.630737   0.997741
  168       -4.630000   0.997716
  169       -4.617950   0.997299
  170       -4.616457   0.997246
  171       -4.594083   0.996412
  172       -4.588650   0.996211
  173       -4.586467   0.996131
  174       -4.585307   0.996089
  175       -4.583818   0.996036
  176       -4.582257   0.995980
  177       -4.580117   0.995905
  178       -4.575607   0.995753
  179       -4.569939   0.995575
  180       -4.563427   0.995393
  181       -4.562602   0.995372
  182       -4.548675   0.995113
  183       -4.547245   0.995098
  184       -4.540972   0.995065
  185       -4.540845   0.995065
  186       -4.540126   0.995065
  187       -4.538251   0.995069
  188       -4.538008   0.995070
  189       -4.535461   0.995085
  190       -4.532931   0.995111
  191       -4.510559   0.995927
  192       -4.497011   0.997069
  193       -4.494783   0.997314
  194       -4.493749   0.997433
  195       -4.491722   0.997678
  196       -4.484426   0.998684
  197       -4.473435   1.000596
  198       -4.470204   1.001254
  199       -4.468340   1.001654
  200       -4.459468   1.003770
  201       -4.457814   1.004203
  202       -4.454629   1.005073
  203       -4.447364   1.007232
  204       -4.445273   1.007898
  205       -4.439826   1.009725
  206       -4.438107   1.010328
  207       -4.434555   1.011617
  208       -4.431992   1.012580
  209       -4.427973   1.014146
  210       -4.427166   1.014468
  211       -4.413143   1.020440
  212       -4.403677   1.024799
  213       -4.399092   1.026973
  214       -4.396583   1.028174
  215       -4.393669   1.029575
  216       -4.391937   1.030409
  217       -4.391075   1.030824
  218       -4.389538   1.031564
  219       -4.385206   1.033643
  220       -4.370502   1.040437
  221       -4.356697   1.045961
  222       -4.354955   1.046564
  223       -4.337341   1.050949
  224       -4.332592   1.051462
  225       -4.328595   1.051623
  226       -4.325602   1.051568
  227       -4.325004   1.051538
  228       -4.323948   1.051470
  229       -4.322485   1.051340
  230       -4.321000   1.051167
  231       -4.319901   1.051012
  232       -4.318927   1.050854
  233       -4.315186   1.050066
  234       -4.311990   1.049155
  235       -4.310147   1.048525
  236       -4.308473   1.047884
  237       -4.308122   1.047741
  238       -4.307326   1.047406
  239       -4.305431   1.046548
  240       -4.301913   1.044715
  241       -4.292932   1.038540
  242       -4.287513   1.033700
  243       -4.280614   1.026231
  244       -4.276273   1.020744
  245       -4.272997   1.016183
  246       -4.272000   1.014723
  247       -4.270444   1.012374
  248       -4.269367   1.010699
  249       -4.265712   1.004707
  250       -4.257750   0.989974
  251       -4.250676   0.974902
  252       -4.246710   0.965619
  253       -4.243405   0.957420
  254       -4.241261   0.951875
  255       -4.240195   0.949051
  256       -4.237654   0.942143
  257       -4.236132   0.937886
  258       -4.235496   0.936081
  259       -4.230577   0.921588
  260       -4.230518   0.921406
  261       -4.228661   0.915687
  262       -4.226687   0.909464
  263       -4.223886   0.900374
  264       -4.223521   0.899168
  265       -4.221978   0.894015
  266       -4.213508   0.864134
  267       -4.211322   0.855996
  268       -4.207428   0.841076
  269       -4.205573   0.833782
  270       -4.204828   0.830821
  271       -4.202447   0.821227
  272       -4.197355   0.800079
  273       -4.182409   0.733437
  274       -4.178496   0.714979
  275       -4.170605   0.676677
  276       -4.168946   0.668457
  277       -4.163469   0.640956
  278       -4.162477   0.635924
  279       -4.159170   0.619029
  280       -4.158418   0.615167
  281       -4.156188   0.603671
  282       -4.144111   0.540534
  283       -4.117627   0.401179
  284       -4.114673   0.385928
  285       -4.113829   0.381588
  286       -4.113115   0.377927
  287       -4.101498   0.319506
  288       -4.097186   0.298475
  289       -4.083926   0.236597
  290       -3.956579  -0.050331
  291       -3.885237  -0.032476
  292       -3.811659  -0.003324
  293       -3.802401  -0.001196
  294       -3.768316   0.003637
  295       -3.484623   0.000082
  296       -3.475699   0.000064
  297       -3.423657   0.000014
  298       -3.044073   0.000000
  299       -3.043265   0.000000
  300       -3.021091   0.000000
  301       -3.012052   0.000000
  302       -3.006617   0.000000
  303       -2.965257   0.000000
  304       -2.925418   0.000000
  305       -2.900767   0.000000
  306       -2.513671   0.000000
  307       -2.508146   0.000000
  308       -2.440578   0.000000
  309       -2.340604   0.000000
  310       -2.150082   0.000000
  311       -2.107732   0.000000
  312       -2.102857   0.000000
  313       -1.990049   0.000000
  314       -1.973430   0.000000
  315       -1.922794   0.000000
  316       -1.860309   0.000000
  317       -1.848464   0.000000
  318       -1.727792   0.000000
  319       -1.689001   0.000000
  320       -1.630282   0.000000
  321       -1.617590   0.000000
  322       -1.551353   0.000000
  323       -1.542881   0.000000
  324       -1.434145   0.000000
  325       -1.362456   0.000000
  326       -1.194075   0.000000
  327       -1.165070   0.000000
  328       -1.120958   0.000000
  329       -0.977397   0.000000
  330       -0.971800   0.000000
  331       -0.963273   0.000000
  332       -0.921800   0.000000
  333       -0.905943   0.000000
  334       -0.867639   0.000000
  335       -0.794184   0.000000
  336       -0.467255   0.000000
