 vasp.5.4.4.18Apr17-6-g9f103f2a35 (build Sep 03 2018 23:53:05) complex          
  
 executed on             LinuxIFC date 2021.11.27  03:48:20
 running on    1 total cores
 distrk:  each k-point on    1 cores,    1 groups
 distr:  one band on NCORES_PER_BAND=   1 cores,    1 groups


--------------------------------------------------------------------------------------------------------


 INCAR:
 POTCAR:    PAW_PBE Pd 04Jan2005                  
 POTCAR:    PAW_PBE C 08Apr2002                   
 POTCAR:    PAW_PBE O 08Apr2002                   
 POTCAR:    PAW_PBE Pd 04Jan2005                  
   VRHFIN =Pd : s1 d9                                                           
   LEXCH  = PE                                                                  
   EATOM  =   809.7530 eV,   59.5152 Ry                                         
                                                                                
   TITEL  = PAW_PBE Pd 04Jan2005                                                
   LULTRA =        F    use ultrasoft PP ?                                      
   IUNSCR =        1    unscreen: 0-lin 1-nonlin 2-no                           
   RPACOR =    2.000    partial core radius                                     
   POMASS =  106.420; ZVAL   =   10.000    mass and valenz                      
   RCORE  =    2.600    outmost cutoff radius                                   
   RWIGS  =    2.710; RWIGS  =    1.434    wigner-seitz radius (au A)           
   ENMAX  =  250.925; ENMIN  =  188.194 eV                                      
   ICORE  =        3    local potential                                         
   LCOR   =        T    correct aug charges                                     
   LPAW   =        T    paw PP                                                  
   EAUG   =  416.230                                                            
   DEXC   =    0.000                                                            
   RMAX   =    2.653    core radius for proj-oper                               
   RAUG   =    1.300    factor for augmentation sphere                          
   RDEP   =    2.734    radius for radial grids                                 
   RDEPT  =    2.103    core radius for aug-charge                              
                                                                                
   Atomic configuration                                                         
   12 entries                                                                   
     n  l   j            E        occ.                                          
     1  0  0.50    -24164.6631   2.0000                                         
     2  0  0.50     -3530.9218   2.0000                                         
     2  1  1.50     -3165.6822   6.0000                                         
     3  0  0.50      -639.4577   2.0000                                         
     3  1  1.50      -519.4532   6.0000                                         
     3  2  2.50      -328.9757  10.0000                                         
     4  0  0.50       -88.7014   2.0000                                         
     4  1  1.50       -54.4540   6.0000                                         
     4  2  2.50        -6.6878   9.0000                                         
     5  0  0.50        -4.3543   1.0000                                         
     5  1  0.50        -1.3606   0.0000                                         
     4  3  2.50        -1.3606   0.0000                                         
   Description                                                                  
     l       E           TYP  RCUT    TYP  RCUT                                 
     2     -6.6878251     23  2.400                                             
     2     -8.0484077     23  2.400                                             
     0     -4.3542939     23  2.400                                             
     0      4.3406793     23  2.400                                             
     1     -4.0817478     23  2.600                                             
     1     15.8380318     23  2.600                                             
     3     -4.0817478     23  2.400                                             
  local pseudopotential read in
  partial core-charges read in
  partial kinetic energy density read in
  atomic valenz-charges read in
  non local Contribution for L=           2  read in
    real space projection operators read in
  non local Contribution for L=           2  read in
    real space projection operators read in
  non local Contribution for L=           0  read in
    real space projection operators read in
  non local Contribution for L=           0  read in
    real space projection operators read in
  non local Contribution for L=           1  read in
    real space projection operators read in
  non local Contribution for L=           1  read in
    real space projection operators read in
    PAW grid and wavefunctions read in
 
   number of l-projection  operators is LMAX  =           6
   number of lm-projection operators is LMMAX =          18
 
 POTCAR:    PAW_PBE C 08Apr2002                   
   VRHFIN =C: s2p2                                                              
   LEXCH  = PE                                                                  
   EATOM  =   147.1560 eV,   10.8157 Ry                                         
                                                                                
   TITEL  = PAW_PBE C 08Apr2002                                                 
   LULTRA =        F    use ultrasoft PP ?                                      
   IUNSCR =        1    unscreen: 0-lin 1-nonlin 2-no                           
   RPACOR =    1.200    partial core radius                                     
   POMASS =   12.011; ZVAL   =    4.000    mass and valenz                      
   RCORE  =    1.500    outmost cutoff radius                                   
   RWIGS  =    1.630; RWIGS  =    0.863    wigner-seitz radius (au A)           
   ENMAX  =  400.000; ENMIN  =  300.000 eV                                      
   ICORE  =        2    local potential                                         
   LCOR   =        T    correct aug charges                                     
   LPAW   =        T    paw PP                                                  
   EAUG   =  644.873                                                            
   DEXC   =    0.000                                                            
   RMAX   =    1.529    core radius for proj-oper                               
   RAUG   =    1.300    factor for augmentation sphere                          
   RDEP   =    1.501    radius for radial grids                                 
   RDEPT  =    1.300    core radius for aug-charge                              
                                                                                
   Atomic configuration                                                         
    4 entries                                                                   
     n  l   j            E        occ.                                          
     1  0  0.50      -273.3789   2.0000                                         
     2  0  0.50       -13.7508   2.0000                                         
     2  1  0.50        -5.2854   2.0000                                         
     3  2  1.50        -5.4423   0.0000                                         
   Description                                                                  
     l       E           TYP  RCUT    TYP  RCUT                                 
     0    -13.7508458     23  1.200                                             
     0     -8.2022199     23  1.200                                             
     1     -5.2854383     23  1.500                                             
     1     34.0145650     23  1.500                                             
     2     -5.4423304      7  1.500                                             
  local pseudopotential read in
  partial core-charges read in
  partial kinetic energy density read in
  atomic valenz-charges read in
  non local Contribution for L=           0  read in
    real space projection operators read in
  non local Contribution for L=           0  read in
    real space projection operators read in
  non local Contribution for L=           1  read in
    real space projection operators read in
  non local Contribution for L=           1  read in
    real space projection operators read in
    PAW grid and wavefunctions read in
 
   number of l-projection  operators is LMAX  =           4
   number of lm-projection operators is LMMAX =           8
 
 POTCAR:    PAW_PBE O 08Apr2002                   
   VRHFIN =O: s2p4                                                              
   LEXCH  = PE                                                                  
   EATOM  =   432.3788 eV,   31.7789 Ry                                         
                                                                                
   TITEL  = PAW_PBE O 08Apr2002                                                 
   LULTRA =        F    use ultrasoft PP ?                                      
   IUNSCR =        1    unscreen: 0-lin 1-nonlin 2-no                           
   RPACOR =    1.200    partial core radius                                     
   POMASS =   16.000; ZVAL   =    6.000    mass and valenz                      
   RCORE  =    1.520    outmost cutoff radius                                   
   RWIGS  =    1.550; RWIGS  =    0.820    wigner-seitz radius (au A)           
   ENMAX  =  400.000; ENMIN  =  300.000 eV                                      
   ICORE  =        2    local potential                                         
   LCOR   =        T    correct aug charges                                     
   LPAW   =        T    paw PP                                                  
   EAUG   =  605.392                                                            
   DEXC   =    0.000                                                            
   RMAX   =    1.553    core radius for proj-oper                               
   RAUG   =    1.300    factor for augmentation sphere                          
   RDEP   =    1.550    radius for radial grids                                 
   RDEPT  =    1.329    core radius for aug-charge                              
                                                                                
   Atomic configuration                                                         
    4 entries                                                                   
     n  l   j            E        occ.                                          
     1  0  0.50      -514.6923   2.0000                                         
     2  0  0.50       -23.9615   2.0000                                         
     2  1  0.50        -9.0305   4.0000                                         
     3  2  1.50        -9.5241   0.0000                                         
   Description                                                                  
     l       E           TYP  RCUT    TYP  RCUT                                 
     0    -23.9615318     23  1.200                                             
     0     -9.5240782     23  1.200                                             
     1     -9.0304911     23  1.520                                             
     1      8.1634956     23  1.520                                             
     2     -9.5240782      7  1.500                                             
  local pseudopotential read in
  partial core-charges read in
  partial kinetic energy density read in
  kinetic energy density of atom read in
  atomic valenz-charges read in
  non local Contribution for L=           0  read in
    real space projection operators read in
  non local Contribution for L=           0  read in
    real space projection operators read in
  non local Contribution for L=           1  read in
    real space projection operators read in
  non local Contribution for L=           1  read in
    real space projection operators read in
    PAW grid and wavefunctions read in
 
   number of l-projection  operators is LMAX  =           4
   number of lm-projection operators is LMMAX =           8
 
 Optimization of the real space projectors (new method)

 maximal supplied QI-value         = 14.36
 optimisation between [QCUT,QGAM] = [ 10.20, 20.39] = [ 29.12,116.47] Ry 
 Optimized for a Real-space Cutoff    1.51 Angstroem

   l    n(q)    QCUT    max X(q) W(low)/X(q) W(high)/X(q)  e(spline) 
   2      8    10.197    59.108    0.26E-03    0.14E-03    0.96E-07
   2      8    10.197    58.101    0.27E-03    0.14E-03    0.98E-07
   0      9    10.197   102.235    0.54E-04    0.60E-05    0.72E-07
   0      9    10.197    58.388    0.52E-04    0.60E-05    0.68E-07
   1      9    10.197    22.191    0.18E-03    0.25E-03    0.79E-07
   1      9    10.197    15.590    0.15E-03    0.21E-03    0.69E-07
 Optimization of the real space projectors (new method)

 maximal supplied QI-value         = 25.13
 optimisation between [QCUT,QGAM] = [ 10.05, 20.36] = [ 28.30,116.06] Ry 
 Optimized for a Real-space Cutoff    1.30 Angstroem

   l    n(q)    QCUT    max X(q) W(low)/X(q) W(high)/X(q)  e(spline) 
   0      8    10.053   115.676    0.49E-03    0.72E-03    0.18E-06
   0      8    10.053    87.132    0.49E-03    0.71E-03    0.18E-06
   1      7    10.053     4.429    0.32E-03    0.31E-03    0.18E-06
   1      7    10.053     2.733    0.23E-03    0.19E-03    0.20E-06
 Optimization of the real space projectors (new method)

 maximal supplied QI-value         = 24.76
 optimisation between [QCUT,QGAM] = [ 10.15, 20.30] = [ 28.85,115.39] Ry 
 Optimized for a Real-space Cutoff    1.38 Angstroem

   l    n(q)    QCUT    max X(q) W(low)/X(q) W(high)/X(q)  e(spline) 
   0      8    10.150    20.381    0.22E-03    0.32E-03    0.29E-06
   0      8    10.150    15.268    0.23E-03    0.35E-03    0.30E-06
   1      8    10.150     5.964    0.46E-03    0.53E-03    0.21E-06
   1      8    10.150     5.382    0.38E-03    0.45E-03    0.19E-06

 ----------------------------------------------------------------------------- 
|                                                                             |
|  ADVICE TO THIS USER RUNNING 'VASP/VAMP'   (HEAR YOUR MASTER'S VOICE ...):  |
|                                                                             |
|      You enforced a specific xc-type in the INCAR file,                     |
|      a different type was found on the POTCAR file                          |
|          I HOPE YOU KNOW, WHAT YOU ARE  DOING                               |
|                                                                             |
 ----------------------------------------------------------------------------- 

  PAW_PBE Pd 04Jan2005                  :
 energy of atom  1       EATOM= -809.7530
 kinetic energy error for atom=    0.0091 (will be added to EATOM!!)
  PAW_PBE C 08Apr2002                   :
 energy of atom  2       EATOM= -147.1560
 kinetic energy error for atom=    0.0288 (will be added to EATOM!!)
  PAW_PBE O 08Apr2002                   :
 energy of atom  3       EATOM= -432.3788
 kinetic energy error for atom=    0.1156 (will be added to EATOM!!)
 
 
 POSCAR: Pd55PES                                 
  positions in cartesian coordinates
  No initial velocities read in
 exchange correlation table for  LEXCH =        9
   RHO(1)=    0.500       N(1)  =     2000
   RHO(2)=  100.500       N(2)  =     4000
 


--------------------------------------------------------------------------------------------------------


 ion  position               nearest neighbor table
   1  0.446  0.328  0.417-   3 3.25   5 3.25   7 3.36  15 3.36  29 3.42  28 3.42
   2  0.672  0.554  0.417-  26 3.25  30 3.25  17 3.36   9 3.36  47 3.42  49 3.42
   3  0.554  0.328  0.417-   1 3.25   5 3.25   7 3.36  11 3.36  29 3.42  21 3.42
   4  0.328  0.554  0.417-  32 3.25  22 3.25  13 3.36   8 3.36  43 3.42  48 3.42
   5  0.500  0.383  0.340-   1 3.25   3 3.25  11 3.36  15 3.36  21 3.42  28 3.42
   6  0.500  0.383  0.660-  24 3.25  19 3.25  16 3.36  12 3.36  42 3.42  44 3.42
   7  0.500  0.276  0.500-  29 3.24   3 3.36   1 3.36  19 3.36  24 3.36
   8  0.276  0.500  0.500-  48 3.24  22 3.36  40 3.36   4 3.36  25 3.36
   9  0.724  0.500  0.500-  49 3.24  26 3.36  45 3.36   2 3.36  20 3.36
  10  0.500  0.724  0.500-  55 3.24  27 3.36  23 3.36  46 3.36  41 3.36
  11  0.612  0.388  0.342-  21 3.24   5 3.36   3 3.36  30 3.36  26 3.36
  12  0.612  0.388  0.658-  42 3.24  24 3.36  45 3.36   6 3.36  31 3.36
  13  0.388  0.612  0.342-  56 2.57  43 3.24  32 3.36  50 3.36   4 3.36  27 3.36
  14  0.388  0.612  0.658-  53 3.24  25 3.36  33 3.36  51 3.36  46 3.36
  15  0.388  0.388  0.342-  28 3.24   5 3.36   1 3.36  32 3.36  22 3.36
  16  0.388  0.388  0.658-  44 3.24  19 3.36  40 3.36   6 3.36  33 3.36
  17  0.612  0.612  0.342-  47 3.24  30 3.36  50 3.36   2 3.36  23 3.36
  18  0.612  0.612  0.658-  54 3.24  31 3.36  20 3.36  51 3.36  41 3.36
  19  0.446  0.328  0.583-   6 3.25  24 3.25  16 3.36   7 3.36  44 3.42  29 3.42
  20  0.672  0.554  0.583-  31 3.25  45 3.25  18 3.36   9 3.36  54 3.42  49 3.42
  21  0.558  0.442  0.418-  11 3.24   5 3.42   3 3.42  30 3.42  26 3.42
  22  0.328  0.446  0.417-   4 3.25  32 3.25   8 3.36  15 3.36  48 3.42  28 3.42
  23  0.554  0.672  0.417-  27 3.25  50 3.25  10 3.36  17 3.36  55 3.42  47 3.42
  24  0.554  0.328  0.583-   6 3.25  19 3.25  12 3.36   7 3.36  42 3.42  29 3.42
  25  0.328  0.554  0.583-  33 3.25  40 3.25  14 3.36   8 3.36  53 3.42  48 3.42
  26  0.672  0.446  0.417-   2 3.25  30 3.25   9 3.36  11 3.36  49 3.42  21 3.42
  27  0.446  0.672  0.417-  23 3.25  50 3.25  10 3.36  13 3.36  55 3.42  43 3.42
  28  0.442  0.442  0.418-  15 3.24   5 3.42   1 3.42  32 3.42  22 3.42
  29  0.500  0.384  0.500-   7 3.24   3 3.42   1 3.42  24 3.42  19 3.42
  30  0.617  0.500  0.340-   2 3.25  26 3.25  17 3.36  11 3.36  47 3.42  21 3.42
  31  0.617  0.500  0.660-  20 3.25  45 3.25  18 3.36  12 3.36  54 3.42  42 3.42
  32  0.383  0.500  0.340-   4 3.25  22 3.25  13 3.36  15 3.36  43 3.42  28 3.42
  33  0.383  0.500  0.660-  25 3.25  40 3.25  14 3.36  16 3.36  53 3.42  44 3.42
  34  0.383  0.383  0.500-
  35  0.617  0.617  0.500-
  36  0.617  0.383  0.500-
  37  0.383  0.617  0.500-
  38  0.500  0.500  0.335-
  39  0.500  0.500  0.665-
  40  0.328  0.446  0.583-  33 3.25  25 3.25  16 3.36   8 3.36  44 3.42  48 3.42
  41  0.554  0.672  0.583-  46 3.25  51 3.25  10 3.36  18 3.36  54 3.42  55 3.42
  42  0.558  0.442  0.582-  12 3.24   6 3.42  24 3.42  31 3.42  45 3.42
  43  0.442  0.558  0.418-  13 3.24   4 3.42  32 3.42  27 3.42  50 3.42
  44  0.442  0.442  0.582-  16 3.24   6 3.42  19 3.42  33 3.42  40 3.42
  45  0.672  0.446  0.583-  20 3.25  31 3.25   9 3.36  12 3.36  49 3.42  42 3.42
  46  0.446  0.672  0.583-  41 3.25  51 3.25  10 3.36  14 3.36  53 3.42  55 3.42
  47  0.558  0.558  0.418-  17 3.24   2 3.42  30 3.42  23 3.42  50 3.42
  48  0.384  0.500  0.500-   8 3.24   4 3.42  22 3.42  25 3.42  40 3.42
  49  0.616  0.500  0.500-   9 3.24   2 3.42  26 3.42  20 3.42  45 3.42
  50  0.500  0.617  0.340-  27 3.25  23 3.25  13 3.36  17 3.36  43 3.42  47 3.42
  51  0.500  0.617  0.660-  41 3.25  46 3.25  14 3.36  18 3.36  53 3.42  54 3.42
  52  0.500  0.500  0.500-
  53  0.442  0.558  0.582-  14 3.24  25 3.42  33 3.42  51 3.42  46 3.42
  54  0.558  0.558  0.582-  18 3.24  31 3.42  20 3.42  51 3.42  41 3.42
  55  0.500  0.616  0.500-  10 3.24  23 3.42  27 3.42  41 3.42  46 3.42
  56  0.376  0.684  0.297-  57 1.13  13 2.57
  57  0.360  0.707  0.271-  56 1.13
 
  LATTYP: Found a simple cubic cell.
 ALAT       =    30.0000000000
  
  Lattice vectors:
  
 A1 = (  30.0000000000,   0.0000000000,   0.0000000000)
 A2 = (   0.0000000000,  30.0000000000,   0.0000000000)
 A3 = (   0.0000000000,   0.0000000000,  30.0000000000)


Analysis of symmetry for initial positions (statically):
=====================================================================
 Subroutine PRICEL returns:
 Original cell was already a primitive cell.
 

 Routine SETGRP: Setting up the symmetry group for a 
 simple cubic supercell.


 Subroutine GETGRP returns: Found  1 space group operations
 (whereof  1 operations were pure point group operations)
 out of a pool of 48 trial point group operations.


The static configuration has the point symmetry C_1 .


Analysis of symmetry for dynamics (positions and initial velocities):
=====================================================================
 Subroutine PRICEL returns:
 Original cell was already a primitive cell.
 

 Routine SETGRP: Setting up the symmetry group for a 
 simple cubic supercell.


 Subroutine GETGRP returns: Found  1 space group operations
 (whereof  1 operations were pure point group operations)
 out of a pool of 48 trial point group operations.


The dynamic configuration has the point symmetry C_1 .


Analysis of constrained symmetry for selective dynamics:
=====================================================================
 Subroutine PRICEL returns:
 Original cell was already a primitive cell.
 

 Routine SETGRP: Setting up the symmetry group for a 
 simple cubic supercell.


 Subroutine GETGRP returns: Found  1 space group operations
 (whereof  1 operations were pure point group operations)
 out of a pool of 48 trial point group operations.


The constrained configuration has the point symmetry C_1 .


 Subroutine INISYM returns: Found  1 space group operations
 (whereof  1 operations are pure point group operations),
 and found     1 'primitive' translations

 
 
 KPOINTS: K-points                                

Automatic generation of k-mesh.
Space group operators:
 irot       det(A)        alpha          n_x          n_y          n_z        tau_x        tau_y        tau_z
    1     1.000000     0.000000     1.000000     0.000000     0.000000     0.000000     0.000000     0.000000
 
 Subroutine IBZKPT returns following result:
 ===========================================
 
 Found      1 irreducible k-points:
 
 Following reciprocal coordinates:
            Coordinates               Weight
  0.000000  0.000000  0.000000      1.000000
 
 Following cartesian coordinates:
            Coordinates               Weight
  0.000000  0.000000  0.000000      1.000000
 


--------------------------------------------------------------------------------------------------------




 Dimension of arrays:
   k-points           NKPTS =      1   k-points in BZ     NKDIM =      1   number of bands    NBANDS=    336
   number of dos      NEDOS =    301   number of ions     NIONS =     57
   non local maximal  LDIM  =      6   non local SUM 2l+1 LMDIM =     18
   total plane-waves  NPLWV = ******
   max r-space proj   IRMAX =   1847   max aug-charges    IRDMAX=   6262
   dimension x,y,z NGX =   150 NGY =  150 NGZ =  150
   dimension x,y,z NGXF=   300 NGYF=  300 NGZF=  300
   support grid    NGXF=   300 NGYF=  300 NGZF=  300
   ions per type =              55   1   1
   NGX,Y,Z   is equivalent  to a cutoff of   8.31,  8.31,  8.31 a.u.
   NGXF,Y,Z  is equivalent  to a cutoff of  16.62, 16.62, 16.62 a.u.

 SYSTEM =  6_Pd100_top_free_z(O)                   
 POSCAR =  Pd55PES                                 

 Startparameter for this run:
   NWRITE =      2    write-flag & timer
   PREC   = normal    normal or accurate (medium, high low for compatibility)
   ISTART =      0    job   : 0-new  1-cont  2-samecut
   ICHARG =      2    charge: 1-file 2-atom 10-const
   ISPIN  =      1    spin polarized calculation?
   LNONCOLLINEAR =      F non collinear calculations
   LSORBIT =      F    spin-orbit coupling
   INIWAV =      1    electr: 0-lowe 1-rand  2-diag
   LASPH  =      F    aspherical Exc in radial PAW
   METAGGA=      F    non-selfconsistent MetaGGA calc.

 Electronic Relaxation 1
   ENCUT  =  400.0 eV  29.40 Ry    5.42 a.u.  48.92 48.92 48.92*2*pi/ulx,y,z
   ENINI  =  400.0     initial cutoff
   ENAUG  =  644.9 eV  augmentation charge cutoff
   NELM   =    100;   NELMIN=  6; NELMDL= -5     # of ELM steps 
   EDIFF  = 0.1E-03   stopping-criterion for ELM
   LREAL  =      T    real-space projection
   NLSPLINE    = F    spline interpolate recip. space projectors
   LCOMPAT=      F    compatible to vasp.4.4
   GGA_COMPAT  = T    GGA compatible to vasp.4.4-vasp.4.6
   LMAXPAW     = -100 max onsite density
   LMAXMIX     =    2 max onsite mixed and CHGCAR
   VOSKOWN=      0    Vosko Wilk Nusair interpolation
   ROPT   =   -0.00050  -0.00050  -0.00050
 Ionic relaxation
   EDIFFG = -.5E-01   stopping-criterion for IOM
   NSW    =      0    number of steps for IOM
   NBLOCK =      1;   KBLOCK =      1    inner block; outer block 
   IBRION =     -1    ionic relax: 0-MD 1-quasi-New 2-CG
   NFREE  =      1    steps in history (QN), initial steepest desc. (CG)
   ISIF   =      2    stress and relaxation
   IWAVPR =     10    prediction:  0-non 1-charg 2-wave 3-comb
   ISYM   =      2    0-nonsym 1-usesym 2-fastsym
   LCORR  =      T    Harris-Foulkes like correction to forces

   POTIM  = 0.5000    time-step for ionic-motion
   TEIN   =    0.0    initial temperature
   TEBEG  =    0.0;   TEEND  =   0.0 temperature during run
   SMASS  =  -3.00    Nose mass-parameter (am)
   estimated Nose-frequenzy (Omega)   =  0.10E-29 period in steps =****** mass=  -0.206E-25a.u.
   SCALEE = 1.0000    scale energy and forces
   NPACO  =    256;   APACO  = 16.0  distance and # of slots for P.C.
   PSTRESS=    0.0 pullay stress

  Mass of Ions in am
   POMASS = 106.42 12.01 16.00
  Ionic Valenz
   ZVAL   =  10.00  4.00  6.00
  Atomic Wigner-Seitz radii
   RWIGS  =  -1.00 -1.00 -1.00
  virtual crystal weights 
   VCA    =   1.00  1.00  1.00
   NELECT =     560.0000    total number of electrons
   NUPDOWN=      -1.0000    fix difference up-down

 DOS related values:
   EMIN   =  10.00;   EMAX   =-10.00  energy-range for DOS
   EFERMI =   0.00
   ISMEAR =     2;   SIGMA  =   0.20  broadening in eV -4-tet -1-fermi 0-gaus

 Electronic relaxation 2 (details)
   IALGO  =     68    algorithm
   LDIAG  =      T    sub-space diagonalisation (order eigenvalues)
   LSUBROT=      F    optimize rotation matrix (better conditioning)
   TURBO    =      0    0=normal 1=particle mesh
   IRESTART =      0    0=no restart 2=restart with 2 vectors
   NREBOOT  =      0    no. of reboots
   NMIN     =      0    reboot dimension
   EREF     =   0.00    reference energy to select bands
   IMIX   =      4    mixing-type and parameters
     AMIX     =   0.40;   BMIX     =  1.00
     AMIX_MAG =   1.60;   BMIX_MAG =  1.00
     AMIN     =   0.10
     WC   =   100.;   INIMIX=   1;  MIXPRE=   1;  MAXMIX= -45

 Intra band minimization:
   WEIMIN = 0.0000     energy-eigenvalue tresh-hold
   EBREAK =  0.74E-07  absolut break condition
   DEPER  =   0.30     relativ break condition  

   TIME   =   0.40     timestep for ELM

  volume/ion in A,a.u.               =     473.68      3196.58
  Fermi-wavevector in a.u.,A,eV,Ry     =   0.449797  0.849992  2.752691  0.202317
  Thomas-Fermi vector in A             =   1.430086
 
 Write flags
   LWAVE        =      F    write WAVECAR
   LDOWNSAMPLE  =      F    k-point downsampling of WAVECAR
   LCHARG       =      F    write CHGCAR
   LVTOT        =      F    write LOCPOT, total local potential
   LVHAR        =      F    write LOCPOT, Hartree potential only
   LELF         =      F    write electronic localiz. function (ELF)
   LORBIT       =      0    0 simple, 1 ext, 2 COOP (PROOUT), +10 PAW based schemes


 Dipole corrections
   LMONO  =      F    monopole corrections only (constant potential shift)
   LDIPOL =      F    correct potential (dipole corrections)
   IDIPOL =      0    1-x, 2-y, 3-z, 4-all directions 
   EPSILON=  1.0000000 bulk dielectric constant

 Exchange correlation treatment:
   GGA     =    RP    GGA type
   LEXCH   =     9    internal setting for exchange type
   VOSKOWN=      0    Vosko Wilk Nusair interpolation
   LHFCALC =     F    Hartree Fock is set to
   LHFONE  =     F    Hartree Fock one center treatment
   AEXX    =    0.0000 exact exchange contribution

 Linear response parameters
   LEPSILON=     F    determine dielectric tensor
   LRPA    =     F    only Hartree local field effects (RPA)
   LNABLA  =     F    use nabla operator in PAW spheres
   LVEL    =     F    velocity operator in full k-point grid
   LINTERFAST=   F  fast interpolation
   KINTER  =     0    interpolate to denser k-point grid
   CSHIFT  =0.1000    complex shift for real part using Kramers Kronig
   OMEGAMAX=  -1.0    maximum frequency
   DEG_THRESHOLD= 0.2000000E-02 threshold for treating states as degnerate
   RTIME   =   -0.100 relaxation time in fs
  (WPLASMAI=    0.000 imaginary part of plasma frequency in eV, 0.658/RTIME)
   DFIELD  = 0.0000000 0.0000000 0.0000000 field for delta impulse in time
 
 Orbital magnetization related:
   ORBITALMAG=     F  switch on orbital magnetization
   LCHIMAG   =     F  perturbation theory with respect to B field
   DQ        =  0.001000  dq finite difference perturbation B field
   LLRAUG    =     F  two centre corrections for induced B field



--------------------------------------------------------------------------------------------------------


 Static calculation
 charge density and potential will be updated during run
 non-spin polarized calculation
 RMM-DIIS sequential band-by-band and
  variant of blocked Davidson during initial phase
 perform sub-space diagonalisation
    before iterative eigenvector-optimisation
 modified Broyden-mixing scheme, WC =      100.0
 initial mixing is a Kerker type mixing with AMIX =  0.4000 and BMIX =      1.0000
 Hartree-type preconditioning will be used
 using additional bands           56
 real space projection scheme for non local part
 use partial core corrections
 calculate Harris-corrections to forces 
   (improved forces if not selfconsistent)
 use gradient corrections 
 use of overlap-Matrix (Vanderbilt PP)
 Methfessel and Paxton  Order N= 2 SIGMA  =   0.20


--------------------------------------------------------------------------------------------------------


  energy-cutoff  :      400.00
  volume of cell :    27000.00
      direct lattice vectors                 reciprocal lattice vectors
    30.000000000  0.000000000  0.000000000     0.033333333  0.000000000  0.000000000
     0.000000000 30.000000000  0.000000000     0.000000000  0.033333333  0.000000000
     0.000000000  0.000000000 30.000000000     0.000000000  0.000000000  0.033333333

  length of vectors
    30.000000000 30.000000000 30.000000000     0.033333333  0.033333333  0.033333333


 
 k-points in units of 2pi/SCALE and weight: K-points                                
   0.00000000  0.00000000  0.00000000       1.000
 
 k-points in reciprocal lattice and weights: K-points                                
   0.00000000  0.00000000  0.00000000       1.000
 
 position of ions in fractional coordinates (direct lattice) 
   0.44576020  0.32826710  0.41691983
   0.67173288  0.55423978  0.41691983
   0.55423980  0.32826710  0.41691983
   0.32826712  0.55423978  0.41691983
   0.50000000  0.38250690  0.34021317
   0.50000000  0.38250690  0.65978680
   0.50000000  0.27609440  0.50000000
   0.27609443  0.49999998  0.50000000
   0.72390557  0.49999998  0.50000000
   0.50000000  0.72390555  0.50000000
   0.61195280  0.38804720  0.34167483
   0.61195280  0.38804720  0.65832513
   0.38804722  0.61195278  0.34167483
   0.38804722  0.61195278  0.65832513
   0.38804720  0.38804720  0.34167483
   0.38804720  0.38804720  0.65832513
   0.61195278  0.61195278  0.34167483
   0.61195278  0.61195278  0.65832513
   0.44576020  0.32826710  0.58308023
   0.67173288  0.55423978  0.58308023
   0.55791699  0.44208301  0.41809300
   0.32826705  0.44576024  0.41691983
   0.55423973  0.67173293  0.41691983
   0.55423980  0.32826710  0.58308023
   0.32826712  0.55423978  0.58308023
   0.67173295  0.44576024  0.41691983
   0.44576027  0.67173293  0.41691983
   0.44208301  0.44208301  0.41809300
   0.50000000  0.38416601  0.50000000
   0.61749315  0.50000005  0.34021317
   0.61749315  0.50000005  0.65978680
   0.38250685  0.50000005  0.34021317
   0.38250685  0.50000005  0.65978680
   0.38317830  0.38317830  0.50000000
   0.61682172  0.61682172  0.50000000
   0.61682170  0.38317830  0.50000000
   0.38317828  0.61682172  0.50000000
   0.50000000  0.50000000  0.33478917
   0.50000000  0.50000000  0.66521087
   0.32826705  0.44576024  0.58308023
   0.55423973  0.67173293  0.58308023
   0.55791699  0.44208301  0.58190703
   0.44208298  0.55791702  0.41809300
   0.44208301  0.44208301  0.58190703
   0.67173295  0.44576024  0.58308023
   0.44576027  0.67173293  0.58308023
   0.55791702  0.55791702  0.41809300
   0.38416599  0.50000002  0.50000000
   0.61583401  0.50000002  0.50000000
   0.50000000  0.61749319  0.34021317
   0.50000000  0.61749319  0.65978680
   0.50000000  0.50000000  0.50000000
   0.44208298  0.55791702  0.58190703
   0.55791702  0.55791702  0.58190703
   0.50000000  0.61583404  0.50000000
   0.37576553  0.68397060  0.29686253
   0.36024170  0.70695883  0.27147927
 
 position of ions in cartesian coordinates  (Angst):
  13.37280588  9.84801292 12.50759500
  20.15198637 16.62719342 12.50759500
  16.62719412  9.84801292 12.50759500
   9.84801363 16.62719342 12.50759500
  15.00000000 11.47520705 10.20639500
  15.00000000 11.47520705 19.79360400
  15.00000000  8.28283206 15.00000000
   8.28283277 14.99999929 15.00000000
  21.71716723 14.99999929 15.00000000
  15.00000000 21.71716652 14.99999999
  18.35858397 11.64141603 10.25024500
  18.35858397 11.64141603 19.74975399
  11.64141674 18.35858326 10.25024500
  11.64141674 18.35858326 19.74975400
  11.64141603 11.64141603 10.25024500
  11.64141603 11.64141603 19.74975400
  18.35858326 18.35858326 10.25024500
  18.35858326 18.35858326 19.74975400
  13.37280588  9.84801291 17.49240700
  20.15198638 16.62719341 17.49240700
  16.73750985 13.26249015 12.54279000
   9.84801151 13.37280729 12.50759500
  16.62719200 20.15198779 12.50759500
  16.62719412  9.84801292 17.49240700
   9.84801363 16.62719342 17.49240700
  20.15198849 13.37280729 12.50759500
  13.37280800 20.15198779 12.50759500
  13.26249015 13.26249015 12.54279000
  15.00000000 11.52498029 15.00000000
  18.52479437 15.00000140 10.20639500
  18.52479437 15.00000141 19.79360400
  11.47520562 15.00000141 10.20639501
  11.47520563 15.00000141 19.79360400
  11.49534898 11.49534898 15.00000000
  18.50465172 18.50465172 15.00000000
  18.50465102 11.49534898 15.00000000
  11.49534828 18.50465172 15.00000000
  15.00000000 15.00000000 10.04367500
  15.00000000 15.00000000 19.95632599
   9.84801151 13.37280729 17.49240700
  16.62719200 20.15198779 17.49240700
  16.73750985 13.26249015 17.45721100
  13.26248944 16.73751056 12.54279001
  13.26249015 13.26249015 17.45721100
  20.15198849 13.37280729 17.49240699
  13.37280800 20.15198779 17.49240700
  16.73751056 16.73751056 12.54279000
  11.52497959 15.00000071 15.00000000
  18.47502041 15.00000071 15.00000000
  14.99999999 18.52479579 10.20639500
  15.00000000 18.52479578 19.79360400
  15.00000000 15.00000000 15.00000000
  13.26248944 16.73751057 17.45721101
  16.73751056 16.73751057 17.45721100
  15.00000000 18.47502112 15.00000000
  11.27296600 20.51911800  8.90587600
  10.80725100 21.20876500  8.14437800
 


--------------------------------------------------------------------------------------------------------


 k-point  1 :   0.0000 0.0000 0.0000  plane waves:  490521

 maximum and minimum number of plane-waves per node :    490521   490521

 maximum number of plane-waves:    490521
 maximum index in each direction: 
   IXMAX=   48   IYMAX=   48   IZMAX=   48
   IXMIN=  -48   IYMIN=  -48   IZMIN=  -48


 serial   3D FFT for wavefunctions
 parallel 3D FFT for charge:
    minimum data exchange during FFTs selected (reduces bandwidth)


 total amount of memory used by VASP MPI-rank0  5486939. kBytes
=======================================================================

   base      :      30000. kBytes
   nonlr-proj:      17124. kBytes
   fftplans  :     924480. kBytes
   grid      :    1872000. kBytes
   one-center:        886. kBytes
   wavefun   :    2642449. kBytes
 
     INWAV:  cpu time    0.0001: real time    0.0004
 Broyden mixing: mesh for mixing (old mesh)
   NGX = 97   NGY = 97   NGZ = 97
  (NGX  =300   NGY  =300   NGZ  =300)
  gives a total of 912673 points

 initial charge density was supplied:
 charge density of overlapping atoms calculated
 number of electron     560.0000000 magnetization 
 keeping initial charge density in first step


--------------------------------------------------------------------------------------------------------


 Maximum index for non-local projection operator         1763
 Maximum index for augmentation-charges         5898 (set IRDMAX)


--------------------------------------------------------------------------------------------------------


 First call to EWALD:  gamma=   0.059
 Maximum number of real-space cells 3x 3x 3
 Maximum number of reciprocal cells 3x 3x 3

    FEWALD:  cpu time    0.0149: real time    0.0149


--------------------------------------- Iteration      1(   1)  ---------------------------------------


    POTLOK:  cpu time   14.0751: real time   14.0797
    SETDIJ:  cpu time    0.1184: real time    0.1183
     EDDAV:  cpu time  361.0950: real time  361.1606
       DOS:  cpu time    0.0013: real time    0.0013
    --------------------------------------------
      LOOP:  cpu time  375.2898: real time  375.3600

 eigenvalue-minimisations  :   688
 total energy-change (2. order) : 0.4379867E+04  (-0.1005035E+05)
 number of electron     560.0000000 magnetization 
 augmentation part      560.0000000 magnetization 

 Free energy of the ion-electron system (eV)
  ---------------------------------------------------
  alpha Z        PSCENC =        75.25431677
  Ewald energy   TEWEN  =    136852.96446666
  -Hartree energ DENC   =   -180220.65043261
  -exchange      EXHF   =         0.00000000
  -V(xc)+E(xc)   XCENC  =     -1703.96094632
  PAW double counting   =     44873.02882129   -41398.84523641
  entropy T*S    EENTRO =        -0.01205961
  eigenvalues    EBANDS =       815.58275287
  atomic energy  EATOM  =     45086.50549395
  Solvation  Ediel_sol  =         0.00000000
  ---------------------------------------------------
  free energy    TOTEN  =      4379.86717659 eV

  energy without entropy =     4379.87923620  energy(sigma->0) =     4379.87019149


--------------------------------------------------------------------------------------------------------




--------------------------------------- Iteration      1(   2)  ---------------------------------------


     EDDAV:  cpu time  573.4002: real time  573.4266
       DOS:  cpu time    0.0013: real time    0.0013
    --------------------------------------------
      LOOP:  cpu time  573.4015: real time  573.4279

 eigenvalue-minimisations  :  1208
 total energy-change (2. order) :-0.2352917E+04  (-0.2114697E+04)
 number of electron     560.0000000 magnetization 
 augmentation part      560.0000000 magnetization 

 Free energy of the ion-electron system (eV)
  ---------------------------------------------------
  alpha Z        PSCENC =        75.25431677
  Ewald energy   TEWEN  =    136852.96446666
  -Hartree energ DENC   =   -180220.65043261
  -exchange      EXHF   =         0.00000000
  -V(xc)+E(xc)   XCENC  =     -1703.96094632
  PAW double counting   =     44873.02882129   -41398.84523641
  entropy T*S    EENTRO =        -0.02807198
  eigenvalues    EBANDS =     -1537.31841873
  atomic energy  EATOM  =     45086.50549395
  Solvation  Ediel_sol  =         0.00000000
  ---------------------------------------------------
  free energy    TOTEN  =      2026.94999263 eV

  energy without entropy =     2026.97806461  energy(sigma->0) =     2026.95701062


--------------------------------------------------------------------------------------------------------




--------------------------------------- Iteration      1(   3)  ---------------------------------------


     EDDAV:  cpu time  494.6486: real time  494.6598
       DOS:  cpu time    0.0010: real time    0.0010
    --------------------------------------------
      LOOP:  cpu time  494.6496: real time  494.6608

 eigenvalue-minimisations  :  1008
 total energy-change (2. order) :-0.1789990E+04  (-0.1682690E+04)
 number of electron     560.0000000 magnetization 
 augmentation part      560.0000000 magnetization 

 Free energy of the ion-electron system (eV)
  ---------------------------------------------------
  alpha Z        PSCENC =        75.25431677
  Ewald energy   TEWEN  =    136852.96446666
  -Hartree energ DENC   =   -180220.65043261
  -exchange      EXHF   =         0.00000000
  -V(xc)+E(xc)   XCENC  =     -1703.96094632
  PAW double counting   =     44873.02882129   -41398.84523641
  entropy T*S    EENTRO =         0.00225546
  eigenvalues    EBANDS =     -3327.33857011
  atomic energy  EATOM  =     45086.50549395
  Solvation  Ediel_sol  =         0.00000000
  ---------------------------------------------------
  free energy    TOTEN  =       236.96016869 eV

  energy without entropy =      236.95791322  energy(sigma->0) =      236.95960482


--------------------------------------------------------------------------------------------------------




--------------------------------------- Iteration      1(   4)  ---------------------------------------


     EDDAV:  cpu time  417.2897: real time  417.3076
       DOS:  cpu time    0.0012: real time    0.0012
    --------------------------------------------
      LOOP:  cpu time  417.2908: real time  417.3088

 eigenvalue-minimisations  :   824
 total energy-change (2. order) :-0.3689037E+03  (-0.3100139E+03)
 number of electron     560.0000000 magnetization 
 augmentation part      560.0000000 magnetization 

 Free energy of the ion-electron system (eV)
  ---------------------------------------------------
  alpha Z        PSCENC =        75.25431677
  Ewald energy   TEWEN  =    136852.96446666
  -Hartree energ DENC   =   -180220.65043261
  -exchange      EXHF   =         0.00000000
  -V(xc)+E(xc)   XCENC  =     -1703.96094632
  PAW double counting   =     44873.02882129   -41398.84523641
  entropy T*S    EENTRO =        -0.02074427
  eigenvalues    EBANDS =     -3696.21924781
  atomic energy  EATOM  =     45086.50549395
  Solvation  Ediel_sol  =         0.00000000
  ---------------------------------------------------
  free energy    TOTEN  =      -131.94350875 eV

  energy without entropy =     -131.92276448  energy(sigma->0) =     -131.93832268


--------------------------------------------------------------------------------------------------------




--------------------------------------- Iteration      1(   5)  ---------------------------------------


     EDDAV:  cpu time  501.9903: real time  501.9996
       DOS:  cpu time    0.0013: real time    0.0013
    CHARGE:  cpu time   25.4227: real time   25.4227
    MIXING:  cpu time    0.4318: real time    0.4318
    --------------------------------------------
      LOOP:  cpu time  527.8462: real time  527.8555

 eigenvalue-minimisations  :  1032
 total energy-change (2. order) :-0.4643522E+02  (-0.3833834E+02)
 number of electron     559.9999883 magnetization 
 augmentation part      245.1898897 magnetization 

 Broyden mixing:
  rms(total) = 0.13758E+01    rms(broyden)= 0.13749E+01
  rms(prec ) = 0.14793E+01
  weight for this iteration     100.00

 Free energy of the ion-electron system (eV)
  ---------------------------------------------------
  alpha Z        PSCENC =        75.25431677
  Ewald energy   TEWEN  =    136852.96446666
  -Hartree energ DENC   =   -180220.65043261
  -exchange      EXHF   =         0.00000000
  -V(xc)+E(xc)   XCENC  =     -1703.96094632
  PAW double counting   =     44873.02882129   -41398.84523641
  entropy T*S    EENTRO =         0.50059254
  eigenvalues    EBANDS =     -3743.17580601
  atomic energy  EATOM  =     45086.50549395
  Solvation  Ediel_sol  =         0.00000000
  ---------------------------------------------------
  free energy    TOTEN  =      -178.37873013 eV

  energy without entropy =     -178.87932268  energy(sigma->0) =     -178.50387827


--------------------------------------------------------------------------------------------------------




--------------------------------------- Iteration      1(   6)  ---------------------------------------


    POTLOK:  cpu time   13.0121: real time   13.0154
    SETDIJ:  cpu time    0.1195: real time    0.1195
    EDDIAG:  cpu time   67.4269: real time   67.4340
  RMM-DIIS:  cpu time  188.0467: real time  188.0592
    ORTHCH:  cpu time   13.6025: real time   13.6024
       DOS:  cpu time    0.0015: real time    0.0015
    CHARGE:  cpu time   25.5185: real time   25.5184
    MIXING:  cpu time    0.4615: real time    0.4615
    --------------------------------------------
      LOOP:  cpu time  308.1891: real time  308.2117

 eigenvalue-minimisations  :   724
 total energy-change (2. order) : 0.1721380E+00  (-0.5282055E+01)
 number of electron     559.9999895 magnetization 
 augmentation part      240.7708525 magnetization 

 Broyden mixing:
  rms(total) = 0.23410E+01    rms(broyden)= 0.23408E+01
  rms(prec ) = 0.26915E+01
  weight for this iteration     100.00

 eigenvalues of (default mixing * dielectric matrix)
  average eigenvalue GAMMA=   0.2990
  0.2990

 Free energy of the ion-electron system (eV)
  ---------------------------------------------------
  alpha Z        PSCENC =        75.25431677
  Ewald energy   TEWEN  =    136852.96446666
  -Hartree energ DENC   =   -180629.92032368
  -exchange      EXHF   =         0.00000000
  -V(xc)+E(xc)   XCENC  =     -1697.74506480
  PAW double counting   =     45617.86152309   -42116.61387756
  entropy T*S    EENTRO =        -0.28355835
  eigenvalues    EBANDS =     -3366.22956820
  atomic energy  EATOM  =     45086.50549395
  Solvation  Ediel_sol  =         0.00000000
  ---------------------------------------------------
  free energy    TOTEN  =      -178.20659212 eV

  energy without entropy =     -177.92303377  energy(sigma->0) =     -178.13570253


--------------------------------------------------------------------------------------------------------




--------------------------------------- Iteration      1(   7)  ---------------------------------------


    POTLOK:  cpu time   13.0567: real time   13.0600
    SETDIJ:  cpu time    0.1205: real time    0.1205
    EDDIAG:  cpu time   67.0852: real time   67.0869
  RMM-DIIS:  cpu time  222.4890: real time  222.4917
    ORTHCH:  cpu time   13.2139: real time   13.2138
       DOS:  cpu time    0.0015: real time    0.0015
    CHARGE:  cpu time   24.9674: real time   24.9674
    MIXING:  cpu time    0.4710: real time    0.4710
    --------------------------------------------
      LOOP:  cpu time  341.4052: real time  341.4128

 eigenvalue-minimisations  :   864
 total energy-change (2. order) :-0.8859447E+00  (-0.1895832E+01)
 number of electron     559.9999849 magnetization 
 augmentation part      240.7297065 magnetization 

 Broyden mixing:
  rms(total) = 0.16382E+01    rms(broyden)= 0.16379E+01
  rms(prec ) = 0.19053E+01
  weight for this iteration     100.00

 eigenvalues of (default mixing * dielectric matrix)
  average eigenvalue GAMMA=   0.3674
  0.5711  0.1636

 Free energy of the ion-electron system (eV)
  ---------------------------------------------------
  alpha Z        PSCENC =        75.25431677
  Ewald energy   TEWEN  =    136852.96446666
  -Hartree energ DENC   =   -180707.24161924
  -exchange      EXHF   =         0.00000000
  -V(xc)+E(xc)   XCENC  =     -1697.85262823
  PAW double counting   =     45672.30413717   -42168.60660709
  entropy T*S    EENTRO =        -0.11606057
  eigenvalues    EBANDS =     -3292.30403627
  atomic energy  EATOM  =     45086.50549395
  Solvation  Ediel_sol  =         0.00000000
  ---------------------------------------------------
  free energy    TOTEN  =      -179.09253683 eV

  energy without entropy =     -178.97647626  energy(sigma->0) =     -179.06352169


--------------------------------------------------------------------------------------------------------




--------------------------------------- Iteration      1(   8)  ---------------------------------------


    POTLOK:  cpu time   13.0954: real time   13.0989
    SETDIJ:  cpu time    0.1253: real time    0.1253
    EDDIAG:  cpu time   66.9579: real time   66.9582
  RMM-DIIS:  cpu time  193.1726: real time  193.1844
    ORTHCH:  cpu time   13.2019: real time   13.2019
       DOS:  cpu time    0.0014: real time    0.0014
    CHARGE:  cpu time   25.2864: real time   25.2882
    MIXING:  cpu time    0.5200: real time    0.5200
    --------------------------------------------
      LOOP:  cpu time  312.3609: real time  312.3784

 eigenvalue-minimisations  :   744
 total energy-change (2. order) :-0.4848780E+01  (-0.6475586E+00)
 number of electron     559.9999874 magnetization 
 augmentation part      240.0697015 magnetization 

 Broyden mixing:
  rms(total) = 0.28777E+01    rms(broyden)= 0.28774E+01
  rms(prec ) = 0.34523E+01
  weight for this iteration     100.00

 eigenvalues of (default mixing * dielectric matrix)
  average eigenvalue GAMMA=   0.3326
  0.7228  0.1376  0.1376

 Free energy of the ion-electron system (eV)
  ---------------------------------------------------
  alpha Z        PSCENC =        75.25431677
  Ewald energy   TEWEN  =    136852.96446666
  -Hartree energ DENC   =   -180766.15749277
  -exchange      EXHF   =         0.00000000
  -V(xc)+E(xc)   XCENC  =     -1697.73536886
  PAW double counting   =     45755.70032446   -42247.80685931
  entropy T*S    EENTRO =        -0.24519229
  eigenvalues    EBANDS =     -3242.42100587
  atomic energy  EATOM  =     45086.50549395
  Solvation  Ediel_sol  =         0.00000000
  ---------------------------------------------------
  free energy    TOTEN  =      -183.94131724 eV

  energy without entropy =     -183.69612495  energy(sigma->0) =     -183.88001917


--------------------------------------------------------------------------------------------------------




--------------------------------------- Iteration      1(   9)  ---------------------------------------


    POTLOK:  cpu time   13.0419: real time   13.0439
    SETDIJ:  cpu time    0.1201: real time    0.1201
    EDDIAG:  cpu time   66.9559: real time   66.9622
  RMM-DIIS:  cpu time  193.4756: real time  193.4845
    ORTHCH:  cpu time   13.2848: real time   13.2849
       DOS:  cpu time    0.0014: real time    0.0014
    CHARGE:  cpu time   25.0692: real time   25.0693
    MIXING:  cpu time    0.5296: real time    0.5296
    --------------------------------------------
      LOOP:  cpu time  312.4785: real time  312.4959

 eigenvalue-minimisations  :   744
 total energy-change (2. order) : 0.2520100E+01  (-0.3893209E+00)
 number of electron     559.9999900 magnetization 
 augmentation part      240.7772712 magnetization 

 Broyden mixing:
  rms(total) = 0.30522E+01    rms(broyden)= 0.30519E+01
  rms(prec ) = 0.35789E+01
  weight for this iteration     100.00

 eigenvalues of (default mixing * dielectric matrix)
  average eigenvalue GAMMA=   0.2899
  0.7891  0.1494  0.1494  0.0717

 Free energy of the ion-electron system (eV)
  ---------------------------------------------------
  alpha Z        PSCENC =        75.25431677
  Ewald energy   TEWEN  =    136852.96446666
  -Hartree energ DENC   =   -180794.34837869
  -exchange      EXHF   =         0.00000000
  -V(xc)+E(xc)   XCENC  =     -1697.69438593
  PAW double counting   =     45806.01948706   -42295.76644783
  entropy T*S    EENTRO =         0.05002503
  eigenvalues    EBANDS =     -3214.40579408
  atomic energy  EATOM  =     45086.50549395
  Solvation  Ediel_sol  =         0.00000000
  ---------------------------------------------------
  free energy    TOTEN  =      -181.42121705 eV

  energy without entropy =     -181.47124208  energy(sigma->0) =     -181.43372331


--------------------------------------------------------------------------------------------------------




--------------------------------------- Iteration      1(  10)  ---------------------------------------


    POTLOK:  cpu time   13.0638: real time   13.0647
    SETDIJ:  cpu time    0.1202: real time    0.1202
    EDDIAG:  cpu time   67.0708: real time   67.0728
  RMM-DIIS:  cpu time  196.7540: real time  196.7591
    ORTHCH:  cpu time   13.4596: real time   13.4597
       DOS:  cpu time    0.0014: real time    0.0014
    CHARGE:  cpu time   24.9492: real time   24.9520
    MIXING:  cpu time    0.5599: real time    0.5599
    --------------------------------------------
      LOOP:  cpu time  315.9789: real time  315.9899

 eigenvalue-minimisations  :   746
 total energy-change (2. order) : 0.2187277E+01  (-0.2108383E+00)
 number of electron     559.9999902 magnetization 
 augmentation part      241.0686877 magnetization 

 Broyden mixing:
  rms(total) = 0.19866E+01    rms(broyden)= 0.19864E+01
  rms(prec ) = 0.23270E+01
  weight for this iteration     100.00

 eigenvalues of (default mixing * dielectric matrix)
  average eigenvalue GAMMA=   0.2757
  0.8639  0.1775  0.1775  0.0797  0.0797

 Free energy of the ion-electron system (eV)
  ---------------------------------------------------
  alpha Z        PSCENC =        75.25431677
  Ewald energy   TEWEN  =    136852.96446666
  -Hartree energ DENC   =   -180809.38213141
  -exchange      EXHF   =         0.00000000
  -V(xc)+E(xc)   XCENC  =     -1697.61291446
  PAW double counting   =     45832.15404569   -42320.71127209
  entropy T*S    EENTRO =        -0.17884461
  eigenvalues    EBANDS =     -3198.22710025
  atomic energy  EATOM  =     45086.50549395
  Solvation  Ediel_sol  =         0.00000000
  ---------------------------------------------------
  free energy    TOTEN  =      -179.23393974 eV

  energy without entropy =     -179.05509513  energy(sigma->0) =     -179.18922859


--------------------------------------------------------------------------------------------------------




--------------------------------------- Iteration      1(  11)  ---------------------------------------


    POTLOK:  cpu time   13.0480: real time   13.0490
    SETDIJ:  cpu time    0.1230: real time    0.1230
    EDDIAG:  cpu time   67.3175: real time   67.3194
  RMM-DIIS:  cpu time  191.2138: real time  191.2180
    ORTHCH:  cpu time   13.2125: real time   13.2125
       DOS:  cpu time    0.0014: real time    0.0014
    CHARGE:  cpu time   25.2049: real time   25.2049
    MIXING:  cpu time    0.6013: real time    0.6013
    --------------------------------------------
      LOOP:  cpu time  310.7223: real time  310.7294

 eigenvalue-minimisations  :   728
 total energy-change (2. order) : 0.1474159E+01  (-0.1722735E+00)
 number of electron     559.9999869 magnetization 
 augmentation part      241.4165256 magnetization 

 Broyden mixing:
  rms(total) = 0.20600E+01    rms(broyden)= 0.20597E+01
  rms(prec ) = 0.24552E+01
  weight for this iteration     100.00

 eigenvalues of (default mixing * dielectric matrix)
  average eigenvalue GAMMA=   0.2533
  0.8896  0.1988  0.1988  0.0849  0.0849  0.0626

 Free energy of the ion-electron system (eV)
  ---------------------------------------------------
  alpha Z        PSCENC =        75.25431677
  Ewald energy   TEWEN  =    136852.96446666
  -Hartree energ DENC   =   -180826.46000805
  -exchange      EXHF   =         0.00000000
  -V(xc)+E(xc)   XCENC  =     -1697.45876011
  PAW double counting   =     45864.16385150   -42351.18015851
  entropy T*S    EENTRO =        -0.10340408
  eigenvalues    EBANDS =     -3181.44557897
  atomic energy  EATOM  =     45086.50549395
  Solvation  Ediel_sol  =         0.00000000
  ---------------------------------------------------
  free energy    TOTEN  =      -177.75978083 eV

  energy without entropy =     -177.65637675  energy(sigma->0) =     -177.73392981


--------------------------------------------------------------------------------------------------------




--------------------------------------- Iteration      1(  12)  ---------------------------------------


    POTLOK:  cpu time   12.8574: real time   12.8585
    SETDIJ:  cpu time    0.1202: real time    0.1202
    EDDIAG:  cpu time   67.2225: real time   67.2233
  RMM-DIIS:  cpu time  193.5741: real time  193.5762
    ORTHCH:  cpu time   13.4058: real time   13.4058
       DOS:  cpu time    0.0014: real time    0.0014
    CHARGE:  cpu time   25.1576: real time   25.1583
    MIXING:  cpu time    0.6558: real time    0.6557
    --------------------------------------------
      LOOP:  cpu time  312.9948: real time  312.9995

 eigenvalue-minimisations  :   731
 total energy-change (2. order) : 0.1629199E+01  (-0.9429876E-01)
 number of electron     559.9999878 magnetization 
 augmentation part      241.6480093 magnetization 

 Broyden mixing:
  rms(total) = 0.12901E+01    rms(broyden)= 0.12898E+01
  rms(prec ) = 0.15317E+01
  weight for this iteration     100.00

 eigenvalues of (default mixing * dielectric matrix)
  average eigenvalue GAMMA=   0.2565
  0.9408  0.2505  0.2505  0.1154  0.1154  0.0615  0.0615

 Free energy of the ion-electron system (eV)
  ---------------------------------------------------
  alpha Z        PSCENC =        75.25431677
  Ewald energy   TEWEN  =    136852.96446666
  -Hartree energ DENC   =   -180837.40106231
  -exchange      EXHF   =         0.00000000
  -V(xc)+E(xc)   XCENC  =     -1697.32945280
  PAW double counting   =     45882.63174891   -42368.73994675
  entropy T*S    EENTRO =        -0.09050008
  eigenvalues    EBANDS =     -3169.92564613
  atomic energy  EATOM  =     45086.50549395
  Solvation  Ediel_sol  =         0.00000000
  ---------------------------------------------------
  free energy    TOTEN  =      -176.13058177 eV

  energy without entropy =     -176.04008170  energy(sigma->0) =     -176.10795676


--------------------------------------------------------------------------------------------------------




--------------------------------------- Iteration      1(  13)  ---------------------------------------


    POTLOK:  cpu time   13.1554: real time   13.1567
    SETDIJ:  cpu time    0.1201: real time    0.1201
    EDDIAG:  cpu time   67.8876: real time   67.8912
  RMM-DIIS:  cpu time  195.1576: real time  195.1594
    ORTHCH:  cpu time   13.9508: real time   13.9554
       DOS:  cpu time    0.0014: real time    0.0014
    CHARGE:  cpu time   25.1767: real time   25.1766
    MIXING:  cpu time    0.6785: real time    0.6785
    --------------------------------------------
      LOOP:  cpu time  316.1281: real time  316.1394

 eigenvalue-minimisations  :   726
 total energy-change (2. order) :-0.8591698E-01  (-0.1055256E+00)
 number of electron     559.9999884 magnetization 
 augmentation part      241.5819371 magnetization 

 Broyden mixing:
  rms(total) = 0.15640E+01    rms(broyden)= 0.15638E+01
  rms(prec ) = 0.18872E+01
  weight for this iteration     100.00

 eigenvalues of (default mixing * dielectric matrix)
  average eigenvalue GAMMA=   0.2606
  0.9839  0.3793  0.2644  0.1293  0.1293  0.0754  0.0615  0.0615

 Free energy of the ion-electron system (eV)
  ---------------------------------------------------
  alpha Z        PSCENC =        75.25431677
  Ewald energy   TEWEN  =    136852.96446666
  -Hartree energ DENC   =   -180859.85001890
  -exchange      EXHF   =         0.00000000
  -V(xc)+E(xc)   XCENC  =     -1697.04909283
  PAW double counting   =     45916.06229734   -42400.41976378
  entropy T*S    EENTRO =        -0.03989680
  eigenvalues    EBANDS =     -3149.64430117
  atomic energy  EATOM  =     45086.50549395
  Solvation  Ediel_sol  =         0.00000000
  ---------------------------------------------------
  free energy    TOTEN  =      -176.21649875 eV

  energy without entropy =     -176.17660195  energy(sigma->0) =     -176.20652455


--------------------------------------------------------------------------------------------------------




--------------------------------------- Iteration      1(  14)  ---------------------------------------


    POTLOK:  cpu time   13.4018: real time   13.4051
    SETDIJ:  cpu time    0.1223: real time    0.1222
    EDDIAG:  cpu time   67.9823: real time   67.9833
  RMM-DIIS:  cpu time  193.6207: real time  193.6231
    ORTHCH:  cpu time   13.6814: real time   13.6815
       DOS:  cpu time    0.0015: real time    0.0015
    CHARGE:  cpu time   25.2941: real time   25.2941
    MIXING:  cpu time    0.7313: real time    0.7313
    --------------------------------------------
      LOOP:  cpu time  314.8354: real time  314.8421

 eigenvalue-minimisations  :   722
 total energy-change (2. order) :-0.5318336E+00  (-0.8649587E-01)
 number of electron     559.9999855 magnetization 
 augmentation part      241.3689636 magnetization 

 Broyden mixing:
  rms(total) = 0.18811E+01    rms(broyden)= 0.18808E+01
  rms(prec ) = 0.22296E+01
  weight for this iteration     100.00

 eigenvalues of (default mixing * dielectric matrix)
  average eigenvalue GAMMA=   0.2935
  1.0853  0.8004  0.2014  0.1382  0.1382  0.0783  0.0743  0.0743  0.0508

 Free energy of the ion-electron system (eV)
  ---------------------------------------------------
  alpha Z        PSCENC =        75.25431677
  Ewald energy   TEWEN  =    136852.96446666
  -Hartree energ DENC   =   -180888.91224079
  -exchange      EXHF   =         0.00000000
  -V(xc)+E(xc)   XCENC  =     -1696.70617575
  PAW double counting   =     45951.74529306   -42434.21123809
  entropy T*S    EENTRO =        -0.10453744
  eigenvalues    EBANDS =     -3123.28371070
  atomic energy  EATOM  =     45086.50549395
  Solvation  Ediel_sol  =         0.00000000
  ---------------------------------------------------
  free energy    TOTEN  =      -176.74833232 eV

  energy without entropy =     -176.64379488  energy(sigma->0) =     -176.72219796


--------------------------------------------------------------------------------------------------------




--------------------------------------- Iteration      1(  15)  ---------------------------------------


    POTLOK:  cpu time   13.3055: real time   13.3083
    SETDIJ:  cpu time    0.1237: real time    0.1237
    EDDIAG:  cpu time   68.4188: real time   68.4193
  RMM-DIIS:  cpu time  191.8905: real time  191.8929
    ORTHCH:  cpu time   13.6083: real time   13.6082
       DOS:  cpu time    0.0015: real time    0.0015
    CHARGE:  cpu time   25.1915: real time   25.1914
    MIXING:  cpu time    0.7680: real time    0.7680
    --------------------------------------------
      LOOP:  cpu time  313.3077: real time  313.3134

 eigenvalue-minimisations  :   720
 total energy-change (2. order) :-0.9611982E-02  (-0.1161735E+00)
 number of electron     559.9999850 magnetization 
 augmentation part      241.1489589 magnetization 

 Broyden mixing:
  rms(total) = 0.27282E+01    rms(broyden)= 0.27281E+01
  rms(prec ) = 0.31419E+01
  weight for this iteration     100.00

 eigenvalues of (default mixing * dielectric matrix)
  average eigenvalue GAMMA=   0.2933
  1.2791  0.8393  0.1989  0.1402  0.1402  0.0825  0.0825  0.0669  0.0553  0.0480

 Free energy of the ion-electron system (eV)
  ---------------------------------------------------
  alpha Z        PSCENC =        75.25431677
  Ewald energy   TEWEN  =    136852.96446666
  -Hartree energ DENC   =   -180937.38507615
  -exchange      EXHF   =         0.00000000
  -V(xc)+E(xc)   XCENC  =     -1696.10252817
  PAW double counting   =     46011.83050440   -42491.12134765
  entropy T*S    EENTRO =         0.03007858
  eigenvalues    EBANDS =     -3078.73385269
  atomic energy  EATOM  =     45086.50549395
  Solvation  Ediel_sol  =         0.00000000
  ---------------------------------------------------
  free energy    TOTEN  =      -176.75794430 eV

  energy without entropy =     -176.78802288  energy(sigma->0) =     -176.76546395


--------------------------------------------------------------------------------------------------------




--------------------------------------- Iteration      1(  16)  ---------------------------------------


    POTLOK:  cpu time   13.1594: real time   13.1629
    SETDIJ:  cpu time    0.1212: real time    0.1212
    EDDIAG:  cpu time   68.8454: real time   68.8470
  RMM-DIIS:  cpu time  192.7696: real time  192.7754
    ORTHCH:  cpu time   13.5926: real time   13.5927
       DOS:  cpu time    0.0015: real time    0.0015
    CHARGE:  cpu time   25.1939: real time   25.1939
    MIXING:  cpu time    0.7952: real time    0.7952
    --------------------------------------------
      LOOP:  cpu time  314.4789: real time  314.4898

 eigenvalue-minimisations  :   723
 total energy-change (2. order) : 0.1684124E+01  (-0.9113948E-01)
 number of electron     559.9999878 magnetization 
 augmentation part      241.1494395 magnetization 

 Broyden mixing:
  rms(total) = 0.10105E+01    rms(broyden)= 0.10103E+01
  rms(prec ) = 0.11597E+01
  weight for this iteration     100.00

 eigenvalues of (default mixing * dielectric matrix)
  average eigenvalue GAMMA=   0.2964
  1.4192  0.8701  0.1831  0.1831  0.1418  0.1418  0.0782  0.0782  0.0587  0.0587
  0.0475

 Free energy of the ion-electron system (eV)
  ---------------------------------------------------
  alpha Z        PSCENC =        75.25431677
  Ewald energy   TEWEN  =    136852.96446666
  -Hartree energ DENC   =   -180959.14486853
  -exchange      EXHF   =         0.00000000
  -V(xc)+E(xc)   XCENC  =     -1695.77636483
  PAW double counting   =     46044.97133533   -42522.52757003
  entropy T*S    EENTRO =        -0.10622046
  eigenvalues    EBANDS =     -3057.21440898
  atomic energy  EATOM  =     45086.50549395
  Solvation  Ediel_sol  =         0.00000000
  ---------------------------------------------------
  free energy    TOTEN  =      -175.07382011 eV

  energy without entropy =     -174.96759966  energy(sigma->0) =     -175.04726500


--------------------------------------------------------------------------------------------------------




--------------------------------------- Iteration      1(  17)  ---------------------------------------


    POTLOK:  cpu time   13.2010: real time   13.2029
    SETDIJ:  cpu time    0.1211: real time    0.1211
    EDDIAG:  cpu time   68.8307: real time   68.8322
  RMM-DIIS:  cpu time  189.9905: real time  189.9962
    ORTHCH:  cpu time   13.8350: real time   13.8352
       DOS:  cpu time    0.0015: real time    0.0015
    CHARGE:  cpu time   25.2103: real time   25.2103
    MIXING:  cpu time    0.8693: real time    0.8693
    --------------------------------------------
      LOOP:  cpu time  312.0594: real time  312.0687

 eigenvalue-minimisations  :   714
 total energy-change (2. order) : 0.4897412E+00  (-0.5393793E-01)
 number of electron     559.9999887 magnetization 
 augmentation part      241.2250349 magnetization 

 Broyden mixing:
  rms(total) = 0.83968E+00    rms(broyden)= 0.83942E+00
  rms(prec ) = 0.97249E+00
  weight for this iteration     100.00

 eigenvalues of (default mixing * dielectric matrix)
  average eigenvalue GAMMA=   0.2963
  1.4927  0.8853  0.2395  0.2395  0.1430  0.1430  0.0813  0.0813  0.0837  0.0589
  0.0589  0.0480

 Free energy of the ion-electron system (eV)
  ---------------------------------------------------
  alpha Z        PSCENC =        75.25431677
  Ewald energy   TEWEN  =    136852.96446666
  -Hartree energ DENC   =   -180977.89254895
  -exchange      EXHF   =         0.00000000
  -V(xc)+E(xc)   XCENC  =     -1695.47899489
  PAW double counting   =     46068.01122017   -42544.11859759
  entropy T*S    EENTRO =        -0.07832936
  eigenvalues    EBANDS =     -3039.75110571
  atomic energy  EATOM  =     45086.50549395
  Solvation  Ediel_sol  =         0.00000000
  ---------------------------------------------------
  free energy    TOTEN  =      -174.58407894 eV

  energy without entropy =     -174.50574958  energy(sigma->0) =     -174.56449660


--------------------------------------------------------------------------------------------------------




--------------------------------------- Iteration      1(  18)  ---------------------------------------


    POTLOK:  cpu time   13.1160: real time   13.1188
    SETDIJ:  cpu time    0.1253: real time    0.1253
    EDDIAG:  cpu time   68.7662: real time   68.7665
  RMM-DIIS:  cpu time  191.9615: real time  191.9650
    ORTHCH:  cpu time   13.5555: real time   13.5556
       DOS:  cpu time    0.0015: real time    0.0015
    CHARGE:  cpu time   25.1573: real time   25.1573
    MIXING:  cpu time    0.9112: real time    0.9112
    --------------------------------------------
      LOOP:  cpu time  313.5946: real time  313.6012

 eigenvalue-minimisations  :   723
 total energy-change (2. order) : 0.1512268E-01  (-0.3177914E-01)
 number of electron     559.9999889 magnetization 
 augmentation part      241.1695289 magnetization 

 Broyden mixing:
  rms(total) = 0.83373E+00    rms(broyden)= 0.83357E+00
  rms(prec ) = 0.97585E+00
  weight for this iteration     100.00

 eigenvalues of (default mixing * dielectric matrix)
  average eigenvalue GAMMA=   0.3023
  1.5595  0.9357  0.3139  0.3139  0.1427  0.1427  0.0969  0.0969  0.0825  0.0825
  0.0571  0.0571  0.0478

 Free energy of the ion-electron system (eV)
  ---------------------------------------------------
  alpha Z        PSCENC =        75.25431677
  Ewald energy   TEWEN  =    136852.96446666
  -Hartree energ DENC   =   -180994.40776897
  -exchange      EXHF   =         0.00000000
  -V(xc)+E(xc)   XCENC  =     -1695.27026704
  PAW double counting   =     46080.21534146   -42555.24259904
  entropy T*S    EENTRO =        -0.06594083
  eigenvalues    EBANDS =     -3024.52199922
  atomic energy  EATOM  =     45086.50549395
  Solvation  Ediel_sol  =         0.00000000
  ---------------------------------------------------
  free energy    TOTEN  =      -174.56895625 eV

  energy without entropy =     -174.50301542  energy(sigma->0) =     -174.55247104


--------------------------------------------------------------------------------------------------------




--------------------------------------- Iteration      1(  19)  ---------------------------------------


    POTLOK:  cpu time   13.3093: real time   13.3121
    SETDIJ:  cpu time    0.1215: real time    0.1215
    EDDIAG:  cpu time   69.0449: real time   69.0459
  RMM-DIIS:  cpu time  189.6096: real time  189.6129
    ORTHCH:  cpu time   13.4341: real time   13.4341
       DOS:  cpu time    0.0015: real time    0.0015
    CHARGE:  cpu time   25.1216: real time   25.1219
    MIXING:  cpu time    0.9656: real time    0.9657
    --------------------------------------------
      LOOP:  cpu time  311.6082: real time  311.6156

 eigenvalue-minimisations  :   711
 total energy-change (2. order) : 0.1042398E+00  (-0.2376364E-01)
 number of electron     559.9999876 magnetization 
 augmentation part      241.0740751 magnetization 

 Broyden mixing:
  rms(total) = 0.71347E+00    rms(broyden)= 0.71328E+00
  rms(prec ) = 0.79537E+00
  weight for this iteration     100.00

 eigenvalues of (default mixing * dielectric matrix)
  average eigenvalue GAMMA=   0.3100
  1.6888  0.9444  0.3799  0.3799  0.1427  0.1427  0.1621  0.0826  0.0826  0.0861
  0.0861  0.0569  0.0569  0.0478

 Free energy of the ion-electron system (eV)
  ---------------------------------------------------
  alpha Z        PSCENC =        75.25431677
  Ewald energy   TEWEN  =    136852.96446666
  -Hartree energ DENC   =   -181016.83055972
  -exchange      EXHF   =         0.00000000
  -V(xc)+E(xc)   XCENC  =     -1695.00630609
  PAW double counting   =     46091.58722038   -42565.30154572
  entropy T*S    EENTRO =        -0.07617802
  eigenvalues    EBANDS =     -3003.56162468
  atomic energy  EATOM  =     45086.50549395
  Solvation  Ediel_sol  =         0.00000000
  ---------------------------------------------------
  free energy    TOTEN  =      -174.46471646 eV

  energy without entropy =     -174.38853844  energy(sigma->0) =     -174.44567195


--------------------------------------------------------------------------------------------------------




--------------------------------------- Iteration      1(  20)  ---------------------------------------


    POTLOK:  cpu time   13.2298: real time   13.2328
    SETDIJ:  cpu time    0.1234: real time    0.1234
    EDDIAG:  cpu time   69.0327: real time   69.0434
  RMM-DIIS:  cpu time  192.2138: real time  192.2222
    ORTHCH:  cpu time   13.7030: real time   13.7031
       DOS:  cpu time    0.0015: real time    0.0015
    CHARGE:  cpu time   25.3790: real time   25.3791
    MIXING:  cpu time    1.0800: real time    1.0800
    --------------------------------------------
      LOOP:  cpu time  314.7632: real time  314.7855

 eigenvalue-minimisations  :   709
 total energy-change (2. order) : 0.1583362E+00  (-0.2455370E-01)
 number of electron     559.9999891 magnetization 
 augmentation part      241.1227908 magnetization 

 Broyden mixing:
  rms(total) = 0.50669E+00    rms(broyden)= 0.50649E+00
  rms(prec ) = 0.57083E+00
  weight for this iteration     100.00

 eigenvalues of (default mixing * dielectric matrix)
  average eigenvalue GAMMA=   0.3398
  1.6420  1.1357  0.5931  0.5931  0.2067  0.1455  0.1455  0.1395  0.0821  0.0821
  0.0924  0.0775  0.0569  0.0569  0.0478

 Free energy of the ion-electron system (eV)
  ---------------------------------------------------
  alpha Z        PSCENC =        75.25431677
  Ewald energy   TEWEN  =    136852.96446666
  -Hartree energ DENC   =   -181032.49099408
  -exchange      EXHF   =         0.00000000
  -V(xc)+E(xc)   XCENC  =     -1694.78405797
  PAW double counting   =     46099.76395929   -42572.39016984
  entropy T*S    EENTRO =        -0.06521625
  eigenvalues    EBANDS =     -2989.06417879
  atomic energy  EATOM  =     45086.50549395
  Solvation  Ediel_sol  =         0.00000000
  ---------------------------------------------------
  free energy    TOTEN  =      -174.30638025 eV

  energy without entropy =     -174.24116400  energy(sigma->0) =     -174.29007619


--------------------------------------------------------------------------------------------------------




--------------------------------------- Iteration      1(  21)  ---------------------------------------


    POTLOK:  cpu time   13.1280: real time   13.1305
    SETDIJ:  cpu time    0.1217: real time    0.1217
    EDDIAG:  cpu time   68.5035: real time   68.5050
  RMM-DIIS:  cpu time  190.8531: real time  190.8590
    ORTHCH:  cpu time   13.5572: real time   13.5572
       DOS:  cpu time    0.0015: real time    0.0015
    CHARGE:  cpu time   25.8132: real time   25.8133
    MIXING:  cpu time    1.1191: real time    1.1191
    --------------------------------------------
      LOOP:  cpu time  313.0972: real time  313.1074

 eigenvalue-minimisations  :   708
 total energy-change (2. order) :-0.1827991E+00  (-0.2763473E-01)
 number of electron     559.9999888 magnetization 
 augmentation part      241.1119596 magnetization 

 Broyden mixing:
  rms(total) = 0.82424E+00    rms(broyden)= 0.82409E+00
  rms(prec ) = 0.96661E+00
  weight for this iteration     100.00

 eigenvalues of (default mixing * dielectric matrix)
  average eigenvalue GAMMA=   0.3606
  1.5969  1.5969  0.6608  0.6608  0.2085  0.1441  0.1441  0.1681  0.0822  0.0822
  0.0941  0.0941  0.0745  0.0569  0.0569  0.0479

 Free energy of the ion-electron system (eV)
  ---------------------------------------------------
  alpha Z        PSCENC =        75.25431677
  Ewald energy   TEWEN  =    136852.96446666
  -Hartree energ DENC   =   -181051.44884520
  -exchange      EXHF   =         0.00000000
  -V(xc)+E(xc)   XCENC  =     -1694.63449971
  PAW double counting   =     46096.74261719   -42568.64243868
  entropy T*S    EENTRO =        -0.02767409
  eigenvalues    EBANDS =     -2971.20261628
  atomic energy  EATOM  =     45086.50549395
  Solvation  Ediel_sol  =         0.00000000
  ---------------------------------------------------
  free energy    TOTEN  =      -174.48917937 eV

  energy without entropy =     -174.46150528  energy(sigma->0) =     -174.48226085


--------------------------------------------------------------------------------------------------------




--------------------------------------- Iteration      1(  22)  ---------------------------------------


    POTLOK:  cpu time   13.5338: real time   13.5366
    SETDIJ:  cpu time    0.1265: real time    0.1265
    EDDIAG:  cpu time   68.8943: real time   68.8969
  RMM-DIIS:  cpu time  191.4822: real time  191.4884
    ORTHCH:  cpu time   13.4842: real time   13.4843
       DOS:  cpu time    0.0014: real time    0.0014
    CHARGE:  cpu time   25.8871: real time   25.8873
    MIXING:  cpu time    1.2299: real time    1.2299
    --------------------------------------------
      LOOP:  cpu time  314.6394: real time  314.6513

 eigenvalue-minimisations  :   712
 total energy-change (2. order) : 0.2140825E-01  (-0.2325995E-01)
 number of electron     559.9999890 magnetization 
 augmentation part      241.1656380 magnetization 

 Broyden mixing:
  rms(total) = 0.79581E+00    rms(broyden)= 0.79563E+00
  rms(prec ) = 0.92608E+00
  weight for this iteration     100.00

 eigenvalues of (default mixing * dielectric matrix)
  average eigenvalue GAMMA=   0.3661
  1.7149  1.7149  0.7021  0.7021  0.2075  0.2075  0.1437  0.1437  0.1077  0.1077
  0.0818  0.0818  0.0479  0.0569  0.0569  0.0775  0.0692

 Free energy of the ion-electron system (eV)
  ---------------------------------------------------
  alpha Z        PSCENC =        75.25431677
  Ewald energy   TEWEN  =    136852.96446666
  -Hartree energ DENC   =   -181070.76448966
  -exchange      EXHF   =         0.00000000
  -V(xc)+E(xc)   XCENC  =     -1694.43865748
  PAW double counting   =     46092.55839147   -42563.72087395
  entropy T*S    EENTRO =        -0.06876543
  eigenvalues    EBANDS =     -2952.75765346
  atomic energy  EATOM  =     45086.50549395
  Solvation  Ediel_sol  =         0.00000000
  ---------------------------------------------------
  free energy    TOTEN  =      -174.46777112 eV

  energy without entropy =     -174.39900570  energy(sigma->0) =     -174.45057977


--------------------------------------------------------------------------------------------------------




--------------------------------------- Iteration      1(  23)  ---------------------------------------


    POTLOK:  cpu time   13.5200: real time   13.5237
    SETDIJ:  cpu time    0.1219: real time    0.1219
    EDDIAG:  cpu time   69.3003: real time   69.3020
  RMM-DIIS:  cpu time  189.5726: real time  189.5772
    ORTHCH:  cpu time   13.3956: real time   13.3957
       DOS:  cpu time    0.0015: real time    0.0015
    CHARGE:  cpu time   26.0017: real time   26.0021
    MIXING:  cpu time    1.3343: real time    1.3343
    --------------------------------------------
      LOOP:  cpu time  313.2478: real time  313.2583

 eigenvalue-minimisations  :   705
 total energy-change (2. order) : 0.2438772E+00  (-0.1833437E-01)
 number of electron     559.9999892 magnetization 
 augmentation part      241.1925860 magnetization 

 Broyden mixing:
  rms(total) = 0.47197E+00    rms(broyden)= 0.47178E+00
  rms(prec ) = 0.53789E+00
  weight for this iteration     100.00

 eigenvalues of (default mixing * dielectric matrix)
  average eigenvalue GAMMA=   0.3712
  1.8393  1.8393  0.6890  0.6890  0.2964  0.2100  0.1448  0.1448  0.1524  0.1029
[...]
 -0.006  -0.012   0.004   0.004   0.006  -0.006  -0.012   0.004
 -0.011  -0.020   0.007   0.007   0.010  -0.010  -0.020   0.006
 -0.015  -0.005   0.012   0.000   0.022  -0.014  -0.005   0.012
  0.000  -0.023  -0.006  -0.015  -0.000   0.000  -0.022  -0.006
 -0.022   0.000   0.009  -0.005  -0.016  -0.021   0.000   0.009
 -0.018  -0.006   0.015   0.000   0.027  -0.017  -0.006   0.015
  0.000  -0.027  -0.007  -0.018   0.000   0.000  -0.026  -0.007
 -0.027   0.000   0.011  -0.006  -0.019  -0.026   0.000   0.010
 total augmentation occupancy for first ion, spin component:           1
  1.537  -0.031   0.006   0.018   0.025   0.076  -0.008  -0.002   0.035  -0.010   0.088  -0.030   0.012   0.002   0.002  -0.019
 -0.031   1.400   0.029   0.072   0.001  -0.007   0.071   0.011  -0.015  -0.008   0.219  -0.066   0.020   0.002   0.002  -0.006
  0.006   0.029   1.545   0.002   0.003  -0.002   0.012   0.073  -0.013   0.017  -0.057   0.019  -0.003  -0.007  -0.005   0.016
  0.018   0.072   0.002   1.338   0.045   0.033  -0.014  -0.012   0.091  -0.023  -0.082   0.021  -0.001  -0.009  -0.004   0.001
  0.025   0.001   0.003   0.045   1.441  -0.010  -0.009   0.016  -0.022   0.067  -0.102   0.033  -0.003  -0.010  -0.009   0.026
  0.076  -0.007  -0.002   0.033  -0.010   0.217   0.018  -0.002  -0.045   0.004  -0.048   0.002   0.017  -0.010   0.034  -0.004
 -0.008   0.071   0.012  -0.014  -0.009   0.018   0.262  -0.023  -0.003   0.006  -0.109   0.007  -0.001   0.051  -0.010  -0.000
 -0.002   0.011   0.073  -0.012   0.016  -0.002  -0.023   0.215   0.014  -0.020   0.028  -0.001  -0.012   0.009  -0.018   0.003
  0.035  -0.015  -0.013   0.091  -0.022  -0.045  -0.003   0.014   0.260   0.007   0.044  -0.004  -0.009   0.036   0.004   0.000
 -0.010  -0.008   0.017  -0.023   0.067   0.004   0.006  -0.020   0.007   0.258   0.047  -0.002  -0.038   0.002   0.049   0.007
  0.088   0.219  -0.057  -0.082  -0.102  -0.048  -0.109   0.028   0.044   0.047   0.952  -0.141   0.084   0.014   0.064  -0.013
 -0.030  -0.066   0.019   0.021   0.033   0.002   0.007  -0.001  -0.004  -0.002  -0.141   0.023  -0.014  -0.003  -0.010   0.003
  0.012   0.020  -0.003  -0.001  -0.003   0.017  -0.001  -0.012  -0.009  -0.038   0.084  -0.014   0.029  -0.008  -0.004  -0.003
  0.002   0.002  -0.007  -0.009  -0.010  -0.010   0.051   0.009   0.036   0.002   0.014  -0.003  -0.008   0.036   0.004   0.000
  0.002   0.002  -0.005  -0.004  -0.009   0.034  -0.010  -0.018   0.004   0.049   0.064  -0.010  -0.004   0.004   0.034  -0.000
 -0.019  -0.006   0.016   0.001   0.026  -0.004  -0.000   0.003   0.000   0.007  -0.013   0.003  -0.003   0.000  -0.000   0.001
  0.001  -0.028  -0.007  -0.018   0.001   0.001  -0.008  -0.001  -0.006  -0.000  -0.003   0.001   0.000  -0.003  -0.000   0.000
 -0.028   0.001   0.012  -0.005  -0.020  -0.006   0.001   0.003  -0.001  -0.007  -0.008   0.001  -0.000  -0.000  -0.003   0.000


------------------------ aborting loop because EDIFF is reached ----------------------------------------


    CHARGE:  cpu time   26.0793: real time   26.0794
    FORLOC:  cpu time    6.8547: real time    6.8547
    FORNL :  cpu time   66.8877: real time   66.8881
    STRESS:  cpu time  200.9545: real time  200.9595
    FORCOR:  cpu time   22.1246: real time   22.1268
    FORHAR:  cpu time    9.7541: real time    9.7542
    MIXING:  cpu time    3.7703: real time    3.7704
    OFIELD:  cpu time    0.0000: real time    0.0000

  FORCE on cell =-STRESS in cart. coord.  units (eV):
  Direction    XX          YY          ZZ          XY          YZ          ZX
  --------------------------------------------------------------------------------------
  Alpha Z    75.25432    75.25432    75.25432
  Ewald   44481.45467 45978.48962 46392.91471 -1103.42423 -1888.22703  1292.93201
  Hartree 59344.39154 60730.94753 61149.35263 -1015.04421 -1725.16345  1193.45760
  E(xc)   -2904.62626 -2903.69806 -2903.97236    -0.51375    -0.99831     0.47970
  Local  ************************************  2110.18752  3599.40088 -2477.79918
  n-local  -883.22361  -887.01772  -886.14516     2.34992     4.88466    -2.92703
  augment  4104.15654  4103.53344  4103.67194     0.54572     0.56067    -0.19215
  Kinetic  7807.44965  7800.20048  7801.04574     5.42334     9.44071    -5.17080
  Fock        0.00000     0.00000     0.00000     0.00000     0.00000     0.00000
  -------------------------------------------------------------------------------------
  Total    -113.26794  -114.84609  -113.14056    -0.47570    -0.10187     0.78016
  in kB      -6.72131    -6.81496    -6.71375    -0.02823    -0.00605     0.04629
  external pressure =       -6.75 kB  Pullay stress =        0.00 kB


 VOLUME and BASIS-vectors are now :
 -----------------------------------------------------------------------------
  energy-cutoff  :      400.00
  volume of cell :    27000.00
      direct lattice vectors                 reciprocal lattice vectors
    30.000000000  0.000000000  0.000000000     0.033333333  0.000000000  0.000000000
     0.000000000 30.000000000  0.000000000     0.000000000  0.033333333  0.000000000
     0.000000000  0.000000000 30.000000000     0.000000000  0.000000000  0.033333333

  length of vectors
    30.000000000 30.000000000 30.000000000     0.033333333  0.033333333  0.033333333


 FORCES acting on ions
    electron-ion (+dipol)            ewald-force                    non-local-force                 convergence-correction
 -----------------------------------------------------------------------------------------------
   0.392E+03 0.976E+03 0.413E+03   -.390E+03 -.973E+03 -.412E+03   -.150E+01 -.181E+01 -.221E+00   0.174E-02 0.470E-02 0.314E-02
   -.978E+03 -.389E+03 0.412E+03   0.975E+03 0.387E+03 -.411E+03   0.181E+01 0.150E+01 -.222E+00   -.820E-02 -.316E-02 -.122E-01
   -.397E+03 0.974E+03 0.413E+03   0.394E+03 -.971E+03 -.413E+03   0.150E+01 -.182E+01 -.222E+00   -.489E-02 0.459E-02 0.405E-02
   0.978E+03 -.366E+03 0.390E+03   -.975E+03 0.364E+03 -.389E+03   -.189E+01 0.154E+01 -.227E+00   0.209E-02 -.218E-02 -.255E-02
   -.460E+01 0.595E+03 0.961E+03   0.460E+01 -.594E+03 -.958E+03   -.589E-03 -.309E+00 -.234E+01   -.161E-02 0.165E-02 0.742E-02
   -.142E+01 0.588E+03 -.966E+03   0.142E+01 -.587E+03 0.962E+03   -.399E-02 -.310E+00 0.235E+01   0.816E-02 -.564E-02 -.396E-02
   -.167E+01 0.113E+04 -.252E+01   0.167E+01 -.113E+04 0.252E+01   -.598E-03 -.311E+01 0.298E-02   -.614E-03 0.765E-02 -.143E-02
   0.114E+04 0.968E+01 -.106E+02   -.113E+04 -.969E+01 0.106E+02   -.310E+01 0.725E-02 -.104E-02   -.276E-02 -.262E-02 -.202E-02
   -.114E+04 0.262E+01 -.282E+01   0.113E+04 -.262E+01 0.283E+01   0.311E+01 -.128E-02 -.862E-03   -.328E-02 -.282E-02 -.652E-02
   -.119E+02 -.113E+04 -.191E+02   0.118E+02 0.113E+04 0.190E+02   0.144E-01 0.312E+01 0.165E-01   0.126E-03 0.861E-03 -.307E-02
   -.582E+03 0.583E+03 0.810E+03   0.580E+03 -.581E+03 -.807E+03   0.156E+01 -.156E+01 -.220E+01   -.116E-02 0.826E-02 0.334E-02
   -.579E+03 0.579E+03 -.813E+03   0.577E+03 -.577E+03 0.810E+03   0.156E+01 -.156E+01 0.220E+01   0.148E-02 -.402E-03 -.325E-02
   0.549E+03 -.452E+03 0.727E+03   -.548E+03 0.451E+03 -.725E+03   -.106E+01 0.802E+00 -.136E+01   0.272E-02 -.190E-02 -.507E-02
   0.577E+03 -.575E+03 -.818E+03   -.575E+03 0.573E+03 0.815E+03   -.156E+01 0.156E+01 0.220E+01   -.639E-02 0.265E-02 0.517E-03
   0.576E+03 0.590E+03 0.809E+03   -.574E+03 -.588E+03 -.805E+03   -.155E+01 -.154E+01 -.220E+01   0.549E-02 -.198E-02 0.419E-02
   0.577E+03 0.580E+03 -.814E+03   -.575E+03 -.578E+03 0.811E+03   -.156E+01 -.156E+01 0.220E+01   0.370E-02 -.694E-02 -.124E-03
   -.596E+03 -.571E+03 0.807E+03   0.594E+03 0.568E+03 -.804E+03   0.158E+01 0.156E+01 -.219E+01   0.254E-02 -.111E-01 0.297E-02
   -.581E+03 -.576E+03 -.815E+03   0.578E+03 0.574E+03 0.812E+03   0.156E+01 0.156E+01 0.220E+01   0.886E-02 -.550E-02 0.389E-02
   0.393E+03 0.973E+03 -.419E+03   -.390E+03 -.970E+03 0.418E+03   -.149E+01 -.182E+01 0.227E+00   0.541E-02 -.117E-02 -.653E-02
   -.974E+03 -.391E+03 -.419E+03   0.971E+03 0.389E+03 0.419E+03   0.182E+01 0.150E+01 0.225E+00   0.261E-02 -.995E-02 -.123E-02
   -.327E+03 0.329E+03 0.448E+03   0.327E+03 -.329E+03 -.448E+03   -.371E+00 0.368E+00 0.520E+00   -.703E-05 0.427E-02 -.969E-03
   0.973E+03 0.409E+03 0.407E+03   -.970E+03 -.406E+03 -.407E+03   -.182E+01 -.152E+01 -.215E+00   0.792E-02 -.848E-02 -.309E-02
   -.416E+03 -.967E+03 0.399E+03   0.414E+03 0.964E+03 -.399E+03   0.148E+01 0.182E+01 -.238E+00   0.711E-02 -.911E-02 -.732E-02
   -.395E+03 0.972E+03 -.418E+03   0.393E+03 -.969E+03 0.418E+03   0.150E+01 -.182E+01 0.219E+00   0.106E-02 0.319E-02 -.204E-02
   0.972E+03 -.388E+03 -.426E+03   -.969E+03 0.386E+03 0.426E+03   -.182E+01 0.149E+01 0.221E+00   0.497E-03 0.408E-02 0.585E-03
   -.975E+03 0.398E+03 0.413E+03   0.972E+03 -.396E+03 -.413E+03   0.182E+01 -.149E+01 -.226E+00   -.667E-02 0.705E-02 -.469E-02
   0.362E+03 -.961E+03 0.361E+03   -.359E+03 0.958E+03 -.360E+03   -.159E+01 0.175E+01 -.392E+00   0.496E-02 -.227E-02 -.492E-03
   0.316E+03 0.334E+03 0.445E+03   -.317E+03 -.334E+03 -.446E+03   0.370E+00 0.343E+00 0.531E+00   0.725E-02 -.850E-02 0.472E-03
   -.281E+01 0.643E+03 -.435E+01   0.281E+01 -.644E+03 0.435E+01   0.311E-02 0.728E+00 0.302E-02   0.562E-03 -.236E-02 -.583E-02
   -.596E+03 0.817E+01 0.961E+03   0.595E+03 -.818E+01 -.957E+03   0.314E+00 -.127E-04 -.234E+01   -.142E-04 0.738E-02 0.528E-02
   -.588E+03 0.217E+01 -.966E+03   0.587E+03 -.215E+01 0.962E+03   0.316E+00 -.455E-02 0.235E+01   0.423E-02 -.142E-01 0.614E-03
   0.583E+03 0.349E+02 0.953E+03   -.582E+03 -.348E+02 -.950E+03   -.346E+00 -.771E-01 -.243E+01   0.600E-02 -.766E-02 -.215E-02
   0.585E+03 0.351E+01 -.968E+03   -.585E+03 -.351E+01 0.964E+03   -.308E+00 0.243E-02 0.235E+01   0.101E-03 -.499E-03 0.308E-02
   0.759E+03 0.766E+03 -.521E+01   -.757E+03 -.764E+03 0.523E+01   -.115E+01 -.114E+01 -.747E-02   0.953E-02 -.704E-02 -.734E-02
   -.768E+03 -.756E+03 -.756E+01   0.766E+03 0.755E+03 0.756E+01   0.114E+01 0.114E+01 0.590E-02   0.901E-03 -.673E-02 -.161E-01
   -.763E+03 0.763E+03 -.289E+01   0.761E+03 -.761E+03 0.288E+01   0.114E+01 -.115E+01 0.287E-02   -.406E-02 0.484E-03 0.788E-04
   0.758E+03 -.750E+03 -.262E+02   -.756E+03 0.748E+03 0.262E+02   -.115E+01 0.115E+01 -.216E-04   0.256E-02 0.145E-02 0.148E-02
   -.141E+02 0.206E+02 0.106E+04   0.140E+02 -.206E+02 -.106E+04   0.954E-02 -.325E-02 -.162E+01   0.101E-01 -.195E-02 0.540E-02
   -.208E+01 0.294E+01 -.107E+04   0.207E+01 -.293E+01 0.107E+04   -.676E-03 -.476E-02 0.161E+01   0.575E-02 -.109E-01 -.617E-04
   0.971E+03 0.399E+03 -.422E+03   -.968E+03 -.397E+03 0.421E+03   -.182E+01 -.150E+01 0.212E+00   0.156E-02 -.622E-02 -.256E-02
   -.399E+03 -.969E+03 -.424E+03   0.397E+03 0.966E+03 0.424E+03   0.149E+01 0.181E+01 0.216E+00   -.157E-03 0.424E-02 -.786E-02
   -.323E+03 0.324E+03 -.456E+03   0.324E+03 -.325E+03 0.457E+03   -.367E+00 0.370E+00 -.523E+00   0.605E-02 -.101E-01 -.260E-02
   0.307E+03 -.296E+03 0.429E+03   -.308E+03 0.297E+03 -.430E+03   0.449E+00 -.346E+00 0.584E+00   0.120E-01 -.807E-02 -.867E-03
   0.319E+03 0.325E+03 -.458E+03   -.319E+03 -.326E+03 0.459E+03   0.370E+00 0.367E+00 -.520E+00   0.770E-02 -.918E-02 -.812E-02
   -.973E+03 0.396E+03 -.418E+03   0.970E+03 -.394E+03 0.418E+03   0.182E+01 -.150E+01 0.229E+00   -.418E-02 -.719E-02 0.244E-02
   0.390E+03 -.969E+03 -.429E+03   -.388E+03 0.966E+03 0.428E+03   -.149E+01 0.182E+01 0.225E+00   -.718E-02 0.238E-02 -.558E-02
   -.334E+03 -.310E+03 0.442E+03   0.335E+03 0.311E+03 -.443E+03   -.354E+00 -.379E+00 0.533E+00   0.949E-02 -.625E-02 -.973E-02
   0.637E+03 0.113E+02 -.123E+02   -.638E+03 -.112E+02 0.123E+02   0.726E+00 -.193E-01 0.188E-01   0.891E-02 -.642E-02 -.556E-02
   -.643E+03 0.463E+01 -.502E+01   0.644E+03 -.463E+01 0.504E+01   -.730E+00 0.668E-02 -.643E-02   -.195E-02 -.609E-02 -.122E-01
   -.469E+02 -.558E+03 0.944E+03   0.471E+02 0.557E+03 -.940E+03   -.165E+00 0.356E+00 -.235E+01   0.135E-01 -.659E-02 -.180E-03
   -.283E+01 -.584E+03 -.969E+03   0.284E+01 0.583E+03 0.965E+03   -.584E-03 0.316E+00 0.234E+01   -.506E-02 -.926E-03 0.353E-05
   -.573E+01 0.832E+01 -.907E+01   0.575E+01 -.834E+01 0.912E+01   -.131E-01 0.147E-01 -.189E-01   0.558E-02 -.742E-02 -.110E-01
   0.318E+03 -.315E+03 -.462E+03   -.318E+03 0.316E+03 0.463E+03   0.366E+00 -.367E+00 -.523E+00   -.963E-03 -.140E-02 -.770E-02
   -.325E+03 -.317E+03 -.459E+03   0.326E+03 0.317E+03 0.460E+03   -.369E+00 -.359E+00 -.527E+00   0.189E-02 -.127E-01 -.874E-02
   -.104E+02 -.631E+03 -.167E+02   0.104E+02 0.632E+03 0.167E+02   0.696E-02 -.739E+00 0.149E-01   0.156E-02 -.656E-02 -.891E-02
   0.503E+02 -.101E+03 0.872E+02   -.390E+02 0.841E+02 -.684E+02   -.101E+02 0.143E+02 -.162E+02   0.907E-04 0.667E-03 -.152E-02
   0.261E+03 -.389E+03 0.417E+03   -.287E+03 0.428E+03 -.460E+03   0.253E+02 -.372E+02 0.412E+02   0.378E-04 0.409E-03 -.124E-02
 -----------------------------------------------------------------------------------------------
   -.156E+02 0.239E+02 -.256E+02   0.568E-12 -.136E-11 -.171E-12   0.154E+02 -.237E+02 0.257E+02   0.123E+00 -.164E+00 -.143E+00
 
 
 POSITION                                       TOTAL-FORCE (eV/Angst)
 -----------------------------------------------------------------------------------
     13.37281      9.84801     12.50759         0.708151      1.110008      0.291917
     20.15199     16.62719     12.50759        -1.108592     -0.704611      0.294199
     16.62719      9.84801     12.50759        -0.704622      1.107602      0.291980
      9.84801     16.62719     12.50759         1.108278     -0.737745      0.300764
     15.00000     11.47521     10.20639        -0.000344      0.413107      1.282513
     15.00000     11.47521     19.79360         0.001232      0.413702     -1.281525
     15.00000      8.28283     15.00000        -0.000312      1.517778     -0.001014
      8.28283     15.00000     15.00000         1.512351     -0.004072      0.007691
     21.71717     15.00000     15.00000        -1.517324      0.000071      0.000490
     15.00000     21.71717     15.00000        -0.006877     -1.517854     -0.006870
     18.35858     11.64142     10.25025        -0.756076      0.756638      1.072001
     18.35858     11.64142     19.74975        -0.758690      0.756824     -1.074227
     11.64142     18.35858     10.25025         0.542530      0.390947      0.346558
     11.64142     18.35858     19.74975         0.756059     -0.756052     -1.072807
     11.64142     11.64142     10.25025         0.759553      0.742855      1.072604
     11.64142     11.64142     19.74975         0.755929      0.757209     -1.072941
     18.35858     18.35858     10.25025        -0.766344     -0.756170      1.066835
     18.35858     18.35858     19.74975        -0.756151     -0.757214     -1.072697
     13.37281      9.84801     17.49241         0.702726      1.107490     -0.292260
     20.15199     16.62719     17.49241        -1.105174     -0.702927     -0.290669
     16.73751     13.26249     12.54279         0.110518     -0.111116     -0.156979
      9.84801     13.37281     12.50759         1.106254      0.717633      0.285463
     16.62719     20.15199     12.50759        -0.699506     -1.110899      0.298359
     16.62719      9.84801     17.49241        -0.703582      1.109117     -0.290873
      9.84801     16.62719     17.49241         1.108887     -0.704765     -0.291937
     20.15199     13.37281     12.50759        -1.108117      0.702596      0.293072
     13.37281     20.15199     12.50759         0.747426     -1.082441      0.331739
     13.26249     13.26249     12.54279        -0.112717     -0.101825     -0.161594
     15.00000     11.52498     15.00000         0.000552     -0.232462     -0.000309
     18.52479     15.00000     10.20639        -0.414835     -0.000048      1.281775
     18.52479     15.00000     19.79360        -0.415957      0.002463     -1.280977
     11.47521     15.00000     10.20640         0.408896     -0.000803      1.301559
     11.47521     15.00000     19.79360         0.413555     -0.000735     -1.280959
     11.49535     11.49535     15.00000         0.832386      0.827044      0.004269
     18.50465     18.50465     15.00000        -0.833022     -0.827554     -0.003383
     18.50465     11.49535     15.00000        -0.829328      0.829290     -0.000683
     11.49535     18.50465     15.00000         0.830276     -0.832518      0.006686
     15.00000     15.00000     10.04368         0.002695     -0.003348      1.181718
     15.00000     15.00000     19.95633        -0.000558      0.000385     -1.178675
      9.84801     13.37281     17.49241         1.111396      0.706000     -0.289914
     16.62719     20.15199     17.49241        -0.702843     -1.110152     -0.293282
     16.73751     13.26249     17.45721         0.110827     -0.114140      0.157397
     13.26249     16.73751     12.54279        -0.127095      0.068089     -0.146958
     13.26249     13.26249     17.45721        -0.112999     -0.113027      0.160267
     20.15199     13.37281     17.49241        -1.107661      0.704025     -0.295287
     13.37281     20.15199     17.49241         0.703133     -1.109040     -0.292948
     16.73751     16.73751     12.54279         0.108766      0.110632     -0.158786
     11.52498     15.00000     15.00000        -0.227385      0.005280     -0.005727
     18.47502     15.00000     15.00000         0.233376     -0.001281      0.001587
     15.00000     18.52480     10.20639         0.059486     -0.409797      1.293201
     15.00000     18.52480     19.79360         0.000237     -0.415434     -1.279693
     15.00000     15.00000     15.00000         0.015943     -0.013319      0.020966
     13.26249     16.73751     17.45721        -0.112135      0.111695      0.155479
     16.73751     16.73751     17.45721         0.114556      0.112336      0.160930
     15.00000     18.47502     15.00000        -0.003594      0.229212     -0.002858
     11.27297     20.51912      8.90588         1.253387     -2.871856      2.507227
     10.80725     21.20876      8.14438        -1.127522      1.793177     -1.892415
 -----------------------------------------------------------------------------------
    total drift:                               -0.004303      0.003677     -0.002138


--------------------------------------------------------------------------------------------------------



  FREE ENERGIE OF THE ION-ELECTRON SYSTEM (eV)
  ---------------------------------------------------
  free  energy   TOTEN  =      -174.04646457 eV

  energy  without entropy=     -173.94078992  energy(sigma->0) =     -174.02004590
 


--------------------------------------------------------------------------------------------------------


    POTLOK:  cpu time   14.1188: real time   14.1208


--------------------------------------------------------------------------------------------------------


     LOOP+:  cpu time17864.8349: real time17865.5417
    4ORBIT:  cpu time    0.0000: real time    0.0000

 total amount of memory used by VASP MPI-rank0  5486939. kBytes
=======================================================================

   base      :      30000. kBytes
   nonlr-proj:      17124. kBytes
   fftplans  :     924480. kBytes
   grid      :    1872000. kBytes
   one-center:        886. kBytes
   wavefun   :    2642449. kBytes
 
  
  
 General timing and accounting informations for this job:
 ========================================================
  
                  Total CPU time used (sec):    17939.059
                            User time (sec):    16956.736
                          System time (sec):      982.322
                         Elapsed time (sec):    17939.859
  
                   Maximum memory used (kb):     7178580.
                   Average memory used (kb):           0.
  
                          Minor page faults:    795234943
                          Major page faults:            0
                 Voluntary context switches:          465
