<?xml version="1.0" encoding="ISO-8859-1"?>
<modeling>
 <generator>
  <i name="program" type="string">vasp </i>
  <i name="version" type="string">5.4.4.18Apr17-6-g9f103f2a35  </i>
  <i name="subversion" type="string">(build Sep 03 2018 23:53:05) complex            parallel </i>
  <i name="platform" type="string">LinuxIFC </i>
  <i name="date" type="string">2021 11 25 </i>
  <i name="time" type="string">21:49:33 </i>
 </generator>
 <incar>
  <i type="string" name="SYSTEM"> 6_Pd100_top_free_z(O)</i>
  <i type="int" name="ISTART">     0</i>
  <i type="string" name="PREC">normal   			! encut=max(enmax), ngx,y,z</i>
  <i type="string" name="ALGO"> Fast     			! Mix RMM-DIIS and Dav</i>
  <i type="logical" name="ADDGRID"> F  </i>
  <i type="int" name="ISPIN">     1</i>
  <i type="int" name="ICHARG">     2</i>
  <i type="int" name="NELM">   100</i>
  <i type="int" name="NELMIN">     6</i>
  <i type="int" name="IBRION">     2</i>
  <i name="EDIFF">      0.00010000</i>
  <i name="EDIFFG">     -0.05000000</i>
  <i type="int" name="NSW">     0</i>
  <i type="int" name="ISIF">     2</i>
  <i type="int" name="ISYM">     2</i>
  <i name="ENCUT">    400.00000000</i>
  <i type="string" name="LREAL"> Auto     			! Auto or A projection done</i>
  <i type="int" name="ISMEAR">     2</i>
  <i name="SIGMA">      0.20000000</i>
  <i type="logical" name="LWAVE"> F  </i>
  <i type="logical" name="LCHARG"> F  </i>
  <v type="int" name="KPOINT_BSE">    -1     0     0     0</v>
  <i type="int" name="MAXMEM"> 10000</i>
  <i type="int" name="NELM">   100</i>
  <i type="string" name="GGA"> RP         			! Revised PBE</i>
 </incar>
 <structure name="primitive_cell" >
  <crystal>
   <varray name="basis" >
    <v>      30.00000000       0.00000000       0.00000000 </v>
    <v>       0.00000000      30.00000000       0.00000000 </v>
    <v>       0.00000000       0.00000000      30.00000000 </v>
   </varray>
   <i name="volume">  27000.00000000 </i>
   <varray name="rec_basis" >
    <v>       0.03333333       0.00000000       0.00000000 </v>
    <v>       0.00000000       0.03333333       0.00000000 </v>
    <v>       0.00000000       0.00000000       0.03333333 </v>
   </varray>
  </crystal>
  <varray name="positions" >
   <v>       0.44576020       0.32826710       0.41691983 </v>
   <v>      -0.44576020       0.32826710       0.41691983 </v>
   <v>      -0.50000000       0.38250690       0.34021317 </v>
   <v>      -0.50000000       0.27609440      -0.50000000 </v>
   <v>       0.38804720       0.38804720       0.34167483 </v>
   <v>      -0.50000000       0.38416601      -0.50000000 </v>
   <v>       0.44208300       0.44208300       0.41809300 </v>
   <v>       0.38317830       0.38317830      -0.50000000 </v>
   <v>      -0.44208300       0.44208300       0.41809300 </v>
   <v>       0.44576020       0.32826710      -0.41691977 </v>
   <v>       0.32826705       0.44576024       0.41691983 </v>
   <v>      -0.38804720       0.38804720       0.34167483 </v>
   <v>      -0.38317830       0.38317830      -0.50000000 </v>
   <v>      -0.50000000      -0.50000000       0.33478917 </v>
   <v>      -0.50000000      -0.50000000      -0.50000000 </v>
   <v>      -0.44576020       0.32826710      -0.41691977 </v>
   <v>       0.38250685      -0.49999995       0.34021317 </v>
   <v>       0.44208300       0.44208300      -0.41809297 </v>
   <v>       0.38416599      -0.49999998      -0.50000000 </v>
   <v>      -0.44208300       0.44208300      -0.41809297 </v>
   <v>       0.44208298      -0.44208298       0.41809300 </v>
   <v>       0.32826705       0.44576024      -0.41691977 </v>
   <v>      -0.50000000       0.38250690      -0.34021320 </v>
   <v>       0.32826712      -0.44576022       0.41691983 </v>
   <v>      -0.38250685      -0.49999995       0.34021317 </v>
   <v>      -0.32826705       0.44576024       0.41691983 </v>
   <v>       0.27609443       0.49999998      -0.50000000 </v>
   <v>       0.38804720       0.38804720      -0.34167487 </v>
   <v>      -0.38416599      -0.49999998      -0.50000000 </v>
   <v>      -0.44208298      -0.44208298       0.41809300 </v>
   <v>       0.44208298      -0.44208298      -0.41809297 </v>
   <v>      -0.38804720       0.38804720      -0.34167487 </v>
   <v>       0.38804722      -0.38804722       0.34167483 </v>
   <v>       0.38250685      -0.49999995      -0.34021320 </v>
   <v>       0.32826712      -0.44576022      -0.41691977 </v>
   <v>      -0.32826705       0.44576024      -0.41691977 </v>
   <v>       0.50000000      -0.38250681       0.34021317 </v>
   <v>      -0.50000000      -0.38416596      -0.50000000 </v>
   <v>      -0.44208298      -0.44208298      -0.41809297 </v>
   <v>      -0.50000000      -0.50000000      -0.33478913 </v>
   <v>       0.38317828      -0.38317828      -0.50000000 </v>
   <v>      -0.32826712      -0.44576022       0.41691983 </v>
   <v>      -0.27609443       0.49999998      -0.50000000 </v>
   <v>      -0.38804722      -0.38804722       0.34167483 </v>
   <v>      -0.38250685      -0.49999995      -0.34021320 </v>
   <v>       0.44576027      -0.32826707       0.41691983 </v>
   <v>      -0.38317828      -0.38317828      -0.50000000 </v>
   <v>      -0.32826712      -0.44576022      -0.41691977 </v>
   <v>      -0.44576027      -0.32826707       0.41691983 </v>
   <v>       0.38804722      -0.38804722      -0.34167487 </v>
   <v>      -0.50000000      -0.38250681      -0.34021320 </v>
   <v>       0.44576027      -0.32826707      -0.41691977 </v>
   <v>      -0.44576027      -0.32826707      -0.41691977 </v>
   <v>      -0.50000000      -0.27609445       0.50000000 </v>
   <v>      -0.38804722      -0.38804722      -0.34167487 </v>
   <v>      -0.37892153      -0.49129150      -0.25599803 </v>
   <v>      -0.36221680      -0.49009000      -0.22233400 </v>
  </varray>
 </structure>
 <varray name="primitive_index" >
  <v type="int" >        1 </v>
  <v type="int" >        3 </v>
  <v type="int" >        5 </v>
  <v type="int" >        7 </v>
  <v type="int" >       15 </v>
  <v type="int" >       29 </v>
  <v type="int" >       28 </v>
  <v type="int" >       34 </v>
  <v type="int" >       21 </v>
  <v type="int" >       19 </v>
  <v type="int" >       22 </v>
  <v type="int" >       11 </v>
  <v type="int" >       36 </v>
  <v type="int" >       38 </v>
  <v type="int" >       52 </v>
  <v type="int" >       24 </v>
  <v type="int" >       32 </v>
  <v type="int" >       44 </v>
  <v type="int" >       48 </v>
  <v type="int" >       42 </v>
  <v type="int" >       43 </v>
  <v type="int" >       40 </v>
  <v type="int" >        6 </v>
  <v type="int" >        4 </v>
  <v type="int" >       30 </v>
  <v type="int" >       26 </v>
  <v type="int" >        8 </v>
  <v type="int" >       16 </v>
  <v type="int" >       49 </v>
  <v type="int" >       47 </v>
  <v type="int" >       53 </v>
  <v type="int" >       12 </v>
  <v type="int" >       13 </v>
  <v type="int" >       33 </v>
  <v type="int" >       25 </v>
  <v type="int" >       45 </v>
  <v type="int" >       50 </v>
  <v type="int" >       55 </v>
  <v type="int" >       54 </v>
  <v type="int" >       39 </v>
  <v type="int" >       37 </v>
  <v type="int" >        2 </v>
  <v type="int" >        9 </v>
  <v type="int" >       17 </v>
  <v type="int" >       31 </v>
  <v type="int" >       27 </v>
  <v type="int" >       35 </v>
  <v type="int" >       20 </v>
  <v type="int" >       23 </v>
  <v type="int" >       14 </v>
  <v type="int" >       51 </v>
  <v type="int" >       46 </v>
  <v type="int" >       41 </v>
  <v type="int" >       10 </v>
  <v type="int" >       18 </v>
  <v type="int" >       56 </v>
  <v type="int" >       57 </v>
 </varray>
 <kpoints>
  <generation param="Monkhorst-Pack">
   <v type="int" name="divisions">       1        1        1 </v>
   <v name="usershift">      0.00000000       0.00000000       0.00000000 </v>
   <v name="genvec1">      1.00000000       0.00000000       0.00000000 </v>
   <v name="genvec2">      0.00000000       1.00000000       0.00000000 </v>
   <v name="genvec3">      0.00000000       0.00000000       1.00000000 </v>
   <v name="shift">      0.00000000       0.00000000       0.00000000 </v>
  </generation>
  <varray name="kpointlist" >
   <v>       0.00000000       0.00000000       0.00000000 </v>
  </varray>
  <varray name="weights" >
   <v>       1.00000000 </v>
  </varray>
 </kpoints>
 <parameters>
  <separator name="general" >
   <i type="string" name="SYSTEM">6_Pd100_top_free_z(O)</i>
   <i type="logical" name="LCOMPAT"> F  </i>
  </separator>
  <separator name="electronic" >
   <i type="string" name="PREC">normal</i>
   <i name="ENMAX">    400.00000000</i>
   <i name="ENAUG">    644.87300000</i>
   <i name="EDIFF">      0.00010000</i>
   <i type="int" name="IALGO">    68</i>
   <i type="int" name="IWAVPR">    10</i>
   <i type="int" name="NBANDS">   336</i>
   <i name="NELECT">    560.00000000</i>
   <i type="int" name="TURBO">     0</i>
   <i type="int" name="IRESTART">     0</i>
   <i type="int" name="NREBOOT">     0</i>
   <i type="int" name="NMIN">     0</i>
   <i name="EREF">      0.00000000</i>
   <separator name="electronic smearing" >
    <i type="int" name="ISMEAR">     2</i>
    <i name="SIGMA">      0.20000000</i>
    <i name="KSPACING">      0.50000000</i>
    <i type="logical" name="KGAMMA"> T  </i>
   </separator>
   <separator name="electronic projectors" >
    <i type="logical" name="LREAL"> T  </i>
    <v name="ROPT">     -0.00050000     -0.00050000     -0.00050000</v>
    <i type="int" name="LMAXPAW">  -100</i>
    <i type="int" name="LMAXMIX">     2</i>
    <i type="logical" name="NLSPLINE"> F  </i>
   </separator>
   <separator name="electronic startup" >
    <i type="int" name="ISTART">     0</i>
    <i type="int" name="ICHARG">     2</i>
    <i type="int" name="INIWAV">     1</i>
   </separator>
   <separator name="electronic spin" >
    <i type="int" name="ISPIN">     1</i>
    <i type="logical" name="LNONCOLLINEAR"> F  </i>
    <v name="MAGMOM">      1.00000000      1.00000000      1.00000000      1.00000000      1.00000000      1.00000000      1.00000000      1.00000000      1.00000000      1.00000000      1.00000000      1.00000000      1.00000000      1.00000000      1.00000000      1.00000000      1.00000000      1.00000000      1.00000000      1.00000000
      1.00000000      1.00000000      1.00000000      1.00000000      1.00000000      1.00000000      1.00000000      1.00000000      1.00000000      1.00000000      1.00000000      1.00000000      1.00000000      1.00000000      1.00000000      1.00000000      1.00000000      1.00000000      1.00000000      1.00000000
      1.00000000      1.00000000      1.00000000      1.00000000      1.00000000      1.00000000      1.00000000      1.00000000      1.00000000      1.00000000      1.00000000      1.00000000      1.00000000      1.00000000      1.00000000      1.00000000      1.00000000</v>
    <i name="NUPDOWN">     -1.00000000</i>
    <i type="logical" name="LSORBIT"> F  </i>
    <v name="SAXIS">      0.00000000      0.00000000      1.00000000</v>
    <i type="logical" name="LSPIRAL"> F  </i>
    <v name="QSPIRAL">      0.00000000      0.00000000      0.00000000</v>
    <i type="logical" name="LZEROZ"> F  </i>
   </separator>
   <separator name="electronic exchange-correlation" >
    <i type="logical" name="LASPH"> F  </i>
    <i type="logical" name="LMETAGGA"> F  </i>
   </separator>
   <separator name="electronic convergence" >
    <i type="int" name="NELM">   100</i>
    <i type="int" name="NELMDL">    -5</i>
    <i type="int" name="NELMIN">     6</i>
    <i name="ENINI">    400.00000000</i>
    <separator name="electronic convergence detail" >
     <i type="logical" name="LDIAG"> T  </i>
     <i type="logical" name="LSUBROT"> F  </i>
     <i name="WEIMIN">      0.00000000</i>
     <i name="EBREAK">      0.00000007</i>
     <i name="DEPER">      0.30000000</i>
     <i type="int" name="NRMM">     4</i>
     <i name="TIME">      0.40000000</i>
    </separator>
   </separator>
   <separator name="electronic mixer" >
    <i name="AMIX">      0.40000000</i>
    <i name="BMIX">      1.00000000</i>
    <i name="AMIN">      0.10000000</i>
    <i name="AMIX_MAG">      1.60000000</i>
    <i name="BMIX_MAG">      1.00000000</i>
    <separator name="electronic mixer details" >
     <i type="int" name="IMIX">     4</i>
     <i type="logical" name="MIXFIRST"> F  </i>
     <i type="int" name="MAXMIX">   -45</i>
     <i name="WC">    100.00000000</i>
     <i type="int" name="INIMIX">     1</i>
     <i type="int" name="MIXPRE">     1</i>
     <i type="int" name="MREMOVE">     5</i>
    </separator>
   </separator>
   <separator name="electronic dipolcorrection" >
    <i type="logical" name="LDIPOL"> F  </i>
    <i type="logical" name="LMONO"> F  </i>
    <i type="int" name="IDIPOL">     0</i>
    <i name="EPSILON">      1.00000000</i>
    <v name="DIPOL">   -100.00000000   -100.00000000   -100.00000000</v>
    <i name="EFIELD">      0.00000000</i>
   </separator>
  </separator>
  <separator name="grids" >
   <i type="int" name="NGX">   150</i>
   <i type="int" name="NGY">   150</i>
   <i type="int" name="NGZ">   150</i>
   <i type="int" name="NGXF">   300</i>
   <i type="int" name="NGYF">   300</i>
   <i type="int" name="NGZF">   300</i>
   <i type="logical" name="ADDGRID"> F  </i>
  </separator>
  <separator name="ionic" >
   <i type="int" name="NSW">     0</i>
   <i type="int" name="IBRION">    -1</i>
   <i type="int" name="MDALGO">     0</i>
   <i type="int" name="ISIF">     2</i>
   <i name="PSTRESS">      0.00000000</i>
   <i name="EDIFFG">     -0.05000000</i>
   <i type="int" name="NFREE">     1</i>
   <i name="POTIM">      0.50000000</i>
   <i name="SMASS">     -3.00000000</i>
   <i name="SCALEE">      1.00000000</i>
  </separator>
  <separator name="ionic md" >
   <i name="TEBEG">      0.00010000</i>
   <i name="TEEND">      0.00010000</i>
   <i type="int" name="NBLOCK">     1</i>
   <i type="int" name="KBLOCK">     1</i>
   <i type="int" name="NPACO">   256</i>
   <i name="APACO">     16.00000000</i>
  </separator>
  <separator name="symmetry" >
   <i type="int" name="ISYM">     2</i>
   <i name="SYMPREC">      0.00001000</i>
  </separator>
  <separator name="dos" >
   <i type="int" name="LORBIT">     0</i>
   <v name="RWIGS">     -1.00000000     -1.00000000     -1.00000000</v>
   <i type="int" name="NEDOS">   301</i>
   <i name="EMIN">     10.00000000</i>
   <i name="EMAX">    -10.00000000</i>
   <i name="EFERMI">      0.00000000</i>
  </separator>
  <separator name="writing" >
   <i type="int" name="NWRITE">     2</i>
   <i type="logical" name="LWAVE"> F  </i>
   <i type="logical" name="LDOWNSAMPLE"> F  </i>
   <i type="logical" name="LCHARG"> F  </i>
   <i type="logical" name="LPARD"> F  </i>
   <i type="logical" name="LVTOT"> F  </i>
   <i type="logical" name="LVHAR"> F  </i>
   <i type="logical" name="LELF"> F  </i>
   <i type="logical" name="LOPTICS"> F  </i>
   <v name="STM">      0.00000000      0.00000000      0.00000000      0.00000000      0.00000000      0.00000000      0.00000000</v>
  </separator>
  <separator name="performance" >
   <i type="int" name="NPAR">     1</i>
   <i type="int" name="NSIM">     4</i>
   <i type="int" name="NBLK">    -1</i>
   <i type="logical" name="LPLANE"> T  </i>
   <i type="logical" name="LSCALAPACK"> T  </i>
   <i type="logical" name="LSCAAWARE"> F  </i>
   <i type="logical" name="LSCALU"> F  </i>
   <i type="logical" name="LASYNC"> F  </i>
   <i type="logical" name="LORBITALREAL"> F  </i>
  </separator>
  <separator name="miscellaneous" >
   <i type="int" name="IDIOT">     3</i>
   <i type="int" name="ISPECIAL">     0</i>
   <i type="logical" name="LMUSIC"> F  </i>
   <v name="POMASS">    106.42000000     12.01100000     16.00000000</v>
   <v name="DARWINR">      0.00000000      0.00000000      0.00000000</v>
   <v name="DARWINV">      1.00000000      1.00000000      1.00000000</v>
   <i type="logical" name="LCORR"> T  </i>
  </separator>
  <i type="logical" name="GGA_COMPAT"> T  </i>
  <i type="logical" name="LBERRY"> F  </i>
  <i type="int" name="ICORELEVEL">     0</i>
  <i type="logical" name="LDAU"> F  </i>
  <i type="int" name="I_CONSTRAINED_M">     0</i>
  <separator name="electronic exchange-correlation" >
   <i type="string" name="GGA">RP</i>
   <i type="int" name="VOSKOWN">     0</i>
   <i type="logical" name="LHFCALC"> F  </i>
   <i type="string" name="PRECFOCK"></i>
   <i type="logical" name="LSYMGRAD"> F  </i>
   <i type="logical" name="LHFONE"> F  </i>
   <i type="logical" name="LRHFCALC"> F  </i>
   <i type="logical" name="LTHOMAS"> F  </i>
   <i type="logical" name="LMODELHF"> F  </i>
   <i name="ENCUT4O">     -1.00000000</i>
   <i type="int" name="EXXOEP">     0</i>
   <i type="int" name="FOURORBIT">     0</i>
   <i name="AEXX">      0.00000000</i>
   <i name="HFALPHA">      0.00000000</i>
   <i name="MCALPHA">      0.00000000</i>
   <i name="ALDAX">      1.00000000</i>
   <i name="AGGAX">      1.00000000</i>
   <i name="ALDAC">      1.00000000</i>
   <i name="AGGAC">      1.00000000</i>
   <i type="int" name="NKREDX">     1</i>
   <i type="int" name="NKREDY">     1</i>
   <i type="int" name="NKREDZ">     1</i>
   <i type="logical" name="SHIFTRED"> F  </i>
   <i type="logical" name="ODDONLY"> F  </i>
   <i type="logical" name="EVENONLY"> F  </i>
   <i type="int" name="LMAXFOCK">     0</i>
   <i type="int" name="NMAXFOCKAE">     0</i>
   <i type="logical" name="LFOCKAEDFT"> F  </i>
   <i name="HFSCREEN">      0.00000000</i>
   <i name="HFSCREENC">      0.00000000</i>
   <i type="int" name="NBANDSGWLOW">     0</i>
  </separator>
  <separator name="vdW DFT" >
   <i type="logical" name="LUSE_VDW"> F  </i>
   <i name="Zab_VDW">     -0.84910000</i>
   <i name="PARAM1">      0.12340000</i>
   <i name="PARAM2">      1.00000000</i>
   <i name="PARAM3">      0.00000000</i>
  </separator>
  <separator name="model GW" >
   <i type="int" name="MODEL_GW">     0</i>
   <i name="MODEL_EPS0">    284.21052632</i>
   <i name="MODEL_ALPHA">      1.00000000</i>
  </separator>
  <separator name="linear response parameters" >
   <i type="logical" name="LEPSILON"> F  </i>
   <i type="logical" name="LRPA"> F  </i>
   <i type="logical" name="LNABLA"> F  </i>
   <i type="logical" name="LVEL"> F  </i>
   <i type="int" name="KINTER">     0</i>
   <i name="CSHIFT">      0.10000000</i>
   <i name="OMEGAMAX">     -1.00000000</i>
   <i name="DEG_THRESHOLD">      0.00200000</i>
   <i name="RTIME">     -0.10000000</i>
   <i name="WPLASMAI">      0.00000000</i>
   <v name="DFIELD">      0.00000000      0.00000000      0.00000000</v>
   <v name="WPLASMA">      0.00000000      0.00000000      0.00000000      0.00000000      0.00000000      0.00000000      0.00000000      0.00000000      0.00000000</v>
  </separator>
  <separator name="orbital magnetization" >
   <i type="logical" name="NUCIND"> F  </i>
   <v name="MAGPOS">      0.00000000      0.00000000      0.00000000</v>
   <i type="logical" name="LNICSALL"> T  </i>
   <i type="logical" name="ORBITALMAG"> F  </i>
   <i type="logical" name="LMAGBLOCH"> F  </i>
   <i type="logical" name="LCHIMAG"> F  </i>
   <i type="logical" name="LGAUGE"> T  </i>
   <i type="int" name="MAGATOM">     0</i>
   <v name="MAGDIPOL">      0.00000000      0.00000000      0.00000000</v>
   <v name="AVECCONST">      0.00000000      0.00000000      0.00000000</v>
  </separator>
  <separator name="response functions" >
   <i type="logical" name="LADDER"> F  </i>
   <i type="logical" name="LRPAFORCE"> F  </i>
   <i type="logical" name="LFXC"> F  </i>
   <i type="logical" name="LHARTREE"> T  </i>
   <i type="int" name="IBSE">     0</i>
   <v type="int" name="KPOINT">    -1     0     0     0</v>
   <i type="logical" name="LTCTE"> F  </i>
   <i type="logical" name="LTETE"> F  </i>
   <i type="logical" name="LTRIPLET"> F  </i>
   <i type="logical" name="LFXCEPS"> F  </i>
   <i type="logical" name="LFXHEG"> F  </i>
   <i type="int" name="NATURALO">     2</i>
   <i type="logical" name="L2ORDER"> F  </i>
   <i type="logical" name="LMP2LT"> F  </i>
   <i type="logical" name="LUSEW"> F  </i>
   <i name="ENCUTGW">     -2.00000000</i>
   <i name="ENCUTGWSOFT">     -2.00000000</i>
   <i name="ENCUTLF">     -1.00000000</i>
   <i type="int" name="LMAXMP2">    -1</i>
   <i name="SCISSOR">      0.00000000</i>
   <i type="int" name="NOMEGA">     0</i>
   <i type="int" name="NOMEGAR">     0</i>
   <i type="int" name="NBANDSGW">    -1</i>
   <i type="int" name="NBANDSO">    -1</i>
   <i type="int" name="NBANDSV">    -1</i>
   <i type="int" name="NELM">   100</i>
   <i type="int" name="NELMHF">     1</i>
   <i type="int" name="DIM">     3</i>
   <i type="int" name="ANTIRES">     0</i>
   <i name="OMEGAMAX">    -30.00000000</i>
   <i name="OMEGAMIN">    -30.00000000</i>
   <i name="OMEGATL">   -200.00000000</i>
   <i type="int" name="OMEGAGRID">   140</i>
   <i name="CSHIFT">     -0.10000000</i>
   <i type="logical" name="SELFENERGY"> F  </i>
   <i type="logical" name="LSPECTRAL"> F  </i>
   <i type="logical" name="LSPECTRALGW"> F  </i>
   <i type="logical" name="LSINGLES"> F  </i>
   <i type="logical" name="LFERMIGW"> F  </i>
   <i type="logical" name="ODDONLYGW"> F  </i>
   <i type="logical" name="EVENONLYGW"> F  </i>
   <i type="int" name="NKREDLFX">     1</i>
   <i type="int" name="NKREDLFY">     1</i>
   <i type="int" name="NKREDLFZ">     1</i>
   <i type="int" name="MAXMEM"> 10000</i>
   <i type="int" name="TELESCOPE">     0</i>
   <i type="int" name="TAUPAR">     1</i>
   <i type="int" name="OMEGAPAR">    -1</i>
   <i name="LAMBDA">      1.00000000</i>
  </separator>
  <separator name="External order field" >
   <i name="OFIELD_KAPPA">      0.00000000</i>
   <v name="OFIELD_K">      0.00000000      0.00000000      0.00000000</v>
   <i name="OFIELD_Q6_NEAR">      0.00000000</i>
   <i name="OFIELD_Q6_FAR">      0.00000000</i>
   <i name="OFIELD_A">      0.00000000</i>
  </separator>
 </parameters>
 <atominfo>
  <atoms>      57 </atoms>
  <types>       3 </types>
  <array name="atoms" >
   <dimension dim="1">ion</dimension>
   <field type="string">element</field>
   <field type="int">atomtype</field>
   <set>
    <rc><c>Pd</c><c>   1</c></rc>
    <rc><c>Pd</c><c>   1</c></rc>
    <rc><c>Pd</c><c>   1</c></rc>
    <rc><c>Pd</c><c>   1</c></rc>
    <rc><c>Pd</c><c>   1</c></rc>
    <rc><c>Pd</c><c>   1</c></rc>
    <rc><c>Pd</c><c>   1</c></rc>
    <rc><c>Pd</c><c>   1</c></rc>
    <rc><c>Pd</c><c>   1</c></rc>
    <rc><c>Pd</c><c>   1</c></rc>
    <rc><c>Pd</c><c>   1</c></rc>
    <rc><c>Pd</c><c>   1</c></rc>
    <rc><c>Pd</c><c>   1</c></rc>
    <rc><c>Pd</c><c>   1</c></rc>
    <rc><c>Pd</c><c>   1</c></rc>
    <rc><c>Pd</c><c>   1</c></rc>
    <rc><c>Pd</c><c>   1</c></rc>
    <rc><c>Pd</c><c>   1</c></rc>
    <rc><c>Pd</c><c>   1</c></rc>
    <rc><c>Pd</c><c>   1</c></rc>
    <rc><c>Pd</c><c>   1</c></rc>
    <rc><c>Pd</c><c>   1</c></rc>
    <rc><c>Pd</c><c>   1</c></rc>
    <rc><c>Pd</c><c>   1</c></rc>
    <rc><c>Pd</c><c>   1</c></rc>
    <rc><c>Pd</c><c>   1</c></rc>
    <rc><c>Pd</c><c>   1</c></rc>
    <rc><c>Pd</c><c>   1</c></rc>
    <rc><c>Pd</c><c>   1</c></rc>
    <rc><c>Pd</c><c>   1</c></rc>
    <rc><c>Pd</c><c>   1</c></rc>
    <rc><c>Pd</c><c>   1</c></rc>
    <rc><c>Pd</c><c>   1</c></rc>
    <rc><c>Pd</c><c>   1</c></rc>
    <rc><c>Pd</c><c>   1</c></rc>
    <rc><c>Pd</c><c>   1</c></rc>
    <rc><c>Pd</c><c>   1</c></rc>
    <rc><c>Pd</c><c>   1</c></rc>
    <rc><c>Pd</c><c>   1</c></rc>
    <rc><c>Pd</c><c>   1</c></rc>
    <rc><c>Pd</c><c>   1</c></rc>
    <rc><c>Pd</c><c>   1</c></rc>
    <rc><c>Pd</c><c>   1</c></rc>
    <rc><c>Pd</c><c>   1</c></rc>
    <rc><c>Pd</c><c>   1</c></rc>
    <rc><c>Pd</c><c>   1</c></rc>
    <rc><c>Pd</c><c>   1</c></rc>
    <rc><c>Pd</c><c>   1</c></rc>
    <rc><c>Pd</c><c>   1</c></rc>
    <rc><c>Pd</c><c>   1</c></rc>
    <rc><c>Pd</c><c>   1</c></rc>
    <rc><c>Pd</c><c>   1</c></rc>
    <rc><c>Pd</c><c>   1</c></rc>
    <rc><c>Pd</c><c>   1</c></rc>
    <rc><c>Pd</c><c>   1</c></rc>
    <rc><c>C </c><c>   2</c></rc>
    <rc><c>O </c><c>   3</c></rc>
   </set>
  </array>
  <array name="atomtypes" >
   <dimension dim="1">type</dimension>
   <field type="int">atomspertype</field>
   <field type="string">element</field>
   <field>mass</field>
   <field>valence</field>
   <field type="string">pseudopotential</field>
   <set>
    <rc><c>  55</c><c>Pd</c><c>    106.42000000</c><c>     10.00000000</c><c>  PAW_PBE Pd 04Jan2005                  </c></rc>
    <rc><c>   1</c><c>C </c><c>     12.01100000</c><c>      4.00000000</c><c>  PAW_PBE C 08Apr2002                   </c></rc>
    <rc><c>   1</c><c>O </c><c>     16.00000000</c><c>      6.00000000</c><c>  PAW_PBE O 08Apr2002                   </c></rc>
   </set>
  </array>
 </atominfo>
 <structure name="initialpos" >
  <crystal>
   <varray name="basis" >
    <v>      30.00000000       0.00000000       0.00000000 </v>
    <v>       0.00000000      30.00000000       0.00000000 </v>
    <v>       0.00000000       0.00000000      30.00000000 </v>
   </varray>
   <i name="volume">  27000.00000000 </i>
   <varray name="rec_basis" >
    <v>       0.03333333       0.00000000       0.00000000 </v>
    <v>       0.00000000       0.03333333       0.00000000 </v>
    <v>       0.00000000       0.00000000       0.03333333 </v>
   </varray>
  </crystal>
  <varray name="positions" >
   <v>       0.44576020       0.32826710       0.41691983 </v>
   <v>       0.67173288       0.55423978       0.41691983 </v>
   <v>       0.55423980       0.32826710       0.41691983 </v>
   <v>       0.32826712       0.55423978       0.41691983 </v>
   <v>       0.50000000       0.38250690       0.34021317 </v>
   <v>       0.50000000       0.38250690       0.65978680 </v>
   <v>       0.50000000       0.27609440       0.50000000 </v>
   <v>       0.27609443       0.49999998       0.50000000 </v>
   <v>       0.72390557       0.49999998       0.50000000 </v>
   <v>       0.50000000       0.72390555       0.50000000 </v>
   <v>       0.61195280       0.38804720       0.34167483 </v>
   <v>       0.61195280       0.38804720       0.65832513 </v>
   <v>       0.38804722       0.61195278       0.34167483 </v>
   <v>       0.38804722       0.61195278       0.65832513 </v>
   <v>       0.38804720       0.38804720       0.34167483 </v>
   <v>       0.38804720       0.38804720       0.65832513 </v>
   <v>       0.61195278       0.61195278       0.34167483 </v>
   <v>       0.61195278       0.61195278       0.65832513 </v>
   <v>       0.44576020       0.32826710       0.58308023 </v>
   <v>       0.67173288       0.55423978       0.58308023 </v>
   <v>       0.55791699       0.44208301       0.41809300 </v>
   <v>       0.32826705       0.44576024       0.41691983 </v>
   <v>       0.55423973       0.67173293       0.41691983 </v>
   <v>       0.55423980       0.32826710       0.58308023 </v>
   <v>       0.32826712       0.55423978       0.58308023 </v>
   <v>       0.67173295       0.44576024       0.41691983 </v>
   <v>       0.44576027       0.67173293       0.41691983 </v>
   <v>       0.44208301       0.44208301       0.41809300 </v>
   <v>       0.50000000       0.38416601       0.50000000 </v>
   <v>       0.61749315       0.50000005       0.34021317 </v>
   <v>       0.61749315       0.50000005       0.65978680 </v>
   <v>       0.38250685       0.50000005       0.34021317 </v>
   <v>       0.38250685       0.50000005       0.65978680 </v>
   <v>       0.38317830       0.38317830       0.50000000 </v>
   <v>       0.61682172       0.61682172       0.50000000 </v>
   <v>       0.61682170       0.38317830       0.50000000 </v>
   <v>       0.38317828       0.61682172       0.50000000 </v>
   <v>       0.50000000       0.50000000       0.33478917 </v>
   <v>       0.50000000       0.50000000       0.66521087 </v>
   <v>       0.32826705       0.44576024       0.58308023 </v>
   <v>       0.55423973       0.67173293       0.58308023 </v>
   <v>       0.55791699       0.44208301       0.58190703 </v>
   <v>       0.44208298       0.55791702       0.41809300 </v>
   <v>       0.44208301       0.44208301       0.58190703 </v>
   <v>       0.67173295       0.44576024       0.58308023 </v>
   <v>       0.44576027       0.67173293       0.58308023 </v>
   <v>       0.55791702       0.55791702       0.41809300 </v>
   <v>       0.38416599       0.50000002       0.50000000 </v>
   <v>       0.61583401       0.50000002       0.50000000 </v>
   <v>       0.50000000       0.61749319       0.34021317 </v>
   <v>       0.50000000       0.61749319       0.65978680 </v>
   <v>       0.50000000       0.50000000       0.50000000 </v>
   <v>       0.44208298       0.55791702       0.58190703 </v>
   <v>       0.55791702       0.55791702       0.58190703 </v>
   <v>       0.50000000       0.61583404       0.50000000 </v>
   <v>       0.62107847       0.50870850       0.74400197 </v>
   <v>       0.63778320       0.50991000       0.77766600 </v>
  </varray>
  <varray name="selective"  type="logical" >
   <v type="logical" >  F  F  F </v>
   <v type="logical" >  F  F  F </v>
   <v type="logical" >  F  F  F </v>
   <v type="logical" >  F  F  F </v>
   <v type="logical" >  F  F  F </v>
   <v type="logical" >  F  F  F </v>
   <v type="logical" >  F  F  F </v>
   <v type="logical" >  F  F  F </v>
   <v type="logical" >  F  F  F </v>
   <v type="logical" >  F  F  F </v>
   <v type="logical" >  F  F  F </v>
   <v type="logical" >  F  F  F </v>
   <v type="logical" >  F  F  F </v>
   <v type="logical" >  F  F  F </v>
   <v type="logical" >  F  F  F </v>
   <v type="logical" >  F  F  F </v>
   <v type="logical" >  F  F  F </v>
   <v type="logical" >  F  F  F </v>
   <v type="logical" >  F  F  F </v>
   <v type="logical" >  F  F  F </v>
   <v type="logical" >  F  F  F </v>
   <v type="logical" >  F  F  F </v>
   <v type="logical" >  F  F  F </v>
   <v type="logical" >  F  F  F </v>
   <v type="logical" >  F  F  F </v>
   <v type="logical" >  F  F  F </v>
   <v type="logical" >  F  F  F </v>
   <v type="logical" >  F  F  F </v>
   <v type="logical" >  F  F  F </v>
   <v type="logical" >  F  F  F </v>
   <v type="logical" >  F  F  F </v>
   <v type="logical" >  F  F  F </v>
   <v type="logical" >  F  F  F </v>
   <v type="logical" >  F  F  F </v>
   <v type="logical" >  F  F  F </v>
   <v type="logical" >  F  F  F </v>
   <v type="logical" >  F  F  F </v>
   <v type="logical" >  F  F  F </v>
   <v type="logical" >  F  F  F </v>
   <v type="logical" >  F  F  F </v>
   <v type="logical" >  F  F  F </v>
   <v type="logical" >  F  F  F </v>
   <v type="logical" >  F  F  F </v>
   <v type="logical" >  F  F  F </v>
   <v type="logical" >  F  F  F </v>
   <v type="logical" >  F  F  F </v>
   <v type="logical" >  F  F  F </v>
   <v type="logical" >  F  F  F </v>
   <v type="logical" >  F  F  F </v>
   <v type="logical" >  F  F  F </v>
   <v type="logical" >  F  F  F </v>
   <v type="logical" >  F  F  F </v>
   <v type="logical" >  F  F  F </v>
   <v type="logical" >  F  F  F </v>
   <v type="logical" >  F  F  F </v>
   <v type="logical" >  F  F  F </v>
   <v type="logical" >  F  F  F </v>
  </varray>
  <nose>
   <v>      -3.00000000       0.00000000       0.00010000       0.00010000 </v>
  </nose>
 </structure>
 <calculation>
  <scstep>
   <time name="dav">  353.27  353.36</time>
   <time name="total">  367.27  367.36</time>
   <energy>
    <i name="alphaZ">     75.25431677 </i>
    <i name="ewald"> 137487.55337380 </i>
    <i name="hartreedc">-180855.08150839 </i>
    <i name="XCdc">  -1703.92421928 </i>
    <i name="pawpsdc">  44873.02882129 </i>
    <i name="pawaedc"> -41398.84523641 </i>
    <i name="eentropy">      0.03904158 </i>
    <i name="bandstr">    817.68330505 </i>
    <i name="atom">  45086.50549395 </i>
    <i name="e_fr_energy">   4382.21338836 </i>
    <i name="e_wo_entrp">   4382.17434678 </i>
    <i name="e_0_energy">   4382.20362797 </i>
   </energy>
  </scstep>
  <scstep>
   <time name="dav">  567.25  567.26</time>
   <time name="total">  567.25  567.26</time>
   <energy>
    <i name="e_fr_energy">   2028.29129674 </i>
    <i name="e_wo_entrp">   2028.34583349 </i>
    <i name="e_0_energy">   2028.30493093 </i>
   </energy>
  </scstep>
  <scstep>
   <time name="dav">  483.88  483.89</time>
   <time name="total">  483.88  483.89</time>
   <energy>
    <i name="e_fr_energy">    241.32955989 </i>
    <i name="e_wo_entrp">    241.30388614 </i>
    <i name="e_0_energy">    241.32314145 </i>
   </energy>
  </scstep>
  <scstep>
   <time name="dav">  413.64  413.64</time>
   <time name="total">  413.64  413.65</time>
   <energy>
    <i name="e_fr_energy">   -133.49908017 </i>
    <i name="e_wo_entrp">   -133.49387060 </i>
    <i name="e_0_energy">   -133.49777778 </i>
   </energy>
  </scstep>
  <scstep>
   <time name="dav">  500.50  500.50</time>
   <time name="total">  526.07  526.08</time>
   <energy>
    <i name="e_fr_energy">   -178.76340552 </i>
    <i name="e_wo_entrp">   -179.30924255 </i>
    <i name="e_0_energy">   -178.89986478 </i>
   </energy>
  </scstep>
  <scstep>
   <time name="diag">   66.45   66.45</time>
   <time name="diis">  187.29  187.29</time>
   <time name="orth">   13.53   13.53</time>
   <time name="total">  305.82  305.83</time>
   <energy>
    <i name="e_fr_energy">   -177.89148575 </i>
    <i name="e_wo_entrp">   -177.58773329 </i>
    <i name="e_0_energy">   -177.81554763 </i>
   </energy>
  </scstep>
  <scstep>
   <time name="diag">   66.40   66.40</time>
   <time name="diis">  225.35  225.36</time>
   <time name="orth">   13.74   13.74</time>
   <time name="total">  345.00  345.01</time>
   <energy>
    <i name="e_fr_energy">   -179.69718918 </i>
    <i name="e_wo_entrp">   -179.56500760 </i>
    <i name="e_0_energy">   -179.66414379 </i>
   </energy>
  </scstep>
  <scstep>
   <time name="diag">   67.10   67.10</time>
   <time name="diis">  207.37  207.37</time>
   <time name="orth">   14.20   14.20</time>
   <time name="total">  328.22  328.22</time>
   <energy>
    <i name="e_fr_energy">   -183.80492625 </i>
    <i name="e_wo_entrp">   -183.55745065 </i>
    <i name="e_0_energy">   -183.74305735 </i>
   </energy>
  </scstep>
  <scstep>
   <time name="diag">   67.52   67.52</time>
   <time name="diis">  200.50  200.51</time>
   <time name="orth">   14.01   14.01</time>
   <time name="total">  322.34  322.34</time>
   <energy>
    <i name="e_fr_energy">   -180.92236348 </i>
    <i name="e_wo_entrp">   -180.99020223 </i>
    <i name="e_0_energy">   -180.93932317 </i>
   </energy>
  </scstep>
  <scstep>
   <time name="diag">   67.29   67.30</time>
   <time name="diis">  203.49  203.50</time>
   <time name="orth">   13.95   13.95</time>
   <time name="total">  324.60  324.61</time>
   <energy>
    <i name="e_fr_energy">   -178.64664701 </i>
    <i name="e_wo_entrp">   -178.46858896 </i>
    <i name="e_0_energy">   -178.60213249 </i>
   </energy>
  </scstep>
  <scstep>
   <time name="diag">   67.11   67.11</time>
   <time name="diis">  195.70  195.70</time>
   <time name="orth">   14.16   14.16</time>
   <time name="total">  317.37  317.38</time>
   <energy>
    <i name="e_fr_energy">   -176.98690296 </i>
    <i name="e_wo_entrp">   -176.85597403 </i>
    <i name="e_0_energy">   -176.95417073 </i>
   </energy>
  </scstep>
  <scstep>
   <time name="diag">   67.23   67.23</time>
   <time name="diis">  195.83  195.83</time>
   <time name="orth">   14.13   14.13</time>
   <time name="total">  317.26  317.27</time>
   <energy>
    <i name="e_fr_energy">   -176.12231329 </i>
    <i name="e_wo_entrp">   -176.02916709 </i>
    <i name="e_0_energy">   -176.09902674 </i>
   </energy>
  </scstep>
  <scstep>
   <time name="diag">   67.20   67.20</time>
   <time name="diis">  197.56  197.56</time>
   <time name="orth">   14.26   14.26</time>
   <time name="total">  319.31  319.31</time>
   <energy>
    <i name="e_fr_energy">   -175.90132748 </i>
    <i name="e_wo_entrp">   -175.84375581 </i>
    <i name="e_0_energy">   -175.88693456 </i>
   </energy>
  </scstep>
  <scstep>
   <time name="diag">   67.32   67.32</time>
   <time name="diis">  195.50  195.50</time>
   <time name="orth">   14.15   14.15</time>
   <time name="total">  317.31  317.32</time>
   <energy>
    <i name="e_fr_energy">   -176.33783144 </i>
    <i name="e_wo_entrp">   -176.29885006 </i>
    <i name="e_0_energy">   -176.32808609 </i>
   </energy>
  </scstep>
  <scstep>
   <time name="diag">   67.32   67.32</time>
   <time name="diis">  194.40  194.41</time>
   <time name="orth">   14.08   14.08</time>
   <time name="total">  315.99  316.00</time>
   <energy>
    <i name="e_fr_energy">   -176.40805226 </i>
    <i name="e_wo_entrp">   -176.38794218 </i>
    <i name="e_0_energy">   -176.40302474 </i>
   </energy>
  </scstep>
  <scstep>
   <time name="diag">   67.14   67.14</time>
   <time name="diis">  195.16  195.16</time>
   <time name="orth">   14.13   14.13</time>
   <time name="total">  316.47  316.48</time>
   <energy>
    <i name="e_fr_energy">   -175.44232931 </i>
    <i name="e_wo_entrp">   -175.40090896 </i>
    <i name="e_0_energy">   -175.43197422 </i>
   </energy>
  </scstep>
  <scstep>
   <time name="diag">   67.07   67.07</time>
   <time name="diis">  192.64  192.64</time>
   <time name="orth">   14.10   14.10</time>
   <time name="total">  313.85  313.85</time>
   <energy>
    <i name="e_fr_energy">   -174.76474062 </i>
    <i name="e_wo_entrp">   -174.66983517 </i>
    <i name="e_0_energy">   -174.74101426 </i>
   </energy>
  </scstep>
  <scstep>
   <time name="diag">   67.08   67.09</time>
   <time name="diis">  193.40  193.40</time>
   <time name="orth">   14.17   14.18</time>
   <time name="total">  314.77  314.78</time>
   <energy>
    <i name="e_fr_energy">   -174.58963213 </i>
    <i name="e_wo_entrp">   -174.56918872 </i>
    <i name="e_0_energy">   -174.58452128 </i>
   </energy>
  </scstep>
  <scstep>
   <time name="diag">   66.92   66.92</time>
   <time name="diis">  192.94  192.94</time>
   <time name="orth">   14.18   14.18</time>
   <time name="total">  314.33  314.34</time>
   <energy>
    <i name="e_fr_energy">   -174.68135416 </i>
    <i name="e_wo_entrp">   -174.70103617 </i>
    <i name="e_0_energy">   -174.68627466 </i>
   </energy>
  </scstep>
  <scstep>
   <time name="diag">   67.10   67.10</time>
   <time name="diis">  192.46  192.47</time>
   <time name="orth">   14.30   14.30</time>
   <time name="total">  314.23  314.24</time>
   <energy>
    <i name="e_fr_energy">   -174.52503718 </i>
    <i name="e_wo_entrp">   -174.49531094 </i>
    <i name="e_0_energy">   -174.51760562 </i>
   </energy>
  </scstep>
  <scstep>
   <time name="diag">   67.03   67.03</time>
   <time name="diis">  192.16  192.16</time>
   <time name="orth">   14.38   14.38</time>
   <time name="total">  313.98  313.99</time>
   <energy>
    <i name="e_fr_energy">   -174.47195717 </i>
    <i name="e_wo_entrp">   -174.41688889 </i>
    <i name="e_0_energy">   -174.45819010 </i>
   </energy>
  </scstep>
  <scstep>
   <time name="diag">   66.87   66.87</time>
   <time name="diis">  193.14  193.15</time>
   <time name="orth">   14.25   14.25</time>
   <time name="total">  314.72  314.73</time>
   <energy>
    <i name="e_fr_energy">   -174.36457561 </i>
    <i name="e_wo_entrp">   -174.25744726 </i>
    <i name="e_0_energy">   -174.33779352 </i>
   </energy>
  </scstep>
  <scstep>
   <time name="diag">   66.78   66.78</time>
   <time name="diis">  191.23  191.24</time>
   <time name="orth">   14.38   14.38</time>
   <time name="total">  312.79  312.80</time>
   <energy>
    <i name="e_fr_energy">   -174.25336242 </i>
    <i name="e_wo_entrp">   -174.14684694 </i>
    <i name="e_0_energy">   -174.22673355 </i>
   </energy>
  </scstep>
  <scstep>
   <time name="diag">   66.75   66.75</time>
   <time name="diis">  190.94  190.94</time>
   <time name="orth">   14.33   14.33</time>
   <time name="total">  312.51  312.51</time>
   <energy>
    <i name="e_fr_energy">   -174.14620717 </i>
    <i name="e_wo_entrp">   -174.05602552 </i>
    <i name="e_0_energy">   -174.12366176 </i>
   </energy>
  </scstep>
  <scstep>
   <time name="diag">   66.98   66.98</time>
   <time name="diis">  191.00  191.00</time>
   <time name="orth">   14.13   14.13</time>
   <time name="total">  312.57  312.58</time>
   <energy>
    <i name="e_fr_energy">   -174.09655525 </i>
    <i name="e_wo_entrp">   -173.99827452 </i>
    <i name="e_0_energy">   -174.07198507 </i>
   </energy>
  </scstep>
  <scstep>
   <time name="diag">   66.84   66.84</time>
   <time name="diis">  192.36  192.37</time>
   <time name="orth">   13.92   13.92</time>
   <time name="total">  313.49  313.49</time>
   <energy>
    <i name="e_fr_energy">   -174.08609635 </i>
    <i name="e_wo_entrp">   -173.97379012 </i>
    <i name="e_0_energy">   -174.05801980 </i>
   </energy>
  </scstep>
  <scstep>
   <time name="diag">   66.87   66.87</time>
   <time name="diis">  193.40  193.41</time>
   <time name="orth">   13.74   13.74</time>
   <time name="total">  314.54  314.55</time>
   <energy>
    <i name="e_fr_energy">   -174.05142571 </i>
    <i name="e_wo_entrp">   -173.95600737 </i>
    <i name="e_0_energy">   -174.02757113 </i>
   </energy>
  </scstep>
  <scstep>
   <time name="diag">   66.62   66.62</time>
   <time name="diis">  192.54  192.55</time>
   <time name="orth">   13.76   13.76</time>
   <time name="total">  313.28  313.28</time>
   <energy>
    <i name="e_fr_energy">   -174.03965031 </i>
    <i name="e_wo_entrp">   -173.93265033 </i>
    <i name="e_0_energy">   -174.01290031 </i>
   </energy>
  </scstep>
  <scstep>
   <time name="diag">   66.81   66.82</time>
   <time name="diis">  190.97  190.98</time>
   <time name="orth">   13.68   13.68</time>
   <time name="total">  311.62  311.63</time>
   <energy>
    <i name="e_fr_energy">   -174.02488674 </i>
    <i name="e_wo_entrp">   -173.92911791 </i>
    <i name="e_0_energy">   -174.00094453 </i>
   </energy>
  </scstep>
  <scstep>
   <time name="diag">   66.61   66.61</time>
   <time name="diis">  189.60  189.60</time>
   <time name="orth">   13.81   13.81</time>
   <time name="total">  310.60  310.60</time>
   <energy>
    <i name="e_fr_energy">   -174.01610887 </i>
    <i name="e_wo_entrp">   -173.92314246 </i>
    <i name="e_0_energy">   -173.99286727 </i>
   </energy>
  </scstep>
  <scstep>
   <time name="diag">   66.88   66.88</time>
   <time name="diis">  189.78  189.78</time>
   <time name="orth">   13.91   13.91</time>
   <time name="total">  311.19  311.20</time>
   <energy>
    <i name="e_fr_energy">   -174.01101761 </i>
    <i name="e_wo_entrp">   -173.91825288 </i>
    <i name="e_0_energy">   -173.98782643 </i>
   </energy>
  </scstep>
  <scstep>
   <time name="diag">   66.63   66.63</time>
   <time name="diis">  189.20  189.21</time>
   <time name="orth">   13.96   13.96</time>
   <time name="total">  310.76  310.76</time>
   <energy>
    <i name="e_fr_energy">   -174.00640838 </i>
    <i name="e_wo_entrp">   -173.90789119 </i>
    <i name="e_0_energy">   -173.98177909 </i>
   </energy>
  </scstep>
  <scstep>
   <time name="diag">   66.86   66.86</time>
   <time name="diis">  190.61  190.61</time>
   <time name="orth">   14.08   14.08</time>
   <time name="total">  312.57  312.58</time>
   <energy>
    <i name="e_fr_energy">   -174.00227222 </i>
    <i name="e_wo_entrp">   -173.90159014 </i>
    <i name="e_0_energy">   -173.97710170 </i>
   </energy>
  </scstep>
  <scstep>
   <time name="diag">   66.82   66.82</time>
   <time name="diis">  189.58  189.58</time>
   <time name="orth">   14.07   14.07</time>
   <time name="total">  311.66  311.66</time>
   <energy>
    <i name="e_fr_energy">   -174.00409518 </i>
    <i name="e_wo_entrp">   -173.90366684 </i>
    <i name="e_0_energy">   -173.97898809 </i>
   </energy>
  </scstep>
  <scstep>
   <time name="diag">   66.66   66.66</time>
   <time name="diis">  189.63  189.64</time>
   <time name="orth">   14.19   14.19</time>
   <time name="total">  311.69  311.69</time>
   <energy>
    <i name="e_fr_energy">   -174.00274416 </i>
    <i name="e_wo_entrp">   -173.90488984 </i>
    <i name="e_0_energy">   -173.97828058 </i>
   </energy>
  </scstep>
  <scstep>
   <time name="diag">   66.70   66.70</time>
   <time name="diis">  188.72  188.73</time>
   <time name="orth">   14.08   14.08</time>
   <time name="total">  310.92  310.93</time>
   <energy>
    <i name="e_fr_energy">   -174.00491851 </i>
    <i name="e_wo_entrp">   -173.90894726 </i>
    <i name="e_0_energy">   -173.98092570 </i>
   </energy>
  </scstep>
  <scstep>
   <time name="diag">   66.85   66.85</time>
   <time name="diis">  187.22  187.22</time>
   <time name="orth">   14.18   14.18</time>
   <time name="total">  309.79  309.79</time>
   <energy>
    <i name="e_fr_energy">   -174.00661191 </i>
    <i name="e_wo_entrp">   -173.90766192 </i>
    <i name="e_0_energy">   -173.98187441 </i>
   </energy>
  </scstep>
  <scstep>
   <time name="diag">   66.94   66.94</time>
   <time name="diis">  170.20  170.20</time>
   <time name="orth">   13.73   13.73</time>
   <time name="total">  293.26  293.26</time>
   <energy>
    <i name="e_fr_energy">   -174.00722699 </i>
    <i name="e_wo_entrp">   -173.90901533 </i>
    <i name="e_0_energy">   -173.98267408 </i>
   </energy>
  </scstep>
  <scstep>
   <time name="diag">   67.18   67.18</time>
   <time name="diis">  151.71  151.71</time>
   <time name="orth">   14.15   14.15</time>
   <time name="total">  275.95  275.96</time>
   <energy>
    <i name="e_fr_energy">   -174.00931299 </i>
    <i name="e_wo_entrp">   -173.91006023 </i>
    <i name="e_0_energy">   -173.98449980 </i>
   </energy>
  </scstep>
  <scstep>
   <time name="diag">   68.23   68.24</time>
   <time name="diis">  129.21  129.22</time>
   <time name="orth">   14.25   14.25</time>
   <time name="total">  255.44  255.45</time>
   <energy>
    <i name="e_fr_energy">   -174.01129331 </i>
    <i name="e_wo_entrp">   -173.91222581 </i>
    <i name="e_0_energy">   -173.98652644 </i>
   </energy>
  </scstep>
  <scstep>
   <time name="diag">   69.31   69.32</time>
   <time name="diis">  138.20  138.21</time>
   <time name="orth">   13.91   13.91</time>
   <time name="total">  264.63  264.66</time>
   <energy>
    <i name="e_fr_energy">   -174.01350905 </i>
    <i name="e_wo_entrp">   -173.91497992 </i>
    <i name="e_0_energy">   -173.98887677 </i>
   </energy>
  </scstep>
  <scstep>
   <time name="diag">   69.70   69.71</time>
   <time name="diis">  170.57  170.59</time>
   <time name="orth">   13.75   13.75</time>
   <time name="total">  297.55  297.60</time>
   <energy>
    <i name="e_fr_energy">   -174.01789600 </i>
    <i name="e_wo_entrp">   -173.91958257 </i>
    <i name="e_0_energy">   -173.99331764 </i>
   </energy>
  </scstep>
  <scstep>
   <time name="diag">   68.73   68.74</time>
   <time name="diis">  128.58  128.59</time>
   <time name="orth">   13.74   13.74</time>
   <time name="total">  253.47  253.51</time>
   <energy>
    <i name="e_fr_energy">   -174.01935250 </i>
    <i name="e_wo_entrp">   -173.92075251 </i>
    <i name="e_0_energy">   -173.99470250 </i>
   </energy>
  </scstep>
  <scstep>
   <time name="diag">   69.16   69.17</time>
   <time name="diis">  124.04  124.05</time>
   <time name="orth">   13.44   13.45</time>
   <time name="total">  249.40  249.43</time>
   <energy>
    <i name="e_fr_energy">   -174.02124187 </i>
    <i name="e_wo_entrp">   -173.92424904 </i>
    <i name="e_0_energy">   -173.99699366 </i>
   </energy>
  </scstep>
  <scstep>
   <time name="diag">   68.43   68.44</time>
   <time name="diis">  121.13  121.14</time>
   <time name="orth">   13.35   13.35</time>
   <time name="total">  245.51  245.53</time>
   <energy>
    <i name="e_fr_energy">   -174.02297889 </i>
    <i name="e_wo_entrp">   -173.92482398 </i>
    <i name="e_0_energy">   -173.99844016 </i>
   </energy>
  </scstep>
  <scstep>
   <time name="diag">   67.71   67.72</time>
   <time name="diis">  118.87  118.87</time>
   <time name="orth">   13.42   13.42</time>
   <time name="total">  243.09  243.09</time>
   <energy>
    <i name="e_fr_energy">   -174.02389521 </i>
    <i name="e_wo_entrp">   -173.92583083 </i>
    <i name="e_0_energy">   -173.99937911 </i>
   </energy>
  </scstep>
  <scstep>
   <time name="diag">   67.96   67.96</time>
   <time name="diis">  115.91  115.91</time>
   <time name="orth">   13.44   13.44</time>
   <time name="total">  240.44  240.45</time>
   <energy>
    <i name="e_fr_energy">   -174.02577741 </i>
    <i name="e_wo_entrp">   -173.92725988 </i>
    <i name="e_0_energy">   -174.00114803 </i>
   </energy>
  </scstep>
  <scstep>
   <time name="diag">   67.60   67.60</time>
   <time name="diis">  118.74  118.75</time>
   <time name="orth">   13.47   13.47</time>
   <time name="total">  243.45  243.46</time>
   <energy>
    <i name="e_fr_energy">   -174.02630418 </i>
    <i name="e_wo_entrp">   -173.92762878 </i>
    <i name="e_0_energy">   -174.00163533 </i>
   </energy>
  </scstep>
  <scstep>
   <time name="diag">   67.49   67.50</time>
   <time name="diis">  116.73  116.73</time>
   <time name="orth">   13.50   13.50</time>
   <time name="total">  241.62  241.63</time>
   <energy>
    <i name="e_fr_energy">   -174.02745856 </i>
    <i name="e_wo_entrp">   -173.92911863 </i>
    <i name="e_0_energy">   -174.00287358 </i>
   </energy>
  </scstep>
  <scstep>
   <time name="diag">   67.58   67.58</time>
   <time name="diis">  116.56  116.56</time>
   <time name="orth">   13.45   13.45</time>
   <time name="total">  241.25  241.26</time>
   <energy>
    <i name="e_fr_energy">   -174.02813702 </i>
    <i name="e_wo_entrp">   -173.92972426 </i>
    <i name="e_0_energy">   -174.00353383 </i>
   </energy>
  </scstep>
  <scstep>
   <time name="diag">   67.54   67.54</time>
   <time name="diis">  114.51  114.51</time>
   <time name="orth">   13.32   13.32</time>
   <time name="total">  238.96  238.97</time>
   <energy>
    <i name="e_fr_energy">   -174.02843759 </i>
    <i name="e_wo_entrp">   -173.93003939 </i>
    <i name="e_0_energy">   -174.00383804 </i>
   </energy>
  </scstep>
  <scstep>
   <time name="diag">   67.63   67.63</time>
   <time name="diis">  107.14  107.14</time>
   <time name="orth">   13.53   13.53</time>
   <time name="total">  231.65  231.66</time>
   <energy>
    <i name="e_fr_energy">   -174.02904696 </i>
    <i name="e_wo_entrp">   -173.93084770 </i>
    <i name="e_0_energy">   -174.00449715 </i>
   </energy>
  </scstep>
  <scstep>
   <time name="diag">   67.37   67.37</time>
   <time name="diis">   91.26   91.26</time>
   <time name="orth">   13.79   13.79</time>
   <time name="total">  215.66  215.66</time>
   <energy>
    <i name="e_fr_energy">   -174.02928789 </i>
    <i name="e_wo_entrp">   -173.93095386 </i>
    <i name="e_0_energy">   -174.00470438 </i>
   </energy>
  </scstep>
  <scstep>
   <time name="diag">   67.34   67.34</time>
   <time name="diis">   88.99   88.99</time>
   <time name="orth">   13.61   13.61</time>
   <time name="total">  213.98  213.99</time>
   <energy>
    <i name="e_fr_energy">   -174.02968098 </i>
    <i name="e_wo_entrp">   -173.93137605 </i>
    <i name="e_0_energy">   -174.00510475 </i>
   </energy>
  </scstep>
  <scstep>
   <time name="diag">   67.77   67.77</time>
   <time name="diis">   81.37   81.37</time>
   <time name="orth">   13.39   13.39</time>
   <time name="total">  206.18  206.19</time>
   <energy>
    <i name="e_fr_energy">   -174.02990558 </i>
    <i name="e_wo_entrp">   -173.93171056 </i>
    <i name="e_0_energy">   -174.00535683 </i>
   </energy>
  </scstep>
  <scstep>
   <time name="diag">   67.79   67.80</time>
   <time name="diis">   88.87   88.87</time>
   <time name="orth">   13.29   13.29</time>
   <time name="total">  213.47  213.47</time>
   <energy>
    <i name="e_fr_energy">   -174.03015648 </i>
    <i name="e_wo_entrp">   -173.93187645 </i>
    <i name="e_0_energy">   -174.00558647 </i>
   </energy>
  </scstep>
  <scstep>
   <time name="diag">   67.73   67.73</time>
   <time name="diis">   78.22   78.22</time>
   <time name="orth">   13.38   13.38</time>
   <time name="total">  202.60  202.61</time>
   <energy>
    <i name="e_fr_energy">   -174.03029341 </i>
    <i name="e_wo_entrp">   -173.93200843 </i>
    <i name="e_0_energy">   -174.00572216 </i>
   </energy>
  </scstep>
  <scstep>
   <time name="diag">   67.94   67.94</time>
   <time name="diis">   83.57   83.57</time>
   <time name="orth">   13.37   13.37</time>
   <time name="total">  207.84  207.84</time>
   <energy>
    <i name="e_fr_energy">   -174.03046879 </i>
    <i name="e_wo_entrp">   -173.93214114 </i>
    <i name="e_0_energy">   -174.00588688 </i>
   </energy>
  </scstep>
  <scstep>
   <time name="diag">   67.83   67.83</time>
   <time name="diis">   78.46   78.46</time>
   <time name="orth">   13.47   13.47</time>
   <time name="total">  202.80  202.80</time>
   <energy>
    <i name="e_fr_energy">   -174.03061967 </i>
    <i name="e_wo_entrp">   -173.93226954 </i>
    <i name="e_0_energy">   -174.00603214 </i>
   </energy>
  </scstep>
  <scstep>
   <time name="diag">   67.32   67.32</time>
   <time name="diis">   77.40   77.41</time>
   <time name="orth">   13.38   13.38</time>
   <time name="total">  201.00  201.02</time>
   <energy>
    <i name="e_fr_energy">   -174.03074461 </i>
    <i name="e_wo_entrp">   -173.93243041 </i>
    <i name="e_0_energy">   -174.00616606 </i>
   </energy>
  </scstep>
  <scstep>
   <time name="diag">   67.24   67.24</time>
   <time name="diis">   71.50   71.51</time>
   <time name="orth">   13.31   13.31</time>
   <time name="total">  165.88  165.89</time>
   <energy>
    <i name="alphaZ">     75.25431677 </i>
    <i name="ewald"> 137487.55337380 </i>
    <i name="hartreedc">-181859.54792423 </i>
    <i name="XCdc">  -1693.27809189 </i>
    <i name="pawpsdc">  46044.92394005 </i>
    <i name="pawaedc"> -42514.51952296 </i>
    <i name="eentropy">     -0.09823567 </i>
    <i name="bandstr">  -2800.82415093 </i>
    <i name="atom">  45086.50549395 </i>
    <i name="e_fr_energy">   -174.03080109 </i>
    <i name="e_wo_entrp">   -173.93256542 </i>
    <i name="e_0_energy">   -174.00624217 </i>
   </energy>
  </scstep>
  <structure>
   <crystal>
    <varray name="basis" >
     <v>      30.00000000       0.00000000       0.00000000 </v>
     <v>       0.00000000      30.00000000       0.00000000 </v>
     <v>       0.00000000       0.00000000      30.00000000 </v>
    </varray>
    <i name="volume">  27000.00000000 </i>
    <varray name="rec_basis" >
     <v>       0.03333333       0.00000000       0.00000000 </v>
     <v>       0.00000000       0.03333333       0.00000000 </v>
     <v>       0.00000000       0.00000000       0.03333333 </v>
    </varray>
   </crystal>
   <varray name="positions" >
    <v>       0.44576020       0.32826710       0.41691983 </v>
    <v>       0.67173288       0.55423978       0.41691983 </v>
    <v>       0.55423980       0.32826710       0.41691983 </v>
    <v>       0.32826712       0.55423978       0.41691983 </v>
    <v>       0.50000000       0.38250690       0.34021317 </v>
    <v>       0.50000000       0.38250690       0.65978680 </v>
    <v>       0.50000000       0.27609440       0.50000000 </v>
    <v>       0.27609443       0.49999998       0.50000000 </v>
    <v>       0.72390557       0.49999998       0.50000000 </v>
    <v>       0.50000000       0.72390555       0.50000000 </v>
    <v>       0.61195280       0.38804720       0.34167483 </v>
    <v>       0.61195280       0.38804720       0.65832513 </v>
    <v>       0.38804722       0.61195278       0.34167483 </v>
    <v>       0.38804722       0.61195278       0.65832513 </v>
    <v>       0.38804720       0.38804720       0.34167483 </v>
    <v>       0.38804720       0.38804720       0.65832513 </v>
    <v>       0.61195278       0.61195278       0.34167483 </v>
    <v>       0.61195278       0.61195278       0.65832513 </v>
    <v>       0.44576020       0.32826710       0.58308023 </v>
    <v>       0.67173288       0.55423978       0.58308023 </v>
    <v>       0.55791699       0.44208301       0.41809300 </v>
    <v>       0.32826705       0.44576024       0.41691983 </v>
    <v>       0.55423973       0.67173293       0.41691983 </v>
    <v>       0.55423980       0.32826710       0.58308023 </v>
    <v>       0.32826712       0.55423978       0.58308023 </v>
    <v>       0.67173295       0.44576024       0.41691983 </v>
    <v>       0.44576027       0.67173293       0.41691983 </v>
    <v>       0.44208301       0.44208301       0.41809300 </v>
    <v>       0.50000000       0.38416601       0.50000000 </v>
    <v>       0.61749315       0.50000005       0.34021317 </v>
    <v>       0.61749315       0.50000005       0.65978680 </v>
    <v>       0.38250685       0.50000005       0.34021317 </v>
    <v>       0.38250685       0.50000005       0.65978680 </v>
    <v>       0.38317830       0.38317830       0.50000000 </v>
    <v>       0.61682172       0.61682172       0.50000000 </v>
    <v>       0.61682170       0.38317830       0.50000000 </v>
    <v>       0.38317828       0.61682172       0.50000000 </v>
    <v>       0.50000000       0.50000000       0.33478917 </v>
    <v>       0.50000000       0.50000000       0.66521087 </v>
    <v>       0.32826705       0.44576024       0.58308023 </v>
    <v>       0.55423973       0.67173293       0.58308023 </v>
    <v>       0.55791699       0.44208301       0.58190703 </v>
    <v>       0.44208298       0.55791702       0.41809300 </v>
    <v>       0.44208301       0.44208301       0.58190703 </v>
    <v>       0.67173295       0.44576024       0.58308023 </v>
    <v>       0.44576027       0.67173293       0.58308023 </v>
    <v>       0.55791702       0.55791702       0.41809300 </v>
    <v>       0.38416599       0.50000002       0.50000000 </v>
    <v>       0.61583401       0.50000002       0.50000000 </v>
    <v>       0.50000000       0.61749319       0.34021317 </v>
    <v>       0.50000000       0.61749319       0.65978680 </v>
    <v>       0.50000000       0.50000000       0.50000000 </v>
    <v>       0.44208298       0.55791702       0.58190703 </v>
    <v>       0.55791702       0.55791702       0.58190703 </v>
    <v>       0.50000000       0.61583404       0.50000000 </v>
    <v>       0.62107847       0.50870850       0.74400197 </v>
    <v>       0.63778320       0.50991000       0.77766600 </v>
   </varray>
  </structure>
  <varray name="forces" >
   <v>       0.70531355       1.10681895       0.30008734 </v>
   <v>      -1.11222027      -0.70220679       0.28920958 </v>
   <v>      -0.70348795       1.10578015       0.29173403 </v>
   <v>       1.10753329      -0.70339686       0.29262706 </v>
   <v>       0.00257756       0.41305904       1.28130162 </v>
   <v>      -0.00552662       0.40837990      -1.28545896 </v>
   <v>      -0.00172953       1.51667876      -0.00706006 </v>
   <v>       1.51655714       0.00013620       0.00235518 </v>
   <v>      -1.51484086       0.00442260       0.01453444 </v>
   <v>      -0.00120731      -1.51485669      -0.00732108 </v>
   <v>      -0.75497456       0.75590242       1.07336021 </v>
   <v>      -0.75998913       0.73576092      -1.08861225 </v>
   <v>       0.75461353      -0.75515485       1.07279524 </v>
   <v>       0.75703535      -0.75668257      -1.07237312 </v>
   <v>       0.75407662       0.75503793       1.07231856 </v>
   <v>       0.75698576       0.75706538      -1.07286971 </v>
   <v>      -0.75504648      -0.75577424       1.07318497 </v>
   <v>      -0.75781778      -0.72054723      -1.08469777 </v>
   <v>       0.70589857       1.11008548      -0.28934904 </v>
   <v>      -1.10430658      -0.69765022      -0.33385196 </v>
   <v>       0.11213537      -0.11394832      -0.15854102 </v>
   <v>       1.10786986       0.70354442       0.29341796 </v>
   <v>      -0.70394927      -1.10652781       0.29224609 </v>
   <v>      -0.69612642       1.11012617      -0.28719389 </v>
   <v>       1.10676253      -0.70471478      -0.29207084 </v>
   <v>      -1.11301026       0.70305638       0.28830123 </v>
   <v>       0.70596783      -1.10672836       0.29917096 </v>
   <v>      -0.11233580      -0.10969781      -0.15591553 </v>
   <v>      -0.00906010      -0.23956109      -0.01559200 </v>
   <v>      -0.41274427      -0.00017823       1.28083506 </v>
   <v>      -0.28647210       0.10073208       0.14498613 </v>
   <v>       0.41169998       0.00035022       1.28016870 </v>
   <v>       0.41709032       0.00020088      -1.28065983 </v>
   <v>       0.82665826       0.82867968      -0.00085751 </v>
   <v>      -0.82675525      -0.83355219       0.00600949 </v>
   <v>      -0.82845366       0.83391376       0.00800204 </v>
   <v>       0.82612604      -0.82834795      -0.00172014 </v>
   <v>       0.00283221       0.00010801       1.18136538 </v>
   <v>      -0.05766139      -0.00144696      -1.19134384 </v>
   <v>       1.10760218       0.70422873      -0.29229890 </v>
   <v>      -0.69470893      -1.10929094      -0.28716758 </v>
   <v>       0.11067801      -0.11027458       0.13015976 </v>
   <v>      -0.11280138       0.11063492      -0.15647951 </v>
   <v>      -0.11139002      -0.11194588       0.15715759 </v>
   <v>      -1.12623814       0.70710836      -0.31155529 </v>
   <v>       0.70641786      -1.10969388      -0.28770085 </v>
   <v>       0.11249010       0.11385224      -0.15716939 </v>
   <v>      -0.23048935      -0.00078190       0.00019336 </v>
   <v>       0.22361543       0.00027344       0.00314129 </v>
   <v>       0.00202502      -0.41226418       1.28145215 </v>
   <v>      -0.00958830      -0.40664187      -1.28748659 </v>
   <v>       0.00895545      -0.00004966       0.00872236 </v>
   <v>      -0.11205216       0.11213745       0.15719577 </v>
   <v>       0.09709954       0.11789674       0.11925601 </v>
   <v>      -0.00755686       0.23612539      -0.01448182 </v>
   <v>      -1.29437308      -0.24159892      -3.93039932 </v>
   <v>       1.27029643       0.10141816       2.65493822 </v>
  </varray>
  <varray name="stress" >
   <v>      -6.70869392       0.00397387       0.07929739 </v>
   <v>       0.00397387      -6.74646470      -0.01659216 </v>
   <v>       0.07929737      -0.01659215      -6.78330557 </v>
  </varray>
  <energy>
   <i name="e_fr_energy">   -174.03080109 </i>
   <i name="e_wo_entrp">   -174.00624217 </i>
   <i name="e_0_energy">     -0.09823567 </i>
  </energy>
  <time name="totalsc">18443.6218444.28</time>
  <eigenvalues>
   <array>
    <dimension dim="1">band</dimension>
    <dimension dim="2">kpoint</dimension>
    <dimension dim="3">spin</dimension>
    <field>eigene</field>
    <field>occ</field>
    <set>
     <set comment="spin 1">
      <set comment="kpoint 1">
       <r>  -29.1382    1.0000 </r>
       <r>  -13.6727    1.0000 </r>
       <r>  -11.4535    1.0000 </r>
       <r>  -11.4467    1.0000 </r>
       <r>   -9.4265    1.0000 </r>
       <r>   -6.6278    1.0000 </r>
       <r>   -6.1098    1.0000 </r>
       <r>   -6.1096    1.0000 </r>
       <r>   -6.1006    1.0000 </r>
       <r>   -5.7983    1.0000 </r>
       <r>   -5.7946    1.0000 </r>
       <r>   -5.7921    1.0000 </r>
       <r>   -5.7279    1.0000 </r>
       <r>   -5.6747    1.0000 </r>
       <r>   -5.6692    1.0000 </r>
       <r>   -5.6674    1.0000 </r>
       <r>   -5.6645    1.0000 </r>
       <r>   -5.6073    1.0000 </r>
       <r>   -5.6046    1.0000 </r>
       <r>   -5.5924    1.0000 </r>
       <r>   -5.5868    1.0000 </r>
       <r>   -5.5836    1.0000 </r>
       <r>   -5.5780    1.0000 </r>
       <r>   -5.5408    1.0000 </r>
       <r>   -5.5313    1.0000 </r>
       <r>   -5.5297    1.0000 </r>
       <r>   -5.5290    1.0000 </r>
       <r>   -5.5214    1.0000 </r>
       <r>   -5.5062    1.0000 </r>
       <r>   -5.5023    1.0000 </r>
       <r>   -5.5007    1.0000 </r>
       <r>   -5.4966    1.0000 </r>
       <r>   -5.4957    1.0000 </r>
       <r>   -5.4955    1.0000 </r>
       <r>   -5.4949    1.0000 </r>
       <r>   -5.4681    1.0000 </r>
       <r>   -5.4616    1.0000 </r>
       <r>   -5.4550    1.0000 </r>
       <r>   -5.4528    1.0000 </r>
       <r>   -5.4507    1.0000 </r>
       <r>   -5.4504    1.0000 </r>
       <r>   -5.4498    1.0000 </r>
       <r>   -5.4476    1.0000 </r>
       <r>   -5.4173    1.0000 </r>
       <r>   -5.4149    1.0000 </r>
       <r>   -5.4124    1.0000 </r>
       <r>   -5.4108    1.0000 </r>
       <r>   -5.4100    1.0000 </r>
       <r>   -5.4060    1.0000 </r>
       <r>   -5.4047    1.0000 </r>
       <r>   -5.4029    1.0000 </r>
       <r>   -5.3886    1.0000 </r>
       <r>   -5.3880    1.0000 </r>
       <r>   -5.3844    1.0000 </r>
       <r>   -5.3742    1.0000 </r>
       <r>   -5.3243    1.0000 </r>
       <r>   -5.3107    1.0000 </r>
       <r>   -5.3082    1.0000 </r>
       <r>   -5.3077    1.0000 </r>
       <r>   -5.3051    1.0000 </r>
       <r>   -5.3001    1.0000 </r>
       <r>   -5.2992    1.0000 </r>
       <r>   -5.2957    1.0000 </r>
       <r>   -5.2834    1.0000 </r>
       <r>   -5.2827    1.0000 </r>
       <r>   -5.2712    1.0000 </r>
       <r>   -5.2708    1.0000 </r>
       <r>   -5.1983    1.0000 </r>
       <r>   -5.1923    1.0000 </r>
       <r>   -5.1867    1.0000 </r>
       <r>   -5.1865    1.0000 </r>
       <r>   -5.1722    1.0000 </r>
       <r>   -5.1657    1.0000 </r>
       <r>   -5.1631    1.0000 </r>
       <r>   -5.1624    1.0000 </r>
       <r>   -5.1608    1.0000 </r>
       <r>   -5.1599    1.0000 </r>
       <r>   -5.1458    1.0000 </r>
       <r>   -5.1442    1.0000 </r>
       <r>   -5.1323    1.0000 </r>
       <r>   -5.1141    1.0000 </r>
       <r>   -5.1090    1.0000 </r>
       <r>   -5.1065    1.0000 </r>
       <r>   -5.0980    1.0000 </r>
       <r>   -5.0895    1.0000 </r>
       <r>   -5.0867    1.0000 </r>
       <r>   -5.0853    1.0000 </r>
       <r>   -5.0488    1.0000 </r>
       <r>   -5.0452    1.0000 </r>
       <r>   -5.0383    1.0000 </r>
       <r>   -5.0369    1.0000 </r>
       <r>   -5.0361    1.0000 </r>
       <r>   -5.0352    1.0000 </r>
       <r>   -5.0338    1.0000 </r>
       <r>   -5.0310    1.0000 </r>
       <r>   -5.0167    1.0000 </r>
       <r>   -5.0135    1.0000 </r>
       <r>   -5.0106    1.0000 </r>
       <r>   -5.0085    1.0000 </r>
       <r>   -5.0016    1.0000 </r>
       <r>   -4.9943    1.0000 </r>
       <r>   -4.9882    1.0000 </r>
       <r>   -4.9871    1.0000 </r>
       <r>   -4.9791    1.0000 </r>
       <r>   -4.9775    1.0000 </r>
       <r>   -4.9738    1.0000 </r>
       <r>   -4.9712    1.0000 </r>
       <r>   -4.9645    1.0000 </r>
       <r>   -4.9637    1.0000 </r>
       <r>   -4.9540    1.0000 </r>
       <r>   -4.9531    1.0000 </r>
       <r>   -4.9430    1.0000 </r>
       <r>   -4.9400    1.0000 </r>
       <r>   -4.9381    1.0000 </r>
       <r>   -4.9378    1.0000 </r>
       <r>   -4.9353    1.0000 </r>
       <r>   -4.9199    1.0000 </r>
       <r>   -4.9075    1.0000 </r>
       <r>   -4.9013    1.0000 </r>
       <r>   -4.8993    1.0000 </r>
       <r>   -4.8879    1.0000 </r>
       <r>   -4.8867    1.0000 </r>
       <r>   -4.8847    1.0000 </r>
       <r>   -4.8832    1.0000 </r>
       <r>   -4.8820    1.0000 </r>
       <r>   -4.8817    1.0000 </r>
       <r>   -4.8381    1.0000 </r>
       <r>   -4.8293    1.0000 </r>
       <r>   -4.8269    1.0000 </r>
       <r>   -4.8237    1.0000 </r>
       <r>   -4.8227    1.0000 </r>
       <r>   -4.8225    1.0000 </r>
       <r>   -4.8134    1.0000 </r>
       <r>   -4.8117    1.0000 </r>
       <r>   -4.8110    1.0000 </r>
       <r>   -4.7851    0.9999 </r>
       <r>   -4.7757    0.9999 </r>
       <r>   -4.7748    0.9999 </r>
       <r>   -4.7740    0.9999 </r>
       <r>   -4.7516    0.9998 </r>
       <r>   -4.7502    0.9998 </r>
       <r>   -4.7463    0.9998 </r>
       <r>   -4.7270    0.9997 </r>
       <r>   -4.7213    0.9996 </r>
       <r>   -4.7189    0.9996 </r>
       <r>   -4.7161    0.9996 </r>
       <r>   -4.7051    0.9995 </r>
       <r>   -4.6879    0.9993 </r>
       <r>   -4.6778    0.9991 </r>
       <r>   -4.6707    0.9990 </r>
       <r>   -4.6683    0.9989 </r>
       <r>   -4.6661    0.9989 </r>
       <r>   -4.6583    0.9987 </r>
       <r>   -4.6567    0.9987 </r>
       <r>   -4.6546    0.9986 </r>
       <r>   -4.6540    0.9986 </r>
       <r>   -4.6536    0.9986 </r>
       <r>   -4.6527    0.9986 </r>
       <r>   -4.6470    0.9984 </r>
       <r>   -4.6354    0.9981 </r>
       <r>   -4.6350    0.9981 </r>
       <r>   -4.6317    0.9980 </r>
       <r>   -4.6287    0.9979 </r>
       <r>   -4.6282    0.9979 </r>
       <r>   -4.6272    0.9978 </r>
       <r>   -4.6266    0.9978 </r>
       <r>   -4.6244    0.9977 </r>
       <r>   -4.6235    0.9977 </r>
       <r>   -4.6120    0.9973 </r>
       <r>   -4.6106    0.9973 </r>
       <r>   -4.5850    0.9963 </r>
       <r>   -4.5814    0.9962 </r>
       <r>   -4.5792    0.9961 </r>
       <r>   -4.5784    0.9961 </r>
       <r>   -4.5776    0.9960 </r>
       <r>   -4.5757    0.9960 </r>
       <r>   -4.5740    0.9959 </r>
       <r>   -4.5691    0.9957 </r>
       <r>   -4.5628    0.9955 </r>
       <r>   -4.5567    0.9954 </r>
       <r>   -4.5548    0.9953 </r>
       <r>   -4.5409    0.9951 </r>
       <r>   -4.5376    0.9951 </r>
       <r>   -4.5354    0.9951 </r>
       <r>   -4.5342    0.9951 </r>
       <r>   -4.5335    0.9951 </r>
       <r>   -4.5326    0.9951 </r>
       <r>   -4.5312    0.9951 </r>
       <r>   -4.5291    0.9951 </r>
       <r>   -4.5288    0.9951 </r>
       <r>   -4.4933    0.9968 </r>
       <r>   -4.4898    0.9972 </r>
       <r>   -4.4883    0.9974 </r>
       <r>   -4.4878    0.9974 </r>
       <r>   -4.4858    0.9977 </r>
       <r>   -4.4777    0.9988 </r>
       <r>   -4.4641    1.0013 </r>
       <r>   -4.4632    1.0015 </r>
       <r>   -4.4599    1.0022 </r>
       <r>   -4.4553    1.0033 </r>
       <r>   -4.4519    1.0042 </r>
       <r>   -4.4445    1.0063 </r>
       <r>   -4.4408    1.0074 </r>
       <r>   -4.4395    1.0078 </r>
       <r>   -4.4332    1.0099 </r>
       <r>   -4.4321    1.0103 </r>
       <r>   -4.4282    1.0117 </r>
       <r>   -4.4258    1.0126 </r>
       <r>   -4.4221    1.0141 </r>
       <r>   -4.4215    1.0143 </r>
       <r>   -4.4053    1.0213 </r>
       <r>   -4.3970    1.0251 </r>
       <r>   -4.3918    1.0276 </r>
       <r>   -4.3901    1.0284 </r>
       <r>   -4.3875    1.0296 </r>
       <r>   -4.3870    1.0299 </r>
       <r>   -4.3853    1.0307 </r>
       <r>   -4.3833    1.0317 </r>
       <r>   -4.3788    1.0338 </r>
       <r>   -4.3622    1.0414 </r>
       <r>   -4.3486    1.0467 </r>
       <r>   -4.3480    1.0469 </r>
       <r>   -4.3300    1.0511 </r>
       <r>   -4.3240    1.0516 </r>
       <r>   -4.3200    1.0516 </r>
       <r>   -4.3187    1.0515 </r>
       <r>   -4.3185    1.0515 </r>
       <r>   -4.3165    1.0513 </r>
       <r>   -4.3158    1.0513 </r>
       <r>   -4.3148    1.0511 </r>
       <r>   -4.3140    1.0510 </r>
       <r>   -4.3109    1.0505 </r>
       <r>   -4.3092    1.0501 </r>
       <r>   -4.3057    1.0491 </r>
       <r>   -4.3038    1.0484 </r>
       <r>   -4.3027    1.0480 </r>
       <r>   -4.3021    1.0478 </r>
       <r>   -4.3002    1.0469 </r>
       <r>   -4.2998    1.0467 </r>
       <r>   -4.2986    1.0462 </r>
       <r>   -4.2860    1.0378 </r>
       <r>   -4.2797    1.0319 </r>
       <r>   -4.2719    1.0229 </r>
       <r>   -4.2667    1.0158 </r>
       <r>   -4.2656    1.0142 </r>
       <r>   -4.2649    1.0132 </r>
       <r>   -4.2644    1.0124 </r>
       <r>   -4.2636    1.0111 </r>
       <r>   -4.2597    1.0049 </r>
       <r>   -4.2476    0.9815 </r>
       <r>   -4.2445    0.9747 </r>
       <r>   -4.2392    0.9619 </r>
       <r>   -4.2366    0.9555 </r>
       <r>   -4.2341    0.9489 </r>
       <r>   -4.2315    0.9419 </r>
       <r>   -4.2297    0.9369 </r>
       <r>   -4.2293    0.9356 </r>
       <r>   -4.2278    0.9314 </r>
       <r>   -4.2245    0.9216 </r>
       <r>   -4.2243    0.9209 </r>
       <r>   -4.2228    0.9162 </r>
       <r>   -4.2201    0.9077 </r>
       <r>   -4.2181    0.9011 </r>
       <r>   -4.2177    0.8999 </r>
       <r>   -4.2154    0.8922 </r>
       <r>   -4.2078    0.8654 </r>
       <r>   -4.2045    0.8529 </r>
       <r>   -4.2011    0.8402 </r>
       <r>   -4.2004    0.8373 </r>
       <r>   -4.1985    0.8296 </r>
       <r>   -4.1965    0.8217 </r>
       <r>   -4.1934    0.8089 </r>
       <r>   -4.1747    0.7256 </r>
       <r>   -4.1726    0.7155 </r>
       <r>   -4.1653    0.6803 </r>
       <r>   -4.1618    0.6628 </r>
       <r>   -4.1574    0.6411 </r>
       <r>   -4.1571    0.6392 </r>
       <r>   -4.1530    0.6185 </r>
       <r>   -4.1512    0.6094 </r>
       <r>   -4.1502    0.6041 </r>
       <r>   -4.1380    0.5404 </r>
       <r>   -4.1096    0.3910 </r>
       <r>   -4.1084    0.3850 </r>
       <r>   -4.1076    0.3809 </r>
       <r>   -4.1071    0.3781 </r>
       <r>   -4.0940    0.3123 </r>
       <r>   -4.0923    0.3040 </r>
       <r>   -4.0911    0.2982 </r>
       <r>   -3.9498   -0.0505 </r>
       <r>   -3.8768   -0.0313 </r>
       <r>   -3.8046   -0.0031 </r>
       <r>   -3.7961   -0.0011 </r>
       <r>   -3.7694    0.0030 </r>
       <r>   -3.4759    0.0001 </r>
       <r>   -3.4686    0.0001 </r>
       <r>   -3.4313    0.0000 </r>
       <r>   -3.0377    0.0000 </r>
       <r>   -3.0366    0.0000 </r>
       <r>   -3.0162    0.0000 </r>
       <r>   -3.0038    0.0000 </r>
       <r>   -2.9989    0.0000 </r>
       <r>   -2.9575    0.0000 </r>
       <r>   -2.9179    0.0000 </r>
       <r>   -2.9064    0.0000 </r>
       <r>   -2.5026    0.0000 </r>
       <r>   -2.5013    0.0000 </r>
       <r>   -2.4264    0.0000 </r>
       <r>   -2.3481    0.0000 </r>
       <r>   -2.1320    0.0000 </r>
       <r>   -2.1024    0.0000 </r>
       <r>   -2.0971    0.0000 </r>
       <r>   -1.9908    0.0000 </r>
       <r>   -1.9648    0.0000 </r>
       <r>   -1.9175    0.0000 </r>
       <r>   -1.8466    0.0000 </r>
       <r>   -1.8415    0.0000 </r>
       <r>   -1.7246    0.0000 </r>
       <r>   -1.6950    0.0000 </r>
       <r>   -1.6215    0.0000 </r>
       <r>   -1.6098    0.0000 </r>
       <r>   -1.5820    0.0000 </r>
       <r>   -1.5393    0.0000 </r>
       <r>   -1.4520    0.0000 </r>
       <r>   -1.4306    0.0000 </r>
       <r>   -1.2066    0.0000 </r>
       <r>   -1.1792    0.0000 </r>
       <r>   -1.1564    0.0000 </r>
       <r>   -0.9746    0.0000 </r>
       <r>   -0.9680    0.0000 </r>
       <r>   -0.9600    0.0000 </r>
       <r>   -0.9169    0.0000 </r>
       <r>   -0.9090    0.0000 </r>
       <r>   -0.8898    0.0000 </r>
       <r>   -0.8037    0.0000 </r>
       <r>   -0.6363    0.0000 </r>
      </set>
     </set>
    </set>
   </array>
  </eigenvalues>
  <separator name="orbital magnetization" >
   <v name="MAGDIPOLOUT">      0.00000000      0.00000000      0.00000000</v>
  </separator>
  <dos>
   <i name="efermi">     -4.13038351 </i>
   <total>
    <array>
     <dimension dim="1">gridpoints</dimension>
     <dimension dim="2">spin</dimension>
     <field>energy</field>
     <field>total</field>
     <field>integrated</field>
     <set>
      <set comment="spin 1">
       <r>   -31.1382     0.0000     0.0000 </r>
       <r>   -31.0298     0.0000     0.0000 </r>
       <r>   -30.9215     0.0000     0.0000 </r>
       <r>   -30.8131     0.0000     0.0000 </r>
       <r>   -30.7048     0.0000     0.0000 </r>
       <r>   -30.5965     0.0000     0.0000 </r>
       <r>   -30.4881     0.0000     0.0000 </r>
       <r>   -30.3798     0.0000     0.0000 </r>
       <r>   -30.2714     0.0000     0.0000 </r>
       <r>   -30.1631     0.0000     0.0000 </r>
       <r>   -30.0548     0.0000     0.0000 </r>
       <r>   -29.9464     0.0000     0.0000 </r>
       <r>   -29.8381     0.0004     0.0000 </r>
       <r>   -29.7297     0.0063     0.0007 </r>
       <r>   -29.6214     0.0420     0.0053 </r>
       <r>   -29.5131     0.0274     0.0082 </r>
       <r>   -29.4047    -0.5397    -0.0502 </r>
       <r>   -29.2964    -0.2731    -0.0798 </r>
       <r>   -29.1880     5.3237     0.4970 </r>
       <r>   -29.0797     9.9883     1.5791 </r>
       <r>   -28.9714     4.7239     2.0909 </r>
       <r>   -28.8630    -0.4484     2.0423 </r>
       <r>   -28.7547    -0.4745     1.9909 </r>
       <r>   -28.6463     0.0409     1.9953 </r>
       <r>   -28.5380     0.0378     1.9994 </r>
       <r>   -28.4297     0.0052     2.0000 </r>
       <r>   -28.3213     0.0003     2.0000 </r>
       <r>   -28.2130     0.0000     2.0000 </r>
       <r>   -28.1046     0.0000     2.0000 </r>
       <r>   -27.9963     0.0000     2.0000 </r>
       <r>   -27.8880     0.0000     2.0000 </r>
       <r>   -27.7796     0.0000     2.0000 </r>
       <r>   -27.6713     0.0000     2.0000 </r>
       <r>   -27.5630     0.0000     2.0000 </r>
       <r>   -27.4546     0.0000     2.0000 </r>
       <r>   -27.3463     0.0000     2.0000 </r>
       <r>   -27.2379     0.0000     2.0000 </r>
       <r>   -27.1296     0.0000     2.0000 </r>
       <r>   -27.0213     0.0000     2.0000 </r>
       <r>   -26.9129     0.0000     2.0000 </r>
       <r>   -26.8046     0.0000     2.0000 </r>
       <r>   -26.6962     0.0000     2.0000 </r>
       <r>   -26.5879     0.0000     2.0000 </r>
       <r>   -26.4796     0.0000     2.0000 </r>
       <r>   -26.3712     0.0000     2.0000 </r>
       <r>   -26.2629     0.0000     2.0000 </r>
       <r>   -26.1545     0.0000     2.0000 </r>
       <r>   -26.0462     0.0000     2.0000 </r>
       <r>   -25.9379     0.0000     2.0000 </r>
       <r>   -25.8295     0.0000     2.0000 </r>
       <r>   -25.7212     0.0000     2.0000 </r>
       <r>   -25.6128     0.0000     2.0000 </r>
       <r>   -25.5045     0.0000     2.0000 </r>
       <r>   -25.3962     0.0000     2.0000 </r>
       <r>   -25.2878     0.0000     2.0000 </r>
       <r>   -25.1795     0.0000     2.0000 </r>
       <r>   -25.0711     0.0000     2.0000 </r>
       <r>   -24.9628     0.0000     2.0000 </r>
       <r>   -24.8545     0.0000     2.0000 </r>
       <r>   -24.7461     0.0000     2.0000 </r>
       <r>   -24.6378     0.0000     2.0000 </r>
       <r>   -24.5294     0.0000     2.0000 </r>
       <r>   -24.4211     0.0000     2.0000 </r>
       <r>   -24.3128     0.0000     2.0000 </r>
       <r>   -24.2044     0.0000     2.0000 </r>
       <r>   -24.0961     0.0000     2.0000 </r>
       <r>   -23.9877     0.0000     2.0000 </r>
       <r>   -23.8794     0.0000     2.0000 </r>
       <r>   -23.7711     0.0000     2.0000 </r>
       <r>   -23.6627     0.0000     2.0000 </r>
       <r>   -23.5544     0.0000     2.0000 </r>
       <r>   -23.4461     0.0000     2.0000 </r>
       <r>   -23.3377     0.0000     2.0000 </r>
       <r>   -23.2294     0.0000     2.0000 </r>
       <r>   -23.1210     0.0000     2.0000 </r>
       <r>   -23.0127     0.0000     2.0000 </r>
       <r>   -22.9044     0.0000     2.0000 </r>
       <r>   -22.7960     0.0000     2.0000 </r>
       <r>   -22.6877     0.0000     2.0000 </r>
       <r>   -22.5793     0.0000     2.0000 </r>
       <r>   -22.4710     0.0000     2.0000 </r>
       <r>   -22.3627     0.0000     2.0000 </r>
       <r>   -22.2543     0.0000     2.0000 </r>
       <r>   -22.1460     0.0000     2.0000 </r>
       <r>   -22.0376     0.0000     2.0000 </r>
       <r>   -21.9293     0.0000     2.0000 </r>
       <r>   -21.8210     0.0000     2.0000 </r>
       <r>   -21.7126     0.0000     2.0000 </r>
       <r>   -21.6043     0.0000     2.0000 </r>
       <r>   -21.4959     0.0000     2.0000 </r>
       <r>   -21.3876     0.0000     2.0000 </r>
       <r>   -21.2793     0.0000     2.0000 </r>
       <r>   -21.1709     0.0000     2.0000 </r>
       <r>   -21.0626     0.0000     2.0000 </r>
       <r>   -20.9542     0.0000     2.0000 </r>
       <r>   -20.8459     0.0000     2.0000 </r>
       <r>   -20.7376     0.0000     2.0000 </r>
       <r>   -20.6292     0.0000     2.0000 </r>
       <r>   -20.5209     0.0000     2.0000 </r>
       <r>   -20.4125     0.0000     2.0000 </r>
       <r>   -20.3042     0.0000     2.0000 </r>
       <r>   -20.1959     0.0000     2.0000 </r>
       <r>   -20.0875     0.0000     2.0000 </r>
       <r>   -19.9792     0.0000     2.0000 </r>
       <r>   -19.8708     0.0000     2.0000 </r>
       <r>   -19.7625     0.0000     2.0000 </r>
       <r>   -19.6542     0.0000     2.0000 </r>
       <r>   -19.5458     0.0000     2.0000 </r>
       <r>   -19.4375     0.0000     2.0000 </r>
       <r>   -19.3291     0.0000     2.0000 </r>
       <r>   -19.2208     0.0000     2.0000 </r>
       <r>   -19.1125     0.0000     2.0000 </r>
       <r>   -19.0041     0.0000     2.0000 </r>
       <r>   -18.8958     0.0000     2.0000 </r>
       <r>   -18.7875     0.0000     2.0000 </r>
       <r>   -18.6791     0.0000     2.0000 </r>
       <r>   -18.5708     0.0000     2.0000 </r>
       <r>   -18.4624     0.0000     2.0000 </r>
       <r>   -18.3541     0.0000     2.0000 </r>
       <r>   -18.2458     0.0000     2.0000 </r>
       <r>   -18.1374     0.0000     2.0000 </r>
       <r>   -18.0291     0.0000     2.0000 </r>
       <r>   -17.9207     0.0000     2.0000 </r>
       <r>   -17.8124     0.0000     2.0000 </r>
       <r>   -17.7041     0.0000     2.0000 </r>
       <r>   -17.5957     0.0000     2.0000 </r>
       <r>   -17.4874     0.0000     2.0000 </r>
       <r>   -17.3790     0.0000     2.0000 </r>
       <r>   -17.2707     0.0000     2.0000 </r>
       <r>   -17.1624     0.0000     2.0000 </r>
       <r>   -17.0540     0.0000     2.0000 </r>
       <r>   -16.9457     0.0000     2.0000 </r>
       <r>   -16.8373     0.0000     2.0000 </r>
       <r>   -16.7290     0.0000     2.0000 </r>
       <r>   -16.6207     0.0000     2.0000 </r>
       <r>   -16.5123     0.0000     2.0000 </r>
       <r>   -16.4040     0.0000     2.0000 </r>
       <r>   -16.2956     0.0000     2.0000 </r>
       <r>   -16.1873     0.0000     2.0000 </r>
       <r>   -16.0790     0.0000     2.0000 </r>
       <r>   -15.9706     0.0000     2.0000 </r>
       <r>   -15.8623     0.0000     2.0000 </r>
       <r>   -15.7539     0.0000     2.0000 </r>
       <r>   -15.6456     0.0000     2.0000 </r>
       <r>   -15.5373     0.0000     2.0000 </r>
       <r>   -15.4289     0.0000     2.0000 </r>
       <r>   -15.3206     0.0000     2.0000 </r>
       <r>   -15.2122     0.0000     2.0000 </r>
       <r>   -15.1039     0.0000     2.0000 </r>
       <r>   -14.9956     0.0000     2.0000 </r>
       <r>   -14.8872     0.0000     2.0000 </r>
       <r>   -14.7789     0.0000     2.0000 </r>
       <r>   -14.6705     0.0000     2.0000 </r>
       <r>   -14.5622     0.0000     2.0000 </r>
       <r>   -14.4539     0.0000     2.0000 </r>
       <r>   -14.3455     0.0008     2.0001 </r>
       <r>   -14.2372     0.0111     2.0013 </r>
       <r>   -14.1289     0.0553     2.0073 </r>
       <r>   -14.0205    -0.0436     2.0026 </r>
       <r>   -13.9122    -0.7256     1.9240 </r>
       <r>   -13.8038     0.5584     1.9845 </r>
       <r>   -13.6955     7.1728     2.7616 </r>
       <r>   -13.5872     9.4766     3.7882 </r>
       <r>   -13.4788     2.9068     4.1032 </r>
       <r>   -13.3705    -0.7654     4.0202 </r>
       <r>   -13.2621    -0.2774     3.9902 </r>
       <r>   -13.1538     0.0623     3.9969 </r>
       <r>   -13.0455     0.0254     3.9997 </r>
       <r>   -12.9371     0.0027     4.0000 </r>
       <r>   -12.8288     0.0001     4.0000 </r>
       <r>   -12.7204     0.0000     4.0000 </r>
       <r>   -12.6121     0.0000     4.0000 </r>
       <r>   -12.5038     0.0000     4.0000 </r>
       <r>   -12.3954     0.0000     4.0000 </r>
       <r>   -12.2871     0.0000     4.0000 </r>
       <r>   -12.1787     0.0003     4.0000 </r>
       <r>   -12.0704     0.0065     4.0007 </r>
       <r>   -11.9621     0.0567     4.0069 </r>
       <r>   -11.8537     0.1184     4.0197 </r>
       <r>   -11.7454    -0.6505     3.9492 </r>
       <r>   -11.6370    -1.4262     3.7947 </r>
       <r>   -11.5287     6.7064     4.5213 </r>
       <r>   -11.4204    19.3460     6.6172 </r>
       <r>   -11.3120    13.4312     8.0723 </r>
       <r>   -11.2037     0.6161     8.1391 </r>
       <r>   -11.0953    -1.3662     7.9911 </r>
       <r>   -10.9870    -0.0426     7.9865 </r>
       <r>   -10.8787     0.1041     7.9977 </r>
       <r>   -10.7703     0.0194     7.9998 </r>
       <r>   -10.6620     0.0014     8.0000 </r>
       <r>   -10.5536     0.0000     8.0000 </r>
       <r>   -10.4453     0.0000     8.0000 </r>
       <r>   -10.3370     0.0000     8.0000 </r>
       <r>   -10.2286     0.0000     8.0000 </r>
       <r>   -10.1203     0.0005     8.0001 </r>
       <r>   -10.0119     0.0072     8.0008 </r>
       <r>    -9.9036     0.0451     8.0057 </r>
       <r>    -9.7953     0.0154     8.0074 </r>
       <r>    -9.6869    -0.5854     7.9440 </r>
       <r>    -9.5786    -0.1236     7.9306 </r>
       <r>    -9.4703     5.7506     8.5536 </r>
       <r>    -9.3619     9.9402     9.6305 </r>
       <r>    -9.2536     4.3007    10.0964 </r>
       <r>    -9.1452    -0.5497    10.0369 </r>
       <r>    -9.0369    -0.4282     9.9905 </r>
       <r>    -8.9286     0.0483     9.9957 </r>
       <r>    -8.8202     0.0348     9.9995 </r>
       <r>    -8.7119     0.0045    10.0000 </r>
       <r>    -8.6035     0.0002    10.0000 </r>
       <r>    -8.4952     0.0000    10.0000 </r>
       <r>    -8.3869     0.0000    10.0000 </r>
       <r>    -8.2785     0.0000    10.0000 </r>
       <r>    -8.1702     0.0000    10.0000 </r>
       <r>    -8.0618     0.0000    10.0000 </r>
       <r>    -7.9535     0.0000    10.0000 </r>
       <r>    -7.8452     0.0000    10.0000 </r>
       <r>    -7.7368     0.0000    10.0000 </r>
       <r>    -7.6285     0.0000    10.0000 </r>
       <r>    -7.5201     0.0000    10.0000 </r>
       <r>    -7.4118     0.0000    10.0000 </r>
       <r>    -7.3035     0.0008    10.0001 </r>
       <r>    -7.1951     0.0105    10.0012 </r>
       <r>    -7.0868     0.0540    10.0071 </r>
       <r>    -6.9784    -0.0338    10.0034 </r>
       <r>    -6.8701    -0.7089     9.9266 </r>
       <r>    -6.7618     0.4545     9.9759 </r>
       <r>    -6.6534     7.0348    10.7380 </r>
       <r>    -6.5451     9.7506    11.7944 </r>
       <r>    -6.4367     2.7408    12.0913 </r>
       <r>    -6.3284    -3.0724    11.7585 </r>
       <r>    -6.2201     4.0409    12.1962 </r>
       <r>    -6.1117    24.7125    14.8736 </r>
       <r>    -6.0034    23.9972    17.4734 </r>
       <r>    -5.8950     7.8868    18.3279 </r>
       <r>    -5.7867    23.4344    20.8667 </r>
       <r>    -5.6784    67.4854    28.1781 </r>
       <r>    -5.5700   158.6112    45.3620 </r>
       <r>    -5.4617   280.0200    75.6992 </r>
       <r>    -5.3533   297.7337   107.9555 </r>
       <r>    -5.2450   221.4319   131.9453 </r>
       <r>    -5.1367   220.0085   155.7810 </r>
       <r>    -5.0283   315.6759   189.9811 </r>
       <r>    -4.9200   367.5930   229.8060 </r>
       <r>    -4.8117   311.6027   263.5649 </r>
       <r>    -4.7033   303.9739   296.4973 </r>
       <r>    -4.5950   398.0807   339.6252 </r>
       <r>    -4.4866   429.3873   386.1448 </r>
       <r>    -4.3783   435.8436   433.3639 </r>
       <r>    -4.2700   536.5900   491.4978 </r>
       <r>    -4.1616   524.0419   548.2722 </r>
       <r>    -4.0533   264.1919   576.8947 </r>
       <r>    -3.9449    41.7969   581.4229 </r>
       <r>    -3.8366    14.7079   583.0164 </r>
       <r>    -3.7283    32.3305   586.5190 </r>
       <r>    -3.6199    13.9675   588.0323 </r>
       <r>    -3.5116    14.1409   589.5643 </r>
       <r>    -3.4032    28.4882   592.6507 </r>
       <r>    -3.2949    12.6634   594.0226 </r>
       <r>    -3.1866    -4.4825   593.5370 </r>
       <r>    -3.0782    21.9798   595.9183 </r>
       <r>    -2.9699    66.7872   603.1540 </r>
       <r>    -2.8615    56.2309   609.2460 </r>
       <r>    -2.7532    10.5968   610.3941 </r>
       <r>    -2.6449    -4.8631   609.8672 </r>
       <r>    -2.5365    12.5798   611.2301 </r>
       <r>    -2.4282    31.1766   614.6078 </r>
       <r>    -2.3198    23.4083   617.1438 </r>
       <r>    -2.2115    11.6007   618.4006 </r>
       <r>    -2.1032    25.1303   621.1232 </r>
       <r>    -1.9948    41.0700   625.5727 </r>
       <r>    -1.8865    41.4807   630.0667 </r>
       <r>    -1.7781    35.1546   633.8753 </r>
       <r>    -1.6698    38.3491   638.0301 </r>
       <r>    -1.5615    48.6546   643.3013 </r>
       <r>    -1.4531    40.5524   647.6947 </r>
       <r>    -1.3448    19.2574   649.7811 </r>
       <r>    -1.2364    15.0341   651.4098 </r>
       <r>    -1.1281    24.1775   654.0292 </r>
       <r>    -1.0198    33.8642   657.6981 </r>
       <r>    -0.9114    55.0053   663.6573 </r>
       <r>    -0.8031    47.5451   668.8083 </r>
       <r>    -0.6947    17.9538   670.7534 </r>
       <r>    -0.5864     7.8085   671.5994 </r>
       <r>    -0.4781     4.1040   672.0440 </r>
       <r>    -0.3697    -0.1061   672.0325 </r>
       <r>    -0.2614    -0.4018   671.9890 </r>
       <r>    -0.1531     0.0510   671.9945 </r>
       <r>    -0.0447     0.0438   671.9993 </r>
       <r>     0.0636     0.0064   672.0000 </r>
       <r>     0.1720     0.0004   672.0000 </r>
       <r>     0.2803     0.0000   672.0000 </r>
       <r>     0.3886     0.0000   672.0000 </r>
       <r>     0.4970     0.0000   672.0000 </r>
       <r>     0.6053     0.0000   672.0000 </r>
       <r>     0.7137     0.0000   672.0000 </r>
       <r>     0.8220     0.0000   672.0000 </r>
       <r>     0.9303     0.0000   672.0000 </r>
       <r>     1.0387     0.0000   672.0000 </r>
       <r>     1.1470     0.0000   672.0000 </r>
       <r>     1.2554     0.0000   672.0000 </r>
       <r>     1.3637     0.0000   672.0000 </r>
      </set>
     </set>
    </array>
   </total>
  </dos>
 </calculation>
 <structure name="finalpos" >
  <crystal>
   <varray name="basis" >
    <v>      30.00000000       0.00000000       0.00000000 </v>
    <v>       0.00000000      30.00000000       0.00000000 </v>
    <v>       0.00000000       0.00000000      30.00000000 </v>
   </varray>
   <i name="volume">  27000.00000000 </i>
   <varray name="rec_basis" >
    <v>       0.03333333       0.00000000       0.00000000 </v>
    <v>       0.00000000       0.03333333       0.00000000 </v>
    <v>       0.00000000       0.00000000       0.03333333 </v>
   </varray>
  </crystal>
  <varray name="positions" >
   <v>       0.44576020       0.32826710       0.41691983 </v>
   <v>       0.67173288       0.55423978       0.41691983 </v>
   <v>       0.55423980       0.32826710       0.41691983 </v>
   <v>       0.32826712       0.55423978       0.41691983 </v>
   <v>       0.50000000       0.38250690       0.34021317 </v>
   <v>       0.50000000       0.38250690       0.65978680 </v>
   <v>       0.50000000       0.27609440       0.50000000 </v>
   <v>       0.27609443       0.49999998       0.50000000 </v>
   <v>       0.72390557       0.49999998       0.50000000 </v>
   <v>       0.50000000       0.72390555       0.50000000 </v>
   <v>       0.61195280       0.38804720       0.34167483 </v>
   <v>       0.61195280       0.38804720       0.65832513 </v>
   <v>       0.38804722       0.61195278       0.34167483 </v>
   <v>       0.38804722       0.61195278       0.65832513 </v>
   <v>       0.38804720       0.38804720       0.34167483 </v>
   <v>       0.38804720       0.38804720       0.65832513 </v>
   <v>       0.61195278       0.61195278       0.34167483 </v>
   <v>       0.61195278       0.61195278       0.65832513 </v>
   <v>       0.44576020       0.32826710       0.58308023 </v>
   <v>       0.67173288       0.55423978       0.58308023 </v>
   <v>       0.55791699       0.44208301       0.41809300 </v>
   <v>       0.32826705       0.44576024       0.41691983 </v>
   <v>       0.55423973       0.67173293       0.41691983 </v>
   <v>       0.55423980       0.32826710       0.58308023 </v>
   <v>       0.32826712       0.55423978       0.58308023 </v>
   <v>       0.67173295       0.44576024       0.41691983 </v>
   <v>       0.44576027       0.67173293       0.41691983 </v>
   <v>       0.44208301       0.44208301       0.41809300 </v>
   <v>       0.50000000       0.38416601       0.50000000 </v>
   <v>       0.61749315       0.50000005       0.34021317 </v>
   <v>       0.61749315       0.50000005       0.65978680 </v>
   <v>       0.38250685       0.50000005       0.34021317 </v>
   <v>       0.38250685       0.50000005       0.65978680 </v>
   <v>       0.38317830       0.38317830       0.50000000 </v>
   <v>       0.61682172       0.61682172       0.50000000 </v>
   <v>       0.61682170       0.38317830       0.50000000 </v>
   <v>       0.38317828       0.61682172       0.50000000 </v>
   <v>       0.50000000       0.50000000       0.33478917 </v>
   <v>       0.50000000       0.50000000       0.66521087 </v>
   <v>       0.32826705       0.44576024       0.58308023 </v>
   <v>       0.55423973       0.67173293       0.58308023 </v>
   <v>       0.55791699       0.44208301       0.58190703 </v>
   <v>       0.44208298       0.55791702       0.41809300 </v>
   <v>       0.44208301       0.44208301       0.58190703 </v>
   <v>       0.67173295       0.44576024       0.58308023 </v>
   <v>       0.44576027       0.67173293       0.58308023 </v>
   <v>       0.55791702       0.55791702       0.41809300 </v>
   <v>       0.38416599       0.50000002       0.50000000 </v>
   <v>       0.61583401       0.50000002       0.50000000 </v>
   <v>       0.50000000       0.61749319       0.34021317 </v>
   <v>       0.50000000       0.61749319       0.65978680 </v>
   <v>       0.50000000       0.50000000       0.50000000 </v>
   <v>       0.44208298       0.55791702       0.58190703 </v>
   <v>       0.55791702       0.55791702       0.58190703 </v>
   <v>       0.50000000       0.61583404       0.50000000 </v>
   <v>       0.62107847       0.50870850       0.74400197 </v>
   <v>       0.63778320       0.50991000       0.77766600 </v>
  </varray>
  <varray name="selective"  type="logical" >
   <v type="logical" >  F  F  F </v>
   <v type="logical" >  F  F  F </v>
   <v type="logical" >  F  F  F </v>
   <v type="logical" >  F  F  F </v>
   <v type="logical" >  F  F  F </v>
   <v type="logical" >  F  F  F </v>
   <v type="logical" >  F  F  F </v>
   <v type="logical" >  F  F  F </v>
   <v type="logical" >  F  F  F </v>
   <v type="logical" >  F  F  F </v>
   <v type="logical" >  F  F  F </v>
   <v type="logical" >  F  F  F </v>
   <v type="logical" >  F  F  F </v>
   <v type="logical" >  F  F  F </v>
   <v type="logical" >  F  F  F </v>
   <v type="logical" >  F  F  F </v>
   <v type="logical" >  F  F  F </v>
   <v type="logical" >  F  F  F </v>
   <v type="logical" >  F  F  F </v>
   <v type="logical" >  F  F  F </v>
   <v type="logical" >  F  F  F </v>
   <v type="logical" >  F  F  F </v>
   <v type="logical" >  F  F  F </v>
   <v type="logical" >  F  F  F </v>
   <v type="logical" >  F  F  F </v>
   <v type="logical" >  F  F  F </v>
   <v type="logical" >  F  F  F </v>
   <v type="logical" >  F  F  F </v>
   <v type="logical" >  F  F  F </v>
   <v type="logical" >  F  F  F </v>
   <v type="logical" >  F  F  F </v>
   <v type="logical" >  F  F  F </v>
   <v type="logical" >  F  F  F </v>
   <v type="logical" >  F  F  F </v>
   <v type="logical" >  F  F  F </v>
   <v type="logical" >  F  F  F </v>
   <v type="logical" >  F  F  F </v>
   <v type="logical" >  F  F  F </v>
   <v type="logical" >  F  F  F </v>
   <v type="logical" >  F  F  F </v>
   <v type="logical" >  F  F  F </v>
   <v type="logical" >  F  F  F </v>
   <v type="logical" >  F  F  F </v>
   <v type="logical" >  F  F  F </v>
   <v type="logical" >  F  F  F </v>
   <v type="logical" >  F  F  F </v>
   <v type="logical" >  F  F  F </v>
   <v type="logical" >  F  F  F </v>
   <v type="logical" >  F  F  F </v>
   <v type="logical" >  F  F  F </v>
   <v type="logical" >  F  F  F </v>
   <v type="logical" >  F  F  F </v>
   <v type="logical" >  F  F  F </v>
   <v type="logical" >  F  F  F </v>
   <v type="logical" >  F  F  F </v>
   <v type="logical" >  F  F  F </v>
   <v type="logical" >  F  F  F </v>
  </varray>
  <nose>
   <v>      -3.00000000       0.00000000       0.00010000       0.00010000 </v>
  </nose>
 </structure>
</modeling>
