 running on    1 total cores
 distrk:  each k-point on    1 cores,    1 groups
 distr:  one band on    1 cores,    1 groups
 using from now: INCAR     
 vasp.5.4.4.18Apr17-6-g9f103f2a35 (build Sep 03 2018 23:53:05) complex          
  
 POSCAR found type information on POSCAR  Pd C  O 
 POSCAR found :  3 types and      57 ions
 scaLAPACK will be used

 ----------------------------------------------------------------------------- 
|                                                                             |
|  ADVICE TO THIS USER RUNNING 'VASP/VAMP'   (HEAR YOUR MASTER'S VOICE ...):  |
|                                                                             |
|      You enforced a specific xc-type in the INCAR file,                     |
|      a different type was found on the POTCAR file                          |
|          I HOPE YOU KNOW, WHAT YOU ARE  DOING                               |
|                                                                             |
 ----------------------------------------------------------------------------- 

 LDA part: xc-table for Pade appr. of Perdew
 POSCAR, INCAR and KPOINTS ok, starting setup
 FFT: planning ...
 WAVECAR not read
 entering main loop
       N       E                     dE             d eps       ncg     rms          rms(c)
DAV:   1     0.438659813868E+04    0.43866E+04   -0.10050E+05   688   0.815E+02
DAV:   2     0.201159970947E+04   -0.23750E+04   -0.21368E+04  1224   0.105E+02
DAV:   3     0.233806669596E+03   -0.17778E+04   -0.16710E+04   992   0.919E+01
DAV:   4    -0.135706454836E+03   -0.36951E+03   -0.31427E+03   832   0.435E+01
DAV:   5    -0.179868760283E+03   -0.44162E+02   -0.37005E+02  1056   0.145E+01    0.148E+01
RMM:   6    -0.180033574934E+03   -0.16481E+00   -0.56275E+01   728   0.897E+00    0.233E+01
RMM:   7    -0.183340998574E+03   -0.33074E+01   -0.18131E+01   867   0.439E+00    0.238E+01
RMM:   8    -0.183728470956E+03   -0.38747E+00   -0.68590E+00   779   0.344E+00    0.233E+01
RMM:   9    -0.180645357418E+03    0.30831E+01   -0.53387E+00   723   0.338E+00    0.215E+01
RMM:  10    -0.179135731512E+03    0.15096E+01   -0.27613E+00   741   0.245E+00    0.212E+01
RMM:  11    -0.177903195014E+03    0.12325E+01   -0.19669E+00   727   0.201E+00    0.170E+01
RMM:  12    -0.177530056824E+03    0.37314E+00   -0.17438E+00   719   0.195E+00    0.165E+01
RMM:  13    -0.177470695660E+03    0.59361E-01   -0.10898E+00   729   0.155E+00    0.159E+01
RMM:  14    -0.178230209983E+03   -0.75951E+00   -0.13732E+00   722   0.174E+00    0.234E+01
RMM:  15    -0.176662345107E+03    0.15679E+01   -0.99641E-01   722   0.147E+00    0.162E+01
RMM:  16    -0.175936378647E+03    0.72597E+00   -0.89057E-01   714   0.142E+00    0.133E+01
RMM:  17    -0.175648896411E+03    0.28748E+00   -0.44420E-01   712   0.990E-01    0.103E+01
RMM:  18    -0.175781926522E+03   -0.13303E+00   -0.55977E-01   714   0.110E+00    0.121E+01
RMM:  19    -0.175709973614E+03    0.71953E-01   -0.39318E-01   708   0.954E-01    0.124E+01
RMM:  20    -0.175405017887E+03    0.30496E+00   -0.30620E-01   710   0.856E-01    0.807E+00
RMM:  21    -0.175273731482E+03    0.13129E+00   -0.19525E-01   699   0.690E-01    0.683E+00
RMM:  22    -0.175183209755E+03    0.90522E-01   -0.18207E-01   696   0.662E-01    0.784E+00
RMM:  23    -0.175074669163E+03    0.10854E+00   -0.15925E-01   696   0.623E-01    0.489E+00
RMM:  24    -0.175015371160E+03    0.59298E-01   -0.12744E-01   694   0.541E-01    0.419E+00
RMM:  25    -0.174961124123E+03    0.54247E-01   -0.73190E-02   695   0.421E-01    0.364E+00
RMM:  26    -0.174919822224E+03    0.41302E-01   -0.52801E-02   693   0.370E-01    0.258E+00
RMM:  27    -0.174932434893E+03   -0.12613E-01   -0.36528E-02   692   0.311E-01    0.333E+00
RMM:  28    -0.174894615909E+03    0.37819E-01   -0.27591E-02   692   0.282E-01    0.190E+00
RMM:  29    -0.174881066172E+03    0.13550E-01   -0.17627E-02   691   0.226E-01    0.148E+00
RMM:  30    -0.174877678434E+03    0.33877E-02   -0.13208E-02   691   0.183E-01    0.146E+00
RMM:  31    -0.174869329182E+03    0.83493E-02   -0.91365E-03   692   0.157E-01    0.976E-01
RMM:  32    -0.174867686842E+03    0.16423E-02   -0.51092E-03   693   0.119E-01    0.997E-01
RMM:  33    -0.174866047510E+03    0.16393E-02   -0.35995E-03   688   0.984E-02    0.843E-01
RMM:  34    -0.174865735260E+03    0.31225E-03   -0.25196E-03   688   0.839E-02    0.760E-01
RMM:  35    -0.174865500957E+03    0.23430E-03   -0.20248E-03   687   0.724E-02    0.579E-01
RMM:  36    -0.174865807691E+03   -0.30673E-03   -0.12321E-03   689   0.579E-02    0.481E-01
RMM:  37    -0.174866752831E+03   -0.94514E-03   -0.85532E-04   678   0.470E-02    0.425E-01
RMM:  38    -0.174868905211E+03   -0.21524E-02   -0.82703E-04   681   0.465E-02    0.342E-01
RMM:  39    -0.174870351735E+03   -0.14465E-02   -0.55401E-04   597   0.370E-02    0.285E-01
RMM:  40    -0.174874051817E+03   -0.37001E-02   -0.95663E-04   682   0.442E-02    0.286E-01
RMM:  41    -0.174876171985E+03   -0.21202E-02   -0.58924E-04   598   0.353E-02    0.219E-01
RMM:  42    -0.174878978854E+03   -0.28069E-02   -0.50672E-04   530   0.318E-02    0.208E-01
RMM:  43    -0.174880922211E+03   -0.19434E-02   -0.36099E-04   463   0.265E-02    0.166E-01
RMM:  44    -0.174882474767E+03   -0.15526E-02   -0.23098E-04   423   0.211E-02    0.135E-01
RMM:  45    -0.174884555842E+03   -0.20811E-02   -0.27545E-04   444   0.211E-02    0.930E-02
RMM:  46    -0.174885634904E+03   -0.10791E-02   -0.15073E-04   416   0.161E-02    0.952E-02
RMM:  47    -0.174887567567E+03   -0.19327E-02   -0.20661E-04   421   0.170E-02    0.802E-02
RMM:  48    -0.174888287630E+03   -0.72006E-03   -0.10723E-04   414   0.127E-02    0.491E-02
RMM:  49    -0.174889080454E+03   -0.79282E-03   -0.65879E-05   412   0.941E-03    0.508E-02
RMM:  50    -0.174889862820E+03   -0.78237E-03   -0.49071E-05   405   0.818E-03    0.277E-02
RMM:  51    -0.174890277061E+03   -0.41424E-03   -0.23884E-05   359   0.586E-03    0.258E-02
RMM:  52    -0.174891071952E+03   -0.79489E-03   -0.25236E-05   374   0.585E-03    0.225E-02
RMM:  53    -0.174891341868E+03   -0.26992E-03   -0.76594E-06   199   0.414E-03    0.165E-02
RMM:  54    -0.174891829652E+03   -0.48778E-03   -0.14811E-05   275   0.476E-03    0.189E-02
RMM:  55    -0.174892153531E+03   -0.32388E-03   -0.88772E-06   216   0.439E-03    0.895E-03
RMM:  56    -0.174892380837E+03   -0.22731E-03   -0.12281E-05   243   0.431E-03    0.141E-02
RMM:  57    -0.174892616342E+03   -0.23550E-03   -0.83080E-06   178   0.387E-03    0.846E-03
RMM:  58    -0.174892718343E+03   -0.10200E-03   -0.26146E-06   123   0.358E-03    0.657E-03
RMM:  59    -0.174892850542E+03   -0.13220E-03   -0.90762E-06   181   0.399E-03    0.679E-03
RMM:  60    -0.174892961628E+03   -0.11109E-03   -0.88771E-06   176   0.390E-03    0.418E-03
RMM:  61    -0.174892990096E+03   -0.28468E-04   -0.11889E-06    75   0.335E-03
   1 F= -.17489299E+03 E0= -.17486430E+03  d E =-.114773E+00
================================= SLURM INFO ===================================
Command: run-cluster -n 1 -m 10000 -j 0239_vasp --same-node /opt/VASP/vasp
Exit code: 0
Job name: 0239_vasp
Job time: 0 days 5h:9m:32s
MPI task count: 1
Working dir: /home/pashkov/pyFitIt/pyfitit/data/random_pd_co_new/sample/0239
Job was running on nodes: h5
Task per node: 1
       JobID     MaxRSS  MaxDiskRead MaxDiskWrite    Elapsed    JobName 
------------ ---------- ------------ ------------ ---------- ---------- 
105742                                              05:09:32  0239_vasp 
105742.batch                                        05:09:32      batch 
