<?xml version="1.0" encoding="ISO-8859-1"?>
<modeling>
 <generator>
  <i name="program" type="string">vasp </i>
  <i name="version" type="string">5.4.4.18Apr17-6-g9f103f2a35  </i>
  <i name="subversion" type="string">(build Sep 03 2018 23:53:05) complex            parallel </i>
  <i name="platform" type="string">LinuxIFC </i>
  <i name="date" type="string">2021 11 30 </i>
  <i name="time" type="string">22:29:44 </i>
 </generator>
 <incar>
  <i type="string" name="SYSTEM"> 6_Pd100_top_free_z(O)</i>
  <i type="int" name="ISTART">     0</i>
  <i type="string" name="PREC">normal   			! encut=max(enmax), ngx,y,z</i>
  <i type="string" name="ALGO"> Fast     			! Mix RMM-DIIS and Dav</i>
  <i type="logical" name="ADDGRID"> F  </i>
  <i type="int" name="ISPIN">     1</i>
  <i type="int" name="ICHARG">     2</i>
  <i type="int" name="NELM">   100</i>
  <i type="int" name="NELMIN">     6</i>
  <i type="int" name="IBRION">     2</i>
  <i name="EDIFF">      0.00010000</i>
  <i name="EDIFFG">     -0.05000000</i>
  <i type="int" name="NSW">     0</i>
  <i type="int" name="ISIF">     2</i>
  <i type="int" name="ISYM">     2</i>
  <i name="ENCUT">    400.00000000</i>
  <i type="string" name="LREAL"> Auto     			! Auto or A projection done</i>
  <i type="int" name="ISMEAR">     2</i>
  <i name="SIGMA">      0.20000000</i>
  <i type="logical" name="LWAVE"> F  </i>
  <i type="logical" name="LCHARG"> F  </i>
  <v type="int" name="KPOINT_BSE">    -1     0     0     0</v>
  <i type="int" name="MAXMEM"> 10000</i>
  <i type="int" name="NELM">   100</i>
  <i type="string" name="GGA"> RP         			! Revised PBE</i>
 </incar>
 <structure name="primitive_cell" >
  <crystal>
   <varray name="basis" >
    <v>      30.00000000       0.00000000       0.00000000 </v>
    <v>       0.00000000      30.00000000       0.00000000 </v>
    <v>       0.00000000       0.00000000      30.00000000 </v>
   </varray>
   <i name="volume">  27000.00000000 </i>
   <varray name="rec_basis" >
    <v>       0.03333333       0.00000000       0.00000000 </v>
    <v>       0.00000000       0.03333333       0.00000000 </v>
    <v>       0.00000000       0.00000000       0.03333333 </v>
   </varray>
  </crystal>
  <varray name="positions" >
   <v>       0.44576020       0.32826710       0.41691983 </v>
   <v>      -0.44576020       0.32826710       0.41691983 </v>
   <v>      -0.50000000       0.38250690       0.34021317 </v>
   <v>      -0.50000000       0.27609440      -0.50000000 </v>
   <v>       0.38804720       0.38804720       0.34167483 </v>
   <v>      -0.50000000       0.38416601      -0.50000000 </v>
   <v>       0.44208300       0.44208300       0.41809300 </v>
   <v>       0.38317830       0.38317830      -0.50000000 </v>
   <v>      -0.44208300       0.44208300       0.41809300 </v>
   <v>       0.44576020       0.32826710      -0.41691977 </v>
   <v>       0.32826705       0.44576024       0.41691983 </v>
   <v>      -0.38804720       0.38804720       0.34167483 </v>
   <v>      -0.38317830       0.38317830      -0.50000000 </v>
   <v>      -0.50000000      -0.50000000       0.33478917 </v>
   <v>      -0.50000000      -0.50000000      -0.50000000 </v>
   <v>      -0.44576020       0.32826710      -0.41691977 </v>
   <v>       0.38250685      -0.49999995       0.34021317 </v>
   <v>       0.44208300       0.44208300      -0.41809297 </v>
   <v>       0.38416599      -0.49999998      -0.50000000 </v>
   <v>      -0.44208300       0.44208300      -0.41809297 </v>
   <v>       0.44208298      -0.44208298       0.41809300 </v>
   <v>       0.32826705       0.44576024      -0.41691977 </v>
   <v>      -0.50000000       0.38250690      -0.34021320 </v>
   <v>       0.32826712      -0.44576022       0.41691983 </v>
   <v>      -0.38250685      -0.49999995       0.34021317 </v>
   <v>      -0.32826705       0.44576024       0.41691983 </v>
   <v>       0.27609443       0.49999998      -0.50000000 </v>
   <v>       0.38804720       0.38804720      -0.34167487 </v>
   <v>      -0.38416599      -0.49999998      -0.50000000 </v>
   <v>      -0.44208298      -0.44208298       0.41809300 </v>
   <v>       0.44208298      -0.44208298      -0.41809297 </v>
   <v>      -0.38804720       0.38804720      -0.34167487 </v>
   <v>       0.38804722      -0.38804722       0.34167483 </v>
   <v>       0.38250685      -0.49999995      -0.34021320 </v>
   <v>       0.32826712      -0.44576022      -0.41691977 </v>
   <v>      -0.32826705       0.44576024      -0.41691977 </v>
   <v>       0.50000000      -0.38250681       0.34021317 </v>
   <v>      -0.50000000      -0.38416596      -0.50000000 </v>
   <v>      -0.44208298      -0.44208298      -0.41809297 </v>
   <v>      -0.50000000      -0.50000000      -0.33478913 </v>
   <v>       0.38317828      -0.38317828      -0.50000000 </v>
   <v>      -0.32826712      -0.44576022       0.41691983 </v>
   <v>      -0.27609443       0.49999998      -0.50000000 </v>
   <v>      -0.38804722      -0.38804722       0.34167483 </v>
   <v>      -0.38250685      -0.49999995      -0.34021320 </v>
   <v>       0.44576027      -0.32826707       0.41691983 </v>
   <v>      -0.38317828      -0.38317828      -0.50000000 </v>
   <v>      -0.32826712      -0.44576022      -0.41691977 </v>
   <v>      -0.44576027      -0.32826707       0.41691983 </v>
   <v>       0.38804722      -0.38804722      -0.34167487 </v>
   <v>      -0.50000000      -0.38250681      -0.34021320 </v>
   <v>       0.44576027      -0.32826707      -0.41691977 </v>
   <v>       0.34360617      -0.40750893      -0.31250373 </v>
   <v>      -0.44576027      -0.32826707      -0.41691977 </v>
   <v>      -0.50000000      -0.27609445       0.50000000 </v>
   <v>      -0.38804722      -0.38804722      -0.34167487 </v>
   <v>       0.32108373      -0.39418920      -0.28550220 </v>
  </varray>
 </structure>
 <varray name="primitive_index" >
  <v type="int" >        1 </v>
  <v type="int" >        3 </v>
  <v type="int" >        5 </v>
  <v type="int" >        7 </v>
  <v type="int" >       15 </v>
  <v type="int" >       29 </v>
  <v type="int" >       28 </v>
  <v type="int" >       34 </v>
  <v type="int" >       21 </v>
  <v type="int" >       19 </v>
  <v type="int" >       22 </v>
  <v type="int" >       11 </v>
  <v type="int" >       36 </v>
  <v type="int" >       38 </v>
  <v type="int" >       52 </v>
  <v type="int" >       24 </v>
  <v type="int" >       32 </v>
  <v type="int" >       44 </v>
  <v type="int" >       48 </v>
  <v type="int" >       42 </v>
  <v type="int" >       43 </v>
  <v type="int" >       40 </v>
  <v type="int" >        6 </v>
  <v type="int" >        4 </v>
  <v type="int" >       30 </v>
  <v type="int" >       26 </v>
  <v type="int" >        8 </v>
  <v type="int" >       16 </v>
  <v type="int" >       49 </v>
  <v type="int" >       47 </v>
  <v type="int" >       53 </v>
  <v type="int" >       12 </v>
  <v type="int" >       13 </v>
  <v type="int" >       33 </v>
  <v type="int" >       25 </v>
  <v type="int" >       45 </v>
  <v type="int" >       50 </v>
  <v type="int" >       55 </v>
  <v type="int" >       54 </v>
  <v type="int" >       39 </v>
  <v type="int" >       37 </v>
  <v type="int" >        2 </v>
  <v type="int" >        9 </v>
  <v type="int" >       17 </v>
  <v type="int" >       31 </v>
  <v type="int" >       27 </v>
  <v type="int" >       35 </v>
  <v type="int" >       20 </v>
  <v type="int" >       23 </v>
  <v type="int" >       14 </v>
  <v type="int" >       51 </v>
  <v type="int" >       46 </v>
  <v type="int" >       56 </v>
  <v type="int" >       41 </v>
  <v type="int" >       10 </v>
  <v type="int" >       18 </v>
  <v type="int" >       57 </v>
 </varray>
 <kpoints>
  <generation param="Monkhorst-Pack">
   <v type="int" name="divisions">       1        1        1 </v>
   <v name="usershift">      0.00000000       0.00000000       0.00000000 </v>
   <v name="genvec1">      1.00000000       0.00000000       0.00000000 </v>
   <v name="genvec2">      0.00000000       1.00000000       0.00000000 </v>
   <v name="genvec3">      0.00000000       0.00000000       1.00000000 </v>
   <v name="shift">      0.00000000       0.00000000       0.00000000 </v>
  </generation>
  <varray name="kpointlist" >
   <v>       0.00000000       0.00000000       0.00000000 </v>
  </varray>
  <varray name="weights" >
   <v>       1.00000000 </v>
  </varray>
 </kpoints>
 <parameters>
  <separator name="general" >
   <i type="string" name="SYSTEM">6_Pd100_top_free_z(O)</i>
   <i type="logical" name="LCOMPAT"> F  </i>
  </separator>
  <separator name="electronic" >
   <i type="string" name="PREC">normal</i>
   <i name="ENMAX">    400.00000000</i>
   <i name="ENAUG">    644.87300000</i>
   <i name="EDIFF">      0.00010000</i>
   <i type="int" name="IALGO">    68</i>
   <i type="int" name="IWAVPR">    10</i>
   <i type="int" name="NBANDS">   336</i>
   <i name="NELECT">    560.00000000</i>
   <i type="int" name="TURBO">     0</i>
   <i type="int" name="IRESTART">     0</i>
   <i type="int" name="NREBOOT">     0</i>
   <i type="int" name="NMIN">     0</i>
   <i name="EREF">      0.00000000</i>
   <separator name="electronic smearing" >
    <i type="int" name="ISMEAR">     2</i>
    <i name="SIGMA">      0.20000000</i>
    <i name="KSPACING">      0.50000000</i>
    <i type="logical" name="KGAMMA"> T  </i>
   </separator>
   <separator name="electronic projectors" >
    <i type="logical" name="LREAL"> T  </i>
    <v name="ROPT">     -0.00050000     -0.00050000     -0.00050000</v>
    <i type="int" name="LMAXPAW">  -100</i>
    <i type="int" name="LMAXMIX">     2</i>
    <i type="logical" name="NLSPLINE"> F  </i>
   </separator>
   <separator name="electronic startup" >
    <i type="int" name="ISTART">     0</i>
    <i type="int" name="ICHARG">     2</i>
    <i type="int" name="INIWAV">     1</i>
   </separator>
   <separator name="electronic spin" >
    <i type="int" name="ISPIN">     1</i>
    <i type="logical" name="LNONCOLLINEAR"> F  </i>
    <v name="MAGMOM">      1.00000000      1.00000000      1.00000000      1.00000000      1.00000000      1.00000000      1.00000000      1.00000000      1.00000000      1.00000000      1.00000000      1.00000000      1.00000000      1.00000000      1.00000000      1.00000000      1.00000000      1.00000000      1.00000000      1.00000000
      1.00000000      1.00000000      1.00000000      1.00000000      1.00000000      1.00000000      1.00000000      1.00000000      1.00000000      1.00000000      1.00000000      1.00000000      1.00000000      1.00000000      1.00000000      1.00000000      1.00000000      1.00000000      1.00000000      1.00000000
      1.00000000      1.00000000      1.00000000      1.00000000      1.00000000      1.00000000      1.00000000      1.00000000      1.00000000      1.00000000      1.00000000      1.00000000      1.00000000      1.00000000      1.00000000      1.00000000      1.00000000</v>
    <i name="NUPDOWN">     -1.00000000</i>
    <i type="logical" name="LSORBIT"> F  </i>
    <v name="SAXIS">      0.00000000      0.00000000      1.00000000</v>
    <i type="logical" name="LSPIRAL"> F  </i>
    <v name="QSPIRAL">      0.00000000      0.00000000      0.00000000</v>
    <i type="logical" name="LZEROZ"> F  </i>
   </separator>
   <separator name="electronic exchange-correlation" >
    <i type="logical" name="LASPH"> F  </i>
    <i type="logical" name="LMETAGGA"> F  </i>
   </separator>
   <separator name="electronic convergence" >
    <i type="int" name="NELM">   100</i>
    <i type="int" name="NELMDL">    -5</i>
    <i type="int" name="NELMIN">     6</i>
    <i name="ENINI">    400.00000000</i>
    <separator name="electronic convergence detail" >
     <i type="logical" name="LDIAG"> T  </i>
     <i type="logical" name="LSUBROT"> F  </i>
     <i name="WEIMIN">      0.00000000</i>
     <i name="EBREAK">      0.00000007</i>
     <i name="DEPER">      0.30000000</i>
     <i type="int" name="NRMM">     4</i>
     <i name="TIME">      0.40000000</i>
    </separator>
   </separator>
   <separator name="electronic mixer" >
    <i name="AMIX">      0.40000000</i>
    <i name="BMIX">      1.00000000</i>
    <i name="AMIN">      0.10000000</i>
    <i name="AMIX_MAG">      1.60000000</i>
    <i name="BMIX_MAG">      1.00000000</i>
    <separator name="electronic mixer details" >
     <i type="int" name="IMIX">     4</i>
     <i type="logical" name="MIXFIRST"> F  </i>
     <i type="int" name="MAXMIX">   -45</i>
     <i name="WC">    100.00000000</i>
     <i type="int" name="INIMIX">     1</i>
     <i type="int" name="MIXPRE">     1</i>
     <i type="int" name="MREMOVE">     5</i>
    </separator>
   </separator>
   <separator name="electronic dipolcorrection" >
    <i type="logical" name="LDIPOL"> F  </i>
    <i type="logical" name="LMONO"> F  </i>
    <i type="int" name="IDIPOL">     0</i>
    <i name="EPSILON">      1.00000000</i>
    <v name="DIPOL">   -100.00000000   -100.00000000   -100.00000000</v>
    <i name="EFIELD">      0.00000000</i>
   </separator>
  </separator>
  <separator name="grids" >
   <i type="int" name="NGX">   150</i>
   <i type="int" name="NGY">   150</i>
   <i type="int" name="NGZ">   150</i>
   <i type="int" name="NGXF">   300</i>
   <i type="int" name="NGYF">   300</i>
   <i type="int" name="NGZF">   300</i>
   <i type="logical" name="ADDGRID"> F  </i>
  </separator>
  <separator name="ionic" >
   <i type="int" name="NSW">     0</i>
   <i type="int" name="IBRION">    -1</i>
   <i type="int" name="MDALGO">     0</i>
   <i type="int" name="ISIF">     2</i>
   <i name="PSTRESS">      0.00000000</i>
   <i name="EDIFFG">     -0.05000000</i>
   <i type="int" name="NFREE">     1</i>
   <i name="POTIM">      0.50000000</i>
   <i name="SMASS">     -3.00000000</i>
   <i name="SCALEE">      1.00000000</i>
  </separator>
  <separator name="ionic md" >
   <i name="TEBEG">      0.00010000</i>
   <i name="TEEND">      0.00010000</i>
   <i type="int" name="NBLOCK">     1</i>
   <i type="int" name="KBLOCK">     1</i>
   <i type="int" name="NPACO">   256</i>
   <i name="APACO">     16.00000000</i>
  </separator>
  <separator name="symmetry" >
   <i type="int" name="ISYM">     2</i>
   <i name="SYMPREC">      0.00001000</i>
  </separator>
  <separator name="dos" >
   <i type="int" name="LORBIT">     0</i>
   <v name="RWIGS">     -1.00000000     -1.00000000     -1.00000000</v>
   <i type="int" name="NEDOS">   301</i>
   <i name="EMIN">     10.00000000</i>
   <i name="EMAX">    -10.00000000</i>
   <i name="EFERMI">      0.00000000</i>
  </separator>
  <separator name="writing" >
   <i type="int" name="NWRITE">     2</i>
   <i type="logical" name="LWAVE"> F  </i>
   <i type="logical" name="LDOWNSAMPLE"> F  </i>
   <i type="logical" name="LCHARG"> F  </i>
   <i type="logical" name="LPARD"> F  </i>
   <i type="logical" name="LVTOT"> F  </i>
   <i type="logical" name="LVHAR"> F  </i>
   <i type="logical" name="LELF"> F  </i>
   <i type="logical" name="LOPTICS"> F  </i>
   <v name="STM">      0.00000000      0.00000000      0.00000000      0.00000000      0.00000000      0.00000000      0.00000000</v>
  </separator>
  <separator name="performance" >
   <i type="int" name="NPAR">     1</i>
   <i type="int" name="NSIM">     4</i>
   <i type="int" name="NBLK">    -1</i>
   <i type="logical" name="LPLANE"> T  </i>
   <i type="logical" name="LSCALAPACK"> T  </i>
   <i type="logical" name="LSCAAWARE"> F  </i>
   <i type="logical" name="LSCALU"> F  </i>
   <i type="logical" name="LASYNC"> F  </i>
   <i type="logical" name="LORBITALREAL"> F  </i>
  </separator>
  <separator name="miscellaneous" >
   <i type="int" name="IDIOT">     3</i>
   <i type="int" name="ISPECIAL">     0</i>
   <i type="logical" name="LMUSIC"> F  </i>
   <v name="POMASS">    106.42000000     12.01100000     16.00000000</v>
   <v name="DARWINR">      0.00000000      0.00000000      0.00000000</v>
   <v name="DARWINV">      1.00000000      1.00000000      1.00000000</v>
   <i type="logical" name="LCORR"> T  </i>
  </separator>
  <i type="logical" name="GGA_COMPAT"> T  </i>
  <i type="logical" name="LBERRY"> F  </i>
  <i type="int" name="ICORELEVEL">     0</i>
  <i type="logical" name="LDAU"> F  </i>
  <i type="int" name="I_CONSTRAINED_M">     0</i>
  <separator name="electronic exchange-correlation" >
   <i type="string" name="GGA">RP</i>
   <i type="int" name="VOSKOWN">     0</i>
   <i type="logical" name="LHFCALC"> F  </i>
   <i type="string" name="PRECFOCK"></i>
   <i type="logical" name="LSYMGRAD"> F  </i>
   <i type="logical" name="LHFONE"> F  </i>
   <i type="logical" name="LRHFCALC"> F  </i>
   <i type="logical" name="LTHOMAS"> F  </i>
   <i type="logical" name="LMODELHF"> F  </i>
   <i name="ENCUT4O">     -1.00000000</i>
   <i type="int" name="EXXOEP">     0</i>
   <i type="int" name="FOURORBIT">     0</i>
   <i name="AEXX">      0.00000000</i>
   <i name="HFALPHA">      0.00000000</i>
   <i name="MCALPHA">      0.00000000</i>
   <i name="ALDAX">      1.00000000</i>
   <i name="AGGAX">      1.00000000</i>
   <i name="ALDAC">      1.00000000</i>
   <i name="AGGAC">      1.00000000</i>
   <i type="int" name="NKREDX">     1</i>
   <i type="int" name="NKREDY">     1</i>
   <i type="int" name="NKREDZ">     1</i>
   <i type="logical" name="SHIFTRED"> F  </i>
   <i type="logical" name="ODDONLY"> F  </i>
   <i type="logical" name="EVENONLY"> F  </i>
   <i type="int" name="LMAXFOCK">     0</i>
   <i type="int" name="NMAXFOCKAE">     0</i>
   <i type="logical" name="LFOCKAEDFT"> F  </i>
   <i name="HFSCREEN">      0.00000000</i>
   <i name="HFSCREENC">      0.00000000</i>
   <i type="int" name="NBANDSGWLOW">     0</i>
  </separator>
  <separator name="vdW DFT" >
   <i type="logical" name="LUSE_VDW"> F  </i>
   <i name="Zab_VDW">     -0.84910000</i>
   <i name="PARAM1">      0.12340000</i>
   <i name="PARAM2">      1.00000000</i>
   <i name="PARAM3">      0.00000000</i>
  </separator>
  <separator name="model GW" >
   <i type="int" name="MODEL_GW">     0</i>
   <i name="MODEL_EPS0">    284.21052632</i>
   <i name="MODEL_ALPHA">      1.00000000</i>
  </separator>
  <separator name="linear response parameters" >
   <i type="logical" name="LEPSILON"> F  </i>
   <i type="logical" name="LRPA"> F  </i>
   <i type="logical" name="LNABLA"> F  </i>
   <i type="logical" name="LVEL"> F  </i>
   <i type="int" name="KINTER">     0</i>
   <i name="CSHIFT">      0.10000000</i>
   <i name="OMEGAMAX">     -1.00000000</i>
   <i name="DEG_THRESHOLD">      0.00200000</i>
   <i name="RTIME">     -0.10000000</i>
   <i name="WPLASMAI">      0.00000000</i>
   <v name="DFIELD">      0.00000000      0.00000000      0.00000000</v>
   <v name="WPLASMA">      0.00000000      0.00000000      0.00000000      0.00000000      0.00000000      0.00000000      0.00000000      0.00000000      0.00000000</v>
  </separator>
  <separator name="orbital magnetization" >
   <i type="logical" name="NUCIND"> F  </i>
   <v name="MAGPOS">      0.00000000      0.00000000      0.00000000</v>
   <i type="logical" name="LNICSALL"> T  </i>
   <i type="logical" name="ORBITALMAG"> F  </i>
   <i type="logical" name="LMAGBLOCH"> F  </i>
   <i type="logical" name="LCHIMAG"> F  </i>
   <i type="logical" name="LGAUGE"> T  </i>
   <i type="int" name="MAGATOM">     0</i>
   <v name="MAGDIPOL">      0.00000000      0.00000000      0.00000000</v>
   <v name="AVECCONST">      0.00000000      0.00000000      0.00000000</v>
  </separator>
  <separator name="response functions" >
   <i type="logical" name="LADDER"> F  </i>
   <i type="logical" name="LRPAFORCE"> F  </i>
   <i type="logical" name="LFXC"> F  </i>
   <i type="logical" name="LHARTREE"> T  </i>
   <i type="int" name="IBSE">     0</i>
   <v type="int" name="KPOINT">    -1     0     0     0</v>
   <i type="logical" name="LTCTE"> F  </i>
   <i type="logical" name="LTETE"> F  </i>
   <i type="logical" name="LTRIPLET"> F  </i>
   <i type="logical" name="LFXCEPS"> F  </i>
   <i type="logical" name="LFXHEG"> F  </i>
   <i type="int" name="NATURALO">     2</i>
   <i type="logical" name="L2ORDER"> F  </i>
   <i type="logical" name="LMP2LT"> F  </i>
   <i type="logical" name="LUSEW"> F  </i>
   <i name="ENCUTGW">     -2.00000000</i>
   <i name="ENCUTGWSOFT">     -2.00000000</i>
   <i name="ENCUTLF">     -1.00000000</i>
   <i type="int" name="LMAXMP2">    -1</i>
   <i name="SCISSOR">      0.00000000</i>
   <i type="int" name="NOMEGA">     0</i>
   <i type="int" name="NOMEGAR">     0</i>
   <i type="int" name="NBANDSGW">    -1</i>
   <i type="int" name="NBANDSO">    -1</i>
   <i type="int" name="NBANDSV">    -1</i>
   <i type="int" name="NELM">   100</i>
   <i type="int" name="NELMHF">     1</i>
   <i type="int" name="DIM">     3</i>
   <i type="int" name="ANTIRES">     0</i>
   <i name="OMEGAMAX">    -30.00000000</i>
   <i name="OMEGAMIN">    -30.00000000</i>
   <i name="OMEGATL">   -200.00000000</i>
   <i type="int" name="OMEGAGRID">   140</i>
   <i name="CSHIFT">     -0.10000000</i>
   <i type="logical" name="SELFENERGY"> F  </i>
   <i type="logical" name="LSPECTRAL"> F  </i>
   <i type="logical" name="LSPECTRALGW"> F  </i>
   <i type="logical" name="LSINGLES"> F  </i>
   <i type="logical" name="LFERMIGW"> F  </i>
   <i type="logical" name="ODDONLYGW"> F  </i>
   <i type="logical" name="EVENONLYGW"> F  </i>
   <i type="int" name="NKREDLFX">     1</i>
   <i type="int" name="NKREDLFY">     1</i>
   <i type="int" name="NKREDLFZ">     1</i>
   <i type="int" name="MAXMEM"> 10000</i>
   <i type="int" name="TELESCOPE">     0</i>
   <i type="int" name="TAUPAR">     1</i>
   <i type="int" name="OMEGAPAR">    -1</i>
   <i name="LAMBDA">      1.00000000</i>
  </separator>
  <separator name="External order field" >
   <i name="OFIELD_KAPPA">      0.00000000</i>
   <v name="OFIELD_K">      0.00000000      0.00000000      0.00000000</v>
   <i name="OFIELD_Q6_NEAR">      0.00000000</i>
   <i name="OFIELD_Q6_FAR">      0.00000000</i>
   <i name="OFIELD_A">      0.00000000</i>
  </separator>
 </parameters>
 <atominfo>
  <atoms>      57 </atoms>
  <types>       3 </types>
  <array name="atoms" >
   <dimension dim="1">ion</dimension>
   <field type="string">element</field>
   <field type="int">atomtype</field>
   <set>
    <rc><c>Pd</c><c>   1</c></rc>
    <rc><c>Pd</c><c>   1</c></rc>
    <rc><c>Pd</c><c>   1</c></rc>
    <rc><c>Pd</c><c>   1</c></rc>
    <rc><c>Pd</c><c>   1</c></rc>
    <rc><c>Pd</c><c>   1</c></rc>
    <rc><c>Pd</c><c>   1</c></rc>
    <rc><c>Pd</c><c>   1</c></rc>
    <rc><c>Pd</c><c>   1</c></rc>
    <rc><c>Pd</c><c>   1</c></rc>
    <rc><c>Pd</c><c>   1</c></rc>
    <rc><c>Pd</c><c>   1</c></rc>
    <rc><c>Pd</c><c>   1</c></rc>
    <rc><c>Pd</c><c>   1</c></rc>
    <rc><c>Pd</c><c>   1</c></rc>
    <rc><c>Pd</c><c>   1</c></rc>
    <rc><c>Pd</c><c>   1</c></rc>
    <rc><c>Pd</c><c>   1</c></rc>
    <rc><c>Pd</c><c>   1</c></rc>
    <rc><c>Pd</c><c>   1</c></rc>
    <rc><c>Pd</c><c>   1</c></rc>
    <rc><c>Pd</c><c>   1</c></rc>
    <rc><c>Pd</c><c>   1</c></rc>
    <rc><c>Pd</c><c>   1</c></rc>
    <rc><c>Pd</c><c>   1</c></rc>
    <rc><c>Pd</c><c>   1</c></rc>
    <rc><c>Pd</c><c>   1</c></rc>
    <rc><c>Pd</c><c>   1</c></rc>
    <rc><c>Pd</c><c>   1</c></rc>
    <rc><c>Pd</c><c>   1</c></rc>
    <rc><c>Pd</c><c>   1</c></rc>
    <rc><c>Pd</c><c>   1</c></rc>
    <rc><c>Pd</c><c>   1</c></rc>
    <rc><c>Pd</c><c>   1</c></rc>
    <rc><c>Pd</c><c>   1</c></rc>
    <rc><c>Pd</c><c>   1</c></rc>
    <rc><c>Pd</c><c>   1</c></rc>
    <rc><c>Pd</c><c>   1</c></rc>
    <rc><c>Pd</c><c>   1</c></rc>
    <rc><c>Pd</c><c>   1</c></rc>
    <rc><c>Pd</c><c>   1</c></rc>
    <rc><c>Pd</c><c>   1</c></rc>
    <rc><c>Pd</c><c>   1</c></rc>
    <rc><c>Pd</c><c>   1</c></rc>
    <rc><c>Pd</c><c>   1</c></rc>
    <rc><c>Pd</c><c>   1</c></rc>
    <rc><c>Pd</c><c>   1</c></rc>
    <rc><c>Pd</c><c>   1</c></rc>
    <rc><c>Pd</c><c>   1</c></rc>
    <rc><c>Pd</c><c>   1</c></rc>
    <rc><c>Pd</c><c>   1</c></rc>
    <rc><c>Pd</c><c>   1</c></rc>
    <rc><c>Pd</c><c>   1</c></rc>
    <rc><c>Pd</c><c>   1</c></rc>
    <rc><c>Pd</c><c>   1</c></rc>
    <rc><c>C </c><c>   2</c></rc>
    <rc><c>O </c><c>   3</c></rc>
   </set>
  </array>
  <array name="atomtypes" >
   <dimension dim="1">type</dimension>
   <field type="int">atomspertype</field>
   <field type="string">element</field>
   <field>mass</field>
   <field>valence</field>
   <field type="string">pseudopotential</field>
   <set>
    <rc><c>  55</c><c>Pd</c><c>    106.42000000</c><c>     10.00000000</c><c>  PAW_PBE Pd 04Jan2005                  </c></rc>
    <rc><c>   1</c><c>C </c><c>     12.01100000</c><c>      4.00000000</c><c>  PAW_PBE C 08Apr2002                   </c></rc>
    <rc><c>   1</c><c>O </c><c>     16.00000000</c><c>      6.00000000</c><c>  PAW_PBE O 08Apr2002                   </c></rc>
   </set>
  </array>
 </atominfo>
 <structure name="initialpos" >
  <crystal>
   <varray name="basis" >
    <v>      30.00000000       0.00000000       0.00000000 </v>
    <v>       0.00000000      30.00000000       0.00000000 </v>
    <v>       0.00000000       0.00000000      30.00000000 </v>
   </varray>
   <i name="volume">  27000.00000000 </i>
   <varray name="rec_basis" >
    <v>       0.03333333       0.00000000       0.00000000 </v>
    <v>       0.00000000       0.03333333       0.00000000 </v>
    <v>       0.00000000       0.00000000       0.03333333 </v>
   </varray>
  </crystal>
  <varray name="positions" >
   <v>       0.44576020       0.32826710       0.41691983 </v>
   <v>       0.67173288       0.55423978       0.41691983 </v>
   <v>       0.55423980       0.32826710       0.41691983 </v>
   <v>       0.32826712       0.55423978       0.41691983 </v>
   <v>       0.50000000       0.38250690       0.34021317 </v>
   <v>       0.50000000       0.38250690       0.65978680 </v>
   <v>       0.50000000       0.27609440       0.50000000 </v>
   <v>       0.27609443       0.49999998       0.50000000 </v>
   <v>       0.72390557       0.49999998       0.50000000 </v>
   <v>       0.50000000       0.72390555       0.50000000 </v>
   <v>       0.61195280       0.38804720       0.34167483 </v>
   <v>       0.61195280       0.38804720       0.65832513 </v>
   <v>       0.38804722       0.61195278       0.34167483 </v>
   <v>       0.38804722       0.61195278       0.65832513 </v>
   <v>       0.38804720       0.38804720       0.34167483 </v>
   <v>       0.38804720       0.38804720       0.65832513 </v>
   <v>       0.61195278       0.61195278       0.34167483 </v>
   <v>       0.61195278       0.61195278       0.65832513 </v>
   <v>       0.44576020       0.32826710       0.58308023 </v>
   <v>       0.67173288       0.55423978       0.58308023 </v>
   <v>       0.55791699       0.44208301       0.41809300 </v>
   <v>       0.32826705       0.44576024       0.41691983 </v>
   <v>       0.55423973       0.67173293       0.41691983 </v>
   <v>       0.55423980       0.32826710       0.58308023 </v>
   <v>       0.32826712       0.55423978       0.58308023 </v>
   <v>       0.67173295       0.44576024       0.41691983 </v>
   <v>       0.44576027       0.67173293       0.41691983 </v>
   <v>       0.44208301       0.44208301       0.41809300 </v>
   <v>       0.50000000       0.38416601       0.50000000 </v>
   <v>       0.61749315       0.50000005       0.34021317 </v>
   <v>       0.61749315       0.50000005       0.65978680 </v>
   <v>       0.38250685       0.50000005       0.34021317 </v>
   <v>       0.38250685       0.50000005       0.65978680 </v>
   <v>       0.38317830       0.38317830       0.50000000 </v>
   <v>       0.61682172       0.61682172       0.50000000 </v>
   <v>       0.61682170       0.38317830       0.50000000 </v>
   <v>       0.38317828       0.61682172       0.50000000 </v>
   <v>       0.50000000       0.50000000       0.33478917 </v>
   <v>       0.50000000       0.50000000       0.66521087 </v>
   <v>       0.32826705       0.44576024       0.58308023 </v>
   <v>       0.55423973       0.67173293       0.58308023 </v>
   <v>       0.55791699       0.44208301       0.58190703 </v>
   <v>       0.44208298       0.55791702       0.41809300 </v>
   <v>       0.44208301       0.44208301       0.58190703 </v>
   <v>       0.67173295       0.44576024       0.58308023 </v>
   <v>       0.44576027       0.67173293       0.58308023 </v>
   <v>       0.55791702       0.55791702       0.41809300 </v>
   <v>       0.38416599       0.50000002       0.50000000 </v>
   <v>       0.61583401       0.50000002       0.50000000 </v>
   <v>       0.50000000       0.61749319       0.34021317 </v>
   <v>       0.50000000       0.61749319       0.65978680 </v>
   <v>       0.50000000       0.50000000       0.50000000 </v>
   <v>       0.44208298       0.55791702       0.58190703 </v>
   <v>       0.55791702       0.55791702       0.58190703 </v>
   <v>       0.50000000       0.61583404       0.50000000 </v>
   <v>       0.34360617       0.59249107       0.68749627 </v>
   <v>       0.32108373       0.60581080       0.71449780 </v>
  </varray>
  <varray name="selective"  type="logical" >
   <v type="logical" >  F  F  F </v>
   <v type="logical" >  F  F  F </v>
   <v type="logical" >  F  F  F </v>
   <v type="logical" >  F  F  F </v>
   <v type="logical" >  F  F  F </v>
   <v type="logical" >  F  F  F </v>
   <v type="logical" >  F  F  F </v>
   <v type="logical" >  F  F  F </v>
   <v type="logical" >  F  F  F </v>
   <v type="logical" >  F  F  F </v>
   <v type="logical" >  F  F  F </v>
   <v type="logical" >  F  F  F </v>
   <v type="logical" >  F  F  F </v>
   <v type="logical" >  F  F  F </v>
   <v type="logical" >  F  F  F </v>
   <v type="logical" >  F  F  F </v>
   <v type="logical" >  F  F  F </v>
   <v type="logical" >  F  F  F </v>
   <v type="logical" >  F  F  F </v>
   <v type="logical" >  F  F  F </v>
   <v type="logical" >  F  F  F </v>
   <v type="logical" >  F  F  F </v>
   <v type="logical" >  F  F  F </v>
   <v type="logical" >  F  F  F </v>
   <v type="logical" >  F  F  F </v>
   <v type="logical" >  F  F  F </v>
   <v type="logical" >  F  F  F </v>
   <v type="logical" >  F  F  F </v>
   <v type="logical" >  F  F  F </v>
   <v type="logical" >  F  F  F </v>
   <v type="logical" >  F  F  F </v>
   <v type="logical" >  F  F  F </v>
   <v type="logical" >  F  F  F </v>
   <v type="logical" >  F  F  F </v>
   <v type="logical" >  F  F  F </v>
   <v type="logical" >  F  F  F </v>
   <v type="logical" >  F  F  F </v>
   <v type="logical" >  F  F  F </v>
   <v type="logical" >  F  F  F </v>
   <v type="logical" >  F  F  F </v>
   <v type="logical" >  F  F  F </v>
   <v type="logical" >  F  F  F </v>
   <v type="logical" >  F  F  F </v>
   <v type="logical" >  F  F  F </v>
   <v type="logical" >  F  F  F </v>
   <v type="logical" >  F  F  F </v>
   <v type="logical" >  F  F  F </v>
   <v type="logical" >  F  F  F </v>
   <v type="logical" >  F  F  F </v>
   <v type="logical" >  F  F  F </v>
   <v type="logical" >  F  F  F </v>
   <v type="logical" >  F  F  F </v>
   <v type="logical" >  F  F  F </v>
   <v type="logical" >  F  F  F </v>
   <v type="logical" >  F  F  F </v>
   <v type="logical" >  F  F  F </v>
   <v type="logical" >  F  F  F </v>
  </varray>
  <nose>
   <v>      -3.00000000       0.00000000       0.00010000       0.00010000 </v>
  </nose>
 </structure>
 <calculation>
  <scstep>
   <time name="dav">  521.78  522.10</time>
   <time name="total">  542.03  542.36</time>
   <energy>
    <i name="alphaZ">     75.25431677 </i>
    <i name="ewald"> 137981.94703477 </i>
    <i name="hartreedc">-181334.21146854 </i>
    <i name="XCdc">  -1702.46696432 </i>
    <i name="pawpsdc">  44873.02882129 </i>
    <i name="pawaedc"> -41398.84523641 </i>
    <i name="eentropy">      0.03283727 </i>
    <i name="bandstr">    813.55749573 </i>
    <i name="atom">  45086.50549395 </i>
    <i name="e_fr_energy">   4394.80233051 </i>
    <i name="e_wo_entrp">   4394.76949324 </i>
    <i name="e_0_energy">   4394.79412120 </i>
   </energy>
  </scstep>
  <scstep>
   <time name="dav">  826.91  826.90</time>
   <time name="total">  826.91  826.90</time>
   <energy>
    <i name="e_fr_energy">   2010.42451000 </i>
    <i name="e_wo_entrp">   2010.44890716 </i>
    <i name="e_0_energy">   2010.43060929 </i>
   </energy>
  </scstep>
  <scstep>
   <time name="dav">  688.38  688.37</time>
   <time name="total">  688.38  688.37</time>
   <energy>
    <i name="e_fr_energy">    235.94814271 </i>
    <i name="e_wo_entrp">    235.92171034 </i>
    <i name="e_0_energy">    235.94153462 </i>
   </energy>
  </scstep>
  <scstep>
   <time name="dav">  613.92  613.91</time>
   <time name="total">  613.92  613.91</time>
   <energy>
    <i name="e_fr_energy">   -135.44648967 </i>
    <i name="e_wo_entrp">   -135.34765187 </i>
    <i name="e_0_energy">   -135.42178022 </i>
   </energy>
  </scstep>
  <scstep>
   <time name="dav">  730.13  730.12</time>
   <time name="total">  765.05  765.04</time>
   <energy>
    <i name="e_fr_energy">   -180.29189028 </i>
    <i name="e_wo_entrp">   -180.80688428 </i>
    <i name="e_0_energy">   -180.42063878 </i>
   </energy>
  </scstep>
  <scstep>
   <time name="diag">   98.43   98.43</time>
   <time name="diis">  255.92  255.91</time>
   <time name="orth">   20.88   20.88</time>
   <time name="total">  429.55  429.55</time>
   <energy>
    <i name="e_fr_energy">   -178.74477778 </i>
    <i name="e_wo_entrp">   -178.57215296 </i>
    <i name="e_0_energy">   -178.70162158 </i>
   </energy>
  </scstep>
  <scstep>
   <time name="diag">   98.49   98.49</time>
   <time name="diis">  290.23  290.23</time>
   <time name="orth">   21.00   21.00</time>
   <time name="total">  464.10  464.09</time>
   <energy>
    <i name="e_fr_energy">   -183.19349421 </i>
    <i name="e_wo_entrp">   -183.03815435 </i>
    <i name="e_0_energy">   -183.15465925 </i>
   </energy>
  </scstep>
  <scstep>
   <time name="diag">   98.97   98.97</time>
   <time name="diis">  263.27  263.27</time>
   <time name="orth">   19.09   19.09</time>
   <time name="total">  431.29  431.29</time>
   <energy>
    <i name="e_fr_energy">   -187.99556066 </i>
    <i name="e_wo_entrp">   -188.02920633 </i>
    <i name="e_0_energy">   -188.00397207 </i>
   </energy>
  </scstep>
  <scstep>
   <time name="diag">   88.79   88.79</time>
   <time name="diis">  238.98  238.98</time>
   <time name="orth">   19.03   19.03</time>
   <time name="total">  394.61  394.61</time>
   <energy>
    <i name="e_fr_energy">   -184.45073710 </i>
    <i name="e_wo_entrp">   -184.36146798 </i>
    <i name="e_0_energy">   -184.42841982 </i>
   </energy>
  </scstep>
  <scstep>
   <time name="diag">   88.85   88.85</time>
   <time name="diis">  228.49  228.49</time>
   <time name="orth">   19.15   19.15</time>
   <time name="total">  384.04  384.03</time>
   <energy>
    <i name="e_fr_energy">   -182.30788875 </i>
    <i name="e_wo_entrp">   -182.20759769 </i>
    <i name="e_0_energy">   -182.28281598 </i>
   </energy>
  </scstep>
  <scstep>
   <time name="diag">   88.50   88.50</time>
   <time name="diis">  229.37  229.37</time>
   <time name="orth">   19.05   19.05</time>
   <time name="total">  384.36  384.36</time>
   <energy>
    <i name="e_fr_energy">   -180.07413582 </i>
    <i name="e_wo_entrp">   -179.95989802 </i>
    <i name="e_0_energy">   -180.04557637 </i>
   </energy>
  </scstep>
  <scstep>
   <time name="diag">   88.43   88.43</time>
   <time name="diis">  226.23  226.22</time>
   <time name="orth">   18.96   18.96</time>
   <time name="total">  381.18  381.34</time>
   <energy>
    <i name="e_fr_energy">   -178.27842542 </i>
    <i name="e_wo_entrp">   -178.21846396 </i>
    <i name="e_0_energy">   -178.26343505 </i>
   </energy>
  </scstep>
  <scstep>
   <time name="diag">   88.61   88.61</time>
   <time name="diis">  224.02  224.02</time>
   <time name="orth">   19.01   19.01</time>
   <time name="total">  379.22  379.22</time>
   <energy>
    <i name="e_fr_energy">   -176.93232050 </i>
    <i name="e_wo_entrp">   -176.86222679 </i>
    <i name="e_0_energy">   -176.91479708 </i>
   </energy>
  </scstep>
  <scstep>
   <time name="diag">   88.27   88.27</time>
   <time name="diis">  224.13  224.12</time>
   <time name="orth">   18.96   18.95</time>
   <time name="total">  378.91  378.91</time>
   <energy>
    <i name="e_fr_energy">   -177.14557469 </i>
    <i name="e_wo_entrp">   -177.12523490 </i>
    <i name="e_0_energy">   -177.14048974 </i>
   </energy>
  </scstep>
  <scstep>
   <time name="diag">   88.34   88.34</time>
   <time name="diis">  225.31  225.30</time>
   <time name="orth">   19.04   19.04</time>
   <time name="total">  380.49  380.49</time>
   <energy>
    <i name="e_fr_energy">   -177.01302222 </i>
    <i name="e_wo_entrp">   -176.99659242 </i>
    <i name="e_0_energy">   -177.00891477 </i>
   </energy>
  </scstep>
  <scstep>
   <time name="diag">   88.35   88.34</time>
   <time name="diis">  225.77  225.77</time>
   <time name="orth">   18.98   18.98</time>
   <time name="total">  380.80  380.80</time>
   <energy>
    <i name="e_fr_energy">   -176.88588020 </i>
    <i name="e_wo_entrp">   -176.92661392 </i>
    <i name="e_0_energy">   -176.89606363 </i>
   </energy>
  </scstep>
  <scstep>
   <time name="diag">   88.31   88.31</time>
   <time name="diis">  220.60  220.59</time>
   <time name="orth">   19.12   19.12</time>
   <time name="total">  376.15  376.15</time>
   <energy>
    <i name="e_fr_energy">   -175.65846938 </i>
    <i name="e_wo_entrp">   -175.59600401 </i>
    <i name="e_0_energy">   -175.64285304 </i>
   </energy>
  </scstep>
  <scstep>
   <time name="diag">   88.31   88.31</time>
   <time name="diis">  219.12  219.11</time>
   <time name="orth">   19.21   19.21</time>
   <time name="total">  374.55  374.54</time>
   <energy>
    <i name="e_fr_energy">   -175.06085903 </i>
    <i name="e_wo_entrp">   -175.03109947 </i>
    <i name="e_0_energy">   -175.05341914 </i>
   </energy>
  </scstep>
  <scstep>
   <time name="diag">   88.03   88.03</time>
   <time name="diis">  222.05  222.05</time>
   <time name="orth">   19.00   19.00</time>
   <time name="total">  377.12  377.22</time>
   <energy>
    <i name="e_fr_energy">   -175.13424332 </i>
    <i name="e_wo_entrp">   -175.17958835 </i>
    <i name="e_0_energy">   -175.14557958 </i>
   </energy>
  </scstep>
  <scstep>
   <time name="diag">   88.03   88.03</time>
   <time name="diis">  219.43  219.43</time>
   <time name="orth">   19.04   19.04</time>
   <time name="total">  374.61  374.61</time>
   <energy>
    <i name="e_fr_energy">   -175.12577734 </i>
    <i name="e_wo_entrp">   -175.11306262 </i>
    <i name="e_0_energy">   -175.12259866 </i>
   </energy>
  </scstep>
  <scstep>
   <time name="diag">   88.38   88.38</time>
   <time name="diis">  217.72  217.71</time>
   <time name="orth">   18.98   18.98</time>
   <time name="total">  373.27  373.27</time>
   <energy>
    <i name="e_fr_energy">   -174.86548541 </i>
    <i name="e_wo_entrp">   -174.84069915 </i>
    <i name="e_0_energy">   -174.85928884 </i>
   </energy>
  </scstep>
  <scstep>
   <time name="diag">   88.97   88.97</time>
   <time name="diis">  223.48  223.47</time>
   <time name="orth">   19.40   19.40</time>
   <time name="total">  381.23  381.33</time>
   <energy>
    <i name="e_fr_energy">   -174.71624796 </i>
    <i name="e_wo_entrp">   -174.64702235 </i>
    <i name="e_0_energy">   -174.69894156 </i>
   </energy>
  </scstep>
  <scstep>
   <time name="diag">   90.44   90.44</time>
   <time name="diis">  226.08  226.08</time>
   <time name="orth">   19.43   19.43</time>
   <time name="total">  386.11  386.11</time>
   <energy>
    <i name="e_fr_energy">   -174.78379555 </i>
    <i name="e_wo_entrp">   -174.71423976 </i>
    <i name="e_0_energy">   -174.76640660 </i>
   </energy>
  </scstep>
  <scstep>
   <time name="diag">   90.64   90.64</time>
   <time name="diis">  226.46  226.45</time>
   <time name="orth">   19.37   19.37</time>
   <time name="total">  386.67  386.67</time>
   <energy>
    <i name="e_fr_energy">   -174.75815221 </i>
    <i name="e_wo_entrp">   -174.71178069 </i>
    <i name="e_0_energy">   -174.74655933 </i>
   </energy>
  </scstep>
  <scstep>
   <time name="diag">   90.56   90.56</time>
   <time name="diis">  226.21  226.21</time>
   <time name="orth">   19.47   19.47</time>
   <time name="total">  386.74  386.74</time>
   <energy>
    <i name="e_fr_energy">   -174.67112949 </i>
    <i name="e_wo_entrp">   -174.59251059 </i>
    <i name="e_0_energy">   -174.65147477 </i>
   </energy>
  </scstep>
  <scstep>
   <time name="diag">   90.49   90.49</time>
   <time name="diis">  225.77  225.77</time>
   <time name="orth">   19.38   19.38</time>
   <time name="total">  385.98  385.98</time>
   <energy>
    <i name="e_fr_energy">   -174.67007128 </i>
    <i name="e_wo_entrp">   -174.60510210 </i>
    <i name="e_0_energy">   -174.65382898 </i>
   </energy>
  </scstep>
  <scstep>
   <time name="diag">   90.44   90.44</time>
   <time name="diis">  226.00  226.00</time>
   <time name="orth">   19.36   19.36</time>
   <time name="total">  386.58  386.58</time>
   <energy>
    <i name="e_fr_energy">   -174.58920932 </i>
    <i name="e_wo_entrp">   -174.51503146 </i>
    <i name="e_0_energy">   -174.57066485 </i>
   </energy>
  </scstep>
  <scstep>
   <time name="diag">   91.83   91.83</time>
   <time name="diis">  236.17  236.17</time>
   <time name="orth">   20.57   20.57</time>
   <time name="total">  401.43  401.43</time>
   <energy>
    <i name="e_fr_energy">   -174.56767392 </i>
    <i name="e_wo_entrp">   -174.49999701 </i>
    <i name="e_0_energy">   -174.55075469 </i>
   </energy>
  </scstep>
  <scstep>
   <time name="diag">   95.16   95.16</time>
   <time name="diis">  236.22  236.21</time>
   <time name="orth">   20.77   20.77</time>
   <time name="total">  405.74  405.74</time>
   <energy>
    <i name="e_fr_energy">   -174.56091949 </i>
    <i name="e_wo_entrp">   -174.48682467 </i>
    <i name="e_0_energy">   -174.54239578 </i>
   </energy>
  </scstep>
  <scstep>
   <time name="diag">   95.23   95.23</time>
   <time name="diis">  238.04  238.03</time>
   <time name="orth">   20.38   20.38</time>
   <time name="total">  407.31  407.30</time>
   <energy>
    <i name="e_fr_energy">   -174.54151480 </i>
    <i name="e_wo_entrp">   -174.46632500 </i>
    <i name="e_0_energy">   -174.52271735 </i>
   </energy>
  </scstep>
  <scstep>
   <time name="diag">   95.18   95.18</time>
   <time name="diis">  236.08  236.08</time>
   <time name="orth">   20.33   20.33</time>
   <time name="total">  405.68  405.68</time>
   <energy>
    <i name="e_fr_energy">   -174.53439295 </i>
    <i name="e_wo_entrp">   -174.45471038 </i>
    <i name="e_0_energy">   -174.51447231 </i>
   </energy>
  </scstep>
  <scstep>
   <time name="diag">   95.20   95.21</time>
   <time name="diis">  237.09  237.09</time>
   <time name="orth">   20.35   20.35</time>
   <time name="total">  407.04  407.04</time>
   <energy>
    <i name="e_fr_energy">   -174.52883968 </i>
    <i name="e_wo_entrp">   -174.44743842 </i>
    <i name="e_0_energy">   -174.50848936 </i>
   </energy>
  </scstep>
  <scstep>
   <time name="diag">   99.71   99.70</time>
   <time name="diis">  246.28  246.28</time>
   <time name="orth">   20.45   20.45</time>
   <time name="total">  421.58  421.66</time>
   <energy>
    <i name="e_fr_energy">   -174.52523119 </i>
    <i name="e_wo_entrp">   -174.44012470 </i>
    <i name="e_0_energy">   -174.50395457 </i>
   </energy>
  </scstep>
  <scstep>
   <time name="diag">   99.62   99.63</time>
   <time name="diis">  248.86  248.86</time>
   <time name="orth">   21.37   21.37</time>
   <time name="total">  427.06  427.07</time>
   <energy>
    <i name="e_fr_energy">   -174.52501474 </i>
    <i name="e_wo_entrp">   -174.44488272 </i>
    <i name="e_0_energy">   -174.50498173 </i>
   </energy>
  </scstep>
  <scstep>
   <time name="diag">   99.36   99.36</time>
   <time name="diis">  243.72  243.72</time>
   <time name="orth">   20.80   20.80</time>
   <time name="total">  420.93  420.93</time>
   <energy>
    <i name="e_fr_energy">   -174.52425995 </i>
    <i name="e_wo_entrp">   -174.44696065 </i>
    <i name="e_0_energy">   -174.50493512 </i>
   </energy>
  </scstep>
  <scstep>
   <time name="diag">   99.57   99.57</time>
   <time name="diis">  247.53  247.53</time>
   <time name="orth">   21.30   21.30</time>
   <time name="total">  425.69  425.69</time>
   <energy>
    <i name="e_fr_energy">   -174.52545138 </i>
    <i name="e_wo_entrp">   -174.44759721 </i>
    <i name="e_0_energy">   -174.50598784 </i>
   </energy>
  </scstep>
  <scstep>
   <time name="diag">   99.82   99.82</time>
   <time name="diis">  245.67  245.68</time>
   <time name="orth">   21.38   21.38</time>
   <time name="total">  424.28  424.29</time>
   <energy>
    <i name="e_fr_energy">   -174.52699052 </i>
    <i name="e_wo_entrp">   -174.44570375 </i>
    <i name="e_0_energy">   -174.50666883 </i>
   </energy>
  </scstep>
  <scstep>
   <time name="diag">   99.12   99.12</time>
   <time name="diis">  240.40  240.40</time>
   <time name="orth">   21.25   21.25</time>
   <time name="total">  418.05  418.05</time>
   <energy>
    <i name="e_fr_energy">   -174.52807506 </i>
    <i name="e_wo_entrp">   -174.44518144 </i>
    <i name="e_0_energy">   -174.50735166 </i>
   </energy>
  </scstep>
  <scstep>
   <time name="diag">   99.55   99.55</time>
   <time name="diis">  244.67  244.67</time>
   <time name="orth">   21.37   21.37</time>
   <time name="total">  423.46  423.51</time>
   <energy>
    <i name="e_fr_energy">   -174.53198481 </i>
    <i name="e_wo_entrp">   -174.45056891 </i>
    <i name="e_0_energy">   -174.51163084 </i>
   </energy>
  </scstep>
  <scstep>
   <time name="diag">   99.42   99.42</time>
   <time name="diis">  232.30  232.30</time>
   <time name="orth">   21.83   21.83</time>
   <time name="total">  411.54  411.55</time>
   <energy>
    <i name="e_fr_energy">   -174.53442511 </i>
    <i name="e_wo_entrp">   -174.45365426 </i>
    <i name="e_0_energy">   -174.51423240 </i>
   </energy>
  </scstep>
  <scstep>
   <time name="diag">   98.92   98.92</time>
   <time name="diis">  215.46  215.46</time>
   <time name="orth">   21.60   21.60</time>
   <time name="total">  394.43  394.43</time>
   <energy>
    <i name="e_fr_energy">   -174.53756330 </i>
    <i name="e_wo_entrp">   -174.45574989 </i>
    <i name="e_0_energy">   -174.51710994 </i>
   </energy>
  </scstep>
  <scstep>
   <time name="diag">   99.15   99.15</time>
   <time name="diis">  205.29  205.29</time>
   <time name="orth">   19.77   19.77</time>
   <time name="total">  381.57  381.57</time>
   <energy>
    <i name="e_fr_energy">   -174.54045117 </i>
    <i name="e_wo_entrp">   -174.45806130 </i>
    <i name="e_0_energy">   -174.51985370 </i>
   </energy>
  </scstep>
  <scstep>
   <time name="diag">   96.20   96.20</time>
   <time name="diis">  169.97  169.97</time>
   <time name="orth">   21.52   21.52</time>
   <time name="total">  346.38  346.38</time>
   <energy>
    <i name="e_fr_energy">   -174.54193054 </i>
    <i name="e_wo_entrp">   -174.46036791 </i>
    <i name="e_0_energy">   -174.52153988 </i>
   </energy>
  </scstep>
  <scstep>
   <time name="diag">   99.90   99.90</time>
   <time name="diis">  160.96  160.96</time>
   <time name="orth">   21.18   21.18</time>
   <time name="total">  341.25  341.25</time>
   <energy>
    <i name="e_fr_energy">   -174.54363924 </i>
    <i name="e_wo_entrp">   -174.46186669 </i>
    <i name="e_0_energy">   -174.52319610 </i>
   </energy>
  </scstep>
  <scstep>
   <time name="diag">  100.14  100.14</time>
   <time name="diis">  159.47  159.47</time>
   <time name="orth">   21.54   21.54</time>
   <time name="total">  339.91  339.91</time>
   <energy>
    <i name="e_fr_energy">   -174.54506937 </i>
    <i name="e_wo_entrp">   -174.46315849 </i>
    <i name="e_0_energy">   -174.52459165 </i>
   </energy>
  </scstep>
  <scstep>
   <time name="diag">   97.82   97.82</time>
   <time name="diis">  163.23  163.23</time>
   <time name="orth">   21.13   21.13</time>
   <time name="total">  342.25  342.25</time>
   <energy>
    <i name="e_fr_energy">   -174.54713638 </i>
    <i name="e_wo_entrp">   -174.46577675 </i>
    <i name="e_0_energy">   -174.52679647 </i>
   </energy>
  </scstep>
  <scstep>
   <time name="diag">   99.61   99.61</time>
   <time name="diis">  163.46  163.46</time>
   <time name="orth">   20.67   20.67</time>
   <time name="total">  344.31  344.31</time>
   <energy>
    <i name="e_fr_energy">   -174.54776617 </i>
    <i name="e_wo_entrp">   -174.46637189 </i>
    <i name="e_0_energy">   -174.52741760 </i>
   </energy>
  </scstep>
  <scstep>
   <time name="diag">   99.42   99.42</time>
   <time name="diis">  157.79  157.79</time>
   <time name="orth">   21.10   21.10</time>
   <time name="total">  337.80  337.80</time>
   <energy>
    <i name="e_fr_energy">   -174.54901869 </i>
    <i name="e_wo_entrp">   -174.46772525 </i>
    <i name="e_0_energy">   -174.52869533 </i>
   </energy>
  </scstep>
  <scstep>
   <time name="diag">   99.01   99.01</time>
   <time name="diis">  161.78  161.78</time>
   <time name="orth">   21.47   21.47</time>
   <time name="total">  342.85  342.85</time>
   <energy>
    <i name="e_fr_energy">   -174.54951097 </i>
    <i name="e_wo_entrp">   -174.46843798 </i>
    <i name="e_0_energy">   -174.52924272 </i>
   </energy>
  </scstep>
  <scstep>
   <time name="diag">  100.18  100.18</time>
   <time name="diis">  156.17  156.17</time>
   <time name="orth">   21.73   21.73</time>
   <time name="total">  337.65  337.65</time>
   <energy>
    <i name="e_fr_energy">   -174.55021190 </i>
    <i name="e_wo_entrp">   -174.46884187 </i>
    <i name="e_0_energy">   -174.52986939 </i>
   </energy>
  </scstep>
  <scstep>
   <time name="diag">   99.77   99.77</time>
   <time name="diis">  155.95  155.95</time>
   <time name="orth">   21.76   21.76</time>
   <time name="total">  337.18  337.18</time>
   <energy>
    <i name="e_fr_energy">   -174.55118017 </i>
    <i name="e_wo_entrp">   -174.46989077 </i>
    <i name="e_0_energy">   -174.53085782 </i>
   </energy>
  </scstep>
  <scstep>
   <time name="diag">  100.19  100.19</time>
   <time name="diis">  131.33  131.32</time>
   <time name="orth">   20.70   20.70</time>
   <time name="total">  312.98  312.98</time>
   <energy>
    <i name="e_fr_energy">   -174.55145643 </i>
    <i name="e_wo_entrp">   -174.47011233 </i>
    <i name="e_0_energy">   -174.53112040 </i>
   </energy>
  </scstep>
  <scstep>
   <time name="diag">   99.61   99.61</time>
   <time name="diis">  146.27  146.27</time>
   <time name="orth">   21.71   21.71</time>
   <time name="total">  327.56  327.56</time>
   <energy>
    <i name="e_fr_energy">   -174.55217353 </i>
    <i name="e_wo_entrp">   -174.47099743 </i>
    <i name="e_0_energy">   -174.53187951 </i>
   </energy>
  </scstep>
  <scstep>
   <time name="diag">   98.84   98.84</time>
   <time name="diis">  117.97  117.97</time>
   <time name="orth">   21.00   21.00</time>
   <time name="total">  298.96  298.96</time>
   <energy>
    <i name="e_fr_energy">   -174.55243403 </i>
    <i name="e_wo_entrp">   -174.47113369 </i>
    <i name="e_0_energy">   -174.53210894 </i>
   </energy>
  </scstep>
  <scstep>
   <time name="diag">  100.20  100.20</time>
   <time name="diis">  136.29  136.28</time>
   <time name="orth">   23.07   23.07</time>
   <time name="total">  318.57  318.57</time>
   <energy>
    <i name="e_fr_energy">   -174.55281970 </i>
    <i name="e_wo_entrp">   -174.47150977 </i>
    <i name="e_0_energy">   -174.53249222 </i>
   </energy>
  </scstep>
  <scstep>
   <time name="diag">   90.99   90.99</time>
   <time name="diis">  111.56  111.56</time>
   <time name="orth">   19.39   19.39</time>
   <time name="total">  278.40  278.40</time>
   <energy>
    <i name="e_fr_energy">   -174.55308519 </i>
    <i name="e_wo_entrp">   -174.47178293 </i>
    <i name="e_0_energy">   -174.53275963 </i>
   </energy>
  </scstep>
  <scstep>
   <time name="diag">   92.39   92.39</time>
   <time name="diis">  100.98  100.98</time>
   <time name="orth">   18.89   18.89</time>
   <time name="total">  264.32  264.37</time>
   <energy>
    <i name="e_fr_energy">   -174.55323230 </i>
    <i name="e_wo_entrp">   -174.47195600 </i>
    <i name="e_0_energy">   -174.53291323 </i>
   </energy>
  </scstep>
  <scstep>
   <time name="diag">   86.97   86.97</time>
   <time name="diis">  102.86  102.86</time>
   <time name="orth">   18.57   18.57</time>
   <time name="total">  259.49  259.49</time>
   <energy>
    <i name="e_fr_energy">   -174.55340168 </i>
    <i name="e_wo_entrp">   -174.47207644 </i>
    <i name="e_0_energy">   -174.53307037 </i>
   </energy>
  </scstep>
  <scstep>
   <time name="diag">   84.99   84.99</time>
   <time name="diis">   90.47   90.47</time>
   <time name="orth">   18.06   18.06</time>
   <time name="total">  210.45  210.45</time>
   <energy>
    <i name="alphaZ">     75.25431677 </i>
    <i name="ewald"> 137981.94703477 </i>
    <i name="hartreedc">-182321.70207987 </i>
    <i name="XCdc">  -1691.71925706 </i>
    <i name="pawpsdc">  46332.27522833 </i>
    <i name="pawaedc"> -42804.22320454 </i>
    <i name="eentropy">     -0.08131906 </i>
    <i name="bandstr">  -2832.80967202 </i>
    <i name="atom">  45086.50549395 </i>
    <i name="e_fr_energy">   -174.55345873 </i>
    <i name="e_wo_entrp">   -174.47213968 </i>
    <i name="e_0_energy">   -174.53312897 </i>
   </energy>
  </scstep>
  <structure>
   <crystal>
    <varray name="basis" >
     <v>      30.00000000       0.00000000       0.00000000 </v>
     <v>       0.00000000      30.00000000       0.00000000 </v>
     <v>       0.00000000       0.00000000      30.00000000 </v>
    </varray>
    <i name="volume">  27000.00000000 </i>
    <varray name="rec_basis" >
     <v>       0.03333333       0.00000000       0.00000000 </v>
     <v>       0.00000000       0.03333333       0.00000000 </v>
     <v>       0.00000000       0.00000000       0.03333333 </v>
    </varray>
   </crystal>
   <varray name="positions" >
    <v>       0.44576020       0.32826710       0.41691983 </v>
    <v>       0.67173288       0.55423978       0.41691983 </v>
    <v>       0.55423980       0.32826710       0.41691983 </v>
    <v>       0.32826712       0.55423978       0.41691983 </v>
    <v>       0.50000000       0.38250690       0.34021317 </v>
    <v>       0.50000000       0.38250690       0.65978680 </v>
    <v>       0.50000000       0.27609440       0.50000000 </v>
    <v>       0.27609443       0.49999998       0.50000000 </v>
    <v>       0.72390557       0.49999998       0.50000000 </v>
    <v>       0.50000000       0.72390555       0.50000000 </v>
    <v>       0.61195280       0.38804720       0.34167483 </v>
    <v>       0.61195280       0.38804720       0.65832513 </v>
    <v>       0.38804722       0.61195278       0.34167483 </v>
    <v>       0.38804722       0.61195278       0.65832513 </v>
    <v>       0.38804720       0.38804720       0.34167483 </v>
    <v>       0.38804720       0.38804720       0.65832513 </v>
    <v>       0.61195278       0.61195278       0.34167483 </v>
    <v>       0.61195278       0.61195278       0.65832513 </v>
    <v>       0.44576020       0.32826710       0.58308023 </v>
    <v>       0.67173288       0.55423978       0.58308023 </v>
    <v>       0.55791699       0.44208301       0.41809300 </v>
    <v>       0.32826705       0.44576024       0.41691983 </v>
    <v>       0.55423973       0.67173293       0.41691983 </v>
    <v>       0.55423980       0.32826710       0.58308023 </v>
    <v>       0.32826712       0.55423978       0.58308023 </v>
    <v>       0.67173295       0.44576024       0.41691983 </v>
    <v>       0.44576027       0.67173293       0.41691983 </v>
    <v>       0.44208301       0.44208301       0.41809300 </v>
    <v>       0.50000000       0.38416601       0.50000000 </v>
    <v>       0.61749315       0.50000005       0.34021317 </v>
    <v>       0.61749315       0.50000005       0.65978680 </v>
    <v>       0.38250685       0.50000005       0.34021317 </v>
    <v>       0.38250685       0.50000005       0.65978680 </v>
    <v>       0.38317830       0.38317830       0.50000000 </v>
    <v>       0.61682172       0.61682172       0.50000000 </v>
    <v>       0.61682170       0.38317830       0.50000000 </v>
    <v>       0.38317828       0.61682172       0.50000000 </v>
    <v>       0.50000000       0.50000000       0.33478917 </v>
    <v>       0.50000000       0.50000000       0.66521087 </v>
    <v>       0.32826705       0.44576024       0.58308023 </v>
    <v>       0.55423973       0.67173293       0.58308023 </v>
    <v>       0.55791699       0.44208301       0.58190703 </v>
    <v>       0.44208298       0.55791702       0.41809300 </v>
    <v>       0.44208301       0.44208301       0.58190703 </v>
    <v>       0.67173295       0.44576024       0.58308023 </v>
    <v>       0.44576027       0.67173293       0.58308023 </v>
    <v>       0.55791702       0.55791702       0.41809300 </v>
    <v>       0.38416599       0.50000002       0.50000000 </v>
    <v>       0.61583401       0.50000002       0.50000000 </v>
    <v>       0.50000000       0.61749319       0.34021317 </v>
    <v>       0.50000000       0.61749319       0.65978680 </v>
    <v>       0.50000000       0.50000000       0.50000000 </v>
    <v>       0.44208298       0.55791702       0.58190703 </v>
    <v>       0.55791702       0.55791702       0.58190703 </v>
    <v>       0.50000000       0.61583404       0.50000000 </v>
    <v>       0.34360617       0.59249107       0.68749627 </v>
    <v>       0.32108373       0.60581080       0.71449780 </v>
   </varray>
  </structure>
  <varray name="forces" >
   <v>       0.70968259       1.10066806       0.28287802 </v>
   <v>      -1.10430272      -0.70396992       0.28907725 </v>
   <v>      -0.71126274       1.10241794       0.30633827 </v>
   <v>       1.10841423      -0.70582795       0.29047564 </v>
   <v>      -0.01641734       0.41649928       1.28231808 </v>
   <v>      -0.00068280       0.41269010      -1.28318731 </v>
   <v>       0.00163533       1.51763442      -0.00326426 </v>
   <v>       1.52936259       0.02672725       0.02423894 </v>
   <v>      -1.51588999       0.00040324       0.00295146 </v>
   <v>       0.01600969      -1.50135454      -0.03557631 </v>
   <v>      -0.75562518       0.75329695       1.07099598 </v>
   <v>      -0.75480532       0.75852936      -1.07435059 </v>
   <v>       0.75983112      -0.75601149       1.07291901 </v>
   <v>       4.64914537       0.48941340      -3.90401816 </v>
   <v>       0.75841654       0.75502663       1.07194579 </v>
   <v>       0.75994557       0.79056735      -1.06768741 </v>
   <v>      -0.75802931      -0.75383671       1.07289650 </v>
   <v>      -0.72719998      -0.75970358      -1.07391930 </v>
   <v>       0.69996506       1.11025512      -0.29259532 </v>
   <v>      -1.10579674      -0.71497465      -0.29048810 </v>
   <v>       0.11625063      -0.10497296      -0.15642186 </v>
   <v>       1.10838774       0.70075172       0.29225307 </v>
   <v>      -0.70955069      -1.11052549       0.28277662 </v>
   <v>      -0.69968068       1.10907744      -0.29237257 </v>
   <v>       0.99030918      -0.76609189      -0.30211000 </v>
   <v>      -1.10531098       0.70820034       0.29614612 </v>
   <v>       0.70821579      -1.10946151       0.28727215 </v>
   <v>      -0.10302152      -0.11806326      -0.16833194 </v>
   <v>       0.01062705      -0.23989839      -0.01324477 </v>
   <v>      -0.41217205       0.00701267       1.28253700 </v>
   <v>      -0.40848818      -0.00307886      -1.28503067 </v>
   <v>       0.41619468       0.00158787       1.27917780 </v>
   <v>       0.24826241       0.05505108      -1.17220573 </v>
   <v>       0.81898258       0.83940132       0.01522825 </v>
   <v>      -0.82390749      -0.83660063      -0.00718992 </v>
   <v>      -0.82708753       0.82762009       0.00189606 </v>
   <v>       0.83942361      -0.82292704      -0.02338833 </v>
   <v>      -0.00107386       0.00121192       1.17641027 </v>
   <v>       0.03270555      -0.01631040      -1.18171492 </v>
   <v>       1.12389050       0.67681440      -0.32020592 </v>
   <v>      -0.73866736      -1.10977641      -0.25706756 </v>
   <v>       0.10945939      -0.10751353       0.16109824 </v>
   <v>      -0.11314229       0.11576508      -0.15256591 </v>
   <v>      -0.10342431      -0.11393535       0.14642522 </v>
   <v>      -1.10905980       0.70541508      -0.28735300 </v>
   <v>       0.78398945      -1.07388911      -0.27721656 </v>
   <v>       0.10811836       0.10796789      -0.15868000 </v>
   <v>      -0.22132970      -0.00470968      -0.00353257 </v>
   <v>       0.22753063      -0.00690224      -0.00063925 </v>
   <v>      -0.00267065      -0.40903709       1.28301845 </v>
   <v>       0.08858018      -0.34327773      -1.32765591 </v>
   <v>      -0.00017587      -0.00946607      -0.00578797 </v>
   <v>       0.02218076       0.07931560       0.03079078 </v>
   <v>       0.10371562       0.11164798       0.15224151 </v>
   <v>      -0.00434104       0.21967988       0.00642297 </v>
   <v>       0.32678325      -2.54511872      -1.52076069 </v>
   <v>      -4.34289936       1.24658571       4.47783336 </v>
  </varray>
  <varray name="stress" >
   <v>      -6.20904515       0.05765246      -0.43976284 </v>
   <v>       0.05765247      -6.68289200       0.00031272 </v>
   <v>      -0.43976285       0.00031271      -6.35888406 </v>
  </varray>
  <energy>
   <i name="e_fr_energy">   -174.55345873 </i>
   <i name="e_wo_entrp">   -174.53312897 </i>
   <i name="e_0_energy">     -0.08131906 </i>
  </energy>
  <time name="totalsc">23934.0723934.87</time>
  <eigenvalues>
   <array>
    <dimension dim="1">band</dimension>
    <dimension dim="2">kpoint</dimension>
    <dimension dim="3">spin</dimension>
    <field>eigene</field>
    <field>occ</field>
    <set>
     <set comment="spin 1">
      <set comment="kpoint 1">
       <r>  -28.1455    1.0000 </r>
       <r>  -13.5444    1.0000 </r>
       <r>  -11.3489    1.0000 </r>
       <r>  -10.8684    1.0000 </r>
       <r>  -10.5527    1.0000 </r>
       <r>   -6.7351    1.0000 </r>
       <r>   -6.6964    1.0000 </r>
       <r>   -6.6719    1.0000 </r>
       <r>   -6.2213    1.0000 </r>
       <r>   -6.1499    1.0000 </r>
       <r>   -6.1494    1.0000 </r>
       <r>   -5.9683    1.0000 </r>
       <r>   -5.8699    1.0000 </r>
       <r>   -5.8355    1.0000 </r>
       <r>   -5.8144    1.0000 </r>
       <r>   -5.7913    1.0000 </r>
       <r>   -5.7573    1.0000 </r>
       <r>   -5.7190    1.0000 </r>
       <r>   -5.7144    1.0000 </r>
       <r>   -5.7061    1.0000 </r>
       <r>   -5.6784    1.0000 </r>
       <r>   -5.6559    1.0000 </r>
       <r>   -5.6401    1.0000 </r>
       <r>   -5.6323    1.0000 </r>
       <r>   -5.6203    1.0000 </r>
       <r>   -5.6164    1.0000 </r>
       <r>   -5.6002    1.0000 </r>
       <r>   -5.5855    1.0000 </r>
       <r>   -5.5695    1.0000 </r>
       <r>   -5.5688    1.0000 </r>
       <r>   -5.5675    1.0000 </r>
       <r>   -5.5425    1.0000 </r>
       <r>   -5.5398    1.0000 </r>
       <r>   -5.5387    1.0000 </r>
       <r>   -5.5361    1.0000 </r>
       <r>   -5.5351    1.0000 </r>
       <r>   -5.5280    1.0000 </r>
       <r>   -5.5207    1.0000 </r>
       <r>   -5.5141    1.0000 </r>
       <r>   -5.4986    1.0000 </r>
       <r>   -5.4964    1.0000 </r>
       <r>   -5.4919    1.0000 </r>
       <r>   -5.4910    1.0000 </r>
       <r>   -5.4891    1.0000 </r>
       <r>   -5.4808    1.0000 </r>
       <r>   -5.4754    1.0000 </r>
       <r>   -5.4592    1.0000 </r>
       <r>   -5.4540    1.0000 </r>
       <r>   -5.4478    1.0000 </r>
       <r>   -5.4464    1.0000 </r>
       <r>   -5.4444    1.0000 </r>
       <r>   -5.4400    1.0000 </r>
       <r>   -5.4336    1.0000 </r>
       <r>   -5.4302    1.0000 </r>
       <r>   -5.4272    1.0000 </r>
       <r>   -5.4250    1.0000 </r>
       <r>   -5.4206    1.0000 </r>
       <r>   -5.4066    1.0000 </r>
       <r>   -5.3969    1.0000 </r>
       <r>   -5.3504    1.0000 </r>
       <r>   -5.3485    1.0000 </r>
       <r>   -5.3471    1.0000 </r>
       <r>   -5.3405    1.0000 </r>
       <r>   -5.3371    1.0000 </r>
       <r>   -5.3257    1.0000 </r>
       <r>   -5.3218    1.0000 </r>
       <r>   -5.3207    1.0000 </r>
       <r>   -5.3083    1.0000 </r>
       <r>   -5.3069    1.0000 </r>
       <r>   -5.2977    1.0000 </r>
       <r>   -5.2708    1.0000 </r>
       <r>   -5.2310    1.0000 </r>
       <r>   -5.2292    1.0000 </r>
       <r>   -5.2255    1.0000 </r>
       <r>   -5.2208    1.0000 </r>
       <r>   -5.2036    1.0000 </r>
       <r>   -5.2019    1.0000 </r>
       <r>   -5.1990    1.0000 </r>
       <r>   -5.1946    1.0000 </r>
       <r>   -5.1876    1.0000 </r>
       <r>   -5.1835    1.0000 </r>
       <r>   -5.1805    1.0000 </r>
       <r>   -5.1771    1.0000 </r>
       <r>   -5.1659    1.0000 </r>
       <r>   -5.1489    1.0000 </r>
       <r>   -5.1437    1.0000 </r>
       <r>   -5.1361    1.0000 </r>
       <r>   -5.1339    1.0000 </r>
       <r>   -5.1247    1.0000 </r>
       <r>   -5.1036    1.0000 </r>
       <r>   -5.0960    1.0000 </r>
       <r>   -5.0804    1.0000 </r>
       <r>   -5.0787    1.0000 </r>
       <r>   -5.0779    1.0000 </r>
       <r>   -5.0737    1.0000 </r>
       <r>   -5.0662    1.0000 </r>
       <r>   -5.0635    1.0000 </r>
       <r>   -5.0583    1.0000 </r>
       <r>   -5.0549    1.0000 </r>
       <r>   -5.0513    1.0000 </r>
       <r>   -5.0440    1.0000 </r>
       <r>   -5.0412    1.0000 </r>
       <r>   -5.0409    1.0000 </r>
       <r>   -5.0339    1.0000 </r>
       <r>   -5.0320    1.0000 </r>
       <r>   -5.0170    1.0000 </r>
       <r>   -5.0129    1.0000 </r>
       <r>   -5.0103    1.0000 </r>
       <r>   -5.0067    1.0000 </r>
       <r>   -5.0008    1.0000 </r>
       <r>   -4.9985    1.0000 </r>
       <r>   -4.9916    1.0000 </r>
       <r>   -4.9911    1.0000 </r>
       <r>   -4.9886    1.0000 </r>
       <r>   -4.9841    1.0000 </r>
       <r>   -4.9792    1.0000 </r>
       <r>   -4.9771    1.0000 </r>
       <r>   -4.9693    1.0000 </r>
       <r>   -4.9657    1.0000 </r>
       <r>   -4.9627    1.0000 </r>
       <r>   -4.9449    1.0000 </r>
       <r>   -4.9383    1.0000 </r>
       <r>   -4.9372    1.0000 </r>
       <r>   -4.9241    1.0000 </r>
       <r>   -4.9230    1.0000 </r>
       <r>   -4.9225    1.0000 </r>
       <r>   -4.9179    1.0000 </r>
       <r>   -4.9021    1.0000 </r>
       <r>   -4.8951    1.0000 </r>
       <r>   -4.8889    1.0000 </r>
       <r>   -4.8657    1.0000 </r>
       <r>   -4.8651    1.0000 </r>
       <r>   -4.8636    1.0000 </r>
       <r>   -4.8623    1.0000 </r>
       <r>   -4.8551    1.0000 </r>
       <r>   -4.8534    1.0000 </r>
       <r>   -4.8522    1.0000 </r>
       <r>   -4.8467    1.0000 </r>
       <r>   -4.8219    0.9999 </r>
       <r>   -4.8150    0.9999 </r>
       <r>   -4.8134    0.9999 </r>
       <r>   -4.8117    0.9999 </r>
       <r>   -4.7968    0.9998 </r>
       <r>   -4.7912    0.9998 </r>
       <r>   -4.7860    0.9998 </r>
       <r>   -4.7815    0.9998 </r>
       <r>   -4.7768    0.9997 </r>
       <r>   -4.7526    0.9995 </r>
       <r>   -4.7460    0.9995 </r>
       <r>   -4.7414    0.9994 </r>
       <r>   -4.7396    0.9994 </r>
       <r>   -4.7293    0.9993 </r>
       <r>   -4.7104    0.9989 </r>
       <r>   -4.7073    0.9989 </r>
       <r>   -4.7064    0.9988 </r>
       <r>   -4.7051    0.9988 </r>
       <r>   -4.7005    0.9987 </r>
       <r>   -4.6946    0.9986 </r>
       <r>   -4.6887    0.9984 </r>
       <r>   -4.6864    0.9984 </r>
       <r>   -4.6806    0.9982 </r>
       <r>   -4.6754    0.9980 </r>
       <r>   -4.6717    0.9979 </r>
       <r>   -4.6697    0.9979 </r>
       <r>   -4.6686    0.9978 </r>
       <r>   -4.6671    0.9978 </r>
       <r>   -4.6668    0.9978 </r>
       <r>   -4.6653    0.9977 </r>
       <r>   -4.6608    0.9976 </r>
       <r>   -4.6571    0.9974 </r>
       <r>   -4.6469    0.9971 </r>
       <r>   -4.6410    0.9969 </r>
       <r>   -4.6280    0.9964 </r>
       <r>   -4.6205    0.9961 </r>
       <r>   -4.6188    0.9960 </r>
       <r>   -4.6172    0.9960 </r>
       <r>   -4.6167    0.9960 </r>
       <r>   -4.6135    0.9958 </r>
       <r>   -4.6005    0.9954 </r>
       <r>   -4.5991    0.9954 </r>
       <r>   -4.5963    0.9953 </r>
       <r>   -4.5943    0.9953 </r>
       <r>   -4.5937    0.9953 </r>
       <r>   -4.5894    0.9952 </r>
       <r>   -4.5760    0.9951 </r>
       <r>   -4.5732    0.9951 </r>
       <r>   -4.5719    0.9951 </r>
       <r>   -4.5712    0.9951 </r>
       <r>   -4.5706    0.9951 </r>
       <r>   -4.5693    0.9951 </r>
       <r>   -4.5438    0.9960 </r>
       <r>   -4.5315    0.9971 </r>
       <r>   -4.5290    0.9974 </r>
       <r>   -4.5268    0.9977 </r>
       <r>   -4.5262    0.9978 </r>
       <r>   -4.5212    0.9984 </r>
       <r>   -4.5181    0.9989 </r>
       <r>   -4.5101    1.0003 </r>
       <r>   -4.5080    1.0007 </r>
       <r>   -4.5036    1.0016 </r>
       <r>   -4.4902    1.0049 </r>
       <r>   -4.4884    1.0055 </r>
       <r>   -4.4880    1.0056 </r>
       <r>   -4.4814    1.0076 </r>
       <r>   -4.4800    1.0080 </r>
       <r>   -4.4731    1.0104 </r>
       <r>   -4.4706    1.0113 </r>
       <r>   -4.4639    1.0138 </r>
       <r>   -4.4612    1.0149 </r>
       <r>   -4.4602    1.0153 </r>
       <r>   -4.4532    1.0182 </r>
       <r>   -4.4471    1.0209 </r>
       <r>   -4.4442    1.0223 </r>
       <r>   -4.4340    1.0270 </r>
       <r>   -4.4313    1.0284 </r>
       <r>   -4.4309    1.0286 </r>
       <r>   -4.4295    1.0292 </r>
       <r>   -4.4246    1.0316 </r>
       <r>   -4.4212    1.0332 </r>
       <r>   -4.3983    1.0435 </r>
       <r>   -4.3920    1.0459 </r>
       <r>   -4.3881    1.0472 </r>
       <r>   -4.3849    1.0482 </r>
       <r>   -4.3745    1.0506 </r>
       <r>   -4.3706    1.0512 </r>
       <r>   -4.3596    1.0515 </r>
       <r>   -4.3590    1.0515 </r>
       <r>   -4.3561    1.0512 </r>
       <r>   -4.3544    1.0509 </r>
       <r>   -4.3536    1.0508 </r>
       <r>   -4.3533    1.0507 </r>
       <r>   -4.3519    1.0504 </r>
       <r>   -4.3491    1.0497 </r>
       <r>   -4.3486    1.0496 </r>
       <r>   -4.3433    1.0478 </r>
       <r>   -4.3418    1.0471 </r>
       <r>   -4.3407    1.0466 </r>
       <r>   -4.3399    1.0462 </r>
       <r>   -4.3389    1.0457 </r>
       <r>   -4.3253    1.0362 </r>
       <r>   -4.3242    1.0352 </r>
       <r>   -4.3189    1.0298 </r>
       <r>   -4.3148    1.0252 </r>
       <r>   -4.3074    1.0152 </r>
       <r>   -4.3068    1.0143 </r>
       <r>   -4.3057    1.0125 </r>
       <r>   -4.3054    1.0121 </r>
       <r>   -4.3043    1.0104 </r>
       <r>   -4.3002    1.0037 </r>
       <r>   -4.2992    1.0020 </r>
       <r>   -4.2869    0.9774 </r>
       <r>   -4.2854    0.9741 </r>
       <r>   -4.2812    0.9641 </r>
       <r>   -4.2764    0.9519 </r>
       <r>   -4.2751    0.9486 </r>
       <r>   -4.2737    0.9448 </r>
       <r>   -4.2702    0.9350 </r>
       <r>   -4.2687    0.9305 </r>
       <r>   -4.2673    0.9265 </r>
       <r>   -4.2646    0.9183 </r>
       <r>   -4.2630    0.9132 </r>
       <r>   -4.2619    0.9100 </r>
       <r>   -4.2603    0.9048 </r>
       <r>   -4.2577    0.8962 </r>
       <r>   -4.2558    0.8898 </r>
       <r>   -4.2549    0.8865 </r>
       <r>   -4.2544    0.8848 </r>
       <r>   -4.2425    0.8409 </r>
       <r>   -4.2398    0.8301 </r>
       <r>   -4.2391    0.8276 </r>
       <r>   -4.2368    0.8183 </r>
       <r>   -4.2318    0.7972 </r>
       <r>   -4.2271    0.7770 </r>
       <r>   -4.2214    0.7516 </r>
       <r>   -4.2046    0.6712 </r>
       <r>   -4.2016    0.6564 </r>
       <r>   -4.1975    0.6357 </r>
       <r>   -4.1946    0.6208 </r>
       <r>   -4.1937    0.6162 </r>
       <r>   -4.1921    0.6078 </r>
       <r>   -4.1890    0.5921 </r>
       <r>   -4.1784    0.5363 </r>
       <r>   -4.1530    0.4028 </r>
       <r>   -4.1519    0.3971 </r>
       <r>   -4.1484    0.3787 </r>
       <r>   -4.1477    0.3755 </r>
       <r>   -4.1365    0.3188 </r>
       <r>   -4.1348    0.3105 </r>
       <r>   -4.1083    0.1901 </r>
       <r>   -3.9861   -0.0513 </r>
       <r>   -3.9169   -0.0308 </r>
       <r>   -3.8342   -0.0005 </r>
       <r>   -3.8332   -0.0003 </r>
       <r>   -3.6844    0.0025 </r>
       <r>   -3.5279    0.0001 </r>
       <r>   -3.5145    0.0001 </r>
       <r>   -3.4570    0.0000 </r>
       <r>   -3.1021    0.0000 </r>
       <r>   -3.0775    0.0000 </r>
       <r>   -3.0683    0.0000 </r>
       <r>   -3.0531    0.0000 </r>
       <r>   -3.0284    0.0000 </r>
       <r>   -2.9809    0.0000 </r>
       <r>   -2.9590    0.0000 </r>
       <r>   -2.7274    0.0000 </r>
       <r>   -2.5792    0.0000 </r>
       <r>   -2.5424    0.0000 </r>
       <r>   -2.4764    0.0000 </r>
       <r>   -2.3551    0.0000 </r>
       <r>   -2.1798    0.0000 </r>
       <r>   -2.1336    0.0000 </r>
       <r>   -2.0942    0.0000 </r>
       <r>   -2.0296    0.0000 </r>
       <r>   -1.9756    0.0000 </r>
       <r>   -1.9090    0.0000 </r>
       <r>   -1.8770    0.0000 </r>
       <r>   -1.8313    0.0000 </r>
       <r>   -1.7521    0.0000 </r>
       <r>   -1.7246    0.0000 </r>
       <r>   -1.6651    0.0000 </r>
       <r>   -1.6052    0.0000 </r>
       <r>   -1.5792    0.0000 </r>
       <r>   -1.4249    0.0000 </r>
       <r>   -1.3257    0.0000 </r>
       <r>   -1.2871    0.0000 </r>
       <r>   -1.2563    0.0000 </r>
       <r>   -1.1391    0.0000 </r>
       <r>   -1.0448    0.0000 </r>
       <r>   -1.0009    0.0000 </r>
       <r>   -0.9820    0.0000 </r>
       <r>   -0.9638    0.0000 </r>
       <r>   -0.9551    0.0000 </r>
       <r>   -0.9277    0.0000 </r>
       <r>   -0.8933    0.0000 </r>
       <r>   -0.8447    0.0000 </r>
       <r>   -0.7710    0.0000 </r>
      </set>
     </set>
    </set>
   </array>
  </eigenvalues>
  <separator name="orbital magnetization" >
   <v name="MAGDIPOLOUT">      0.00000000      0.00000000      0.00000000</v>
  </separator>
  <dos>
   <i name="efermi">     -4.17153849 </i>
   <total>
    <array>
     <dimension dim="1">gridpoints</dimension>
     <dimension dim="2">spin</dimension>
     <field>energy</field>
     <field>total</field>
     <field>integrated</field>
     <set>
      <set comment="spin 1">
       <r>   -30.1455     0.0000     0.0000 </r>
       <r>   -30.0410     0.0000     0.0000 </r>
       <r>   -29.9364     0.0000     0.0000 </r>
       <r>   -29.8318     0.0000     0.0000 </r>
       <r>   -29.7272     0.0000     0.0000 </r>
       <r>   -29.6226     0.0000     0.0000 </r>
       <r>   -29.5181     0.0000     0.0000 </r>
       <r>   -29.4135     0.0000     0.0000 </r>
       <r>   -29.3089     0.0000     0.0000 </r>
       <r>   -29.2043     0.0000     0.0000 </r>
       <r>   -29.0997     0.0000     0.0000 </r>
       <r>   -28.9951     0.0000     0.0000 </r>
       <r>   -28.8906     0.0001     0.0000 </r>
       <r>   -28.7860     0.0020     0.0002 </r>
       <r>   -28.6814     0.0196     0.0023 </r>
       <r>   -28.5768     0.0641     0.0090 </r>
       <r>   -28.4722    -0.1404    -0.0057 </r>
       <r>   -28.3677    -0.8116    -0.0906 </r>
       <r>   -28.2631     1.2075     0.0357 </r>
       <r>   -28.1585     7.9153     0.8635 </r>
       <r>   -28.0539     9.2197     1.8277 </r>
       <r>   -27.9493     2.6315     2.1029 </r>
       <r>   -27.8447    -0.7806     2.0213 </r>
       <r>   -27.7402    -0.2978     1.9901 </r>
       <r>   -27.6356     0.0604     1.9964 </r>
       <r>   -27.5310     0.0299     1.9996 </r>
       <r>   -27.4264     0.0038     2.0000 </r>
       <r>   -27.3218     0.0002     2.0000 </r>
       <r>   -27.2173     0.0000     2.0000 </r>
       <r>   -27.1127     0.0000     2.0000 </r>
       <r>   -27.0081     0.0000     2.0000 </r>
       <r>   -26.9035     0.0000     2.0000 </r>
       <r>   -26.7989     0.0000     2.0000 </r>
       <r>   -26.6943     0.0000     2.0000 </r>
       <r>   -26.5898     0.0000     2.0000 </r>
       <r>   -26.4852     0.0000     2.0000 </r>
       <r>   -26.3806     0.0000     2.0000 </r>
       <r>   -26.2760     0.0000     2.0000 </r>
       <r>   -26.1714     0.0000     2.0000 </r>
       <r>   -26.0669     0.0000     2.0000 </r>
       <r>   -25.9623     0.0000     2.0000 </r>
       <r>   -25.8577     0.0000     2.0000 </r>
       <r>   -25.7531     0.0000     2.0000 </r>
       <r>   -25.6485     0.0000     2.0000 </r>
       <r>   -25.5439     0.0000     2.0000 </r>
       <r>   -25.4394     0.0000     2.0000 </r>
       <r>   -25.3348     0.0000     2.0000 </r>
       <r>   -25.2302     0.0000     2.0000 </r>
       <r>   -25.1256     0.0000     2.0000 </r>
       <r>   -25.0210     0.0000     2.0000 </r>
       <r>   -24.9165     0.0000     2.0000 </r>
       <r>   -24.8119     0.0000     2.0000 </r>
       <r>   -24.7073     0.0000     2.0000 </r>
       <r>   -24.6027     0.0000     2.0000 </r>
       <r>   -24.4981     0.0000     2.0000 </r>
       <r>   -24.3935     0.0000     2.0000 </r>
       <r>   -24.2890     0.0000     2.0000 </r>
       <r>   -24.1844     0.0000     2.0000 </r>
       <r>   -24.0798     0.0000     2.0000 </r>
       <r>   -23.9752     0.0000     2.0000 </r>
       <r>   -23.8706     0.0000     2.0000 </r>
       <r>   -23.7661     0.0000     2.0000 </r>
       <r>   -23.6615     0.0000     2.0000 </r>
       <r>   -23.5569     0.0000     2.0000 </r>
       <r>   -23.4523     0.0000     2.0000 </r>
       <r>   -23.3477     0.0000     2.0000 </r>
       <r>   -23.2431     0.0000     2.0000 </r>
       <r>   -23.1386     0.0000     2.0000 </r>
       <r>   -23.0340     0.0000     2.0000 </r>
       <r>   -22.9294     0.0000     2.0000 </r>
       <r>   -22.8248     0.0000     2.0000 </r>
       <r>   -22.7202     0.0000     2.0000 </r>
       <r>   -22.6157     0.0000     2.0000 </r>
       <r>   -22.5111     0.0000     2.0000 </r>
       <r>   -22.4065     0.0000     2.0000 </r>
       <r>   -22.3019     0.0000     2.0000 </r>
       <r>   -22.1973     0.0000     2.0000 </r>
       <r>   -22.0928     0.0000     2.0000 </r>
       <r>   -21.9882     0.0000     2.0000 </r>
       <r>   -21.8836     0.0000     2.0000 </r>
       <r>   -21.7790     0.0000     2.0000 </r>
       <r>   -21.6744     0.0000     2.0000 </r>
       <r>   -21.5698     0.0000     2.0000 </r>
       <r>   -21.4653     0.0000     2.0000 </r>
       <r>   -21.3607     0.0000     2.0000 </r>
       <r>   -21.2561     0.0000     2.0000 </r>
       <r>   -21.1515     0.0000     2.0000 </r>
       <r>   -21.0469     0.0000     2.0000 </r>
       <r>   -20.9424     0.0000     2.0000 </r>
       <r>   -20.8378     0.0000     2.0000 </r>
       <r>   -20.7332     0.0000     2.0000 </r>
       <r>   -20.6286     0.0000     2.0000 </r>
       <r>   -20.5240     0.0000     2.0000 </r>
       <r>   -20.4194     0.0000     2.0000 </r>
       <r>   -20.3149     0.0000     2.0000 </r>
       <r>   -20.2103     0.0000     2.0000 </r>
       <r>   -20.1057     0.0000     2.0000 </r>
       <r>   -20.0011     0.0000     2.0000 </r>
       <r>   -19.8965     0.0000     2.0000 </r>
       <r>   -19.7920     0.0000     2.0000 </r>
       <r>   -19.6874     0.0000     2.0000 </r>
       <r>   -19.5828     0.0000     2.0000 </r>
       <r>   -19.4782     0.0000     2.0000 </r>
       <r>   -19.3736     0.0000     2.0000 </r>
       <r>   -19.2690     0.0000     2.0000 </r>
       <r>   -19.1645     0.0000     2.0000 </r>
       <r>   -19.0599     0.0000     2.0000 </r>
       <r>   -18.9553     0.0000     2.0000 </r>
       <r>   -18.8507     0.0000     2.0000 </r>
       <r>   -18.7461     0.0000     2.0000 </r>
       <r>   -18.6416     0.0000     2.0000 </r>
       <r>   -18.5370     0.0000     2.0000 </r>
       <r>   -18.4324     0.0000     2.0000 </r>
       <r>   -18.3278     0.0000     2.0000 </r>
       <r>   -18.2232     0.0000     2.0000 </r>
       <r>   -18.1186     0.0000     2.0000 </r>
       <r>   -18.0141     0.0000     2.0000 </r>
       <r>   -17.9095     0.0000     2.0000 </r>
       <r>   -17.8049     0.0000     2.0000 </r>
       <r>   -17.7003     0.0000     2.0000 </r>
       <r>   -17.5957     0.0000     2.0000 </r>
       <r>   -17.4912     0.0000     2.0000 </r>
       <r>   -17.3866     0.0000     2.0000 </r>
       <r>   -17.2820     0.0000     2.0000 </r>
       <r>   -17.1774     0.0000     2.0000 </r>
       <r>   -17.0728     0.0000     2.0000 </r>
       <r>   -16.9682     0.0000     2.0000 </r>
       <r>   -16.8637     0.0000     2.0000 </r>
       <r>   -16.7591     0.0000     2.0000 </r>
       <r>   -16.6545     0.0000     2.0000 </r>
       <r>   -16.5499     0.0000     2.0000 </r>
       <r>   -16.4453     0.0000     2.0000 </r>
       <r>   -16.3408     0.0000     2.0000 </r>
       <r>   -16.2362     0.0000     2.0000 </r>
       <r>   -16.1316     0.0000     2.0000 </r>
       <r>   -16.0270     0.0000     2.0000 </r>
       <r>   -15.9224     0.0000     2.0000 </r>
       <r>   -15.8178     0.0000     2.0000 </r>
       <r>   -15.7133     0.0000     2.0000 </r>
       <r>   -15.6087     0.0000     2.0000 </r>
       <r>   -15.5041     0.0000     2.0000 </r>
       <r>   -15.3995     0.0000     2.0000 </r>
       <r>   -15.2949     0.0000     2.0000 </r>
       <r>   -15.1904     0.0000     2.0000 </r>
       <r>   -15.0858     0.0000     2.0000 </r>
       <r>   -14.9812     0.0000     2.0000 </r>
       <r>   -14.8766     0.0000     2.0000 </r>
       <r>   -14.7720     0.0000     2.0000 </r>
       <r>   -14.6674     0.0000     2.0000 </r>
       <r>   -14.5629     0.0000     2.0000 </r>
       <r>   -14.4583     0.0000     2.0000 </r>
       <r>   -14.3537     0.0000     2.0000 </r>
       <r>   -14.2491     0.0003     2.0000 </r>
       <r>   -14.1445     0.0053     2.0006 </r>
       <r>   -14.0400     0.0367     2.0044 </r>
       <r>   -13.9354     0.0492     2.0096 </r>
       <r>   -13.8308    -0.4020     1.9675 </r>
       <r>   -13.7262    -0.6599     1.8985 </r>
       <r>   -13.6216     3.5558     2.2704 </r>
       <r>   -13.5170     9.7012     3.2850 </r>
       <r>   -13.4125     7.0108     4.0182 </r>
       <r>   -13.3079     0.5790     4.0787 </r>
       <r>   -13.2033    -0.7560     3.9997 </r>
       <r>   -13.0987    -0.0737     3.9919 </r>
       <r>   -12.9941     0.0604     3.9983 </r>
       <r>   -12.8896     0.0151     3.9998 </r>
       <r>   -12.7850     0.0014     4.0000 </r>
       <r>   -12.6804     0.0001     4.0000 </r>
       <r>   -12.5758     0.0000     4.0000 </r>
       <r>   -12.4712     0.0000     4.0000 </r>
       <r>   -12.3666     0.0000     4.0000 </r>
       <r>   -12.2621     0.0000     4.0000 </r>
       <r>   -12.1575     0.0000     4.0000 </r>
       <r>   -12.0529     0.0003     4.0000 </r>
       <r>   -11.9483     0.0054     4.0006 </r>
       <r>   -11.8437     0.0371     4.0045 </r>
       <r>   -11.7392     0.0484     4.0095 </r>
       <r>   -11.6346    -0.4075     3.9669 </r>
       <r>   -11.5300    -0.6502     3.8989 </r>
       <r>   -11.4254     3.6179     4.2773 </r>
       <r>   -11.3208     9.7782     5.2999 </r>
       <r>   -11.2162     6.9158     6.0232 </r>
       <r>   -11.1117    -0.1551     6.0070 </r>
       <r>   -11.0071    -0.3674     5.9686 </r>
       <r>   -10.9025     6.4476     6.6429 </r>
       <r>   -10.7979     9.2110     7.6062 </r>
       <r>   -10.6933     4.2835     8.0541 </r>
       <r>   -10.5888     5.8491     8.6658 </r>
       <r>   -10.4842     9.4410     9.6532 </r>
       <r>   -10.3796     4.1927    10.0917 </r>
       <r>   -10.2750    -0.5005    10.0393 </r>
       <r>   -10.1704    -0.4628     9.9909 </r>
       <r>   -10.0658     0.0385     9.9950 </r>
       <r>    -9.9613     0.0411     9.9993 </r>
       <r>    -9.8567     0.0065    10.0000 </r>
       <r>    -9.7521     0.0004    10.0000 </r>
       <r>    -9.6475     0.0000    10.0000 </r>
       <r>    -9.5429     0.0000    10.0000 </r>
       <r>    -9.4384     0.0000    10.0000 </r>
       <r>    -9.3338     0.0000    10.0000 </r>
       <r>    -9.2292     0.0000    10.0000 </r>
       <r>    -9.1246     0.0000    10.0000 </r>
       <r>    -9.0200     0.0000    10.0000 </r>
       <r>    -8.9154     0.0000    10.0000 </r>
       <r>    -8.8109     0.0000    10.0000 </r>
       <r>    -8.7063     0.0000    10.0000 </r>
       <r>    -8.6017     0.0000    10.0000 </r>
       <r>    -8.4971     0.0000    10.0000 </r>
       <r>    -8.3925     0.0000    10.0000 </r>
       <r>    -8.2880     0.0000    10.0000 </r>
       <r>    -8.1834     0.0000    10.0000 </r>
       <r>    -8.0788     0.0000    10.0000 </r>
       <r>    -7.9742     0.0000    10.0000 </r>
       <r>    -7.8696     0.0000    10.0000 </r>
       <r>    -7.7650     0.0000    10.0000 </r>
       <r>    -7.6605     0.0000    10.0000 </r>
       <r>    -7.5559     0.0000    10.0000 </r>
       <r>    -7.4513     0.0003    10.0000 </r>
       <r>    -7.3467     0.0065    10.0007 </r>
       <r>    -7.2421     0.0579    10.0068 </r>
       <r>    -7.1376     0.1725    10.0248 </r>
       <r>    -7.0330    -0.4172     9.9812 </r>
       <r>    -6.9284    -2.1696     9.7543 </r>
       <r>    -6.8238     3.4971    10.1200 </r>
       <r>    -6.7192    22.3339    12.4557 </r>
       <r>    -6.6146    27.4904    15.3307 </r>
       <r>    -6.5101     8.8824    16.2596 </r>
       <r>    -6.4055    -3.6887    15.8739 </r>
       <r>    -6.3009     2.3374    16.1183 </r>
       <r>    -6.1963    20.6005    18.2728 </r>
       <r>    -6.0917    26.6458    21.0594 </r>
       <r>    -5.9872    16.3630    22.7707 </r>
       <r>    -5.8826    23.2507    25.2023 </r>
       <r>    -5.7780    51.6934    30.6085 </r>
       <r>    -5.6734   100.2669    41.0946 </r>
       <r>    -5.5688   198.6610    61.8709 </r>
       <r>    -5.4642   293.6209    92.5783 </r>
       <r>    -5.3597   276.6133   121.5070 </r>
       <r>    -5.2551   213.0920   143.7925 </r>
       <r>    -5.1505   235.4450   168.4158 </r>
       <r>    -5.0459   326.5308   202.5650 </r>
       <r>    -4.9413   364.3282   240.6671 </r>
       <r>    -4.8368   313.8287   273.4878 </r>
       <r>    -4.7322   309.1799   305.8224 </r>
       <r>    -4.6276   383.9865   345.9804 </r>
       <r>    -4.5230   413.6537   389.2411 </r>
       <r>    -4.4184   432.5539   434.4783 </r>
       <r>    -4.3138   533.7162   490.2953 </r>
       <r>    -4.2093   528.8047   545.5987 </r>
       <r>    -4.1047   285.2553   575.4312 </r>
       <r>    -4.0001    55.6775   581.2540 </r>
       <r>    -3.8955     7.5066   582.0391 </r>
       <r>    -3.7909    25.0102   584.6547 </r>
       <r>    -3.6864    20.7988   586.8299 </r>
       <r>    -3.5818    19.1108   588.8285 </r>
       <r>    -3.4772    28.5256   591.8118 </r>
       <r>    -3.3726    19.2073   593.8205 </r>
       <r>    -3.2680    -1.1071   593.7047 </r>
       <r>    -3.1634     8.7219   594.6169 </r>
       <r>    -3.0589    48.8776   599.7286 </r>
       <r>    -2.9543    58.3583   605.8318 </r>
       <r>    -2.8497    24.0926   608.3515 </r>
       <r>    -2.7451     4.4634   608.8182 </r>
       <r>    -2.6405    13.0619   610.1843 </r>
       <r>    -2.5360    26.1612   612.9203 </r>
       <r>    -2.4314    26.4172   615.6830 </r>
       <r>    -2.3268    15.1429   617.2667 </r>
       <r>    -2.2222    13.4673   618.6751 </r>
       <r>    -2.1176    27.5928   621.5608 </r>
       <r>    -2.0130    37.7276   625.5065 </r>
       <r>    -1.9085    38.5620   629.5394 </r>
       <r>    -1.8039    39.0355   633.6218 </r>
       <r>    -1.6993    40.3749   637.8442 </r>
       <r>    -1.5947    36.5688   641.6687 </r>
       <r>    -1.4901    23.1647   644.0913 </r>
       <r>    -1.3856    19.4753   646.1280 </r>
       <r>    -1.2810    28.8053   649.1405 </r>
       <r>    -1.1764    26.3901   651.9005 </r>
       <r>    -1.0718    29.4642   654.9819 </r>
       <r>    -0.9672    57.5056   660.9959 </r>
       <r>    -0.8626    64.8457   667.7776 </r>
       <r>    -0.7581    34.9604   671.4338 </r>
       <r>    -0.6535     7.4089   672.2087 </r>
       <r>    -0.5489    -1.3815   672.0642 </r>
       <r>    -0.4443    -0.8827   671.9719 </r>
       <r>    -0.3397     0.1125   671.9836 </r>
       <r>    -0.2352     0.1278   671.9970 </r>
       <r>    -0.1306     0.0262   671.9997 </r>
       <r>    -0.0260     0.0024   672.0000 </r>
       <r>     0.0786     0.0001   672.0000 </r>
       <r>     0.1832     0.0000   672.0000 </r>
       <r>     0.2878     0.0000   672.0000 </r>
       <r>     0.3923     0.0000   672.0000 </r>
       <r>     0.4969     0.0000   672.0000 </r>
       <r>     0.6015     0.0000   672.0000 </r>
       <r>     0.7061     0.0000   672.0000 </r>
       <r>     0.8107     0.0000   672.0000 </r>
       <r>     0.9152     0.0000   672.0000 </r>
       <r>     1.0198     0.0000   672.0000 </r>
       <r>     1.1244     0.0000   672.0000 </r>
       <r>     1.2290     0.0000   672.0000 </r>
      </set>
     </set>
    </array>
   </total>
  </dos>
 </calculation>
 <structure name="finalpos" >
  <crystal>
   <varray name="basis" >
    <v>      30.00000000       0.00000000       0.00000000 </v>
    <v>       0.00000000      30.00000000       0.00000000 </v>
    <v>       0.00000000       0.00000000      30.00000000 </v>
   </varray>
   <i name="volume">  27000.00000000 </i>
   <varray name="rec_basis" >
    <v>       0.03333333       0.00000000       0.00000000 </v>
    <v>       0.00000000       0.03333333       0.00000000 </v>
    <v>       0.00000000       0.00000000       0.03333333 </v>
   </varray>
  </crystal>
  <varray name="positions" >
   <v>       0.44576020       0.32826710       0.41691983 </v>
   <v>       0.67173288       0.55423978       0.41691983 </v>
   <v>       0.55423980       0.32826710       0.41691983 </v>
   <v>       0.32826712       0.55423978       0.41691983 </v>
   <v>       0.50000000       0.38250690       0.34021317 </v>
   <v>       0.50000000       0.38250690       0.65978680 </v>
   <v>       0.50000000       0.27609440       0.50000000 </v>
   <v>       0.27609443       0.49999998       0.50000000 </v>
   <v>       0.72390557       0.49999998       0.50000000 </v>
   <v>       0.50000000       0.72390555       0.50000000 </v>
   <v>       0.61195280       0.38804720       0.34167483 </v>
   <v>       0.61195280       0.38804720       0.65832513 </v>
   <v>       0.38804722       0.61195278       0.34167483 </v>
   <v>       0.38804722       0.61195278       0.65832513 </v>
   <v>       0.38804720       0.38804720       0.34167483 </v>
   <v>       0.38804720       0.38804720       0.65832513 </v>
   <v>       0.61195278       0.61195278       0.34167483 </v>
   <v>       0.61195278       0.61195278       0.65832513 </v>
   <v>       0.44576020       0.32826710       0.58308023 </v>
   <v>       0.67173288       0.55423978       0.58308023 </v>
   <v>       0.55791699       0.44208301       0.41809300 </v>
   <v>       0.32826705       0.44576024       0.41691983 </v>
   <v>       0.55423973       0.67173293       0.41691983 </v>
   <v>       0.55423980       0.32826710       0.58308023 </v>
   <v>       0.32826712       0.55423978       0.58308023 </v>
   <v>       0.67173295       0.44576024       0.41691983 </v>
   <v>       0.44576027       0.67173293       0.41691983 </v>
   <v>       0.44208301       0.44208301       0.41809300 </v>
   <v>       0.50000000       0.38416601       0.50000000 </v>
   <v>       0.61749315       0.50000005       0.34021317 </v>
   <v>       0.61749315       0.50000005       0.65978680 </v>
   <v>       0.38250685       0.50000005       0.34021317 </v>
   <v>       0.38250685       0.50000005       0.65978680 </v>
   <v>       0.38317830       0.38317830       0.50000000 </v>
   <v>       0.61682172       0.61682172       0.50000000 </v>
   <v>       0.61682170       0.38317830       0.50000000 </v>
   <v>       0.38317828       0.61682172       0.50000000 </v>
   <v>       0.50000000       0.50000000       0.33478917 </v>
   <v>       0.50000000       0.50000000       0.66521087 </v>
   <v>       0.32826705       0.44576024       0.58308023 </v>
   <v>       0.55423973       0.67173293       0.58308023 </v>
   <v>       0.55791699       0.44208301       0.58190703 </v>
   <v>       0.44208298       0.55791702       0.41809300 </v>
   <v>       0.44208301       0.44208301       0.58190703 </v>
   <v>       0.67173295       0.44576024       0.58308023 </v>
   <v>       0.44576027       0.67173293       0.58308023 </v>
   <v>       0.55791702       0.55791702       0.41809300 </v>
   <v>       0.38416599       0.50000002       0.50000000 </v>
   <v>       0.61583401       0.50000002       0.50000000 </v>
   <v>       0.50000000       0.61749319       0.34021317 </v>
   <v>       0.50000000       0.61749319       0.65978680 </v>
   <v>       0.50000000       0.50000000       0.50000000 </v>
   <v>       0.44208298       0.55791702       0.58190703 </v>
   <v>       0.55791702       0.55791702       0.58190703 </v>
   <v>       0.50000000       0.61583404       0.50000000 </v>
   <v>       0.34360617       0.59249107       0.68749627 </v>
   <v>       0.32108373       0.60581080       0.71449780 </v>
  </varray>
  <varray name="selective"  type="logical" >
   <v type="logical" >  F  F  F </v>
   <v type="logical" >  F  F  F </v>
   <v type="logical" >  F  F  F </v>
   <v type="logical" >  F  F  F </v>
   <v type="logical" >  F  F  F </v>
   <v type="logical" >  F  F  F </v>
   <v type="logical" >  F  F  F </v>
   <v type="logical" >  F  F  F </v>
   <v type="logical" >  F  F  F </v>
   <v type="logical" >  F  F  F </v>
   <v type="logical" >  F  F  F </v>
   <v type="logical" >  F  F  F </v>
   <v type="logical" >  F  F  F </v>
   <v type="logical" >  F  F  F </v>
   <v type="logical" >  F  F  F </v>
   <v type="logical" >  F  F  F </v>
   <v type="logical" >  F  F  F </v>
   <v type="logical" >  F  F  F </v>
   <v type="logical" >  F  F  F </v>
   <v type="logical" >  F  F  F </v>
   <v type="logical" >  F  F  F </v>
   <v type="logical" >  F  F  F </v>
   <v type="logical" >  F  F  F </v>
   <v type="logical" >  F  F  F </v>
   <v type="logical" >  F  F  F </v>
   <v type="logical" >  F  F  F </v>
   <v type="logical" >  F  F  F </v>
   <v type="logical" >  F  F  F </v>
   <v type="logical" >  F  F  F </v>
   <v type="logical" >  F  F  F </v>
   <v type="logical" >  F  F  F </v>
   <v type="logical" >  F  F  F </v>
   <v type="logical" >  F  F  F </v>
   <v type="logical" >  F  F  F </v>
   <v type="logical" >  F  F  F </v>
   <v type="logical" >  F  F  F </v>
   <v type="logical" >  F  F  F </v>
   <v type="logical" >  F  F  F </v>
   <v type="logical" >  F  F  F </v>
   <v type="logical" >  F  F  F </v>
   <v type="logical" >  F  F  F </v>
   <v type="logical" >  F  F  F </v>
   <v type="logical" >  F  F  F </v>
   <v type="logical" >  F  F  F </v>
   <v type="logical" >  F  F  F </v>
   <v type="logical" >  F  F  F </v>
   <v type="logical" >  F  F  F </v>
   <v type="logical" >  F  F  F </v>
   <v type="logical" >  F  F  F </v>
   <v type="logical" >  F  F  F </v>
   <v type="logical" >  F  F  F </v>
   <v type="logical" >  F  F  F </v>
   <v type="logical" >  F  F  F </v>
   <v type="logical" >  F  F  F </v>
   <v type="logical" >  F  F  F </v>
   <v type="logical" >  F  F  F </v>
   <v type="logical" >  F  F  F </v>
  </varray>
  <nose>
   <v>      -3.00000000       0.00000000       0.00010000       0.00010000 </v>
  </nose>
 </structure>
</modeling>
