 running on    1 total cores
 distrk:  each k-point on    1 cores,    1 groups
 distr:  one band on    1 cores,    1 groups
 using from now: INCAR     
 vasp.5.4.4.18Apr17-6-g9f103f2a35 (build Sep 03 2018 23:53:05) complex          
  
 POSCAR found type information on POSCAR  Pd C  O 
 POSCAR found :  3 types and      57 ions
 scaLAPACK will be used

 ----------------------------------------------------------------------------- 
|                                                                             |
|  ADVICE TO THIS USER RUNNING 'VASP/VAMP'   (HEAR YOUR MASTER'S VOICE ...):  |
|                                                                             |
|      You enforced a specific xc-type in the INCAR file,                     |
|      a different type was found on the POTCAR file                          |
|          I HOPE YOU KNOW, WHAT YOU ARE  DOING                               |
|                                                                             |
 ----------------------------------------------------------------------------- 

 LDA part: xc-table for Pade appr. of Perdew
 POSCAR, INCAR and KPOINTS ok, starting setup
 FFT: planning ...
 WAVECAR not read
 entering main loop
       N       E                     dE             d eps       ncg     rms          rms(c)
DAV:   1     0.438304272647E+04    0.43830E+04   -0.10050E+05   688   0.815E+02
DAV:   2     0.200955253267E+04   -0.23735E+04   -0.21354E+04  1224   0.105E+02
DAV:   3     0.233988100169E+03   -0.17756E+04   -0.16687E+04  1000   0.918E+01
DAV:   4    -0.134413719477E+03   -0.36840E+03   -0.31091E+03   824   0.434E+01
DAV:   5    -0.179026602203E+03   -0.44613E+02   -0.37294E+02  1048   0.144E+01    0.138E+01
RMM:   6    -0.178756080877E+03    0.27052E+00   -0.52213E+01   734   0.839E+00    0.248E+01
RMM:   7    -0.180780854914E+03   -0.20248E+01   -0.18054E+01   891   0.406E+00    0.198E+01
RMM:   8    -0.183856099140E+03   -0.30752E+01   -0.67962E+00   772   0.336E+00    0.264E+01
RMM:   9    -0.182007800799E+03    0.18483E+01   -0.50178E+00   744   0.312E+00    0.259E+01
RMM:  10    -0.180374615666E+03    0.16332E+01   -0.26394E+00   748   0.232E+00    0.214E+01
RMM:  11    -0.178439224005E+03    0.19354E+01   -0.18596E+00   730   0.203E+00    0.169E+01
RMM:  12    -0.177353901660E+03    0.10853E+01   -0.16501E+00   718   0.195E+00    0.175E+01
RMM:  13    -0.176426181893E+03    0.92772E+00   -0.60866E-01   735   0.116E+00    0.143E+01
RMM:  14    -0.176016290942E+03    0.40989E+00   -0.76439E-01   721   0.128E+00    0.112E+01
RMM:  15    -0.176709929884E+03   -0.69364E+00   -0.11147E+00   715   0.155E+00    0.197E+01
RMM:  16    -0.175641379081E+03    0.10686E+01   -0.85749E-01   713   0.138E+00    0.135E+01
RMM:  17    -0.175248450384E+03    0.39293E+00   -0.63051E-01   706   0.118E+00    0.116E+01
RMM:  18    -0.175022690917E+03    0.22576E+00   -0.42882E-01   711   0.972E-01    0.906E+00
RMM:  19    -0.174945381792E+03    0.77309E-01   -0.38938E-01   706   0.923E-01    0.808E+00
RMM:  20    -0.174957522386E+03   -0.12141E-01   -0.28213E-01   712   0.806E-01    0.105E+01
RMM:  21    -0.174858836242E+03    0.98686E-01   -0.18341E-01   705   0.658E-01    0.106E+01
RMM:  22    -0.174674873776E+03    0.18396E+00   -0.18265E-01   701   0.640E-01    0.562E+00
RMM:  23    -0.174583106141E+03    0.91768E-01   -0.17527E-01   698   0.634E-01    0.464E+00
RMM:  24    -0.174625539471E+03   -0.42433E-01   -0.15650E-01   694   0.603E-01    0.605E+00
RMM:  25    -0.174528757579E+03    0.96782E-01   -0.90070E-02   699   0.473E-01    0.434E+00
RMM:  26    -0.174472668915E+03    0.56089E-01   -0.62151E-02   694   0.405E-01    0.363E+00
RMM:  27    -0.174430025290E+03    0.42644E-01   -0.47086E-02   695   0.350E-01    0.234E+00
RMM:  28    -0.174420853800E+03    0.91715E-02   -0.29639E-02   694   0.277E-01    0.240E+00
RMM:  29    -0.174409767634E+03    0.11086E-01   -0.17865E-02   697   0.218E-01    0.218E+00
RMM:  30    -0.174392004684E+03    0.17763E-01   -0.11513E-02   694   0.177E-01    0.133E+00
RMM:  31    -0.174386680401E+03    0.53243E-02   -0.84333E-03   696   0.145E-01    0.128E+00
RMM:  32    -0.174383245802E+03    0.34346E-02   -0.62586E-03   697   0.124E-01    0.121E+00
RMM:  33    -0.174378273694E+03    0.49721E-02   -0.42151E-03   693   0.107E-01    0.822E-01
RMM:  34    -0.174376026385E+03    0.22473E-02   -0.25114E-03   691   0.825E-02    0.513E-01
RMM:  35    -0.174376353696E+03   -0.32731E-03   -0.15561E-03   693   0.636E-02    0.457E-01
RMM:  36    -0.174376953341E+03   -0.59964E-03   -0.15384E-03   688   0.598E-02    0.411E-01
RMM:  37    -0.174379022460E+03   -0.20691E-02   -0.14247E-03   688   0.575E-02    0.449E-01
RMM:  38    -0.174382510668E+03   -0.34882E-02   -0.17235E-03   690   0.606E-02    0.422E-01
RMM:  39    -0.174384019341E+03   -0.15087E-02   -0.76736E-04   672   0.433E-02    0.365E-01
RMM:  40    -0.174388521682E+03   -0.45023E-02   -0.10841E-03   689   0.452E-02    0.412E-01
RMM:  41    -0.174389892960E+03   -0.13713E-02   -0.54191E-04   578   0.352E-02    0.279E-01
RMM:  42    -0.174390918115E+03   -0.10252E-02   -0.26914E-04   434   0.263E-02    0.263E-01
RMM:  43    -0.174392026098E+03   -0.11080E-02   -0.20294E-04   414   0.242E-02    0.184E-01
RMM:  44    -0.174392618088E+03   -0.59199E-03   -0.11473E-04   409   0.182E-02    0.134E-01
RMM:  45    -0.174394323252E+03   -0.17052E-02   -0.15459E-04   407   0.189E-02    0.150E-01
RMM:  46    -0.174395778989E+03   -0.14557E-02   -0.14304E-04   409   0.179E-02    0.119E-01
RMM:  47    -0.174397074967E+03   -0.12960E-02   -0.12290E-04   411   0.151E-02    0.109E-01
RMM:  48    -0.174398681466E+03   -0.16065E-02   -0.12749E-04   410   0.148E-02    0.791E-02
RMM:  49    -0.174399772799E+03   -0.10913E-02   -0.94564E-05   411   0.122E-02    0.807E-02
RMM:  50    -0.174401559778E+03   -0.17870E-02   -0.12655E-04   408   0.131E-02    0.598E-02
RMM:  51    -0.174402007893E+03   -0.44811E-03   -0.61981E-05   414   0.942E-03    0.465E-02
RMM:  52    -0.174402868582E+03   -0.86069E-03   -0.64816E-05   410   0.881E-03    0.471E-02
RMM:  53    -0.174403173028E+03   -0.30445E-03   -0.38217E-05   381   0.680E-03    0.303E-02
RMM:  54    -0.174403449672E+03   -0.27664E-03   -0.25265E-05   342   0.557E-03    0.271E-02
RMM:  55    -0.174403637326E+03   -0.18765E-03   -0.96374E-06   200   0.440E-03    0.170E-02
RMM:  56    -0.174403875864E+03   -0.23854E-03   -0.71319E-06   205   0.434E-03    0.156E-02
RMM:  57    -0.174404006054E+03   -0.13019E-03   -0.88927E-07   105   0.365E-03    0.892E-03
RMM:  58    -0.174404318754E+03   -0.31270E-03   -0.11915E-05   245   0.452E-03    0.134E-02
RMM:  59    -0.174404572756E+03   -0.25400E-03   -0.64003E-06   184   0.389E-03    0.691E-03
RMM:  60    -0.174404697086E+03   -0.12433E-03   -0.38341E-06   137   0.353E-03    0.721E-03
RMM:  61    -0.174404791047E+03   -0.93961E-04   -0.27196E-06   112   0.347E-03
   1 F= -.17440479E+03 E0= -.17437926E+03  d E =-.102132E+00
================================= SLURM INFO ===================================
Command: run-cluster -n 1 -m 10000 -j 000040_vasp --same-node /opt/VASP/vasp
Exit code: 0
Job name: 000040_vasp
Job time: 0 days 6h:0m:43s
MPI task count: 1
Working dir: /home/pashkov/pyFitIt/pyfitit/data/adaptive_pd_co_new_2/sample/000040
Job was running on nodes: b8
Task per node: 1
       JobID     MaxRSS  MaxDiskRead MaxDiskWrite    Elapsed    JobName 
------------ ---------- ------------ ------------ ---------- ---------- 
106509                                              06:00:43 000040_va+ 
106509.batch                                        06:00:43      batch 
