   57   57    1    1
  0.4736842E+03  0.3000000E-08  0.3000000E-08  0.3000000E-08  0.5000000E-15
  1.000000000000000E-004
  CAR 
 6_Pd100_top_free_z(O)                   
    560      1    336
 
  0.0000000E+00  0.0000000E+00  0.0000000E+00  0.1000000E+01
    1      -28.471693   1.000000
    2      -13.249007   1.000000
    3      -11.132804   1.000000
    4      -10.985470   1.000000
    5       -9.869900   1.000000
    6       -6.642939   1.000000
    7       -6.138509   1.000000
    8       -6.126449   1.000000
    9       -6.123217   1.000000
   10       -5.929678   1.000000
   11       -5.866476   1.000000
   12       -5.812663   1.000000
   13       -5.800397   1.000000
   14       -5.751724   1.000000
   15       -5.734931   1.000000
   16       -5.695923   1.000000
   17       -5.687636   1.000000
   18       -5.681409   1.000000
   19       -5.672039   1.000000
   20       -5.622580   1.000000
   21       -5.620579   1.000000
   22       -5.611601   1.000000
   23       -5.595100   1.000000
   24       -5.589250   1.000000
   25       -5.582770   1.000000
   26       -5.560498   1.000000
   27       -5.545991   1.000000
   28       -5.545288   1.000000
   29       -5.541786   1.000000
   30       -5.536297   1.000000
   31       -5.520136   1.000000
   32       -5.515562   1.000000
   33       -5.514969   1.000000
   34       -5.514282   1.000000
   35       -5.510454   1.000000
   36       -5.503446   1.000000
   37       -5.492685   1.000000
   38       -5.485953   1.000000
   39       -5.473994   1.000000
   40       -5.472632   1.000000
   41       -5.469548   1.000000
   42       -5.465245   1.000000
   43       -5.464775   1.000000
   44       -5.452746   1.000000
   45       -5.447742   1.000000
   46       -5.438243   1.000000
   47       -5.429864   1.000000
   48       -5.428863   1.000000
   49       -5.424721   1.000000
   50       -5.422294   1.000000
   51       -5.418347   1.000000
   52       -5.402970   1.000000
   53       -5.401405   1.000000
   54       -5.397181   1.000000
   55       -5.391971   1.000000
   56       -5.368999   1.000000
   57       -5.347936   1.000000
   58       -5.339729   1.000000
   59       -5.326357   1.000000
   60       -5.324755   1.000000
   61       -5.320381   1.000000
   62       -5.318659   1.000000
   63       -5.313224   1.000000
   64       -5.304473   1.000000
   65       -5.297066   1.000000
   66       -5.296510   1.000000
   67       -5.283012   1.000000
   68       -5.261669   1.000000
   69       -5.232896   1.000000
   70       -5.213578   1.000000
   71       -5.209869   1.000000
   72       -5.201927   1.000000
   73       -5.197020   1.000000
   74       -5.189365   1.000000
   75       -5.180395   1.000000
   76       -5.177960   1.000000
   77       -5.176335   1.000000
   78       -5.163453   1.000000
   79       -5.160472   1.000000
   80       -5.156072   1.000000
   81       -5.151014   1.000000
   82       -5.139526   1.000000
   83       -5.128683   1.000000
   84       -5.123072   1.000000
   85       -5.113405   1.000000
   86       -5.110002   1.000000
   87       -5.101087   1.000000
   88       -5.097952   1.000000
   89       -5.076693   1.000000
   90       -5.061668   1.000000
   91       -5.057445   1.000000
   92       -5.055806   1.000000
   93       -5.051003   1.000000
   94       -5.048514   1.000000
   95       -5.046731   1.000000
   96       -5.045094   1.000000
   97       -5.038164   1.000000
   98       -5.032968   1.000000
   99       -5.026886   1.000000
  100       -5.025113   1.000000
  101       -5.022718   1.000000
  102       -5.015171   1.000000
  103       -5.008196   1.000000
  104       -5.001991   1.000000
  105       -4.999968   1.000000
  106       -4.994335   1.000000
  107       -4.992561   1.000000
  108       -4.987648   1.000000
  109       -4.983694   1.000000
  110       -4.973477   1.000000
  111       -4.972681   1.000000
  112       -4.966655   1.000000
  113       -4.963990   1.000000
  114       -4.955956   0.999999
  115       -4.954207   0.999999
  116       -4.952090   0.999999
  117       -4.940792   0.999999
  118       -4.935299   0.999999
  119       -4.928402   0.999999
  120       -4.922581   0.999998
  121       -4.910452   0.999997
  122       -4.908263   0.999997
  123       -4.904822   0.999997
  124       -4.900868   0.999996
  125       -4.896319   0.999996
  126       -4.894565   0.999996
  127       -4.873698   0.999991
  128       -4.859313   0.999987
  129       -4.849506   0.999982
  130       -4.844006   0.999979
  131       -4.842133   0.999977
  132       -4.838116   0.999975
  133       -4.835258   0.999972
  134       -4.831197   0.999969
  135       -4.827206   0.999965
  136       -4.823251   0.999961
  137       -4.802462   0.999930
  138       -4.792217   0.999909
  139       -4.790531   0.999904
  140       -4.778489   0.999869
  141       -4.772447   0.999848
  142       -4.765260   0.999818
  143       -4.757952   0.999783
  144       -4.751890   0.999749
  145       -4.748213   0.999726
  146       -4.736393   0.999640
  147       -4.732211   0.999605
  148       -4.722005   0.999506
  149       -4.711013   0.999376
  150       -4.705289   0.999298
  151       -4.699571   0.999213
  152       -4.691930   0.999085
  153       -4.683324   0.998923
  154       -4.681483   0.998886
  155       -4.680208   0.998860
  156       -4.676313   0.998776
  157       -4.673622   0.998715
  158       -4.670283   0.998637
  159       -4.668169   0.998586
  160       -4.663879   0.998478
  161       -4.657102   0.998297
  162       -4.654046   0.998210
  163       -4.649626   0.998080
  164       -4.645136   0.997942
  165       -4.643745   0.997899
  166       -4.642235   0.997850
  167       -4.640904   0.997807
  168       -4.638712   0.997736
  169       -4.638071   0.997714
  170       -4.624786   0.997253
  171       -4.621345   0.997128
  172       -4.610700   0.996732
  173       -4.603860   0.996474
  174       -4.600251   0.996339
  175       -4.593859   0.996104
  176       -4.592135   0.996042
  177       -4.591372   0.996015
  178       -4.587297   0.995873
  179       -4.584779   0.995788
  180       -4.578709   0.995594
  181       -4.573330   0.995440
  182       -4.565314   0.995249
  183       -4.561638   0.995181
  184       -4.557373   0.995119
  185       -4.555414   0.995098
  186       -4.553711   0.995084
  187       -4.550661   0.995068
  188       -4.546911   0.995067
  189       -4.545407   0.995073
  190       -4.535921   0.995201
  191       -4.528947   0.995409
  192       -4.524885   0.995582
  193       -4.512518   0.996377
  194       -4.506009   0.996978
  195       -4.501918   0.997428
  196       -4.500747   0.997568
  197       -4.495072   0.998314
  198       -4.484792   0.999983
  199       -4.479420   1.001027
  200       -4.476911   1.001557
  201       -4.469424   1.003305
  202       -4.465933   1.004205
  203       -4.459833   1.005913
  204       -4.457860   1.006501
  205       -4.452193   1.008291
  206       -4.450034   1.009011
  207       -4.445904   1.010446
  208       -4.441633   1.012008
  209       -4.437956   1.013414
  210       -4.436642   1.013931
  211       -4.425836   1.018423
  212       -4.422449   1.019913
  213       -4.415568   1.023041
  214       -4.412715   1.024370
  215       -4.406204   1.027458
  216       -4.403957   1.028535
  217       -4.399940   1.030468
  218       -4.398824   1.031006
  219       -4.396144   1.032295
  220       -4.383782   1.038126
  221       -4.374894   1.042041
  222       -4.366808   1.045244
  223       -4.362969   1.046602
  224       -4.351305   1.049890
  225       -4.346605   1.050778
  226       -4.339203   1.051553
  227       -4.333834   1.051573
  228       -4.333064   1.051535
  229       -4.331871   1.051454
  230       -4.330507   1.051330
  231       -4.328639   1.051101
  232       -4.328542   1.051088
  233       -4.324481   1.050343
  234       -4.321397   1.049547
  235       -4.320273   1.049204
  236       -4.317042   1.048060
  237       -4.316528   1.047855
  238       -4.314730   1.047089
  239       -4.312408   1.045983
  240       -4.306474   1.042528
  241       -4.302827   1.039933
  242       -4.297654   1.035601
  243       -4.289181   1.026753
  244       -4.287067   1.024189
  245       -4.284095   1.020335
  246       -4.281891   1.017285
  247       -4.278721   1.012604
  248       -4.277757   1.011112
  249       -4.274211   1.005338
  250       -4.267393   0.992960
  251       -4.261028   0.979847
  252       -4.258995   0.975337
  253       -4.256448   0.969464
  254       -4.253160   0.961513
  255       -4.250527   0.954842
  256       -4.247307   0.946323
  257       -4.245793   0.942178
  258       -4.243182   0.934820
  259       -4.239998   0.925492
  260       -4.238842   0.922008
  261       -4.237847   0.918966
  262       -4.235909   0.912936
  263       -4.233212   0.904304
  264       -4.232592   0.902279
  265       -4.230887   0.896638
  266       -4.223448   0.870755
  267       -4.219352   0.855631
  268       -4.216688   0.845475
  269       -4.215238   0.839841
  270       -4.212693   0.829776
  271       -4.210776   0.822049
  272       -4.201615   0.783466
  273       -4.198874   0.771418
  274       -4.190299   0.732331
  275       -4.180488   0.685318
  276       -4.178615   0.676098
  277       -4.172034   0.643176
  278       -4.168203   0.623678
  279       -4.168052   0.622904
  280       -4.165813   0.611403
  281       -4.160690   0.584859
  282       -4.152494   0.541886
  283       -4.132479   0.436250
  284       -4.124718   0.395819
  285       -4.123326   0.388635
  286       -4.122301   0.383361
  287       -4.111971   0.331107
  288       -4.106175   0.302648
  289       -4.051892   0.082910
  290       -3.962281  -0.050818
  291       -3.898384  -0.034875
  292       -3.821635  -0.003795
  293       -3.811350  -0.001370
  294       -3.729203   0.004846
  295       -3.496944   0.000091
  296       -3.489802   0.000076
  297       -3.388830   0.000004
  298       -3.061796   0.000000
  299       -3.058199   0.000000
  300       -3.034211   0.000000
  301       -3.033058   0.000000
  302       -3.015142   0.000000
  303       -2.966003   0.000000
  304       -2.946869   0.000000
  305       -2.846789   0.000000
  306       -2.558873   0.000000
  307       -2.519792   0.000000
  308       -2.411093   0.000000
  309       -2.305208   0.000000
  310       -2.132898   0.000000
  311       -2.122585   0.000000
  312       -2.110963   0.000000
  313       -2.019609   0.000000
  314       -1.990864   0.000000
  315       -1.929269   0.000000
  316       -1.868798   0.000000
  317       -1.856961   0.000000
  318       -1.741958   0.000000
  319       -1.716986   0.000000
  320       -1.645952   0.000000
  321       -1.600279   0.000000
  322       -1.558504   0.000000
  323       -1.469650   0.000000
  324       -1.374357   0.000000
  325       -1.313864   0.000000
  326       -1.152970   0.000000
  327       -1.120677   0.000000
  328       -1.030419   0.000000
  329       -0.984645   0.000000
  330       -0.980975   0.000000
  331       -0.959495   0.000000
  332       -0.936621   0.000000
  333       -0.906266   0.000000
  334       -0.901332   0.000000
  335       -0.841160   0.000000
  336       -0.786792   0.000000
