 running on    1 total cores
 distrk:  each k-point on    1 cores,    1 groups
 distr:  one band on    1 cores,    1 groups
 using from now: INCAR     
 vasp.5.4.4.18Apr17-6-g9f103f2a35 (build Sep 03 2018 23:53:05) complex          
  
 POSCAR found type information on POSCAR  Pd C  O 
 POSCAR found :  3 types and      57 ions
 scaLAPACK will be used

 ----------------------------------------------------------------------------- 
|                                                                             |
|  ADVICE TO THIS USER RUNNING 'VASP/VAMP'   (HEAR YOUR MASTER'S VOICE ...):  |
|                                                                             |
|      You enforced a specific xc-type in the INCAR file,                     |
|      a different type was found on the POTCAR file                          |
|          I HOPE YOU KNOW, WHAT YOU ARE  DOING                               |
|                                                                             |
 ----------------------------------------------------------------------------- 

 LDA part: xc-table for Pade appr. of Perdew
 POSCAR, INCAR and KPOINTS ok, starting setup
 FFT: planning ...
 WAVECAR not read
 entering main loop
       N       E                     dE             d eps       ncg     rms          rms(c)
DAV:   1     0.438772953914E+04    0.43877E+04   -0.10049E+05   688   0.815E+02
DAV:   2     0.201027960342E+04   -0.23774E+04   -0.21376E+04  1224   0.105E+02
DAV:   3     0.229387228510E+03   -0.17809E+04   -0.16770E+04  1000   0.920E+01
DAV:   4    -0.136072681812E+03   -0.36546E+03   -0.31452E+03   840   0.435E+01
DAV:   5    -0.179852150493E+03   -0.43779E+02   -0.36309E+02  1048   0.143E+01    0.147E+01
RMM:   6    -0.180435300021E+03   -0.58315E+00   -0.56249E+01   725   0.898E+00    0.236E+01
RMM:   7    -0.182959366304E+03   -0.25241E+01   -0.17910E+01   863   0.449E+00    0.233E+01
RMM:   8    -0.184093606091E+03   -0.11342E+01   -0.73578E+00   761   0.360E+00    0.272E+01
RMM:   9    -0.182339813113E+03    0.17538E+01   -0.51333E+00   734   0.311E+00    0.284E+01
RMM:  10    -0.180400774930E+03    0.19390E+01   -0.25960E+00   759   0.227E+00    0.221E+01
RMM:  11    -0.178418641992E+03    0.19821E+01   -0.23439E+00   724   0.220E+00    0.166E+01
RMM:  12    -0.177979850021E+03    0.43879E+00   -0.18514E+00   728   0.203E+00    0.182E+01
RMM:  13    -0.177404619437E+03    0.57523E+00   -0.10705E+00   727   0.153E+00    0.180E+01
RMM:  14    -0.176847001550E+03    0.55762E+00   -0.13179E+00   723   0.169E+00    0.136E+01
RMM:  15    -0.176422979504E+03    0.42402E+00   -0.11996E+00   711   0.164E+00    0.149E+01
RMM:  16    -0.176077806091E+03    0.34517E+00   -0.95506E-01   711   0.147E+00    0.128E+01
RMM:  17    -0.175868358567E+03    0.20945E+00   -0.63634E-01   706   0.121E+00    0.133E+01
RMM:  18    -0.175606843408E+03    0.26152E+00   -0.45987E-01   704   0.102E+00    0.939E+00
RMM:  19    -0.175439265753E+03    0.16758E+00   -0.38273E-01   701   0.936E-01    0.978E+00
RMM:  20    -0.175351625678E+03    0.87640E-01   -0.30372E-01   702   0.840E-01    0.859E+00
RMM:  21    -0.175273426925E+03    0.78199E-01   -0.26487E-01   706   0.792E-01    0.741E+00
RMM:  22    -0.175168772673E+03    0.10465E+00   -0.20845E-01   699   0.699E-01    0.585E+00
RMM:  23    -0.175040156850E+03    0.12862E+00   -0.15247E-01   699   0.611E-01    0.443E+00
RMM:  24    -0.174978003841E+03    0.62153E-01   -0.97657E-02   699   0.481E-01    0.382E+00
RMM:  25    -0.174941530150E+03    0.36474E-01   -0.62773E-02   698   0.387E-01    0.321E+00
RMM:  26    -0.174901272626E+03    0.40258E-01   -0.43455E-02   696   0.332E-01    0.224E+00
RMM:  27    -0.174891873565E+03    0.93991E-02   -0.29196E-02   697   0.274E-01    0.203E+00
RMM:  28    -0.174886381810E+03    0.54918E-02   -0.23514E-02   696   0.246E-01    0.196E+00
RMM:  29    -0.174870882847E+03    0.15499E-01   -0.13000E-02   698   0.199E-01    0.151E+00
RMM:  30    -0.174864766945E+03    0.61159E-02   -0.10586E-02   698   0.171E-01    0.125E+00
RMM:  31    -0.174861278456E+03    0.34885E-02   -0.68138E-03   697   0.133E-01    0.110E+00
RMM:  32    -0.174859339641E+03    0.19388E-02   -0.42524E-03   699   0.109E-01    0.105E+00
RMM:  33    -0.174855662841E+03    0.36768E-02   -0.29642E-03   692   0.929E-02    0.608E-01
RMM:  34    -0.174856556560E+03   -0.89372E-03   -0.23643E-03   691   0.773E-02    0.653E-01
RMM:  35    -0.174856245274E+03    0.31129E-03   -0.16625E-03   693   0.690E-02    0.497E-01
RMM:  36    -0.174857310474E+03   -0.10652E-02   -0.12440E-03   690   0.560E-02    0.492E-01
RMM:  37    -0.174859974668E+03   -0.26642E-02   -0.15564E-03   688   0.619E-02    0.387E-01
RMM:  38    -0.174861282126E+03   -0.13075E-02   -0.76794E-04   680   0.439E-02    0.295E-01
RMM:  39    -0.174863468112E+03   -0.21860E-02   -0.48840E-04   552   0.341E-02    0.292E-01
RMM:  40    -0.174865304934E+03   -0.18368E-02   -0.42364E-04   518   0.326E-02    0.229E-01
RMM:  41    -0.174867879463E+03   -0.25745E-02   -0.48292E-04   539   0.316E-02    0.222E-01
RMM:  42    -0.174870740571E+03   -0.28611E-02   -0.54783E-04   566   0.320E-02    0.203E-01
RMM:  43    -0.174872579437E+03   -0.18389E-02   -0.32952E-04   452   0.257E-02    0.196E-01
RMM:  44    -0.174875185695E+03   -0.26063E-02   -0.47105E-04   521   0.260E-02    0.108E-01
RMM:  45    -0.174876074188E+03   -0.88849E-03   -0.16592E-04   424   0.175E-02    0.825E-02
RMM:  46    -0.174878109453E+03   -0.20353E-02   -0.23957E-04   427   0.179E-02    0.826E-02
RMM:  47    -0.174878781593E+03   -0.67214E-03   -0.98500E-05   416   0.125E-02    0.442E-02
RMM:  48    -0.174879807858E+03   -0.10263E-02   -0.72891E-05   415   0.103E-02    0.620E-02
RMM:  49    -0.174880757487E+03   -0.94963E-03   -0.62340E-05   404   0.932E-03    0.273E-02
RMM:  50    -0.174881212913E+03   -0.45543E-03   -0.29900E-05   381   0.650E-03    0.307E-02
RMM:  51    -0.174882101101E+03   -0.88819E-03   -0.28466E-05   388   0.620E-03    0.261E-02
RMM:  52    -0.174882467571E+03   -0.36647E-03   -0.13037E-05   269   0.473E-03    0.184E-02
RMM:  53    -0.174882928100E+03   -0.46053E-03   -0.14117E-05   296   0.488E-03    0.221E-02
RMM:  54    -0.174883366464E+03   -0.43836E-03   -0.15524E-05   282   0.475E-03    0.987E-03
WARNING in EDDRMM: call to ZHEGV failed, returncode =   6  3    336
RMM:  55    -0.174883571662E+03   -0.20520E-03   -0.44988E-06   153   0.379E-03    0.128E-02
RMM:  56    -0.174883962459E+03   -0.39080E-03   -0.22422E-05   282   0.487E-03    0.900E-03
RMM:  57    -0.174884074339E+03   -0.11188E-03   -0.49985E-06   145   0.356E-03    0.683E-03
RMM:  58    -0.174884222341E+03   -0.14800E-03   -0.97592E-06   177   0.391E-03    0.665E-03
RMM:  59    -0.174884302102E+03   -0.79761E-04   -0.58324E-06   141   0.363E-03
   1 F= -.17488430E+03 E0= -.17485744E+03  d E =-.107454E+00
================================= SLURM INFO ===================================
Command: run-cluster -n 1 -m 10000 -j 0148_vasp --same-node /opt/VASP/vasp
Exit code: 0
Job name: 0148_vasp
Job time: 0 days 5h:2m:16s
MPI task count: 1
Working dir: /home/pashkov/pyFitIt/pyfitit/data/random_pd_co_new/sample/0148
Job was running on nodes: h5
Task per node: 1
       JobID     MaxRSS  MaxDiskRead MaxDiskWrite    Elapsed    JobName 
------------ ---------- ------------ ------------ ---------- ---------- 
105266                                              05:02:16  0148_vasp 
105266.batch                                        05:02:16      batch 
