<?xml version="1.0" encoding="ISO-8859-1"?>
<modeling>
 <generator>
  <i name="program" type="string">vasp </i>
  <i name="version" type="string">5.4.4.18Apr17-6-g9f103f2a35  </i>
  <i name="subversion" type="string">(build Sep 03 2018 23:53:05) complex            parallel </i>
  <i name="platform" type="string">LinuxIFC </i>
  <i name="date" type="string">2021 12 02 </i>
  <i name="time" type="string">12:20:11 </i>
 </generator>
 <incar>
  <i type="string" name="SYSTEM"> 6_Pd100_top_free_z(O)</i>
  <i type="int" name="ISTART">     0</i>
  <i type="string" name="PREC">normal   			! encut=max(enmax), ngx,y,z</i>
  <i type="string" name="ALGO"> Fast     			! Mix RMM-DIIS and Dav</i>
  <i type="logical" name="ADDGRID"> F  </i>
  <i type="int" name="ISPIN">     1</i>
  <i type="int" name="ICHARG">     2</i>
  <i type="int" name="NELM">   100</i>
  <i type="int" name="NELMIN">     6</i>
  <i type="int" name="IBRION">     2</i>
  <i name="EDIFF">      0.00010000</i>
  <i name="EDIFFG">     -0.05000000</i>
  <i type="int" name="NSW">     0</i>
  <i type="int" name="ISIF">     2</i>
  <i type="int" name="ISYM">     2</i>
  <i name="ENCUT">    400.00000000</i>
  <i type="string" name="LREAL"> Auto     			! Auto or A projection done</i>
  <i type="int" name="ISMEAR">     2</i>
  <i name="SIGMA">      0.20000000</i>
  <i type="logical" name="LWAVE"> F  </i>
  <i type="logical" name="LCHARG"> F  </i>
  <v type="int" name="KPOINT_BSE">    -1     0     0     0</v>
  <i type="int" name="MAXMEM"> 10000</i>
  <i type="int" name="NELM">   100</i>
  <i type="string" name="GGA"> RP         			! Revised PBE</i>
 </incar>
 <structure name="primitive_cell" >
  <crystal>
   <varray name="basis" >
    <v>      30.00000000       0.00000000       0.00000000 </v>
    <v>       0.00000000      30.00000000       0.00000000 </v>
    <v>       0.00000000       0.00000000      30.00000000 </v>
   </varray>
   <i name="volume">  27000.00000000 </i>
   <varray name="rec_basis" >
    <v>       0.03333333       0.00000000       0.00000000 </v>
    <v>       0.00000000       0.03333333       0.00000000 </v>
    <v>       0.00000000       0.00000000       0.03333333 </v>
   </varray>
  </crystal>
  <varray name="positions" >
   <v>       0.44576020       0.32826710       0.41691983 </v>
   <v>      -0.44576020       0.32826710       0.41691983 </v>
   <v>      -0.50000000       0.38250690       0.34021317 </v>
   <v>      -0.50000000       0.27609440      -0.50000000 </v>
   <v>       0.38804720       0.38804720       0.34167483 </v>
   <v>      -0.50000000       0.38416601      -0.50000000 </v>
   <v>       0.44208300       0.44208300       0.41809300 </v>
   <v>       0.38317830       0.38317830      -0.50000000 </v>
   <v>      -0.44208300       0.44208300       0.41809300 </v>
   <v>       0.44576020       0.32826710      -0.41691977 </v>
   <v>       0.32826705       0.44576024       0.41691983 </v>
   <v>      -0.38804720       0.38804720       0.34167483 </v>
   <v>      -0.38317830       0.38317830      -0.50000000 </v>
   <v>      -0.50000000      -0.50000000       0.33478917 </v>
   <v>      -0.50000000      -0.50000000      -0.50000000 </v>
   <v>      -0.44576020       0.32826710      -0.41691977 </v>
   <v>       0.38250685      -0.49999995       0.34021317 </v>
   <v>       0.44208300       0.44208300      -0.41809297 </v>
   <v>       0.38416599      -0.49999998      -0.50000000 </v>
   <v>      -0.44208300       0.44208300      -0.41809297 </v>
   <v>       0.44208298      -0.44208298       0.41809300 </v>
   <v>       0.32826705       0.44576024      -0.41691977 </v>
   <v>      -0.49800683      -0.49811383       0.25198917 </v>
   <v>      -0.50000000       0.38250690      -0.34021320 </v>
   <v>       0.32826712      -0.44576022       0.41691983 </v>
   <v>      -0.38250685      -0.49999995       0.34021317 </v>
   <v>      -0.32826705       0.44576024       0.41691983 </v>
   <v>       0.27609443       0.49999998      -0.50000000 </v>
   <v>       0.38804720       0.38804720      -0.34167487 </v>
   <v>      -0.38416599      -0.49999998      -0.50000000 </v>
   <v>      -0.44208298      -0.44208298       0.41809300 </v>
   <v>      -0.49770467      -0.49782790       0.21439147 </v>
   <v>       0.44208298      -0.44208298      -0.41809297 </v>
   <v>      -0.38804720       0.38804720      -0.34167487 </v>
   <v>       0.38804722      -0.38804722       0.34167483 </v>
   <v>       0.38250685      -0.49999995      -0.34021320 </v>
   <v>       0.32826712      -0.44576022      -0.41691977 </v>
   <v>      -0.32826705       0.44576024      -0.41691977 </v>
   <v>       0.50000000      -0.38250681       0.34021317 </v>
   <v>      -0.50000000      -0.38416596      -0.50000000 </v>
   <v>      -0.44208298      -0.44208298      -0.41809297 </v>
   <v>      -0.50000000      -0.50000000      -0.33478913 </v>
   <v>       0.38317828      -0.38317828      -0.50000000 </v>
   <v>      -0.32826712      -0.44576022       0.41691983 </v>
   <v>      -0.27609443       0.49999998      -0.50000000 </v>
   <v>      -0.38804722      -0.38804722       0.34167483 </v>
   <v>      -0.38250685      -0.49999995      -0.34021320 </v>
   <v>       0.44576027      -0.32826707       0.41691983 </v>
   <v>      -0.38317828      -0.38317828      -0.50000000 </v>
   <v>      -0.32826712      -0.44576022      -0.41691977 </v>
   <v>      -0.44576027      -0.32826707       0.41691983 </v>
   <v>       0.38804722      -0.38804722      -0.34167487 </v>
   <v>      -0.50000000      -0.38250681      -0.34021320 </v>
   <v>       0.44576027      -0.32826707      -0.41691977 </v>
   <v>      -0.44576027      -0.32826707      -0.41691977 </v>
   <v>      -0.50000000      -0.27609445       0.50000000 </v>
   <v>      -0.38804722      -0.38804722      -0.34167487 </v>
  </varray>
 </structure>
 <varray name="primitive_index" >
  <v type="int" >        1 </v>
  <v type="int" >        3 </v>
  <v type="int" >        5 </v>
  <v type="int" >        7 </v>
  <v type="int" >       15 </v>
  <v type="int" >       29 </v>
  <v type="int" >       28 </v>
  <v type="int" >       34 </v>
  <v type="int" >       21 </v>
  <v type="int" >       19 </v>
  <v type="int" >       22 </v>
  <v type="int" >       11 </v>
  <v type="int" >       36 </v>
  <v type="int" >       38 </v>
  <v type="int" >       52 </v>
  <v type="int" >       24 </v>
  <v type="int" >       32 </v>
  <v type="int" >       44 </v>
  <v type="int" >       48 </v>
  <v type="int" >       42 </v>
  <v type="int" >       43 </v>
  <v type="int" >       40 </v>
  <v type="int" >       56 </v>
  <v type="int" >        6 </v>
  <v type="int" >        4 </v>
  <v type="int" >       30 </v>
  <v type="int" >       26 </v>
  <v type="int" >        8 </v>
  <v type="int" >       16 </v>
  <v type="int" >       49 </v>
  <v type="int" >       47 </v>
  <v type="int" >       57 </v>
  <v type="int" >       53 </v>
  <v type="int" >       12 </v>
  <v type="int" >       13 </v>
  <v type="int" >       33 </v>
  <v type="int" >       25 </v>
  <v type="int" >       45 </v>
  <v type="int" >       50 </v>
  <v type="int" >       55 </v>
  <v type="int" >       54 </v>
  <v type="int" >       39 </v>
  <v type="int" >       37 </v>
  <v type="int" >        2 </v>
  <v type="int" >        9 </v>
  <v type="int" >       17 </v>
  <v type="int" >       31 </v>
  <v type="int" >       27 </v>
  <v type="int" >       35 </v>
  <v type="int" >       20 </v>
  <v type="int" >       23 </v>
  <v type="int" >       14 </v>
  <v type="int" >       51 </v>
  <v type="int" >       46 </v>
  <v type="int" >       41 </v>
  <v type="int" >       10 </v>
  <v type="int" >       18 </v>
 </varray>
 <kpoints>
  <generation param="Monkhorst-Pack">
   <v type="int" name="divisions">       1        1        1 </v>
   <v name="usershift">      0.00000000       0.00000000       0.00000000 </v>
   <v name="genvec1">      1.00000000       0.00000000       0.00000000 </v>
   <v name="genvec2">      0.00000000       1.00000000       0.00000000 </v>
   <v name="genvec3">      0.00000000       0.00000000       1.00000000 </v>
   <v name="shift">      0.00000000       0.00000000       0.00000000 </v>
  </generation>
  <varray name="kpointlist" >
   <v>       0.00000000       0.00000000       0.00000000 </v>
  </varray>
  <varray name="weights" >
   <v>       1.00000000 </v>
  </varray>
 </kpoints>
 <parameters>
  <separator name="general" >
   <i type="string" name="SYSTEM">6_Pd100_top_free_z(O)</i>
   <i type="logical" name="LCOMPAT"> F  </i>
  </separator>
  <separator name="electronic" >
   <i type="string" name="PREC">normal</i>
   <i name="ENMAX">    400.00000000</i>
   <i name="ENAUG">    644.87300000</i>
   <i name="EDIFF">      0.00010000</i>
   <i type="int" name="IALGO">    68</i>
   <i type="int" name="IWAVPR">    10</i>
   <i type="int" name="NBANDS">   336</i>
   <i name="NELECT">    560.00000000</i>
   <i type="int" name="TURBO">     0</i>
   <i type="int" name="IRESTART">     0</i>
   <i type="int" name="NREBOOT">     0</i>
   <i type="int" name="NMIN">     0</i>
   <i name="EREF">      0.00000000</i>
   <separator name="electronic smearing" >
    <i type="int" name="ISMEAR">     2</i>
    <i name="SIGMA">      0.20000000</i>
    <i name="KSPACING">      0.50000000</i>
    <i type="logical" name="KGAMMA"> T  </i>
   </separator>
   <separator name="electronic projectors" >
    <i type="logical" name="LREAL"> T  </i>
    <v name="ROPT">     -0.00050000     -0.00050000     -0.00050000</v>
    <i type="int" name="LMAXPAW">  -100</i>
    <i type="int" name="LMAXMIX">     2</i>
    <i type="logical" name="NLSPLINE"> F  </i>
   </separator>
   <separator name="electronic startup" >
    <i type="int" name="ISTART">     0</i>
    <i type="int" name="ICHARG">     2</i>
    <i type="int" name="INIWAV">     1</i>
   </separator>
   <separator name="electronic spin" >
    <i type="int" name="ISPIN">     1</i>
    <i type="logical" name="LNONCOLLINEAR"> F  </i>
    <v name="MAGMOM">      1.00000000      1.00000000      1.00000000      1.00000000      1.00000000      1.00000000      1.00000000      1.00000000      1.00000000      1.00000000      1.00000000      1.00000000      1.00000000      1.00000000      1.00000000      1.00000000      1.00000000      1.00000000      1.00000000      1.00000000
      1.00000000      1.00000000      1.00000000      1.00000000      1.00000000      1.00000000      1.00000000      1.00000000      1.00000000      1.00000000      1.00000000      1.00000000      1.00000000      1.00000000      1.00000000      1.00000000      1.00000000      1.00000000      1.00000000      1.00000000
      1.00000000      1.00000000      1.00000000      1.00000000      1.00000000      1.00000000      1.00000000      1.00000000      1.00000000      1.00000000      1.00000000      1.00000000      1.00000000      1.00000000      1.00000000      1.00000000      1.00000000</v>
    <i name="NUPDOWN">     -1.00000000</i>
    <i type="logical" name="LSORBIT"> F  </i>
    <v name="SAXIS">      0.00000000      0.00000000      1.00000000</v>
    <i type="logical" name="LSPIRAL"> F  </i>
    <v name="QSPIRAL">      0.00000000      0.00000000      0.00000000</v>
    <i type="logical" name="LZEROZ"> F  </i>
   </separator>
   <separator name="electronic exchange-correlation" >
    <i type="logical" name="LASPH"> F  </i>
    <i type="logical" name="LMETAGGA"> F  </i>
   </separator>
   <separator name="electronic convergence" >
    <i type="int" name="NELM">   100</i>
    <i type="int" name="NELMDL">    -5</i>
    <i type="int" name="NELMIN">     6</i>
    <i name="ENINI">    400.00000000</i>
    <separator name="electronic convergence detail" >
     <i type="logical" name="LDIAG"> T  </i>
     <i type="logical" name="LSUBROT"> F  </i>
     <i name="WEIMIN">      0.00000000</i>
     <i name="EBREAK">      0.00000007</i>
     <i name="DEPER">      0.30000000</i>
     <i type="int" name="NRMM">     4</i>
     <i name="TIME">      0.40000000</i>
    </separator>
   </separator>
   <separator name="electronic mixer" >
    <i name="AMIX">      0.40000000</i>
    <i name="BMIX">      1.00000000</i>
    <i name="AMIN">      0.10000000</i>
    <i name="AMIX_MAG">      1.60000000</i>
    <i name="BMIX_MAG">      1.00000000</i>
    <separator name="electronic mixer details" >
     <i type="int" name="IMIX">     4</i>
     <i type="logical" name="MIXFIRST"> F  </i>
     <i type="int" name="MAXMIX">   -45</i>
     <i name="WC">    100.00000000</i>
     <i type="int" name="INIMIX">     1</i>
     <i type="int" name="MIXPRE">     1</i>
     <i type="int" name="MREMOVE">     5</i>
    </separator>
   </separator>
   <separator name="electronic dipolcorrection" >
    <i type="logical" name="LDIPOL"> F  </i>
    <i type="logical" name="LMONO"> F  </i>
    <i type="int" name="IDIPOL">     0</i>
    <i name="EPSILON">      1.00000000</i>
    <v name="DIPOL">   -100.00000000   -100.00000000   -100.00000000</v>
    <i name="EFIELD">      0.00000000</i>
   </separator>
  </separator>
  <separator name="grids" >
   <i type="int" name="NGX">   150</i>
   <i type="int" name="NGY">   150</i>
   <i type="int" name="NGZ">   150</i>
   <i type="int" name="NGXF">   300</i>
   <i type="int" name="NGYF">   300</i>
   <i type="int" name="NGZF">   300</i>
   <i type="logical" name="ADDGRID"> F  </i>
  </separator>
  <separator name="ionic" >
   <i type="int" name="NSW">     0</i>
   <i type="int" name="IBRION">    -1</i>
   <i type="int" name="MDALGO">     0</i>
   <i type="int" name="ISIF">     2</i>
   <i name="PSTRESS">      0.00000000</i>
   <i name="EDIFFG">     -0.05000000</i>
   <i type="int" name="NFREE">     1</i>
   <i name="POTIM">      0.50000000</i>
   <i name="SMASS">     -3.00000000</i>
   <i name="SCALEE">      1.00000000</i>
  </separator>
  <separator name="ionic md" >
   <i name="TEBEG">      0.00010000</i>
   <i name="TEEND">      0.00010000</i>
   <i type="int" name="NBLOCK">     1</i>
   <i type="int" name="KBLOCK">     1</i>
   <i type="int" name="NPACO">   256</i>
   <i name="APACO">     16.00000000</i>
  </separator>
  <separator name="symmetry" >
   <i type="int" name="ISYM">     2</i>
   <i name="SYMPREC">      0.00001000</i>
  </separator>
  <separator name="dos" >
   <i type="int" name="LORBIT">     0</i>
   <v name="RWIGS">     -1.00000000     -1.00000000     -1.00000000</v>
   <i type="int" name="NEDOS">   301</i>
   <i name="EMIN">     10.00000000</i>
   <i name="EMAX">    -10.00000000</i>
   <i name="EFERMI">      0.00000000</i>
  </separator>
  <separator name="writing" >
   <i type="int" name="NWRITE">     2</i>
   <i type="logical" name="LWAVE"> F  </i>
   <i type="logical" name="LDOWNSAMPLE"> F  </i>
   <i type="logical" name="LCHARG"> F  </i>
   <i type="logical" name="LPARD"> F  </i>
   <i type="logical" name="LVTOT"> F  </i>
   <i type="logical" name="LVHAR"> F  </i>
   <i type="logical" name="LELF"> F  </i>
   <i type="logical" name="LOPTICS"> F  </i>
   <v name="STM">      0.00000000      0.00000000      0.00000000      0.00000000      0.00000000      0.00000000      0.00000000</v>
  </separator>
  <separator name="performance" >
   <i type="int" name="NPAR">     1</i>
   <i type="int" name="NSIM">     4</i>
   <i type="int" name="NBLK">    -1</i>
   <i type="logical" name="LPLANE"> T  </i>
   <i type="logical" name="LSCALAPACK"> T  </i>
   <i type="logical" name="LSCAAWARE"> F  </i>
   <i type="logical" name="LSCALU"> F  </i>
   <i type="logical" name="LASYNC"> F  </i>
   <i type="logical" name="LORBITALREAL"> F  </i>
  </separator>
  <separator name="miscellaneous" >
   <i type="int" name="IDIOT">     3</i>
   <i type="int" name="ISPECIAL">     0</i>
   <i type="logical" name="LMUSIC"> F  </i>
   <v name="POMASS">    106.42000000     12.01100000     16.00000000</v>
   <v name="DARWINR">      0.00000000      0.00000000      0.00000000</v>
   <v name="DARWINV">      1.00000000      1.00000000      1.00000000</v>
   <i type="logical" name="LCORR"> T  </i>
  </separator>
  <i type="logical" name="GGA_COMPAT"> T  </i>
  <i type="logical" name="LBERRY"> F  </i>
  <i type="int" name="ICORELEVEL">     0</i>
  <i type="logical" name="LDAU"> F  </i>
  <i type="int" name="I_CONSTRAINED_M">     0</i>
  <separator name="electronic exchange-correlation" >
   <i type="string" name="GGA">RP</i>
   <i type="int" name="VOSKOWN">     0</i>
   <i type="logical" name="LHFCALC"> F  </i>
   <i type="string" name="PRECFOCK"></i>
   <i type="logical" name="LSYMGRAD"> F  </i>
   <i type="logical" name="LHFONE"> F  </i>
   <i type="logical" name="LRHFCALC"> F  </i>
   <i type="logical" name="LTHOMAS"> F  </i>
   <i type="logical" name="LMODELHF"> F  </i>
   <i name="ENCUT4O">     -1.00000000</i>
   <i type="int" name="EXXOEP">     0</i>
   <i type="int" name="FOURORBIT">     0</i>
   <i name="AEXX">      0.00000000</i>
   <i name="HFALPHA">      0.00000000</i>
   <i name="MCALPHA">      0.00000000</i>
   <i name="ALDAX">      1.00000000</i>
   <i name="AGGAX">      1.00000000</i>
   <i name="ALDAC">      1.00000000</i>
   <i name="AGGAC">      1.00000000</i>
   <i type="int" name="NKREDX">     1</i>
   <i type="int" name="NKREDY">     1</i>
   <i type="int" name="NKREDZ">     1</i>
   <i type="logical" name="SHIFTRED"> F  </i>
   <i type="logical" name="ODDONLY"> F  </i>
   <i type="logical" name="EVENONLY"> F  </i>
   <i type="int" name="LMAXFOCK">     0</i>
   <i type="int" name="NMAXFOCKAE">     0</i>
   <i type="logical" name="LFOCKAEDFT"> F  </i>
   <i name="HFSCREEN">      0.00000000</i>
   <i name="HFSCREENC">      0.00000000</i>
   <i type="int" name="NBANDSGWLOW">     0</i>
  </separator>
  <separator name="vdW DFT" >
   <i type="logical" name="LUSE_VDW"> F  </i>
   <i name="Zab_VDW">     -0.84910000</i>
   <i name="PARAM1">      0.12340000</i>
   <i name="PARAM2">      1.00000000</i>
   <i name="PARAM3">      0.00000000</i>
  </separator>
  <separator name="model GW" >
   <i type="int" name="MODEL_GW">     0</i>
   <i name="MODEL_EPS0">    284.21052632</i>
   <i name="MODEL_ALPHA">      1.00000000</i>
  </separator>
  <separator name="linear response parameters" >
   <i type="logical" name="LEPSILON"> F  </i>
   <i type="logical" name="LRPA"> F  </i>
   <i type="logical" name="LNABLA"> F  </i>
   <i type="logical" name="LVEL"> F  </i>
   <i type="int" name="KINTER">     0</i>
   <i name="CSHIFT">      0.10000000</i>
   <i name="OMEGAMAX">     -1.00000000</i>
   <i name="DEG_THRESHOLD">      0.00200000</i>
   <i name="RTIME">     -0.10000000</i>
   <i name="WPLASMAI">      0.00000000</i>
   <v name="DFIELD">      0.00000000      0.00000000      0.00000000</v>
   <v name="WPLASMA">      0.00000000      0.00000000      0.00000000      0.00000000      0.00000000      0.00000000      0.00000000      0.00000000      0.00000000</v>
  </separator>
  <separator name="orbital magnetization" >
   <i type="logical" name="NUCIND"> F  </i>
   <v name="MAGPOS">      0.00000000      0.00000000      0.00000000</v>
   <i type="logical" name="LNICSALL"> T  </i>
   <i type="logical" name="ORBITALMAG"> F  </i>
   <i type="logical" name="LMAGBLOCH"> F  </i>
   <i type="logical" name="LCHIMAG"> F  </i>
   <i type="logical" name="LGAUGE"> T  </i>
   <i type="int" name="MAGATOM">     0</i>
   <v name="MAGDIPOL">      0.00000000      0.00000000      0.00000000</v>
   <v name="AVECCONST">      0.00000000      0.00000000      0.00000000</v>
  </separator>
  <separator name="response functions" >
   <i type="logical" name="LADDER"> F  </i>
   <i type="logical" name="LRPAFORCE"> F  </i>
   <i type="logical" name="LFXC"> F  </i>
   <i type="logical" name="LHARTREE"> T  </i>
   <i type="int" name="IBSE">     0</i>
   <v type="int" name="KPOINT">    -1     0     0     0</v>
   <i type="logical" name="LTCTE"> F  </i>
   <i type="logical" name="LTETE"> F  </i>
   <i type="logical" name="LTRIPLET"> F  </i>
   <i type="logical" name="LFXCEPS"> F  </i>
   <i type="logical" name="LFXHEG"> F  </i>
   <i type="int" name="NATURALO">     2</i>
   <i type="logical" name="L2ORDER"> F  </i>
   <i type="logical" name="LMP2LT"> F  </i>
   <i type="logical" name="LUSEW"> F  </i>
   <i name="ENCUTGW">     -2.00000000</i>
   <i name="ENCUTGWSOFT">     -2.00000000</i>
   <i name="ENCUTLF">     -1.00000000</i>
   <i type="int" name="LMAXMP2">    -1</i>
   <i name="SCISSOR">      0.00000000</i>
   <i type="int" name="NOMEGA">     0</i>
   <i type="int" name="NOMEGAR">     0</i>
   <i type="int" name="NBANDSGW">    -1</i>
   <i type="int" name="NBANDSO">    -1</i>
   <i type="int" name="NBANDSV">    -1</i>
   <i type="int" name="NELM">   100</i>
   <i type="int" name="NELMHF">     1</i>
   <i type="int" name="DIM">     3</i>
   <i type="int" name="ANTIRES">     0</i>
   <i name="OMEGAMAX">    -30.00000000</i>
   <i name="OMEGAMIN">    -30.00000000</i>
   <i name="OMEGATL">   -200.00000000</i>
   <i type="int" name="OMEGAGRID">   140</i>
   <i name="CSHIFT">     -0.10000000</i>
   <i type="logical" name="SELFENERGY"> F  </i>
   <i type="logical" name="LSPECTRAL"> F  </i>
   <i type="logical" name="LSPECTRALGW"> F  </i>
   <i type="logical" name="LSINGLES"> F  </i>
   <i type="logical" name="LFERMIGW"> F  </i>
   <i type="logical" name="ODDONLYGW"> F  </i>
   <i type="logical" name="EVENONLYGW"> F  </i>
   <i type="int" name="NKREDLFX">     1</i>
   <i type="int" name="NKREDLFY">     1</i>
   <i type="int" name="NKREDLFZ">     1</i>
   <i type="int" name="MAXMEM"> 10000</i>
   <i type="int" name="TELESCOPE">     0</i>
   <i type="int" name="TAUPAR">     1</i>
   <i type="int" name="OMEGAPAR">    -1</i>
   <i name="LAMBDA">      1.00000000</i>
  </separator>
  <separator name="External order field" >
   <i name="OFIELD_KAPPA">      0.00000000</i>
   <v name="OFIELD_K">      0.00000000      0.00000000      0.00000000</v>
   <i name="OFIELD_Q6_NEAR">      0.00000000</i>
   <i name="OFIELD_Q6_FAR">      0.00000000</i>
   <i name="OFIELD_A">      0.00000000</i>
  </separator>
 </parameters>
 <atominfo>
  <atoms>      57 </atoms>
  <types>       3 </types>
  <array name="atoms" >
   <dimension dim="1">ion</dimension>
   <field type="string">element</field>
   <field type="int">atomtype</field>
   <set>
    <rc><c>Pd</c><c>   1</c></rc>
    <rc><c>Pd</c><c>   1</c></rc>
    <rc><c>Pd</c><c>   1</c></rc>
    <rc><c>Pd</c><c>   1</c></rc>
    <rc><c>Pd</c><c>   1</c></rc>
    <rc><c>Pd</c><c>   1</c></rc>
    <rc><c>Pd</c><c>   1</c></rc>
    <rc><c>Pd</c><c>   1</c></rc>
    <rc><c>Pd</c><c>   1</c></rc>
    <rc><c>Pd</c><c>   1</c></rc>
    <rc><c>Pd</c><c>   1</c></rc>
    <rc><c>Pd</c><c>   1</c></rc>
    <rc><c>Pd</c><c>   1</c></rc>
    <rc><c>Pd</c><c>   1</c></rc>
    <rc><c>Pd</c><c>   1</c></rc>
    <rc><c>Pd</c><c>   1</c></rc>
    <rc><c>Pd</c><c>   1</c></rc>
    <rc><c>Pd</c><c>   1</c></rc>
    <rc><c>Pd</c><c>   1</c></rc>
    <rc><c>Pd</c><c>   1</c></rc>
    <rc><c>Pd</c><c>   1</c></rc>
    <rc><c>Pd</c><c>   1</c></rc>
    <rc><c>Pd</c><c>   1</c></rc>
    <rc><c>Pd</c><c>   1</c></rc>
    <rc><c>Pd</c><c>   1</c></rc>
    <rc><c>Pd</c><c>   1</c></rc>
    <rc><c>Pd</c><c>   1</c></rc>
    <rc><c>Pd</c><c>   1</c></rc>
    <rc><c>Pd</c><c>   1</c></rc>
    <rc><c>Pd</c><c>   1</c></rc>
    <rc><c>Pd</c><c>   1</c></rc>
    <rc><c>Pd</c><c>   1</c></rc>
    <rc><c>Pd</c><c>   1</c></rc>
    <rc><c>Pd</c><c>   1</c></rc>
    <rc><c>Pd</c><c>   1</c></rc>
    <rc><c>Pd</c><c>   1</c></rc>
    <rc><c>Pd</c><c>   1</c></rc>
    <rc><c>Pd</c><c>   1</c></rc>
    <rc><c>Pd</c><c>   1</c></rc>
    <rc><c>Pd</c><c>   1</c></rc>
    <rc><c>Pd</c><c>   1</c></rc>
    <rc><c>Pd</c><c>   1</c></rc>
    <rc><c>Pd</c><c>   1</c></rc>
    <rc><c>Pd</c><c>   1</c></rc>
    <rc><c>Pd</c><c>   1</c></rc>
    <rc><c>Pd</c><c>   1</c></rc>
    <rc><c>Pd</c><c>   1</c></rc>
    <rc><c>Pd</c><c>   1</c></rc>
    <rc><c>Pd</c><c>   1</c></rc>
    <rc><c>Pd</c><c>   1</c></rc>
    <rc><c>Pd</c><c>   1</c></rc>
    <rc><c>Pd</c><c>   1</c></rc>
    <rc><c>Pd</c><c>   1</c></rc>
    <rc><c>Pd</c><c>   1</c></rc>
    <rc><c>Pd</c><c>   1</c></rc>
    <rc><c>C </c><c>   2</c></rc>
    <rc><c>O </c><c>   3</c></rc>
   </set>
  </array>
  <array name="atomtypes" >
   <dimension dim="1">type</dimension>
   <field type="int">atomspertype</field>
   <field type="string">element</field>
   <field>mass</field>
   <field>valence</field>
   <field type="string">pseudopotential</field>
   <set>
    <rc><c>  55</c><c>Pd</c><c>    106.42000000</c><c>     10.00000000</c><c>  PAW_PBE Pd 04Jan2005                  </c></rc>
    <rc><c>   1</c><c>C </c><c>     12.01100000</c><c>      4.00000000</c><c>  PAW_PBE C 08Apr2002                   </c></rc>
    <rc><c>   1</c><c>O </c><c>     16.00000000</c><c>      6.00000000</c><c>  PAW_PBE O 08Apr2002                   </c></rc>
   </set>
  </array>
 </atominfo>
 <structure name="initialpos" >
  <crystal>
   <varray name="basis" >
    <v>      30.00000000       0.00000000       0.00000000 </v>
    <v>       0.00000000      30.00000000       0.00000000 </v>
    <v>       0.00000000       0.00000000      30.00000000 </v>
   </varray>
   <i name="volume">  27000.00000000 </i>
   <varray name="rec_basis" >
    <v>       0.03333333       0.00000000       0.00000000 </v>
    <v>       0.00000000       0.03333333       0.00000000 </v>
    <v>       0.00000000       0.00000000       0.03333333 </v>
   </varray>
  </crystal>
  <varray name="positions" >
   <v>       0.44576020       0.32826710       0.41691983 </v>
   <v>       0.67173288       0.55423978       0.41691983 </v>
   <v>       0.55423980       0.32826710       0.41691983 </v>
   <v>       0.32826712       0.55423978       0.41691983 </v>
   <v>       0.50000000       0.38250690       0.34021317 </v>
   <v>       0.50000000       0.38250690       0.65978680 </v>
   <v>       0.50000000       0.27609440       0.50000000 </v>
   <v>       0.27609443       0.49999998       0.50000000 </v>
   <v>       0.72390557       0.49999998       0.50000000 </v>
   <v>       0.50000000       0.72390555       0.50000000 </v>
   <v>       0.61195280       0.38804720       0.34167483 </v>
   <v>       0.61195280       0.38804720       0.65832513 </v>
   <v>       0.38804722       0.61195278       0.34167483 </v>
   <v>       0.38804722       0.61195278       0.65832513 </v>
   <v>       0.38804720       0.38804720       0.34167483 </v>
   <v>       0.38804720       0.38804720       0.65832513 </v>
   <v>       0.61195278       0.61195278       0.34167483 </v>
   <v>       0.61195278       0.61195278       0.65832513 </v>
   <v>       0.44576020       0.32826710       0.58308023 </v>
   <v>       0.67173288       0.55423978       0.58308023 </v>
   <v>       0.55791699       0.44208301       0.41809300 </v>
   <v>       0.32826705       0.44576024       0.41691983 </v>
   <v>       0.55423973       0.67173293       0.41691983 </v>
   <v>       0.55423980       0.32826710       0.58308023 </v>
   <v>       0.32826712       0.55423978       0.58308023 </v>
   <v>       0.67173295       0.44576024       0.41691983 </v>
   <v>       0.44576027       0.67173293       0.41691983 </v>
   <v>       0.44208301       0.44208301       0.41809300 </v>
   <v>       0.50000000       0.38416601       0.50000000 </v>
   <v>       0.61749315       0.50000005       0.34021317 </v>
   <v>       0.61749315       0.50000005       0.65978680 </v>
   <v>       0.38250685       0.50000005       0.34021317 </v>
   <v>       0.38250685       0.50000005       0.65978680 </v>
   <v>       0.38317830       0.38317830       0.50000000 </v>
   <v>       0.61682172       0.61682172       0.50000000 </v>
   <v>       0.61682170       0.38317830       0.50000000 </v>
   <v>       0.38317828       0.61682172       0.50000000 </v>
   <v>       0.50000000       0.50000000       0.33478917 </v>
   <v>       0.50000000       0.50000000       0.66521087 </v>
   <v>       0.32826705       0.44576024       0.58308023 </v>
   <v>       0.55423973       0.67173293       0.58308023 </v>
   <v>       0.55791699       0.44208301       0.58190703 </v>
   <v>       0.44208298       0.55791702       0.41809300 </v>
   <v>       0.44208301       0.44208301       0.58190703 </v>
   <v>       0.67173295       0.44576024       0.58308023 </v>
   <v>       0.44576027       0.67173293       0.58308023 </v>
   <v>       0.55791702       0.55791702       0.41809300 </v>
   <v>       0.38416599       0.50000002       0.50000000 </v>
   <v>       0.61583401       0.50000002       0.50000000 </v>
   <v>       0.50000000       0.61749319       0.34021317 </v>
   <v>       0.50000000       0.61749319       0.65978680 </v>
   <v>       0.50000000       0.50000000       0.50000000 </v>
   <v>       0.44208298       0.55791702       0.58190703 </v>
   <v>       0.55791702       0.55791702       0.58190703 </v>
   <v>       0.50000000       0.61583404       0.50000000 </v>
   <v>       0.50199317       0.50188617       0.25198917 </v>
   <v>       0.50229533       0.50217210       0.21439147 </v>
  </varray>
  <varray name="selective"  type="logical" >
   <v type="logical" >  F  F  F </v>
   <v type="logical" >  F  F  F </v>
   <v type="logical" >  F  F  F </v>
   <v type="logical" >  F  F  F </v>
   <v type="logical" >  F  F  F </v>
   <v type="logical" >  F  F  F </v>
   <v type="logical" >  F  F  F </v>
   <v type="logical" >  F  F  F </v>
   <v type="logical" >  F  F  F </v>
   <v type="logical" >  F  F  F </v>
   <v type="logical" >  F  F  F </v>
   <v type="logical" >  F  F  F </v>
   <v type="logical" >  F  F  F </v>
   <v type="logical" >  F  F  F </v>
   <v type="logical" >  F  F  F </v>
   <v type="logical" >  F  F  F </v>
   <v type="logical" >  F  F  F </v>
   <v type="logical" >  F  F  F </v>
   <v type="logical" >  F  F  F </v>
   <v type="logical" >  F  F  F </v>
   <v type="logical" >  F  F  F </v>
   <v type="logical" >  F  F  F </v>
   <v type="logical" >  F  F  F </v>
   <v type="logical" >  F  F  F </v>
   <v type="logical" >  F  F  F </v>
   <v type="logical" >  F  F  F </v>
   <v type="logical" >  F  F  F </v>
   <v type="logical" >  F  F  F </v>
   <v type="logical" >  F  F  F </v>
   <v type="logical" >  F  F  F </v>
   <v type="logical" >  F  F  F </v>
   <v type="logical" >  F  F  F </v>
   <v type="logical" >  F  F  F </v>
   <v type="logical" >  F  F  F </v>
   <v type="logical" >  F  F  F </v>
   <v type="logical" >  F  F  F </v>
   <v type="logical" >  F  F  F </v>
   <v type="logical" >  F  F  F </v>
   <v type="logical" >  F  F  F </v>
   <v type="logical" >  F  F  F </v>
   <v type="logical" >  F  F  F </v>
   <v type="logical" >  F  F  F </v>
   <v type="logical" >  F  F  F </v>
   <v type="logical" >  F  F  F </v>
   <v type="logical" >  F  F  F </v>
   <v type="logical" >  F  F  F </v>
   <v type="logical" >  F  F  F </v>
   <v type="logical" >  F  F  F </v>
   <v type="logical" >  F  F  F </v>
   <v type="logical" >  F  F  F </v>
   <v type="logical" >  F  F  F </v>
   <v type="logical" >  F  F  F </v>
   <v type="logical" >  F  F  F </v>
   <v type="logical" >  F  F  F </v>
   <v type="logical" >  F  F  F </v>
   <v type="logical" >  F  F  F </v>
   <v type="logical" >  F  F  F </v>
  </varray>
  <nose>
   <v>      -3.00000000       0.00000000       0.00010000       0.00010000 </v>
  </nose>
 </structure>
 <calculation>
  <scstep>
   <time name="dav">  362.48  362.57</time>
   <time name="total">  376.78  376.87</time>
   <energy>
    <i name="alphaZ">     75.25431677 </i>
    <i name="ewald"> 138024.91309448 </i>
    <i name="hartreedc">-181392.19930600 </i>
    <i name="XCdc">  -1703.88303251 </i>
    <i name="pawpsdc">  44873.02882129 </i>
    <i name="pawaedc"> -41398.84523641 </i>
    <i name="eentropy">      0.01632503 </i>
    <i name="bandstr">    818.35758751 </i>
    <i name="atom">  45086.50549395 </i>
    <i name="e_fr_energy">   4383.14806410 </i>
    <i name="e_wo_entrp">   4383.13173908 </i>
    <i name="e_0_energy">   4383.14398285 </i>
   </energy>
  </scstep>
  <scstep>
   <time name="dav">  583.72  583.72</time>
   <time name="total">  583.72  583.72</time>
   <energy>
    <i name="e_fr_energy">   2011.64172061 </i>
    <i name="e_wo_entrp">   2011.66506786 </i>
    <i name="e_0_energy">   2011.64755742 </i>
   </energy>
  </scstep>
  <scstep>
   <time name="dav">  490.53  490.54</time>
   <time name="total">  490.53  490.54</time>
   <energy>
    <i name="e_fr_energy">    230.71108095 </i>
    <i name="e_wo_entrp">    230.69100928 </i>
    <i name="e_0_energy">    230.70606303 </i>
   </energy>
  </scstep>
  <scstep>
   <time name="dav">  426.91  426.99</time>
   <time name="total">  426.91  426.99</time>
   <energy>
    <i name="e_fr_energy">   -135.48995047 </i>
    <i name="e_wo_entrp">   -135.50538519 </i>
    <i name="e_0_energy">   -135.49380915 </i>
   </energy>
  </scstep>
  <scstep>
   <time name="dav">  524.27  524.27</time>
   <time name="total">  550.32  550.32</time>
   <energy>
    <i name="e_fr_energy">   -178.99363480 </i>
    <i name="e_wo_entrp">   -179.53843042 </i>
    <i name="e_0_energy">   -179.12983370 </i>
   </energy>
  </scstep>
  <scstep>
   <time name="diag">   68.10   68.10</time>
   <time name="diis">  197.28  197.28</time>
   <time name="orth">   13.89   13.89</time>
   <time name="total">  318.89  318.89</time>
   <energy>
    <i name="e_fr_energy">   -178.47721873 </i>
    <i name="e_wo_entrp">   -178.26283346 </i>
    <i name="e_0_energy">   -178.42362241 </i>
   </energy>
  </scstep>
  <scstep>
   <time name="diag">   67.99   67.99</time>
   <time name="diis">  229.70  229.70</time>
   <time name="orth">   13.53   13.53</time>
   <time name="total">  350.57  350.58</time>
   <energy>
    <i name="e_fr_energy">   -181.05822133 </i>
    <i name="e_wo_entrp">   -180.97585751 </i>
    <i name="e_0_energy">   -181.03763037 </i>
   </energy>
  </scstep>
  <scstep>
   <time name="diag">   68.31   68.31</time>
   <time name="diis">  213.98  213.98</time>
   <time name="orth">   13.58   13.58</time>
   <time name="total">  334.63  334.63</time>
   <energy>
    <i name="e_fr_energy">   -183.33191632 </i>
    <i name="e_wo_entrp">   -183.20035824 </i>
    <i name="e_0_energy">   -183.29902680 </i>
   </energy>
  </scstep>
  <scstep>
   <time name="diag">   68.73   68.73</time>
   <time name="diis">  199.69  199.69</time>
   <time name="orth">   13.41   13.41</time>
   <time name="total">  321.14  321.15</time>
   <energy>
    <i name="e_fr_energy">   -182.00366435 </i>
    <i name="e_wo_entrp">   -181.85068525 </i>
    <i name="e_0_energy">   -181.96541958 </i>
   </energy>
  </scstep>
  <scstep>
   <time name="diag">   68.42   68.42</time>
   <time name="diis">  195.79  195.79</time>
   <time name="orth">   13.39   13.39</time>
   <time name="total">  316.81  316.81</time>
   <energy>
    <i name="e_fr_energy">   -179.77760428 </i>
    <i name="e_wo_entrp">   -179.81835231 </i>
    <i name="e_0_energy">   -179.78779129 </i>
   </energy>
  </scstep>
  <scstep>
   <time name="diag">   68.39   68.39</time>
   <time name="diis">  195.67  195.67</time>
   <time name="orth">   13.42   13.42</time>
   <time name="total">  316.97  316.97</time>
   <energy>
    <i name="e_fr_energy">   -177.66752534 </i>
    <i name="e_wo_entrp">   -177.54781127 </i>
    <i name="e_0_energy">   -177.63759682 </i>
   </energy>
  </scstep>
  <scstep>
   <time name="diag">   68.48   68.48</time>
   <time name="diis">  195.78  195.78</time>
   <time name="orth">   13.46   13.46</time>
   <time name="total">  317.52  317.52</time>
   <energy>
    <i name="e_fr_energy">   -176.34849664 </i>
    <i name="e_wo_entrp">   -176.36841428 </i>
    <i name="e_0_energy">   -176.35347605 </i>
   </energy>
  </scstep>
  <scstep>
   <time name="diag">   68.31   68.31</time>
   <time name="diis">  196.47  196.47</time>
   <time name="orth">   13.49   13.49</time>
   <time name="total">  318.28  318.28</time>
   <energy>
    <i name="e_fr_energy">   -175.59205196 </i>
    <i name="e_wo_entrp">   -175.48481419 </i>
    <i name="e_0_energy">   -175.56524251 </i>
   </energy>
  </scstep>
  <scstep>
   <time name="diag">   68.08   68.08</time>
   <time name="diis">  193.12  193.12</time>
   <time name="orth">   13.66   13.66</time>
   <time name="total">  314.88  314.89</time>
   <energy>
    <i name="e_fr_energy">   -175.64460996 </i>
    <i name="e_wo_entrp">   -175.58888588 </i>
    <i name="e_0_energy">   -175.63067894 </i>
   </energy>
  </scstep>
  <scstep>
   <time name="diag">   68.20   68.20</time>
   <time name="diis">  194.39  194.39</time>
   <time name="orth">   13.65   13.65</time>
   <time name="total">  316.48  316.48</time>
   <energy>
    <i name="e_fr_energy">   -175.92622331 </i>
    <i name="e_wo_entrp">   -175.85748809 </i>
    <i name="e_0_energy">   -175.90903951 </i>
   </energy>
  </scstep>
  <scstep>
   <time name="diag">   68.47   68.47</time>
   <time name="diis">  194.71  194.71</time>
   <time name="orth">   13.58   13.58</time>
   <time name="total">  316.94  316.95</time>
   <energy>
    <i name="e_fr_energy">   -175.46548270 </i>
    <i name="e_wo_entrp">   -175.43088875 </i>
    <i name="e_0_energy">   -175.45683421 </i>
   </energy>
  </scstep>
  <scstep>
   <time name="diag">   68.31   68.32</time>
   <time name="diis">  191.72  191.72</time>
   <time name="orth">   13.63   13.63</time>
   <time name="total">  313.68  313.68</time>
   <energy>
    <i name="e_fr_energy">   -174.95514616 </i>
    <i name="e_wo_entrp">   -174.91767327 </i>
    <i name="e_0_energy">   -174.94577794 </i>
   </energy>
  </scstep>
  <scstep>
   <time name="diag">   68.39   68.39</time>
   <time name="diis">  191.19  191.19</time>
   <time name="orth">   13.58   13.58</time>
   <time name="total">  313.49  313.50</time>
   <energy>
    <i name="e_fr_energy">   -174.92565918 </i>
    <i name="e_wo_entrp">   -174.92867107 </i>
    <i name="e_0_energy">   -174.92641215 </i>
   </energy>
  </scstep>
  <scstep>
   <time name="diag">   68.54   68.54</time>
   <time name="diis">  191.26  191.27</time>
   <time name="orth">   13.48   13.48</time>
   <time name="total">  313.40  313.40</time>
   <energy>
    <i name="e_fr_energy">   -174.85567836 </i>
    <i name="e_wo_entrp">   -174.87058343 </i>
    <i name="e_0_energy">   -174.85940463 </i>
   </energy>
  </scstep>
  <scstep>
   <time name="diag">   68.36   68.36</time>
   <time name="diis">  189.51  189.51</time>
   <time name="orth">   13.62   13.62</time>
   <time name="total">  311.95  311.95</time>
   <energy>
    <i name="e_fr_energy">   -174.62457038 </i>
    <i name="e_wo_entrp">   -174.64442921 </i>
    <i name="e_0_energy">   -174.62953509 </i>
   </energy>
  </scstep>
  <scstep>
   <time name="diag">   68.37   68.37</time>
   <time name="diis">  190.23  190.23</time>
   <time name="orth">   13.48   13.48</time>
   <time name="total">  312.55  312.56</time>
   <energy>
    <i name="e_fr_energy">   -174.45345731 </i>
    <i name="e_wo_entrp">   -174.42180954 </i>
    <i name="e_0_energy">   -174.44554537 </i>
   </energy>
  </scstep>
  <scstep>
   <time name="diag">   68.30   68.30</time>
   <time name="diis">  190.96  190.96</time>
   <time name="orth">   13.51   13.51</time>
   <time name="total">  313.18  313.18</time>
   <energy>
    <i name="e_fr_energy">   -174.42092607 </i>
    <i name="e_wo_entrp">   -174.34163901 </i>
    <i name="e_0_energy">   -174.40110430 </i>
   </energy>
  </scstep>
  <scstep>
   <time name="diag">   68.33   68.34</time>
   <time name="diis">  189.90  189.90</time>
   <time name="orth">   13.81   13.81</time>
   <time name="total">  312.27  312.27</time>
   <energy>
    <i name="e_fr_energy">   -174.33884449 </i>
    <i name="e_wo_entrp">   -174.28256058 </i>
    <i name="e_0_energy">   -174.32477351 </i>
   </energy>
  </scstep>
  <scstep>
   <time name="diag">   68.35   68.35</time>
   <time name="diis">  187.91  187.91</time>
   <time name="orth">   13.76   13.76</time>
   <time name="total">  310.09  310.09</time>
   <energy>
    <i name="e_fr_energy">   -174.23856934 </i>
    <i name="e_wo_entrp">   -174.14734729 </i>
    <i name="e_0_energy">   -174.21576383 </i>
   </energy>
  </scstep>
  <scstep>
   <time name="diag">   69.22   69.22</time>
   <time name="diis">  187.63  187.63</time>
   <time name="orth">   13.65   13.65</time>
   <time name="total">  311.04  311.04</time>
   <energy>
    <i name="e_fr_energy">   -174.20168282 </i>
    <i name="e_wo_entrp">   -174.12260378 </i>
    <i name="e_0_energy">   -174.18191306 </i>
   </energy>
  </scstep>
  <scstep>
   <time name="diag">   69.14   69.14</time>
   <time name="diis">  186.93  186.93</time>
   <time name="orth">   13.82   13.82</time>
   <time name="total">  310.76  310.76</time>
   <energy>
    <i name="e_fr_energy">   -174.15896545 </i>
    <i name="e_wo_entrp">   -174.08378392 </i>
    <i name="e_0_energy">   -174.14017007 </i>
   </energy>
  </scstep>
  <scstep>
   <time name="diag">   69.20   69.20</time>
   <time name="diis">  187.03  187.04</time>
   <time name="orth">   13.87   13.87</time>
   <time name="total">  310.82  310.84</time>
   <energy>
    <i name="e_fr_energy">   -174.12490469 </i>
    <i name="e_wo_entrp">   -174.05121838 </i>
    <i name="e_0_energy">   -174.10648311 </i>
   </energy>
  </scstep>
  <scstep>
   <time name="diag">   68.78   68.79</time>
   <time name="diis">  187.00  187.02</time>
   <time name="orth">   13.39   13.39</time>
   <time name="total">  309.75  309.78</time>
   <energy>
    <i name="e_fr_energy">   -174.13206752 </i>
    <i name="e_wo_entrp">   -174.06263189 </i>
    <i name="e_0_energy">   -174.11470862 </i>
   </energy>
  </scstep>
  <scstep>
   <time name="diag">   68.91   68.91</time>
   <time name="diis">  187.33  187.35</time>
   <time name="orth">   13.27   13.27</time>
   <time name="total">  310.55  310.58</time>
   <energy>
    <i name="e_fr_energy">   -174.10546062 </i>
    <i name="e_wo_entrp">   -174.03137056 </i>
    <i name="e_0_energy">   -174.08693811 </i>
   </energy>
  </scstep>
  <scstep>
   <time name="diag">   69.22   69.22</time>
   <time name="diis">  186.58  186.60</time>
   <time name="orth">   13.45   13.45</time>
   <time name="total">  310.61  310.64</time>
   <energy>
    <i name="e_fr_energy">   -174.10102683 </i>
    <i name="e_wo_entrp">   -174.02307996 </i>
    <i name="e_0_energy">   -174.08154011 </i>
   </energy>
  </scstep>
  <scstep>
   <time name="diag">   68.80   68.81</time>
   <time name="diis">  187.21  187.23</time>
   <time name="orth">   13.34   13.34</time>
   <time name="total">  310.28  310.31</time>
   <energy>
    <i name="e_fr_energy">   -174.09956005 </i>
    <i name="e_wo_entrp">   -174.01972839 </i>
    <i name="e_0_energy">   -174.07960213 </i>
   </energy>
  </scstep>
  <scstep>
   <time name="diag">   67.93   67.93</time>
   <time name="diis">  187.64  187.66</time>
   <time name="orth">   13.55   13.55</time>
   <time name="total">  309.93  309.96</time>
   <energy>
    <i name="e_fr_energy">   -174.09455890 </i>
    <i name="e_wo_entrp">   -174.01883964 </i>
    <i name="e_0_energy">   -174.07562908 </i>
   </energy>
  </scstep>
  <scstep>
   <time name="diag">   68.37   68.37</time>
   <time name="diis">  186.28  186.28</time>
   <time name="orth">   13.62   13.62</time>
   <time name="total">  308.87  308.88</time>
   <energy>
    <i name="e_fr_energy">   -174.09468898 </i>
    <i name="e_wo_entrp">   -174.01939121 </i>
    <i name="e_0_energy">   -174.07586454 </i>
   </energy>
  </scstep>
  <scstep>
   <time name="diag">   69.37   69.37</time>
   <time name="diis">  185.24  185.25</time>
   <time name="orth">   13.33   13.33</time>
   <time name="total">  308.72  308.72</time>
   <energy>
    <i name="e_fr_energy">   -174.09603122 </i>
    <i name="e_wo_entrp">   -174.01982613 </i>
    <i name="e_0_energy">   -174.07697995 </i>
   </energy>
  </scstep>
  <scstep>
   <time name="diag">   68.95   68.95</time>
   <time name="diis">  183.76  183.76</time>
   <time name="orth">   13.52   13.52</time>
   <time name="total">  307.38  307.38</time>
   <energy>
    <i name="e_fr_energy">   -174.09632710 </i>
    <i name="e_wo_entrp">   -174.01960616 </i>
    <i name="e_0_energy">   -174.07714686 </i>
   </energy>
  </scstep>
  <scstep>
   <time name="diag">   69.75   69.75</time>
   <time name="diis">  180.84  180.84</time>
   <time name="orth">   13.36   13.36</time>
   <time name="total">  305.31  305.32</time>
   <energy>
    <i name="e_fr_energy">   -174.09847043 </i>
    <i name="e_wo_entrp">   -174.02279042 </i>
    <i name="e_0_energy">   -174.07955042 </i>
   </energy>
  </scstep>
  <scstep>
   <time name="diag">   69.13   69.13</time>
   <time name="diis">  182.61  182.61</time>
   <time name="orth">   13.73   13.73</time>
   <time name="total">  307.08  307.09</time>
   <energy>
    <i name="e_fr_energy">   -174.10061882 </i>
    <i name="e_wo_entrp">   -174.02339661 </i>
    <i name="e_0_energy">   -174.08131327 </i>
   </energy>
  </scstep>
  <scstep>
   <time name="diag">   68.81   68.82</time>
   <time name="diis">  150.59  150.60</time>
   <time name="orth">   13.60   13.60</time>
   <time name="total">  274.69  274.71</time>
   <energy>
    <i name="e_fr_energy">   -174.10178963 </i>
    <i name="e_wo_entrp">   -174.02585663 </i>
    <i name="e_0_energy">   -174.08280638 </i>
   </energy>
  </scstep>
  <scstep>
   <time name="diag">   68.79   68.80</time>
   <time name="diis">  167.94  167.95</time>
   <time name="orth">   13.35   13.35</time>
   <time name="total">  291.77  291.79</time>
   <energy>
    <i name="e_fr_energy">   -174.10537706 </i>
    <i name="e_wo_entrp">   -174.02934852 </i>
    <i name="e_0_energy">   -174.08636992 </i>
   </energy>
  </scstep>
  <scstep>
   <time name="diag">   68.86   68.87</time>
   <time name="diis">  128.02  128.03</time>
   <time name="orth">   13.30   13.30</time>
   <time name="total">  251.83  251.85</time>
   <energy>
    <i name="e_fr_energy">   -174.10694246 </i>
    <i name="e_wo_entrp">   -174.03012397 </i>
    <i name="e_0_energy">   -174.08773784 </i>
   </energy>
  </scstep>
  <scstep>
   <time name="diag">   68.20   68.20</time>
   <time name="diis">  125.42  125.42</time>
   <time name="orth">   13.42   13.42</time>
   <time name="total">  248.27  248.27</time>
   <energy>
    <i name="e_fr_energy">   -174.10887746 </i>
    <i name="e_wo_entrp">   -174.03208668 </i>
    <i name="e_0_energy">   -174.08967976 </i>
   </energy>
  </scstep>
  <scstep>
   <time name="diag">   68.52   68.52</time>
   <time name="diis">  133.65  133.65</time>
   <time name="orth">   13.41   13.41</time>
   <time name="total">  257.05  257.05</time>
   <energy>
    <i name="e_fr_energy">   -174.11155127 </i>
    <i name="e_wo_entrp">   -174.03500773 </i>
    <i name="e_0_energy">   -174.09241539 </i>
   </energy>
  </scstep>
  <scstep>
   <time name="diag">   68.49   68.49</time>
   <time name="diis">  121.54  121.55</time>
   <time name="orth">   13.09   13.09</time>
   <time name="total">  244.78  244.79</time>
   <energy>
    <i name="e_fr_energy">   -174.11317553 </i>
    <i name="e_wo_entrp">   -174.03663102 </i>
    <i name="e_0_energy">   -174.09403941 </i>
   </energy>
  </scstep>
  <scstep>
   <time name="diag">   67.72   67.72</time>
   <time name="diis">  127.60  127.60</time>
   <time name="orth">   13.45   13.45</time>
   <time name="total">  250.10  250.11</time>
   <energy>
    <i name="e_fr_energy">   -174.11541800 </i>
    <i name="e_wo_entrp">   -174.03944429 </i>
    <i name="e_0_energy">   -174.09642457 </i>
   </energy>
  </scstep>
  <scstep>
   <time name="diag">   68.25   68.25</time>
   <time name="diis">  118.89  118.89</time>
   <time name="orth">   13.19   13.19</time>
   <time name="total">  242.00  242.01</time>
   <energy>
    <i name="e_fr_energy">   -174.11624959 </i>
    <i name="e_wo_entrp">   -174.03943214 </i>
    <i name="e_0_energy">   -174.09704523 </i>
   </energy>
  </scstep>
  <scstep>
   <time name="diag">   67.66   67.66</time>
   <time name="diis">  117.81  117.81</time>
   <time name="orth">   13.27   13.27</time>
   <time name="total">  240.99  241.00</time>
   <energy>
    <i name="e_fr_energy">   -174.11779731 </i>
    <i name="e_wo_entrp">   -174.04110436 </i>
    <i name="e_0_energy">   -174.09862407 </i>
   </energy>
  </scstep>
  <scstep>
   <time name="diag">   68.92   68.92</time>
   <time name="diis">  116.41  116.41</time>
   <time name="orth">   13.27   13.27</time>
   <time name="total">  240.79  240.80</time>
   <energy>
    <i name="e_fr_energy">   -174.11878975 </i>
    <i name="e_wo_entrp">   -174.04246363 </i>
    <i name="e_0_energy">   -174.09970822 </i>
   </energy>
  </scstep>
  <scstep>
   <time name="diag">   68.66   68.66</time>
   <time name="diis">  116.35  116.35</time>
   <time name="orth">   13.17   13.17</time>
   <time name="total">  239.96  239.96</time>
   <energy>
    <i name="e_fr_energy">   -174.11927957 </i>
    <i name="e_wo_entrp">   -174.04291994 </i>
    <i name="e_0_energy">   -174.10018966 </i>
   </energy>
  </scstep>
  <scstep>
   <time name="diag">   66.41   66.42</time>
   <time name="diis">  116.15  116.15</time>
   <time name="orth">   13.51   13.51</time>
   <time name="total">  238.73  238.74</time>
   <energy>
    <i name="e_fr_energy">   -174.12035493 </i>
    <i name="e_wo_entrp">   -174.04433172 </i>
    <i name="e_0_energy">   -174.10134913 </i>
   </energy>
  </scstep>
  <scstep>
   <time name="diag">   68.61   68.61</time>
   <time name="diis">  112.07  112.07</time>
   <time name="orth">   13.26   13.26</time>
   <time name="total">  236.62  236.62</time>
   <energy>
    <i name="e_fr_energy">   -174.12075572 </i>
    <i name="e_wo_entrp">   -174.04464539 </i>
    <i name="e_0_energy">   -174.10172813 </i>
   </energy>
  </scstep>
  <scstep>
   <time name="diag">   67.82   67.82</time>
   <time name="diis">  109.66  109.66</time>
   <time name="orth">   13.21   13.21</time>
   <time name="total">  232.82  232.82</time>
   <energy>
    <i name="e_fr_energy">   -174.12140128 </i>
    <i name="e_wo_entrp">   -174.04522201 </i>
    <i name="e_0_energy">   -174.10235647 </i>
   </energy>
  </scstep>
  <scstep>
   <time name="diag">   67.27   67.27</time>
   <time name="diis">   93.73   93.73</time>
   <time name="orth">   13.06   13.06</time>
   <time name="total">  216.55  216.55</time>
   <energy>
    <i name="e_fr_energy">   -174.12169543 </i>
    <i name="e_wo_entrp">   -174.04557297 </i>
    <i name="e_0_energy">   -174.10266482 </i>
   </energy>
  </scstep>
  <scstep>
   <time name="diag">   66.71   66.71</time>
   <time name="diis">   92.13   92.13</time>
   <time name="orth">   13.40   13.40</time>
   <time name="total">  215.15  215.15</time>
   <energy>
    <i name="e_fr_energy">   -174.12211441 </i>
    <i name="e_wo_entrp">   -174.04592910 </i>
    <i name="e_0_energy">   -174.10306808 </i>
   </energy>
  </scstep>
  <scstep>
   <time name="diag">   67.70   67.70</time>
   <time name="diis">   97.41   97.41</time>
   <time name="orth">   13.06   13.06</time>
   <time name="total">  220.85  220.86</time>
   <energy>
    <i name="e_fr_energy">   -174.12250848 </i>
    <i name="e_wo_entrp">   -174.04640744 </i>
    <i name="e_0_energy">   -174.10348322 </i>
   </energy>
  </scstep>
  <scstep>
   <time name="diag">   67.47   67.47</time>
   <time name="diis">   82.38   82.38</time>
   <time name="orth">   13.55   13.55</time>
   <time name="total">  205.93  205.93</time>
   <energy>
    <i name="e_fr_energy">   -174.12269005 </i>
    <i name="e_wo_entrp">   -174.04652241 </i>
    <i name="e_0_energy">   -174.10364814 </i>
   </energy>
  </scstep>
  <scstep>
   <time name="diag">   66.66   66.66</time>
   <time name="diis">   94.82   94.82</time>
   <time name="orth">   13.34   13.34</time>
   <time name="total">  217.40  217.40</time>
   <energy>
    <i name="e_fr_energy">   -174.12302035 </i>
    <i name="e_wo_entrp">   -174.04684958 </i>
    <i name="e_0_energy">   -174.10397766 </i>
   </energy>
  </scstep>
  <scstep>
   <time name="diag">   67.57   67.57</time>
   <time name="diis">   78.67   78.67</time>
   <time name="orth">   13.31   13.31</time>
   <time name="total">  173.53  173.53</time>
   <energy>
    <i name="alphaZ">     75.25431677 </i>
    <i name="ewald"> 138024.91309448 </i>
    <i name="hartreedc">-182399.05679290 </i>
    <i name="XCdc">  -1693.21776532 </i>
    <i name="pawpsdc">  46048.26531584 </i>
    <i name="pawaedc"> -42517.79884434 </i>
    <i name="eentropy">     -0.07616679 </i>
    <i name="bandstr">  -2798.91175766 </i>
    <i name="atom">  45086.50549395 </i>
    <i name="e_fr_energy">   -174.12310598 </i>
    <i name="e_wo_entrp">   -174.04693918 </i>
    <i name="e_0_energy">   -174.10406428 </i>
   </energy>
  </scstep>
  <structure>
   <crystal>
    <varray name="basis" >
     <v>      30.00000000       0.00000000       0.00000000 </v>
     <v>       0.00000000      30.00000000       0.00000000 </v>
     <v>       0.00000000       0.00000000      30.00000000 </v>
    </varray>
    <i name="volume">  27000.00000000 </i>
    <varray name="rec_basis" >
     <v>       0.03333333       0.00000000       0.00000000 </v>
     <v>       0.00000000       0.03333333       0.00000000 </v>
     <v>       0.00000000       0.00000000       0.03333333 </v>
    </varray>
   </crystal>
   <varray name="positions" >
    <v>       0.44576020       0.32826710       0.41691983 </v>
    <v>       0.67173288       0.55423978       0.41691983 </v>
    <v>       0.55423980       0.32826710       0.41691983 </v>
    <v>       0.32826712       0.55423978       0.41691983 </v>
    <v>       0.50000000       0.38250690       0.34021317 </v>
    <v>       0.50000000       0.38250690       0.65978680 </v>
    <v>       0.50000000       0.27609440       0.50000000 </v>
    <v>       0.27609443       0.49999998       0.50000000 </v>
    <v>       0.72390557       0.49999998       0.50000000 </v>
    <v>       0.50000000       0.72390555       0.50000000 </v>
    <v>       0.61195280       0.38804720       0.34167483 </v>
    <v>       0.61195280       0.38804720       0.65832513 </v>
    <v>       0.38804722       0.61195278       0.34167483 </v>
    <v>       0.38804722       0.61195278       0.65832513 </v>
    <v>       0.38804720       0.38804720       0.34167483 </v>
    <v>       0.38804720       0.38804720       0.65832513 </v>
    <v>       0.61195278       0.61195278       0.34167483 </v>
    <v>       0.61195278       0.61195278       0.65832513 </v>
    <v>       0.44576020       0.32826710       0.58308023 </v>
    <v>       0.67173288       0.55423978       0.58308023 </v>
    <v>       0.55791699       0.44208301       0.41809300 </v>
    <v>       0.32826705       0.44576024       0.41691983 </v>
    <v>       0.55423973       0.67173293       0.41691983 </v>
    <v>       0.55423980       0.32826710       0.58308023 </v>
    <v>       0.32826712       0.55423978       0.58308023 </v>
    <v>       0.67173295       0.44576024       0.41691983 </v>
    <v>       0.44576027       0.67173293       0.41691983 </v>
    <v>       0.44208301       0.44208301       0.41809300 </v>
    <v>       0.50000000       0.38416601       0.50000000 </v>
    <v>       0.61749315       0.50000005       0.34021317 </v>
    <v>       0.61749315       0.50000005       0.65978680 </v>
    <v>       0.38250685       0.50000005       0.34021317 </v>
    <v>       0.38250685       0.50000005       0.65978680 </v>
    <v>       0.38317830       0.38317830       0.50000000 </v>
    <v>       0.61682172       0.61682172       0.50000000 </v>
    <v>       0.61682170       0.38317830       0.50000000 </v>
    <v>       0.38317828       0.61682172       0.50000000 </v>
    <v>       0.50000000       0.50000000       0.33478917 </v>
    <v>       0.50000000       0.50000000       0.66521087 </v>
    <v>       0.32826705       0.44576024       0.58308023 </v>
    <v>       0.55423973       0.67173293       0.58308023 </v>
    <v>       0.55791699       0.44208301       0.58190703 </v>
    <v>       0.44208298       0.55791702       0.41809300 </v>
    <v>       0.44208301       0.44208301       0.58190703 </v>
    <v>       0.67173295       0.44576024       0.58308023 </v>
    <v>       0.44576027       0.67173293       0.58308023 </v>
    <v>       0.55791702       0.55791702       0.41809300 </v>
    <v>       0.38416599       0.50000002       0.50000000 </v>
    <v>       0.61583401       0.50000002       0.50000000 </v>
    <v>       0.50000000       0.61749319       0.34021317 </v>
    <v>       0.50000000       0.61749319       0.65978680 </v>
    <v>       0.50000000       0.50000000       0.50000000 </v>
    <v>       0.44208298       0.55791702       0.58190703 </v>
    <v>       0.55791702       0.55791702       0.58190703 </v>
    <v>       0.50000000       0.61583404       0.50000000 </v>
    <v>       0.50199317       0.50188617       0.25198917 </v>
    <v>       0.50229533       0.50217210       0.21439147 </v>
   </varray>
  </structure>
  <varray name="forces" >
   <v>       0.70193455       1.10730042       0.29059306 </v>
   <v>      -1.10654817      -0.70134075       0.29100963 </v>
   <v>      -0.70129014       1.10694916       0.29089417 </v>
   <v>       1.10707005      -0.70131763       0.29092421 </v>
   <v>      -0.00004608       0.38160855       1.32083300 </v>
   <v>       0.00015825       0.40796979      -1.28136014 </v>
   <v>       0.00014880       1.51347247      -0.00208787 </v>
   <v>       1.51335694       0.00022701      -0.00208092 </v>
   <v>      -1.51273298       0.00018384      -0.00232266 </v>
   <v>       0.00022976      -1.51281297      -0.00229608 </v>
   <v>      -0.75394797       0.75392444       1.07389093 </v>
   <v>      -0.75428447       0.75481791      -1.07317117 </v>
   <v>       0.75390052      -0.75395320       1.07381475 </v>
   <v>       0.75486241      -0.75434123      -1.07321769 </v>
   <v>       0.75441003       0.75435587       1.07366140 </v>
   <v>       0.75486307       0.75478405      -1.07336831 </v>
   <v>      -0.75348500      -0.75344753       1.07408649 </v>
   <v>      -0.75459030      -0.75454145      -1.07336193 </v>
   <v>       0.70176898       1.10810991      -0.29176713 </v>
   <v>      -1.10767839      -0.70134400      -0.29136183 </v>
   <v>       0.10977839      -0.11134319      -0.15180863 </v>
   <v>       1.10706981       0.70175934       0.29057188 </v>
   <v>      -0.70133385      -1.10657453       0.29101071 </v>
   <v>      -0.70137746       1.10780553      -0.29158665 </v>
   <v>       1.10785128      -0.70139231      -0.29160781 </v>
   <v>      -1.10673311       0.70182793       0.29065141 </v>
   <v>       0.70186634      -1.10675446       0.29065851 </v>
   <v>      -0.10667061      -0.10660665      -0.15445914 </v>
   <v>       0.00003317      -0.21879911       0.00091415 </v>
   <v>      -0.37868147      -0.00008285       1.32145123 </v>
   <v>      -0.40778641       0.00022833      -1.28128979 </v>
   <v>       0.38173858      -0.00000586       1.32077506 </v>
   <v>       0.40797140       0.00019601      -1.28119950 </v>
   <v>       0.81996830       0.81990637       0.01405422 </v>
   <v>      -0.82039472      -0.82036941       0.01282865 </v>
   <v>      -0.82015164       0.82018434       0.01347531 </v>
   <v>       0.82013098      -0.82012961       0.01346718 </v>
   <v>       0.03020694       0.02864159      -0.50608597 </v>
   <v>       0.00046895       0.00046392      -1.18290196 </v>
   <v>       1.10786761       0.70161783      -0.29174896 </v>
   <v>      -0.70144532      -1.10783378      -0.29134123 </v>
   <v>       0.11306881      -0.11278359       0.15535638 </v>
   <v>      -0.11116980       0.10959497      -0.15198950 </v>
   <v>      -0.11274560      -0.11277968       0.15537551 </v>
   <v>      -1.10779395       0.70161599      -0.29153909 </v>
   <v>       0.70166936      -1.10773989      -0.29151041 </v>
   <v>       0.11394371       0.11404631      -0.14960880 </v>
   <v>      -0.21875566       0.00008989       0.00086566 </v>
   <v>       0.21894650       0.00004046       0.00123631 </v>
   <v>      -0.00005433      -0.37881277       1.32158444 </v>
   <v>       0.00029720      -0.40779805      -1.28152873 </v>
   <v>       0.00010179       0.00011594      -0.00949141 </v>
   <v>      -0.11276483       0.11304877       0.15539879 </v>
   <v>       0.11309349       0.11314610       0.15545378 </v>
   <v>       0.00006916       0.21894998       0.00119883 </v>
   <v>      -0.06251688      -0.05959240       4.37005829 </v>
   <v>       0.01613403       0.01551393      -2.89000063 </v>
  </varray>
  <varray name="stress" >
   <v>      -6.73328252      -0.00028906       0.00450302 </v>
   <v>      -0.00028905      -6.73322020       0.00437484 </v>
   <v>       0.00450303       0.00437483      -6.78292761 </v>
  </varray>
  <energy>
   <i name="e_fr_energy">   -174.12310598 </i>
   <i name="e_wo_entrp">   -174.10406428 </i>
   <i name="e_0_energy">     -0.07616679 </i>
  </energy>
  <time name="totalsc">17579.7517580.35</time>
  <eigenvalues>
   <array>
    <dimension dim="1">band</dimension>
    <dimension dim="2">kpoint</dimension>
    <dimension dim="3">spin</dimension>
    <field>eigene</field>
    <field>occ</field>
    <set>
     <set comment="spin 1">
      <set comment="kpoint 1">
       <r>  -29.1766    1.0000 </r>
       <r>  -13.7068    1.0000 </r>
       <r>  -11.4759    1.0000 </r>
       <r>  -11.4759    1.0000 </r>
       <r>   -9.5778    1.0000 </r>
       <r>   -6.6230    1.0000 </r>
       <r>   -6.1057    1.0000 </r>
       <r>   -6.1057    1.0000 </r>
       <r>   -6.0992    1.0000 </r>
       <r>   -5.7919    1.0000 </r>
       <r>   -5.7919    1.0000 </r>
       <r>   -5.7893    1.0000 </r>
       <r>   -5.7226    1.0000 </r>
       <r>   -5.6707    1.0000 </r>
       <r>   -5.6622    1.0000 </r>
       <r>   -5.6622    1.0000 </r>
       <r>   -5.6619    1.0000 </r>
       <r>   -5.5998    1.0000 </r>
       <r>   -5.5981    1.0000 </r>
       <r>   -5.5839    1.0000 </r>
       <r>   -5.5745    1.0000 </r>
       <r>   -5.5745    1.0000 </r>
       <r>   -5.5736    1.0000 </r>
       <r>   -5.5347    1.0000 </r>
       <r>   -5.5346    1.0000 </r>
       <r>   -5.5305    1.0000 </r>
       <r>   -5.5264    1.0000 </r>
       <r>   -5.4989    1.0000 </r>
       <r>   -5.4989    1.0000 </r>
       <r>   -5.4970    1.0000 </r>
       <r>   -5.4947    1.0000 </r>
       <r>   -5.4926    1.0000 </r>
       <r>   -5.4926    1.0000 </r>
       <r>   -5.4916    1.0000 </r>
       <r>   -5.4891    1.0000 </r>
       <r>   -5.4559    1.0000 </r>
       <r>   -5.4552    1.0000 </r>
       <r>   -5.4504    1.0000 </r>
       <r>   -5.4504    1.0000 </r>
       <r>   -5.4446    1.0000 </r>
       <r>   -5.4445    1.0000 </r>
       <r>   -5.4443    1.0000 </r>
       <r>   -5.4443    1.0000 </r>
       <r>   -5.4146    1.0000 </r>
       <r>   -5.4106    1.0000 </r>
       <r>   -5.4072    1.0000 </r>
       <r>   -5.4072    1.0000 </r>
       <r>   -5.4059    1.0000 </r>
       <r>   -5.4059    1.0000 </r>
       <r>   -5.4042    1.0000 </r>
       <r>   -5.4006    1.0000 </r>
       <r>   -5.3858    1.0000 </r>
       <r>   -5.3841    1.0000 </r>
       <r>   -5.3841    1.0000 </r>
       <r>   -5.3688    1.0000 </r>
       <r>   -5.3107    1.0000 </r>
       <r>   -5.3107    1.0000 </r>
       <r>   -5.3083    1.0000 </r>
       <r>   -5.3054    1.0000 </r>
       <r>   -5.2936    1.0000 </r>
       <r>   -5.2932    1.0000 </r>
       <r>   -5.2932    1.0000 </r>
       <r>   -5.2819    1.0000 </r>
       <r>   -5.2819    1.0000 </r>
       <r>   -5.2786    1.0000 </r>
       <r>   -5.2703    1.0000 </r>
       <r>   -5.2656    1.0000 </r>
       <r>   -5.1952    1.0000 </r>
       <r>   -5.1932    1.0000 </r>
       <r>   -5.1930    1.0000 </r>
       <r>   -5.1891    1.0000 </r>
       <r>   -5.1581    1.0000 </r>
       <r>   -5.1564    1.0000 </r>
       <r>   -5.1563    1.0000 </r>
       <r>   -5.1538    1.0000 </r>
       <r>   -5.1500    1.0000 </r>
       <r>   -5.1435    1.0000 </r>
       <r>   -5.1434    1.0000 </r>
       <r>   -5.1416    1.0000 </r>
       <r>   -5.1242    1.0000 </r>
       <r>   -5.1020    1.0000 </r>
       <r>   -5.1011    1.0000 </r>
       <r>   -5.1010    1.0000 </r>
       <r>   -5.0926    1.0000 </r>
       <r>   -5.0829    1.0000 </r>
       <r>   -5.0829    1.0000 </r>
       <r>   -5.0793    1.0000 </r>
       <r>   -5.0444    1.0000 </r>
       <r>   -5.0443    1.0000 </r>
       <r>   -5.0388    1.0000 </r>
       <r>   -5.0353    1.0000 </r>
       <r>   -5.0326    1.0000 </r>
       <r>   -5.0321    1.0000 </r>
       <r>   -5.0266    1.0000 </r>
       <r>   -5.0265    1.0000 </r>
       <r>   -5.0249    1.0000 </r>
       <r>   -5.0248    1.0000 </r>
       <r>   -5.0038    1.0000 </r>
       <r>   -4.9948    1.0000 </r>
       <r>   -4.9948    1.0000 </r>
       <r>   -4.9825    1.0000 </r>
       <r>   -4.9820    1.0000 </r>
       <r>   -4.9820    1.0000 </r>
       <r>   -4.9747    1.0000 </r>
       <r>   -4.9747    1.0000 </r>
       <r>   -4.9678    1.0000 </r>
       <r>   -4.9573    1.0000 </r>
       <r>   -4.9565    1.0000 </r>
       <r>   -4.9564    1.0000 </r>
       <r>   -4.9499    1.0000 </r>
       <r>   -4.9454    1.0000 </r>
       <r>   -4.9421    1.0000 </r>
       <r>   -4.9412    1.0000 </r>
       <r>   -4.9334    1.0000 </r>
       <r>   -4.9308    1.0000 </r>
       <r>   -4.9308    1.0000 </r>
       <r>   -4.9148    1.0000 </r>
       <r>   -4.8986    1.0000 </r>
       <r>   -4.8984    1.0000 </r>
       <r>   -4.8939    1.0000 </r>
       <r>   -4.8936    1.0000 </r>
       <r>   -4.8936    1.0000 </r>
       <r>   -4.8846    1.0000 </r>
       <r>   -4.8822    1.0000 </r>
       <r>   -4.8785    1.0000 </r>
       <r>   -4.8785    1.0000 </r>
       <r>   -4.8352    1.0000 </r>
       <r>   -4.8351    1.0000 </r>
       <r>   -4.8297    1.0000 </r>
       <r>   -4.8232    1.0000 </r>
       <r>   -4.8196    1.0000 </r>
       <r>   -4.8177    1.0000 </r>
       <r>   -4.8083    1.0000 </r>
       <r>   -4.8083    1.0000 </r>
       <r>   -4.8069    1.0000 </r>
       <r>   -4.7795    0.9999 </r>
       <r>   -4.7791    0.9999 </r>
       <r>   -4.7714    0.9999 </r>
       <r>   -4.7684    0.9999 </r>
       <r>   -4.7656    0.9999 </r>
       <r>   -4.7655    0.9999 </r>
       <r>   -4.7364    0.9998 </r>
       <r>   -4.7141    0.9996 </r>
       <r>   -4.7141    0.9996 </r>
       <r>   -4.7131    0.9996 </r>
       <r>   -4.7058    0.9995 </r>
       <r>   -4.7054    0.9995 </r>
       <r>   -4.6903    0.9994 </r>
       <r>   -4.6902    0.9994 </r>
       <r>   -4.6836    0.9993 </r>
       <r>   -4.6698    0.9991 </r>
       <r>   -4.6592    0.9988 </r>
       <r>   -4.6555    0.9988 </r>
       <r>   -4.6524    0.9987 </r>
       <r>   -4.6524    0.9987 </r>
       <r>   -4.6501    0.9986 </r>
       <r>   -4.6489    0.9986 </r>
       <r>   -4.6489    0.9986 </r>
       <r>   -4.6351    0.9982 </r>
       <r>   -4.6313    0.9981 </r>
       <r>   -4.6310    0.9981 </r>
       <r>   -4.6282    0.9980 </r>
       <r>   -4.6271    0.9980 </r>
       <r>   -4.6263    0.9980 </r>
       <r>   -4.6219    0.9978 </r>
       <r>   -4.6219    0.9978 </r>
       <r>   -4.6188    0.9977 </r>
       <r>   -4.6177    0.9977 </r>
       <r>   -4.6064    0.9973 </r>
       <r>   -4.6043    0.9972 </r>
       <r>   -4.5965    0.9970 </r>
       <r>   -4.5964    0.9970 </r>
       <r>   -4.5805    0.9964 </r>
       <r>   -4.5737    0.9961 </r>
       <r>   -4.5737    0.9961 </r>
       <r>   -4.5710    0.9960 </r>
       <r>   -4.5698    0.9960 </r>
       <r>   -4.5638    0.9958 </r>
       <r>   -4.5620    0.9957 </r>
       <r>   -4.5620    0.9957 </r>
       <r>   -4.5493    0.9953 </r>
       <r>   -4.5321    0.9951 </r>
       <r>   -4.5296    0.9951 </r>
       <r>   -4.5296    0.9951 </r>
       <r>   -4.5285    0.9951 </r>
       <r>   -4.5274    0.9951 </r>
       <r>   -4.5274    0.9951 </r>
       <r>   -4.5272    0.9951 </r>
       <r>   -4.5251    0.9951 </r>
       <r>   -4.5251    0.9951 </r>
       <r>   -4.4864    0.9969 </r>
       <r>   -4.4837    0.9972 </r>
       <r>   -4.4837    0.9972 </r>
       <r>   -4.4798    0.9977 </r>
       <r>   -4.4798    0.9977 </r>
       <r>   -4.4672    0.9995 </r>
       <r>   -4.4573    1.0014 </r>
       <r>   -4.4573    1.0014 </r>
       <r>   -4.4538    1.0022 </r>
       <r>   -4.4447    1.0045 </r>
       <r>   -4.4442    1.0046 </r>
       <r>   -4.4371    1.0067 </r>
       <r>   -4.4329    1.0080 </r>
       <r>   -4.4329    1.0080 </r>
       <r>   -4.4251    1.0107 </r>
       <r>   -4.4243    1.0109 </r>
       <r>   -4.4243    1.0110 </r>
       <r>   -4.4229    1.0115 </r>
       <r>   -4.4228    1.0115 </r>
       <r>   -4.4155    1.0143 </r>
       <r>   -4.4002    1.0208 </r>
       <r>   -4.3880    1.0265 </r>
       <r>   -4.3847    1.0281 </r>
       <r>   -4.3847    1.0281 </r>
       <r>   -4.3841    1.0284 </r>
       <r>   -4.3790    1.0308 </r>
       <r>   -4.3771    1.0318 </r>
       <r>   -4.3771    1.0318 </r>
       <r>   -4.3750    1.0327 </r>
       <r>   -4.3534    1.0426 </r>
       <r>   -4.3534    1.0426 </r>
       <r>   -4.3346    1.0491 </r>
       <r>   -4.3235    1.0512 </r>
       <r>   -4.3235    1.0512 </r>
       <r>   -4.3159    1.0516 </r>
       <r>   -4.3145    1.0516 </r>
       <r>   -4.3135    1.0516 </r>
       <r>   -4.3125    1.0515 </r>
       <r>   -4.3125    1.0515 </r>
       <r>   -4.3089    1.0512 </r>
       <r>   -4.3050    1.0505 </r>
       <r>   -4.3050    1.0505 </r>
       <r>   -4.3011    1.0495 </r>
       <r>   -4.2987    1.0488 </r>
       <r>   -4.2977    1.0484 </r>
       <r>   -4.2968    1.0480 </r>
       <r>   -4.2968    1.0480 </r>
       <r>   -4.2953    1.0474 </r>
       <r>   -4.2929    1.0463 </r>
       <r>   -4.2929    1.0463 </r>
       <r>   -4.2794    1.0373 </r>
       <r>   -4.2760    1.0342 </r>
       <r>   -4.2687    1.0264 </r>
       <r>   -4.2687    1.0264 </r>
       <r>   -4.2614    1.0168 </r>
       <r>   -4.2596    1.0142 </r>
       <r>   -4.2596    1.0142 </r>
       <r>   -4.2590    1.0133 </r>
       <r>   -4.2535    1.0045 </r>
       <r>   -4.2447    0.9880 </r>
       <r>   -4.2384    0.9744 </r>
       <r>   -4.2324    0.9600 </r>
       <r>   -4.2323    0.9599 </r>
       <r>   -4.2319    0.9589 </r>
       <r>   -4.2253    0.9414 </r>
       <r>   -4.2253    0.9414 </r>
       <r>   -4.2249    0.9401 </r>
       <r>   -4.2217    0.9312 </r>
       <r>   -4.2190    0.9231 </r>
       <r>   -4.2190    0.9231 </r>
       <r>   -4.2132    0.9050 </r>
       <r>   -4.2120    0.9008 </r>
       <r>   -4.2120    0.9008 </r>
       <r>   -4.2118    0.9003 </r>
       <r>   -4.2089    0.8907 </r>
       <r>   -4.1971    0.8478 </r>
       <r>   -4.1937    0.8346 </r>
       <r>   -4.1937    0.8346 </r>
       <r>   -4.1936    0.8340 </r>
       <r>   -4.1907    0.8223 </r>
       <r>   -4.1897    0.8184 </r>
       <r>   -4.1871    0.8079 </r>
       <r>   -4.1689    0.7268 </r>
       <r>   -4.1689    0.7267 </r>
       <r>   -4.1673    0.7193 </r>
       <r>   -4.1574    0.6710 </r>
       <r>   -4.1574    0.6709 </r>
       <r>   -4.1515    0.6412 </r>
       <r>   -4.1444    0.6049 </r>
       <r>   -4.1444    0.6049 </r>
       <r>   -4.1439    0.6022 </r>
       <r>   -4.1300    0.5300 </r>
       <r>   -4.1057    0.4018 </r>
       <r>   -4.1050    0.3982 </r>
       <r>   -4.1050    0.3982 </r>
       <r>   -4.1004    0.3747 </r>
       <r>   -4.0899    0.3219 </r>
       <r>   -4.0858    0.3019 </r>
       <r>   -4.0675    0.2171 </r>
       <r>   -3.9416   -0.0509 </r>
       <r>   -3.8745   -0.0331 </r>
       <r>   -3.7950   -0.0022 </r>
       <r>   -3.7949   -0.0022 </r>
       <r>   -3.7947   -0.0021 </r>
       <r>   -3.4680    0.0001 </r>
       <r>   -3.4679    0.0001 </r>
       <r>   -3.4117    0.0000 </r>
       <r>   -3.0332    0.0000 </r>
       <r>   -3.0332    0.0000 </r>
       <r>   -2.9969    0.0000 </r>
       <r>   -2.9899    0.0000 </r>
       <r>   -2.9894    0.0000 </r>
       <r>   -2.9894    0.0000 </r>
       <r>   -2.9058    0.0000 </r>
       <r>   -2.8473    0.0000 </r>
       <r>   -2.5345    0.0000 </r>
       <r>   -2.5344    0.0000 </r>
       <r>   -2.4950    0.0000 </r>
       <r>   -2.2497    0.0000 </r>
       <r>   -2.1030    0.0000 </r>
       <r>   -2.1029    0.0000 </r>
       <r>   -2.0934    0.0000 </r>
       <r>   -1.9301    0.0000 </r>
       <r>   -1.9300    0.0000 </r>
       <r>   -1.8608    0.0000 </r>
       <r>   -1.8311    0.0000 </r>
       <r>   -1.8257    0.0000 </r>
       <r>   -1.7692    0.0000 </r>
       <r>   -1.7690    0.0000 </r>
       <r>   -1.7030    0.0000 </r>
       <r>   -1.6196    0.0000 </r>
       <r>   -1.5275    0.0000 </r>
       <r>   -1.4908    0.0000 </r>
       <r>   -1.4766    0.0000 </r>
       <r>   -1.4764    0.0000 </r>
       <r>   -1.1403    0.0000 </r>
       <r>   -1.1402    0.0000 </r>
       <r>   -1.0590    0.0000 </r>
       <r>   -0.9636    0.0000 </r>
       <r>   -0.9633    0.0000 </r>
       <r>   -0.9597    0.0000 </r>
       <r>   -0.9153    0.0000 </r>
       <r>   -0.9058    0.0000 </r>
       <r>   -0.8958    0.0000 </r>
       <r>   -0.8316    0.0000 </r>
       <r>   -0.7055    0.0000 </r>
      </set>
     </set>
    </set>
   </array>
  </eigenvalues>
  <separator name="orbital magnetization" >
   <v name="MAGDIPOLOUT">      0.00000000      0.00000000      0.00000000</v>
  </separator>
  <dos>
   <i name="efermi">     -4.12438140 </i>
   <total>
    <array>
     <dimension dim="1">gridpoints</dimension>
     <dimension dim="2">spin</dimension>
     <field>energy</field>
     <field>total</field>
     <field>integrated</field>
     <set>
      <set comment="spin 1">
       <r>   -31.1766     0.0000     0.0000 </r>
       <r>   -31.0684     0.0000     0.0000 </r>
       <r>   -30.9601     0.0000     0.0000 </r>
       <r>   -30.8519     0.0000     0.0000 </r>
       <r>   -30.7436     0.0000     0.0000 </r>
       <r>   -30.6354     0.0000     0.0000 </r>
       <r>   -30.5272     0.0000     0.0000 </r>
       <r>   -30.4189     0.0000     0.0000 </r>
       <r>   -30.3107     0.0000     0.0000 </r>
       <r>   -30.2025     0.0000     0.0000 </r>
       <r>   -30.0942     0.0000     0.0000 </r>
       <r>   -29.9860     0.0000     0.0000 </r>
       <r>   -29.8777     0.0004     0.0000 </r>
       <r>   -29.7695     0.0061     0.0007 </r>
       <r>   -29.6613     0.0413     0.0052 </r>
       <r>   -29.5530     0.0300     0.0084 </r>
       <r>   -29.4448    -0.5277    -0.0487 </r>
       <r>   -29.3366    -0.3114    -0.0824 </r>
       <r>   -29.2283     5.1977     0.4802 </r>
       <r>   -29.1201     9.9962     1.5621 </r>
       <r>   -29.0118     4.8637     2.0886 </r>
       <r>   -28.9036    -0.4095     2.0443 </r>
       <r>   -28.7954    -0.4913     1.9911 </r>
       <r>   -28.6871     0.0376     1.9952 </r>
       <r>   -28.5789     0.0389     1.9994 </r>
       <r>   -28.4707     0.0055     2.0000 </r>
       <r>   -28.3624     0.0003     2.0000 </r>
       <r>   -28.2542     0.0000     2.0000 </r>
       <r>   -28.1460     0.0000     2.0000 </r>
       <r>   -28.0377     0.0000     2.0000 </r>
       <r>   -27.9295     0.0000     2.0000 </r>
       <r>   -27.8212     0.0000     2.0000 </r>
       <r>   -27.7130     0.0000     2.0000 </r>
       <r>   -27.6048     0.0000     2.0000 </r>
       <r>   -27.4965     0.0000     2.0000 </r>
       <r>   -27.3883     0.0000     2.0000 </r>
       <r>   -27.2801     0.0000     2.0000 </r>
       <r>   -27.1718     0.0000     2.0000 </r>
       <r>   -27.0636     0.0000     2.0000 </r>
       <r>   -26.9553     0.0000     2.0000 </r>
       <r>   -26.8471     0.0000     2.0000 </r>
       <r>   -26.7389     0.0000     2.0000 </r>
       <r>   -26.6306     0.0000     2.0000 </r>
       <r>   -26.5224     0.0000     2.0000 </r>
       <r>   -26.4142     0.0000     2.0000 </r>
       <r>   -26.3059     0.0000     2.0000 </r>
       <r>   -26.1977     0.0000     2.0000 </r>
       <r>   -26.0895     0.0000     2.0000 </r>
       <r>   -25.9812     0.0000     2.0000 </r>
       <r>   -25.8730     0.0000     2.0000 </r>
       <r>   -25.7647     0.0000     2.0000 </r>
       <r>   -25.6565     0.0000     2.0000 </r>
       <r>   -25.5483     0.0000     2.0000 </r>
       <r>   -25.4400     0.0000     2.0000 </r>
       <r>   -25.3318     0.0000     2.0000 </r>
       <r>   -25.2236     0.0000     2.0000 </r>
       <r>   -25.1153     0.0000     2.0000 </r>
       <r>   -25.0071     0.0000     2.0000 </r>
       <r>   -24.8988     0.0000     2.0000 </r>
       <r>   -24.7906     0.0000     2.0000 </r>
       <r>   -24.6824     0.0000     2.0000 </r>
       <r>   -24.5741     0.0000     2.0000 </r>
       <r>   -24.4659     0.0000     2.0000 </r>
       <r>   -24.3577     0.0000     2.0000 </r>
       <r>   -24.2494     0.0000     2.0000 </r>
       <r>   -24.1412     0.0000     2.0000 </r>
       <r>   -24.0330     0.0000     2.0000 </r>
       <r>   -23.9247     0.0000     2.0000 </r>
       <r>   -23.8165     0.0000     2.0000 </r>
       <r>   -23.7082     0.0000     2.0000 </r>
       <r>   -23.6000     0.0000     2.0000 </r>
       <r>   -23.4918     0.0000     2.0000 </r>
       <r>   -23.3835     0.0000     2.0000 </r>
       <r>   -23.2753     0.0000     2.0000 </r>
       <r>   -23.1671     0.0000     2.0000 </r>
       <r>   -23.0588     0.0000     2.0000 </r>
       <r>   -22.9506     0.0000     2.0000 </r>
       <r>   -22.8423     0.0000     2.0000 </r>
       <r>   -22.7341     0.0000     2.0000 </r>
       <r>   -22.6259     0.0000     2.0000 </r>
       <r>   -22.5176     0.0000     2.0000 </r>
       <r>   -22.4094     0.0000     2.0000 </r>
       <r>   -22.3012     0.0000     2.0000 </r>
       <r>   -22.1929     0.0000     2.0000 </r>
       <r>   -22.0847     0.0000     2.0000 </r>
       <r>   -21.9765     0.0000     2.0000 </r>
       <r>   -21.8682     0.0000     2.0000 </r>
       <r>   -21.7600     0.0000     2.0000 </r>
       <r>   -21.6517     0.0000     2.0000 </r>
       <r>   -21.5435     0.0000     2.0000 </r>
       <r>   -21.4353     0.0000     2.0000 </r>
       <r>   -21.3270     0.0000     2.0000 </r>
       <r>   -21.2188     0.0000     2.0000 </r>
       <r>   -21.1106     0.0000     2.0000 </r>
       <r>   -21.0023     0.0000     2.0000 </r>
       <r>   -20.8941     0.0000     2.0000 </r>
       <r>   -20.7858     0.0000     2.0000 </r>
       <r>   -20.6776     0.0000     2.0000 </r>
       <r>   -20.5694     0.0000     2.0000 </r>
       <r>   -20.4611     0.0000     2.0000 </r>
       <r>   -20.3529     0.0000     2.0000 </r>
       <r>   -20.2447     0.0000     2.0000 </r>
       <r>   -20.1364     0.0000     2.0000 </r>
       <r>   -20.0282     0.0000     2.0000 </r>
       <r>   -19.9200     0.0000     2.0000 </r>
       <r>   -19.8117     0.0000     2.0000 </r>
       <r>   -19.7035     0.0000     2.0000 </r>
       <r>   -19.5952     0.0000     2.0000 </r>
       <r>   -19.4870     0.0000     2.0000 </r>
       <r>   -19.3788     0.0000     2.0000 </r>
       <r>   -19.2705     0.0000     2.0000 </r>
       <r>   -19.1623     0.0000     2.0000 </r>
       <r>   -19.0541     0.0000     2.0000 </r>
       <r>   -18.9458     0.0000     2.0000 </r>
       <r>   -18.8376     0.0000     2.0000 </r>
       <r>   -18.7293     0.0000     2.0000 </r>
       <r>   -18.6211     0.0000     2.0000 </r>
       <r>   -18.5129     0.0000     2.0000 </r>
       <r>   -18.4046     0.0000     2.0000 </r>
       <r>   -18.2964     0.0000     2.0000 </r>
       <r>   -18.1882     0.0000     2.0000 </r>
       <r>   -18.0799     0.0000     2.0000 </r>
       <r>   -17.9717     0.0000     2.0000 </r>
       <r>   -17.8635     0.0000     2.0000 </r>
       <r>   -17.7552     0.0000     2.0000 </r>
       <r>   -17.6470     0.0000     2.0000 </r>
       <r>   -17.5387     0.0000     2.0000 </r>
       <r>   -17.4305     0.0000     2.0000 </r>
       <r>   -17.3223     0.0000     2.0000 </r>
       <r>   -17.2140     0.0000     2.0000 </r>
       <r>   -17.1058     0.0000     2.0000 </r>
       <r>   -16.9976     0.0000     2.0000 </r>
       <r>   -16.8893     0.0000     2.0000 </r>
       <r>   -16.7811     0.0000     2.0000 </r>
       <r>   -16.6728     0.0000     2.0000 </r>
       <r>   -16.5646     0.0000     2.0000 </r>
       <r>   -16.4564     0.0000     2.0000 </r>
       <r>   -16.3481     0.0000     2.0000 </r>
       <r>   -16.2399     0.0000     2.0000 </r>
       <r>   -16.1317     0.0000     2.0000 </r>
       <r>   -16.0234     0.0000     2.0000 </r>
       <r>   -15.9152     0.0000     2.0000 </r>
       <r>   -15.8070     0.0000     2.0000 </r>
       <r>   -15.6987     0.0000     2.0000 </r>
       <r>   -15.5905     0.0000     2.0000 </r>
       <r>   -15.4822     0.0000     2.0000 </r>
       <r>   -15.3740     0.0000     2.0000 </r>
       <r>   -15.2658     0.0000     2.0000 </r>
       <r>   -15.1575     0.0000     2.0000 </r>
       <r>   -15.0493     0.0000     2.0000 </r>
       <r>   -14.9411     0.0000     2.0000 </r>
       <r>   -14.8328     0.0000     2.0000 </r>
       <r>   -14.7246     0.0000     2.0000 </r>
       <r>   -14.6163     0.0000     2.0000 </r>
       <r>   -14.5081     0.0000     2.0000 </r>
       <r>   -14.3999     0.0005     2.0001 </r>
       <r>   -14.2916     0.0073     2.0008 </r>
       <r>   -14.1834     0.0454     2.0058 </r>
       <r>   -14.0752     0.0143     2.0073 </r>
       <r>   -13.9669    -0.5886     1.9436 </r>
       <r>   -13.8587    -0.1155     1.9311 </r>
       <r>   -13.7505     5.7664     2.5552 </r>
       <r>   -13.6422     9.9399     3.6311 </r>
       <r>   -13.5340     4.2991     4.0964 </r>
       <r>   -13.4257    -0.5489     4.0370 </r>
       <r>   -13.3175    -0.4296     3.9905 </r>
       <r>   -13.2093     0.0480     3.9957 </r>
       <r>   -13.1010     0.0350     3.9995 </r>
       <r>   -12.9928     0.0046     4.0000 </r>
       <r>   -12.8846     0.0002     4.0000 </r>
       <r>   -12.7763     0.0000     4.0000 </r>
       <r>   -12.6681     0.0000     4.0000 </r>
       <r>   -12.5598     0.0000     4.0000 </r>
       <r>   -12.4516     0.0000     4.0000 </r>
       <r>   -12.3434     0.0000     4.0000 </r>
       <r>   -12.2351     0.0001     4.0000 </r>
       <r>   -12.1269     0.0030     4.0003 </r>
       <r>   -12.0187     0.0338     4.0040 </r>
       <r>   -11.9104     0.1255     4.0176 </r>
       <r>   -11.8022    -0.2717     3.9882 </r>
       <r>   -11.6939    -1.6176     3.8131 </r>
       <r>   -11.5857     3.0408     4.1422 </r>
       <r>   -11.4775    16.8609     5.9672 </r>
       <r>   -11.3692    17.1812     7.8268 </r>
       <r>   -11.2610     3.3638     8.1909 </r>
       <r>   -11.1528    -1.6257     8.0149 </r>
       <r>   -11.0445    -0.3039     7.9821 </r>
       <r>   -10.9363     0.1267     7.9958 </r>
       <r>   -10.8281     0.0358     7.9996 </r>
       <r>   -10.7198     0.0032     8.0000 </r>
       <r>   -10.6116     0.0001     8.0000 </r>
       <r>   -10.5033     0.0000     8.0000 </r>
       <r>   -10.3951     0.0000     8.0000 </r>
       <r>   -10.2869     0.0003     8.0000 </r>
       <r>   -10.1786     0.0051     8.0006 </r>
       <r>   -10.0704     0.0374     8.0046 </r>
       <r>    -9.9622     0.0421     8.0092 </r>
       <r>    -9.8539    -0.4670     7.9586 </r>
       <r>    -9.7457    -0.4684     7.9079 </r>
       <r>    -9.6374     4.6404     8.4102 </r>
       <r>    -9.5292     9.9825     9.4907 </r>
       <r>    -9.4210     5.4220    10.0775 </r>
       <r>    -9.3127    -0.2387    10.0517 </r>
       <r>    -9.2045    -0.5519     9.9920 </r>
       <r>    -9.0963     0.0243     9.9946 </r>
       <r>    -8.9880     0.0429     9.9992 </r>
       <r>    -8.8798     0.0066    10.0000 </r>
       <r>    -8.7716     0.0004    10.0000 </r>
       <r>    -8.6633     0.0000    10.0000 </r>
       <r>    -8.5551     0.0000    10.0000 </r>
       <r>    -8.4468     0.0000    10.0000 </r>
       <r>    -8.3386     0.0000    10.0000 </r>
       <r>    -8.2304     0.0000    10.0000 </r>
       <r>    -8.1221     0.0000    10.0000 </r>
       <r>    -8.0139     0.0000    10.0000 </r>
       <r>    -7.9057     0.0000    10.0000 </r>
       <r>    -7.7974     0.0000    10.0000 </r>
       <r>    -7.6892     0.0000    10.0000 </r>
       <r>    -7.5809     0.0000    10.0000 </r>
       <r>    -7.4727     0.0000    10.0000 </r>
       <r>    -7.3645     0.0001    10.0000 </r>
       <r>    -7.2562     0.0023    10.0003 </r>
       <r>    -7.1480     0.0230    10.0028 </r>
       <r>    -7.0398     0.0637    10.0096 </r>
       <r>    -6.9315    -0.2368     9.9840 </r>
       <r>    -6.8233    -0.7946     9.8980 </r>
       <r>    -6.7151     2.5220    10.1710 </r>
       <r>    -6.6068     9.3415    11.1821 </r>
       <r>    -6.4986     7.7531    12.0212 </r>
       <r>    -6.3903    -0.3102    11.9877 </r>
       <r>    -6.2821    -2.4942    11.7177 </r>
       <r>    -6.1739    12.0036    13.0169 </r>
       <r>    -6.0656    28.8055    16.1348 </r>
       <r>    -5.9574    16.2707    17.8958 </r>
       <r>    -5.8492     9.4693    18.9208 </r>
       <r>    -5.7409    36.7527    22.8988 </r>
       <r>    -5.6327    92.5611    32.9173 </r>
       <r>    -5.5244   206.9721    55.3193 </r>
       <r>    -5.4162   306.9565    88.5433 </r>
       <r>    -5.3080   271.2726   117.9050 </r>
       <r>    -5.1997   203.6894   139.9517 </r>
       <r>    -5.0915   249.9516   167.0057 </r>
       <r>    -4.9833   351.3733   205.0373 </r>
       <r>    -4.8750   359.2911   243.9258 </r>
       <r>    -4.7668   296.7277   276.0427 </r>
       <r>    -4.6586   334.7407   312.2740 </r>
       <r>    -4.5503   416.3268   357.3359 </r>
       <r>    -4.4421   416.6184   402.4294 </r>
       <r>    -4.3338   464.8160   452.7396 </r>
       <r>    -4.2256   562.4782   513.6205 </r>
       <r>    -4.1174   449.0214   562.2211 </r>
       <r>    -4.0091   163.2989   579.8961 </r>
       <r>    -3.9009    17.1720   581.7547 </r>
       <r>    -3.7927    26.6964   584.6443 </r>
       <r>    -3.6844    26.5576   587.5188 </r>
       <r>    -3.5762     7.5215   588.3329 </r>
       <r>    -3.4679    19.8360   590.4799 </r>
       <r>    -3.3597    26.6292   593.3621 </r>
       <r>    -3.2515     4.6451   593.8649 </r>
       <r>    -3.1432    -0.3658   593.8253 </r>
       <r>    -3.0350    39.0906   598.0564 </r>
       <r>    -2.9268    67.8584   605.4011 </r>
       <r>    -2.8185    38.7849   609.5991 </r>
       <r>    -2.7103     3.8515   610.0160 </r>
       <r>    -2.6021     7.4606   610.8235 </r>
       <r>    -2.4938    27.2176   613.7694 </r>
       <r>    -2.3856    19.9830   615.9323 </r>
       <r>    -2.2773     6.7617   616.6642 </r>
       <r>    -2.1691    17.8940   618.6010 </r>
       <r>    -2.0609    30.9179   621.9475 </r>
       <r>    -1.9526    34.3642   625.6669 </r>
       <r>    -1.8444    49.5456   631.0296 </r>
       <r>    -1.7362    54.5661   636.9357 </r>
       <r>    -1.6279    37.4102   640.9848 </r>
       <r>    -1.5197    37.5801   645.0524 </r>
       <r>    -1.4114    36.5049   649.0035 </r>
       <r>    -1.3032    10.6692   650.1584 </r>
       <r>    -1.1950     4.4172   650.6365 </r>
       <r>    -1.0867    25.6570   653.4135 </r>
       <r>    -0.9785    53.5404   659.2085 </r>
       <r>    -0.8703    65.4287   666.2903 </r>
       <r>    -0.7620    39.5290   670.5688 </r>
       <r>    -0.6538    11.7494   671.8405 </r>
       <r>    -0.5456     2.0730   672.0649 </r>
       <r>    -0.4373    -0.4969   672.0111 </r>
       <r>    -0.3291    -0.2533   671.9837 </r>
       <r>    -0.2208     0.0963   671.9941 </r>
       <r>    -0.1126     0.0475   671.9993 </r>
       <r>    -0.0044     0.0064   672.0000 </r>
       <r>     0.1039     0.0004   672.0000 </r>
       <r>     0.2121     0.0000   672.0000 </r>
       <r>     0.3203     0.0000   672.0000 </r>
       <r>     0.4286     0.0000   672.0000 </r>
       <r>     0.5368     0.0000   672.0000 </r>
       <r>     0.6451     0.0000   672.0000 </r>
       <r>     0.7533     0.0000   672.0000 </r>
       <r>     0.8615     0.0000   672.0000 </r>
       <r>     0.9698     0.0000   672.0000 </r>
       <r>     1.0780     0.0000   672.0000 </r>
       <r>     1.1862     0.0000   672.0000 </r>
       <r>     1.2945     0.0000   672.0000 </r>
      </set>
     </set>
    </array>
   </total>
  </dos>
 </calculation>
 <structure name="finalpos" >
  <crystal>
   <varray name="basis" >
    <v>      30.00000000       0.00000000       0.00000000 </v>
    <v>       0.00000000      30.00000000       0.00000000 </v>
    <v>       0.00000000       0.00000000      30.00000000 </v>
   </varray>
   <i name="volume">  27000.00000000 </i>
   <varray name="rec_basis" >
    <v>       0.03333333       0.00000000       0.00000000 </v>
    <v>       0.00000000       0.03333333       0.00000000 </v>
    <v>       0.00000000       0.00000000       0.03333333 </v>
   </varray>
  </crystal>
  <varray name="positions" >
   <v>       0.44576020       0.32826710       0.41691983 </v>
   <v>       0.67173288       0.55423978       0.41691983 </v>
   <v>       0.55423980       0.32826710       0.41691983 </v>
   <v>       0.32826712       0.55423978       0.41691983 </v>
   <v>       0.50000000       0.38250690       0.34021317 </v>
   <v>       0.50000000       0.38250690       0.65978680 </v>
   <v>       0.50000000       0.27609440       0.50000000 </v>
   <v>       0.27609443       0.49999998       0.50000000 </v>
   <v>       0.72390557       0.49999998       0.50000000 </v>
   <v>       0.50000000       0.72390555       0.50000000 </v>
   <v>       0.61195280       0.38804720       0.34167483 </v>
   <v>       0.61195280       0.38804720       0.65832513 </v>
   <v>       0.38804722       0.61195278       0.34167483 </v>
   <v>       0.38804722       0.61195278       0.65832513 </v>
   <v>       0.38804720       0.38804720       0.34167483 </v>
   <v>       0.38804720       0.38804720       0.65832513 </v>
   <v>       0.61195278       0.61195278       0.34167483 </v>
   <v>       0.61195278       0.61195278       0.65832513 </v>
   <v>       0.44576020       0.32826710       0.58308023 </v>
   <v>       0.67173288       0.55423978       0.58308023 </v>
   <v>       0.55791699       0.44208301       0.41809300 </v>
   <v>       0.32826705       0.44576024       0.41691983 </v>
   <v>       0.55423973       0.67173293       0.41691983 </v>
   <v>       0.55423980       0.32826710       0.58308023 </v>
   <v>       0.32826712       0.55423978       0.58308023 </v>
   <v>       0.67173295       0.44576024       0.41691983 </v>
   <v>       0.44576027       0.67173293       0.41691983 </v>
   <v>       0.44208301       0.44208301       0.41809300 </v>
   <v>       0.50000000       0.38416601       0.50000000 </v>
   <v>       0.61749315       0.50000005       0.34021317 </v>
   <v>       0.61749315       0.50000005       0.65978680 </v>
   <v>       0.38250685       0.50000005       0.34021317 </v>
   <v>       0.38250685       0.50000005       0.65978680 </v>
   <v>       0.38317830       0.38317830       0.50000000 </v>
   <v>       0.61682172       0.61682172       0.50000000 </v>
   <v>       0.61682170       0.38317830       0.50000000 </v>
   <v>       0.38317828       0.61682172       0.50000000 </v>
   <v>       0.50000000       0.50000000       0.33478917 </v>
   <v>       0.50000000       0.50000000       0.66521087 </v>
   <v>       0.32826705       0.44576024       0.58308023 </v>
   <v>       0.55423973       0.67173293       0.58308023 </v>
   <v>       0.55791699       0.44208301       0.58190703 </v>
   <v>       0.44208298       0.55791702       0.41809300 </v>
   <v>       0.44208301       0.44208301       0.58190703 </v>
   <v>       0.67173295       0.44576024       0.58308023 </v>
   <v>       0.44576027       0.67173293       0.58308023 </v>
   <v>       0.55791702       0.55791702       0.41809300 </v>
   <v>       0.38416599       0.50000002       0.50000000 </v>
   <v>       0.61583401       0.50000002       0.50000000 </v>
   <v>       0.50000000       0.61749319       0.34021317 </v>
   <v>       0.50000000       0.61749319       0.65978680 </v>
   <v>       0.50000000       0.50000000       0.50000000 </v>
   <v>       0.44208298       0.55791702       0.58190703 </v>
   <v>       0.55791702       0.55791702       0.58190703 </v>
   <v>       0.50000000       0.61583404       0.50000000 </v>
   <v>       0.50199317       0.50188617       0.25198917 </v>
   <v>       0.50229533       0.50217210       0.21439147 </v>
  </varray>
  <varray name="selective"  type="logical" >
   <v type="logical" >  F  F  F </v>
   <v type="logical" >  F  F  F </v>
   <v type="logical" >  F  F  F </v>
   <v type="logical" >  F  F  F </v>
   <v type="logical" >  F  F  F </v>
   <v type="logical" >  F  F  F </v>
   <v type="logical" >  F  F  F </v>
   <v type="logical" >  F  F  F </v>
   <v type="logical" >  F  F  F </v>
   <v type="logical" >  F  F  F </v>
   <v type="logical" >  F  F  F </v>
   <v type="logical" >  F  F  F </v>
   <v type="logical" >  F  F  F </v>
   <v type="logical" >  F  F  F </v>
   <v type="logical" >  F  F  F </v>
   <v type="logical" >  F  F  F </v>
   <v type="logical" >  F  F  F </v>
   <v type="logical" >  F  F  F </v>
   <v type="logical" >  F  F  F </v>
   <v type="logical" >  F  F  F </v>
   <v type="logical" >  F  F  F </v>
   <v type="logical" >  F  F  F </v>
   <v type="logical" >  F  F  F </v>
   <v type="logical" >  F  F  F </v>
   <v type="logical" >  F  F  F </v>
   <v type="logical" >  F  F  F </v>
   <v type="logical" >  F  F  F </v>
   <v type="logical" >  F  F  F </v>
   <v type="logical" >  F  F  F </v>
   <v type="logical" >  F  F  F </v>
   <v type="logical" >  F  F  F </v>
   <v type="logical" >  F  F  F </v>
   <v type="logical" >  F  F  F </v>
   <v type="logical" >  F  F  F </v>
   <v type="logical" >  F  F  F </v>
   <v type="logical" >  F  F  F </v>
   <v type="logical" >  F  F  F </v>
   <v type="logical" >  F  F  F </v>
   <v type="logical" >  F  F  F </v>
   <v type="logical" >  F  F  F </v>
   <v type="logical" >  F  F  F </v>
   <v type="logical" >  F  F  F </v>
   <v type="logical" >  F  F  F </v>
   <v type="logical" >  F  F  F </v>
   <v type="logical" >  F  F  F </v>
   <v type="logical" >  F  F  F </v>
   <v type="logical" >  F  F  F </v>
   <v type="logical" >  F  F  F </v>
   <v type="logical" >  F  F  F </v>
   <v type="logical" >  F  F  F </v>
   <v type="logical" >  F  F  F </v>
   <v type="logical" >  F  F  F </v>
   <v type="logical" >  F  F  F </v>
   <v type="logical" >  F  F  F </v>
   <v type="logical" >  F  F  F </v>
   <v type="logical" >  F  F  F </v>
   <v type="logical" >  F  F  F </v>
  </varray>
  <nose>
   <v>      -3.00000000       0.00000000       0.00010000       0.00010000 </v>
  </nose>
 </structure>
</modeling>
