 vasp.5.4.4.18Apr17-6-g9f103f2a35 (build Sep 03 2018 23:53:05) complex          
  
 executed on             LinuxIFC date 2021.11.26  22:53:48
 running on    1 total cores
 distrk:  each k-point on    1 cores,    1 groups
 distr:  one band on NCORES_PER_BAND=   1 cores,    1 groups


--------------------------------------------------------------------------------------------------------


 INCAR:
 POTCAR:    PAW_PBE Pd 04Jan2005                  
 POTCAR:    PAW_PBE C 08Apr2002                   
 POTCAR:    PAW_PBE O 08Apr2002                   
 POTCAR:    PAW_PBE Pd 04Jan2005                  
   VRHFIN =Pd : s1 d9                                                           
   LEXCH  = PE                                                                  
   EATOM  =   809.7530 eV,   59.5152 Ry                                         
                                                                                
   TITEL  = PAW_PBE Pd 04Jan2005                                                
   LULTRA =        F    use ultrasoft PP ?                                      
   IUNSCR =        1    unscreen: 0-lin 1-nonlin 2-no                           
   RPACOR =    2.000    partial core radius                                     
   POMASS =  106.420; ZVAL   =   10.000    mass and valenz                      
   RCORE  =    2.600    outmost cutoff radius                                   
   RWIGS  =    2.710; RWIGS  =    1.434    wigner-seitz radius (au A)           
   ENMAX  =  250.925; ENMIN  =  188.194 eV                                      
   ICORE  =        3    local potential                                         
   LCOR   =        T    correct aug charges                                     
   LPAW   =        T    paw PP                                                  
   EAUG   =  416.230                                                            
   DEXC   =    0.000                                                            
   RMAX   =    2.653    core radius for proj-oper                               
   RAUG   =    1.300    factor for augmentation sphere                          
   RDEP   =    2.734    radius for radial grids                                 
   RDEPT  =    2.103    core radius for aug-charge                              
                                                                                
   Atomic configuration                                                         
   12 entries                                                                   
     n  l   j            E        occ.                                          
     1  0  0.50    -24164.6631   2.0000                                         
     2  0  0.50     -3530.9218   2.0000                                         
     2  1  1.50     -3165.6822   6.0000                                         
     3  0  0.50      -639.4577   2.0000                                         
     3  1  1.50      -519.4532   6.0000                                         
     3  2  2.50      -328.9757  10.0000                                         
     4  0  0.50       -88.7014   2.0000                                         
     4  1  1.50       -54.4540   6.0000                                         
     4  2  2.50        -6.6878   9.0000                                         
     5  0  0.50        -4.3543   1.0000                                         
     5  1  0.50        -1.3606   0.0000                                         
     4  3  2.50        -1.3606   0.0000                                         
   Description                                                                  
     l       E           TYP  RCUT    TYP  RCUT                                 
     2     -6.6878251     23  2.400                                             
     2     -8.0484077     23  2.400                                             
     0     -4.3542939     23  2.400                                             
     0      4.3406793     23  2.400                                             
     1     -4.0817478     23  2.600                                             
     1     15.8380318     23  2.600                                             
     3     -4.0817478     23  2.400                                             
  local pseudopotential read in
  partial core-charges read in
  partial kinetic energy density read in
  atomic valenz-charges read in
  non local Contribution for L=           2  read in
    real space projection operators read in
  non local Contribution for L=           2  read in
    real space projection operators read in
  non local Contribution for L=           0  read in
    real space projection operators read in
  non local Contribution for L=           0  read in
    real space projection operators read in
  non local Contribution for L=           1  read in
    real space projection operators read in
  non local Contribution for L=           1  read in
    real space projection operators read in
    PAW grid and wavefunctions read in
 
   number of l-projection  operators is LMAX  =           6
   number of lm-projection operators is LMMAX =          18
 
 POTCAR:    PAW_PBE C 08Apr2002                   
   VRHFIN =C: s2p2                                                              
   LEXCH  = PE                                                                  
   EATOM  =   147.1560 eV,   10.8157 Ry                                         
                                                                                
   TITEL  = PAW_PBE C 08Apr2002                                                 
   LULTRA =        F    use ultrasoft PP ?                                      
   IUNSCR =        1    unscreen: 0-lin 1-nonlin 2-no                           
   RPACOR =    1.200    partial core radius                                     
   POMASS =   12.011; ZVAL   =    4.000    mass and valenz                      
   RCORE  =    1.500    outmost cutoff radius                                   
   RWIGS  =    1.630; RWIGS  =    0.863    wigner-seitz radius (au A)           
   ENMAX  =  400.000; ENMIN  =  300.000 eV                                      
   ICORE  =        2    local potential                                         
   LCOR   =        T    correct aug charges                                     
   LPAW   =        T    paw PP                                                  
   EAUG   =  644.873                                                            
   DEXC   =    0.000                                                            
   RMAX   =    1.529    core radius for proj-oper                               
   RAUG   =    1.300    factor for augmentation sphere                          
   RDEP   =    1.501    radius for radial grids                                 
   RDEPT  =    1.300    core radius for aug-charge                              
                                                                                
   Atomic configuration                                                         
    4 entries                                                                   
     n  l   j            E        occ.                                          
     1  0  0.50      -273.3789   2.0000                                         
     2  0  0.50       -13.7508   2.0000                                         
     2  1  0.50        -5.2854   2.0000                                         
     3  2  1.50        -5.4423   0.0000                                         
   Description                                                                  
     l       E           TYP  RCUT    TYP  RCUT                                 
     0    -13.7508458     23  1.200                                             
     0     -8.2022199     23  1.200                                             
     1     -5.2854383     23  1.500                                             
     1     34.0145650     23  1.500                                             
     2     -5.4423304      7  1.500                                             
  local pseudopotential read in
  partial core-charges read in
  partial kinetic energy density read in
  atomic valenz-charges read in
  non local Contribution for L=           0  read in
    real space projection operators read in
  non local Contribution for L=           0  read in
    real space projection operators read in
  non local Contribution for L=           1  read in
    real space projection operators read in
  non local Contribution for L=           1  read in
    real space projection operators read in
    PAW grid and wavefunctions read in
 
   number of l-projection  operators is LMAX  =           4
   number of lm-projection operators is LMMAX =           8
 
 POTCAR:    PAW_PBE O 08Apr2002                   
   VRHFIN =O: s2p4                                                              
   LEXCH  = PE                                                                  
   EATOM  =   432.3788 eV,   31.7789 Ry                                         
                                                                                
   TITEL  = PAW_PBE O 08Apr2002                                                 
   LULTRA =        F    use ultrasoft PP ?                                      
   IUNSCR =        1    unscreen: 0-lin 1-nonlin 2-no                           
   RPACOR =    1.200    partial core radius                                     
   POMASS =   16.000; ZVAL   =    6.000    mass and valenz                      
   RCORE  =    1.520    outmost cutoff radius                                   
   RWIGS  =    1.550; RWIGS  =    0.820    wigner-seitz radius (au A)           
   ENMAX  =  400.000; ENMIN  =  300.000 eV                                      
   ICORE  =        2    local potential                                         
   LCOR   =        T    correct aug charges                                     
   LPAW   =        T    paw PP                                                  
   EAUG   =  605.392                                                            
   DEXC   =    0.000                                                            
   RMAX   =    1.553    core radius for proj-oper                               
   RAUG   =    1.300    factor for augmentation sphere                          
   RDEP   =    1.550    radius for radial grids                                 
   RDEPT  =    1.329    core radius for aug-charge                              
                                                                                
   Atomic configuration                                                         
    4 entries                                                                   
     n  l   j            E        occ.                                          
     1  0  0.50      -514.6923   2.0000                                         
     2  0  0.50       -23.9615   2.0000                                         
     2  1  0.50        -9.0305   4.0000                                         
     3  2  1.50        -9.5241   0.0000                                         
   Description                                                                  
     l       E           TYP  RCUT    TYP  RCUT                                 
     0    -23.9615318     23  1.200                                             
     0     -9.5240782     23  1.200                                             
     1     -9.0304911     23  1.520                                             
     1      8.1634956     23  1.520                                             
     2     -9.5240782      7  1.500                                             
  local pseudopotential read in
  partial core-charges read in
  partial kinetic energy density read in
  kinetic energy density of atom read in
  atomic valenz-charges read in
  non local Contribution for L=           0  read in
    real space projection operators read in
  non local Contribution for L=           0  read in
    real space projection operators read in
  non local Contribution for L=           1  read in
    real space projection operators read in
  non local Contribution for L=           1  read in
    real space projection operators read in
    PAW grid and wavefunctions read in
 
   number of l-projection  operators is LMAX  =           4
   number of lm-projection operators is LMMAX =           8
 
 Optimization of the real space projectors (new method)

 maximal supplied QI-value         = 14.36
 optimisation between [QCUT,QGAM] = [ 10.20, 20.39] = [ 29.12,116.47] Ry 
 Optimized for a Real-space Cutoff    1.51 Angstroem

   l    n(q)    QCUT    max X(q) W(low)/X(q) W(high)/X(q)  e(spline) 
   2      8    10.197    59.108    0.26E-03    0.14E-03    0.96E-07
   2      8    10.197    58.101    0.27E-03    0.14E-03    0.98E-07
   0      9    10.197   102.235    0.54E-04    0.60E-05    0.72E-07
   0      9    10.197    58.388    0.52E-04    0.60E-05    0.68E-07
   1      9    10.197    22.191    0.18E-03    0.25E-03    0.79E-07
   1      9    10.197    15.590    0.15E-03    0.21E-03    0.69E-07
 Optimization of the real space projectors (new method)

 maximal supplied QI-value         = 25.13
 optimisation between [QCUT,QGAM] = [ 10.05, 20.36] = [ 28.30,116.06] Ry 
 Optimized for a Real-space Cutoff    1.30 Angstroem

   l    n(q)    QCUT    max X(q) W(low)/X(q) W(high)/X(q)  e(spline) 
   0      8    10.053   115.676    0.49E-03    0.72E-03    0.18E-06
   0      8    10.053    87.132    0.49E-03    0.71E-03    0.18E-06
   1      7    10.053     4.429    0.32E-03    0.31E-03    0.18E-06
   1      7    10.053     2.733    0.23E-03    0.19E-03    0.20E-06
 Optimization of the real space projectors (new method)

 maximal supplied QI-value         = 24.76
 optimisation between [QCUT,QGAM] = [ 10.15, 20.30] = [ 28.85,115.39] Ry 
 Optimized for a Real-space Cutoff    1.38 Angstroem

   l    n(q)    QCUT    max X(q) W(low)/X(q) W(high)/X(q)  e(spline) 
   0      8    10.150    20.381    0.22E-03    0.32E-03    0.29E-06
   0      8    10.150    15.268    0.23E-03    0.35E-03    0.30E-06
   1      8    10.150     5.964    0.46E-03    0.53E-03    0.21E-06
   1      8    10.150     5.382    0.38E-03    0.45E-03    0.19E-06

 ----------------------------------------------------------------------------- 
|                                                                             |
|  ADVICE TO THIS USER RUNNING 'VASP/VAMP'   (HEAR YOUR MASTER'S VOICE ...):  |
|                                                                             |
|      You enforced a specific xc-type in the INCAR file,                     |
|      a different type was found on the POTCAR file                          |
|          I HOPE YOU KNOW, WHAT YOU ARE  DOING                               |
|                                                                             |
 ----------------------------------------------------------------------------- 

  PAW_PBE Pd 04Jan2005                  :
 energy of atom  1       EATOM= -809.7530
 kinetic energy error for atom=    0.0091 (will be added to EATOM!!)
  PAW_PBE C 08Apr2002                   :
 energy of atom  2       EATOM= -147.1560
 kinetic energy error for atom=    0.0288 (will be added to EATOM!!)
  PAW_PBE O 08Apr2002                   :
 energy of atom  3       EATOM= -432.3788
 kinetic energy error for atom=    0.1156 (will be added to EATOM!!)
 
 
 POSCAR: Pd55PES                                 
  positions in cartesian coordinates
  No initial velocities read in
 exchange correlation table for  LEXCH =        9
   RHO(1)=    0.500       N(1)  =     2000
   RHO(2)=  100.500       N(2)  =     4000
 


--------------------------------------------------------------------------------------------------------


 ion  position               nearest neighbor table
   1  0.446  0.328  0.417-   3 3.25   5 3.25   7 3.36  15 3.36  29 3.42  28 3.42
   2  0.672  0.554  0.417-  26 3.25  30 3.25  17 3.36   9 3.36  47 3.42  49 3.42
   3  0.554  0.328  0.417-   1 3.25   5 3.25   7 3.36  11 3.36  29 3.42  21 3.42
   4  0.328  0.554  0.417-  32 3.25  22 3.25  13 3.36   8 3.36  43 3.42  48 3.42
   5  0.500  0.383  0.340-   1 3.25   3 3.25  11 3.36  15 3.36  21 3.42  28 3.42
   6  0.500  0.383  0.660-  56 1.93  24 3.25  19 3.25  16 3.36  12 3.36  44 3.42  42 3.42
   7  0.500  0.276  0.500-  29 3.24   3 3.36   1 3.36  19 3.36  24 3.36
   8  0.276  0.500  0.500-  48 3.24  22 3.36  40 3.36   4 3.36  25 3.36
   9  0.724  0.500  0.500-  49 3.24  26 3.36  45 3.36   2 3.36  20 3.36
  10  0.500  0.724  0.500-  55 3.24  27 3.36  23 3.36  46 3.36  41 3.36
  11  0.612  0.388  0.342-  21 3.24   5 3.36   3 3.36  30 3.36  26 3.36
  12  0.612  0.388  0.658-  56 2.06  57 2.67  42 3.24  24 3.36  45 3.36   6 3.36  31 3.36
  13  0.388  0.612  0.342-  43 3.24  32 3.36  50 3.36   4 3.36  27 3.36
  14  0.388  0.612  0.658-  53 3.24  25 3.36  33 3.36  51 3.36  46 3.36
  15  0.388  0.388  0.342-  28 3.24   5 3.36   1 3.36  32 3.36  22 3.36
  16  0.388  0.388  0.658-  44 3.24  19 3.36  40 3.36   6 3.36  33 3.36
  17  0.612  0.612  0.342-  47 3.24  30 3.36  50 3.36   2 3.36  23 3.36
  18  0.612  0.612  0.658-  54 3.24  31 3.36  20 3.36  51 3.36  41 3.36
  19  0.446  0.328  0.583-   6 3.25  24 3.25  16 3.36   7 3.36  44 3.42  29 3.42
  20  0.672  0.554  0.583-  31 3.25  45 3.25  18 3.36   9 3.36  54 3.42  49 3.42
  21  0.558  0.442  0.418-  11 3.24   5 3.42   3 3.42  30 3.42  26 3.42
  22  0.328  0.446  0.417-   4 3.25  32 3.25   8 3.36  15 3.36  48 3.42  28 3.42
  23  0.554  0.672  0.417-  27 3.25  50 3.25  10 3.36  17 3.36  55 3.42  47 3.42
  24  0.554  0.328  0.583-   6 3.25  19 3.25  12 3.36   7 3.36  42 3.42  29 3.42
  25  0.328  0.554  0.583-  33 3.25  40 3.25  14 3.36   8 3.36  53 3.42  48 3.42
  26  0.672  0.446  0.417-   2 3.25  30 3.25   9 3.36  11 3.36  49 3.42  21 3.42
  27  0.446  0.672  0.417-  23 3.25  50 3.25  10 3.36  13 3.36  55 3.42  43 3.42
  28  0.442  0.442  0.418-  15 3.24   5 3.42   1 3.42  32 3.42  22 3.42
  29  0.500  0.384  0.500-   7 3.24   3 3.42   1 3.42  24 3.42  19 3.42
  30  0.617  0.500  0.340-   2 3.25  26 3.25  17 3.36  11 3.36  47 3.42  21 3.42
  31  0.617  0.500  0.660-  20 3.25  45 3.25  18 3.36  12 3.36  54 3.42  42 3.42
  32  0.383  0.500  0.340-   4 3.25  22 3.25  13 3.36  15 3.36  43 3.42  28 3.42
  33  0.383  0.500  0.660-  25 3.25  40 3.25  14 3.36  16 3.36  53 3.42  44 3.42
  34  0.383  0.383  0.500-
  35  0.617  0.617  0.500-
  36  0.617  0.383  0.500-
  37  0.383  0.617  0.500-
  38  0.500  0.500  0.335-
  39  0.500  0.500  0.665-
  40  0.328  0.446  0.583-  33 3.25  25 3.25  16 3.36   8 3.36  44 3.42  48 3.42
  41  0.554  0.672  0.583-  46 3.25  51 3.25  10 3.36  18 3.36  54 3.42  55 3.42
  42  0.558  0.442  0.582-  12 3.24   6 3.42  24 3.42  31 3.42  45 3.42
  43  0.442  0.558  0.418-  13 3.24   4 3.42  32 3.42  27 3.42  50 3.42
  44  0.442  0.442  0.582-  16 3.24   6 3.42  19 3.42  33 3.42  40 3.42
  45  0.672  0.446  0.583-  20 3.25  31 3.25   9 3.36  12 3.36  49 3.42  42 3.42
  46  0.446  0.672  0.583-  41 3.25  51 3.25  10 3.36  14 3.36  53 3.42  55 3.42
  47  0.558  0.558  0.418-  17 3.24   2 3.42  30 3.42  23 3.42  50 3.42
  48  0.384  0.500  0.500-   8 3.24   4 3.42  22 3.42  25 3.42  40 3.42
  49  0.616  0.500  0.500-   9 3.24   2 3.42  26 3.42  20 3.42  45 3.42
  50  0.500  0.617  0.340-  27 3.25  23 3.25  13 3.36  17 3.36  43 3.42  47 3.42
  51  0.500  0.617  0.660-  41 3.25  46 3.25  14 3.36  18 3.36  53 3.42  54 3.42
  52  0.500  0.500  0.500-
  53  0.442  0.558  0.582-  14 3.24  25 3.42  33 3.42  51 3.42  46 3.42
  54  0.558  0.558  0.582-  18 3.24  31 3.42  20 3.42  51 3.42  41 3.42
  55  0.500  0.616  0.500-  10 3.24  23 3.42  27 3.42  41 3.42  46 3.42
  56  0.555  0.364  0.688-  57 1.13   6 1.93  12 2.06
  57  0.563  0.342  0.717-  56 1.13  12 2.67
 
  LATTYP: Found a simple cubic cell.
 ALAT       =    30.0000000000
  
  Lattice vectors:
  
 A1 = (  30.0000000000,   0.0000000000,   0.0000000000)
 A2 = (   0.0000000000,  30.0000000000,   0.0000000000)
 A3 = (   0.0000000000,   0.0000000000,  30.0000000000)


Analysis of symmetry for initial positions (statically):
=====================================================================
 Subroutine PRICEL returns:
 Original cell was already a primitive cell.
 

 Routine SETGRP: Setting up the symmetry group for a 
 simple cubic supercell.


 Subroutine GETGRP returns: Found  1 space group operations
 (whereof  1 operations were pure point group operations)
 out of a pool of 48 trial point group operations.


The static configuration has the point symmetry C_1 .


Analysis of symmetry for dynamics (positions and initial velocities):
=====================================================================
 Subroutine PRICEL returns:
 Original cell was already a primitive cell.
 

 Routine SETGRP: Setting up the symmetry group for a 
 simple cubic supercell.


 Subroutine GETGRP returns: Found  1 space group operations
 (whereof  1 operations were pure point group operations)
 out of a pool of 48 trial point group operations.


The dynamic configuration has the point symmetry C_1 .


Analysis of constrained symmetry for selective dynamics:
=====================================================================
 Subroutine PRICEL returns:
 Original cell was already a primitive cell.
 

 Routine SETGRP: Setting up the symmetry group for a 
 simple cubic supercell.


 Subroutine GETGRP returns: Found  1 space group operations
 (whereof  1 operations were pure point group operations)
 out of a pool of 48 trial point group operations.


The constrained configuration has the point symmetry C_1 .


 Subroutine INISYM returns: Found  1 space group operations
 (whereof  1 operations are pure point group operations),
 and found     1 'primitive' translations

 
 
 KPOINTS: K-points                                

Automatic generation of k-mesh.
Space group operators:
 irot       det(A)        alpha          n_x          n_y          n_z        tau_x        tau_y        tau_z
    1     1.000000     0.000000     1.000000     0.000000     0.000000     0.000000     0.000000     0.000000
 
 Subroutine IBZKPT returns following result:
 ===========================================
 
 Found      1 irreducible k-points:
 
 Following reciprocal coordinates:
            Coordinates               Weight
  0.000000  0.000000  0.000000      1.000000
 
 Following cartesian coordinates:
            Coordinates               Weight
  0.000000  0.000000  0.000000      1.000000
 


--------------------------------------------------------------------------------------------------------




 Dimension of arrays:
   k-points           NKPTS =      1   k-points in BZ     NKDIM =      1   number of bands    NBANDS=    336
   number of dos      NEDOS =    301   number of ions     NIONS =     57
   non local maximal  LDIM  =      6   non local SUM 2l+1 LMDIM =     18
   total plane-waves  NPLWV = ******
   max r-space proj   IRMAX =   1847   max aug-charges    IRDMAX=   6262
   dimension x,y,z NGX =   150 NGY =  150 NGZ =  150
   dimension x,y,z NGXF=   300 NGYF=  300 NGZF=  300
   support grid    NGXF=   300 NGYF=  300 NGZF=  300
   ions per type =              55   1   1
   NGX,Y,Z   is equivalent  to a cutoff of   8.31,  8.31,  8.31 a.u.
   NGXF,Y,Z  is equivalent  to a cutoff of  16.62, 16.62, 16.62 a.u.

 SYSTEM =  6_Pd100_top_free_z(O)                   
 POSCAR =  Pd55PES                                 

 Startparameter for this run:
   NWRITE =      2    write-flag & timer
   PREC   = normal    normal or accurate (medium, high low for compatibility)
   ISTART =      0    job   : 0-new  1-cont  2-samecut
   ICHARG =      2    charge: 1-file 2-atom 10-const
   ISPIN  =      1    spin polarized calculation?
   LNONCOLLINEAR =      F non collinear calculations
   LSORBIT =      F    spin-orbit coupling
   INIWAV =      1    electr: 0-lowe 1-rand  2-diag
   LASPH  =      F    aspherical Exc in radial PAW
   METAGGA=      F    non-selfconsistent MetaGGA calc.

 Electronic Relaxation 1
   ENCUT  =  400.0 eV  29.40 Ry    5.42 a.u.  48.92 48.92 48.92*2*pi/ulx,y,z
   ENINI  =  400.0     initial cutoff
   ENAUG  =  644.9 eV  augmentation charge cutoff
   NELM   =    100;   NELMIN=  6; NELMDL= -5     # of ELM steps 
   EDIFF  = 0.1E-03   stopping-criterion for ELM
   LREAL  =      T    real-space projection
   NLSPLINE    = F    spline interpolate recip. space projectors
   LCOMPAT=      F    compatible to vasp.4.4
   GGA_COMPAT  = T    GGA compatible to vasp.4.4-vasp.4.6
   LMAXPAW     = -100 max onsite density
   LMAXMIX     =    2 max onsite mixed and CHGCAR
   VOSKOWN=      0    Vosko Wilk Nusair interpolation
   ROPT   =   -0.00050  -0.00050  -0.00050
 Ionic relaxation
   EDIFFG = -.5E-01   stopping-criterion for IOM
   NSW    =      0    number of steps for IOM
   NBLOCK =      1;   KBLOCK =      1    inner block; outer block 
   IBRION =     -1    ionic relax: 0-MD 1-quasi-New 2-CG
   NFREE  =      1    steps in history (QN), initial steepest desc. (CG)
   ISIF   =      2    stress and relaxation
   IWAVPR =     10    prediction:  0-non 1-charg 2-wave 3-comb
   ISYM   =      2    0-nonsym 1-usesym 2-fastsym
   LCORR  =      T    Harris-Foulkes like correction to forces

   POTIM  = 0.5000    time-step for ionic-motion
   TEIN   =    0.0    initial temperature
   TEBEG  =    0.0;   TEEND  =   0.0 temperature during run
   SMASS  =  -3.00    Nose mass-parameter (am)
   estimated Nose-frequenzy (Omega)   =  0.10E-29 period in steps =****** mass=  -0.206E-25a.u.
   SCALEE = 1.0000    scale energy and forces
   NPACO  =    256;   APACO  = 16.0  distance and # of slots for P.C.
   PSTRESS=    0.0 pullay stress

  Mass of Ions in am
   POMASS = 106.42 12.01 16.00
  Ionic Valenz
   ZVAL   =  10.00  4.00  6.00
  Atomic Wigner-Seitz radii
   RWIGS  =  -1.00 -1.00 -1.00
  virtual crystal weights 
   VCA    =   1.00  1.00  1.00
   NELECT =     560.0000    total number of electrons
   NUPDOWN=      -1.0000    fix difference up-down

 DOS related values:
   EMIN   =  10.00;   EMAX   =-10.00  energy-range for DOS
   EFERMI =   0.00
   ISMEAR =     2;   SIGMA  =   0.20  broadening in eV -4-tet -1-fermi 0-gaus

 Electronic relaxation 2 (details)
   IALGO  =     68    algorithm
   LDIAG  =      T    sub-space diagonalisation (order eigenvalues)
   LSUBROT=      F    optimize rotation matrix (better conditioning)
   TURBO    =      0    0=normal 1=particle mesh
   IRESTART =      0    0=no restart 2=restart with 2 vectors
   NREBOOT  =      0    no. of reboots
   NMIN     =      0    reboot dimension
   EREF     =   0.00    reference energy to select bands
   IMIX   =      4    mixing-type and parameters
     AMIX     =   0.40;   BMIX     =  1.00
     AMIX_MAG =   1.60;   BMIX_MAG =  1.00
     AMIN     =   0.10
     WC   =   100.;   INIMIX=   1;  MIXPRE=   1;  MAXMIX= -45

 Intra band minimization:
   WEIMIN = 0.0000     energy-eigenvalue tresh-hold
   EBREAK =  0.74E-07  absolut break condition
   DEPER  =   0.30     relativ break condition  

   TIME   =   0.40     timestep for ELM

  volume/ion in A,a.u.               =     473.68      3196.58
  Fermi-wavevector in a.u.,A,eV,Ry     =   0.449797  0.849992  2.752691  0.202317
  Thomas-Fermi vector in A             =   1.430086
 
 Write flags
   LWAVE        =      F    write WAVECAR
   LDOWNSAMPLE  =      F    k-point downsampling of WAVECAR
   LCHARG       =      F    write CHGCAR
   LVTOT        =      F    write LOCPOT, total local potential
   LVHAR        =      F    write LOCPOT, Hartree potential only
   LELF         =      F    write electronic localiz. function (ELF)
   LORBIT       =      0    0 simple, 1 ext, 2 COOP (PROOUT), +10 PAW based schemes


 Dipole corrections
   LMONO  =      F    monopole corrections only (constant potential shift)
   LDIPOL =      F    correct potential (dipole corrections)
   IDIPOL =      0    1-x, 2-y, 3-z, 4-all directions 
   EPSILON=  1.0000000 bulk dielectric constant

 Exchange correlation treatment:
   GGA     =    RP    GGA type
   LEXCH   =     9    internal setting for exchange type
   VOSKOWN=      0    Vosko Wilk Nusair interpolation
   LHFCALC =     F    Hartree Fock is set to
   LHFONE  =     F    Hartree Fock one center treatment
   AEXX    =    0.0000 exact exchange contribution

 Linear response parameters
   LEPSILON=     F    determine dielectric tensor
   LRPA    =     F    only Hartree local field effects (RPA)
   LNABLA  =     F    use nabla operator in PAW spheres
   LVEL    =     F    velocity operator in full k-point grid
   LINTERFAST=   F  fast interpolation
   KINTER  =     0    interpolate to denser k-point grid
   CSHIFT  =0.1000    complex shift for real part using Kramers Kronig
   OMEGAMAX=  -1.0    maximum frequency
   DEG_THRESHOLD= 0.2000000E-02 threshold for treating states as degnerate
   RTIME   =   -0.100 relaxation time in fs
  (WPLASMAI=    0.000 imaginary part of plasma frequency in eV, 0.658/RTIME)
   DFIELD  = 0.0000000 0.0000000 0.0000000 field for delta impulse in time
 
 Orbital magnetization related:
   ORBITALMAG=     F  switch on orbital magnetization
   LCHIMAG   =     F  perturbation theory with respect to B field
   DQ        =  0.001000  dq finite difference perturbation B field
   LLRAUG    =     F  two centre corrections for induced B field



--------------------------------------------------------------------------------------------------------


 Static calculation
 charge density and potential will be updated during run
 non-spin polarized calculation
 RMM-DIIS sequential band-by-band and
  variant of blocked Davidson during initial phase
 perform sub-space diagonalisation
    before iterative eigenvector-optimisation
 modified Broyden-mixing scheme, WC =      100.0
 initial mixing is a Kerker type mixing with AMIX =  0.4000 and BMIX =      1.0000
 Hartree-type preconditioning will be used
 using additional bands           56
 real space projection scheme for non local part
 use partial core corrections
 calculate Harris-corrections to forces 
   (improved forces if not selfconsistent)
 use gradient corrections 
 use of overlap-Matrix (Vanderbilt PP)
 Methfessel and Paxton  Order N= 2 SIGMA  =   0.20


--------------------------------------------------------------------------------------------------------


  energy-cutoff  :      400.00
  volume of cell :    27000.00
      direct lattice vectors                 reciprocal lattice vectors
    30.000000000  0.000000000  0.000000000     0.033333333  0.000000000  0.000000000
     0.000000000 30.000000000  0.000000000     0.000000000  0.033333333  0.000000000
     0.000000000  0.000000000 30.000000000     0.000000000  0.000000000  0.033333333

  length of vectors
    30.000000000 30.000000000 30.000000000     0.033333333  0.033333333  0.033333333


 
 k-points in units of 2pi/SCALE and weight: K-points                                
   0.00000000  0.00000000  0.00000000       1.000
 
 k-points in reciprocal lattice and weights: K-points                                
   0.00000000  0.00000000  0.00000000       1.000
 
 position of ions in fractional coordinates (direct lattice) 
   0.44576020  0.32826710  0.41691983
   0.67173288  0.55423978  0.41691983
   0.55423980  0.32826710  0.41691983
   0.32826712  0.55423978  0.41691983
   0.50000000  0.38250690  0.34021317
   0.50000000  0.38250690  0.65978680
   0.50000000  0.27609440  0.50000000
   0.27609443  0.49999998  0.50000000
   0.72390557  0.49999998  0.50000000
   0.50000000  0.72390555  0.50000000
   0.61195280  0.38804720  0.34167483
   0.61195280  0.38804720  0.65832513
   0.38804722  0.61195278  0.34167483
   0.38804722  0.61195278  0.65832513
   0.38804720  0.38804720  0.34167483
   0.38804720  0.38804720  0.65832513
   0.61195278  0.61195278  0.34167483
   0.61195278  0.61195278  0.65832513
   0.44576020  0.32826710  0.58308023
   0.67173288  0.55423978  0.58308023
   0.55791699  0.44208301  0.41809300
   0.32826705  0.44576024  0.41691983
   0.55423973  0.67173293  0.41691983
   0.55423980  0.32826710  0.58308023
   0.32826712  0.55423978  0.58308023
   0.67173295  0.44576024  0.41691983
   0.44576027  0.67173293  0.41691983
   0.44208301  0.44208301  0.41809300
   0.50000000  0.38416601  0.50000000
   0.61749315  0.50000005  0.34021317
   0.61749315  0.50000005  0.65978680
   0.38250685  0.50000005  0.34021317
   0.38250685  0.50000005  0.65978680
   0.38317830  0.38317830  0.50000000
   0.61682172  0.61682172  0.50000000
   0.61682170  0.38317830  0.50000000
   0.38317828  0.61682172  0.50000000
   0.50000000  0.50000000  0.33478917
   0.50000000  0.50000000  0.66521087
   0.32826705  0.44576024  0.58308023
   0.55423973  0.67173293  0.58308023
   0.55791699  0.44208301  0.58190703
   0.44208298  0.55791702  0.41809300
   0.44208301  0.44208301  0.58190703
   0.67173295  0.44576024  0.58308023
   0.44576027  0.67173293  0.58308023
   0.55791702  0.55791702  0.41809300
   0.38416599  0.50000002  0.50000000
   0.61583401  0.50000002  0.50000000
   0.50000000  0.61749319  0.34021317
   0.50000000  0.61749319  0.65978680
   0.50000000  0.50000000  0.50000000
   0.44208298  0.55791702  0.58190703
   0.55791702  0.55791702  0.58190703
   0.50000000  0.61583404  0.50000000
   0.55484130  0.36359103  0.68775923
   0.56348820  0.34208327  0.71736340
 
 position of ions in cartesian coordinates  (Angst):
  13.37280588  9.84801292 12.50759500
  20.15198637 16.62719342 12.50759500
  16.62719412  9.84801292 12.50759500
   9.84801363 16.62719342 12.50759500
  15.00000000 11.47520705 10.20639500
  15.00000000 11.47520705 19.79360400
  15.00000000  8.28283206 15.00000000
   8.28283277 14.99999929 15.00000000
  21.71716723 14.99999929 15.00000000
  15.00000000 21.71716652 14.99999999
  18.35858397 11.64141603 10.25024500
  18.35858397 11.64141603 19.74975399
  11.64141674 18.35858326 10.25024500
  11.64141674 18.35858326 19.74975400
  11.64141603 11.64141603 10.25024500
  11.64141603 11.64141603 19.74975400
  18.35858326 18.35858326 10.25024500
  18.35858326 18.35858326 19.74975400
  13.37280588  9.84801291 17.49240700
  20.15198638 16.62719341 17.49240700
  16.73750985 13.26249015 12.54279000
   9.84801151 13.37280729 12.50759500
  16.62719200 20.15198779 12.50759500
  16.62719412  9.84801292 17.49240700
   9.84801363 16.62719342 17.49240700
  20.15198849 13.37280729 12.50759500
  13.37280800 20.15198779 12.50759500
  13.26249015 13.26249015 12.54279000
  15.00000000 11.52498029 15.00000000
  18.52479437 15.00000140 10.20639500
  18.52479437 15.00000141 19.79360400
  11.47520562 15.00000141 10.20639501
  11.47520563 15.00000141 19.79360400
  11.49534898 11.49534898 15.00000000
  18.50465172 18.50465172 15.00000000
  18.50465102 11.49534898 15.00000000
  11.49534828 18.50465172 15.00000000
  15.00000000 15.00000000 10.04367500
  15.00000000 15.00000000 19.95632599
   9.84801151 13.37280729 17.49240700
  16.62719200 20.15198779 17.49240700
  16.73750985 13.26249015 17.45721100
  13.26248944 16.73751056 12.54279001
  13.26249015 13.26249015 17.45721100
  20.15198849 13.37280729 17.49240699
  13.37280800 20.15198779 17.49240700
  16.73751056 16.73751056 12.54279000
  11.52497959 15.00000071 15.00000000
  18.47502041 15.00000071 15.00000000
  14.99999999 18.52479579 10.20639500
  15.00000000 18.52479578 19.79360400
  15.00000000 15.00000000 15.00000000
  13.26248944 16.73751057 17.45721101
  16.73751056 16.73751057 17.45721100
  15.00000000 18.47502112 15.00000000
  16.64523900 10.90773100 20.63277700
  16.90464600 10.26249800 21.52090200
 


--------------------------------------------------------------------------------------------------------


 k-point  1 :   0.0000 0.0000 0.0000  plane waves:  490521

 maximum and minimum number of plane-waves per node :    490521   490521

 maximum number of plane-waves:    490521
 maximum index in each direction: 
   IXMAX=   48   IYMAX=   48   IZMAX=   48
   IXMIN=  -48   IYMIN=  -48   IZMIN=  -48


 serial   3D FFT for wavefunctions
 parallel 3D FFT for charge:
    minimum data exchange during FFTs selected (reduces bandwidth)


 total amount of memory used by VASP MPI-rank0  5486942. kBytes
=======================================================================

   base      :      30000. kBytes
   nonlr-proj:      17127. kBytes
   fftplans  :     924480. kBytes
   grid      :    1872000. kBytes
   one-center:        886. kBytes
   wavefun   :    2642449. kBytes
 
     INWAV:  cpu time    0.0001: real time    0.0004
 Broyden mixing: mesh for mixing (old mesh)
   NGX = 97   NGY = 97   NGZ = 97
  (NGX  =300   NGY  =300   NGZ  =300)
  gives a total of 912673 points

 initial charge density was supplied:
 charge density of overlapping atoms calculated
 number of electron     560.0000000 magnetization 
 keeping initial charge density in first step


--------------------------------------------------------------------------------------------------------


 Maximum index for non-local projection operator         1763
 Maximum index for augmentation-charges         5898 (set IRDMAX)


--------------------------------------------------------------------------------------------------------


 First call to EWALD:  gamma=   0.059
 Maximum number of real-space cells 3x 3x 3
 Maximum number of reciprocal cells 3x 3x 3

    FEWALD:  cpu time    0.0151: real time    0.0151


--------------------------------------- Iteration      1(   1)  ---------------------------------------


    POTLOK:  cpu time   14.2792: real time   14.2818
    SETDIJ:  cpu time    0.1167: real time    0.1167
     EDDAV:  cpu time  366.4447: real time  366.5250
       DOS:  cpu time    0.0013: real time    0.0013
    --------------------------------------------
      LOOP:  cpu time  380.8419: real time  380.9248

 eigenvalue-minimisations  :   688
 total energy-change (2. order) : 0.4395545E+04  (-0.1005348E+05)
 number of electron     560.0000000 magnetization 
 augmentation part      560.0000000 magnetization 

 Free energy of the ion-electron system (eV)
  ---------------------------------------------------
  alpha Z        PSCENC =        75.25431677
  Ewald energy   TEWEN  =    138651.99183229
  -Hartree energ DENC   =   -182005.81796824
  -exchange      EXHF   =         0.00000000
  -V(xc)+E(xc)   XCENC  =     -1702.14914758
  PAW double counting   =     44873.02882129   -41398.84523641
  entropy T*S    EENTRO =         0.03022304
  eigenvalues    EBANDS =       815.54700372
  atomic energy  EATOM  =     45086.50549395
  Solvation  Ediel_sol  =         0.00000000
  ---------------------------------------------------
  free energy    TOTEN  =      4395.54533883 eV

  energy without entropy =     4395.51511579  energy(sigma->0) =     4395.53778307


--------------------------------------------------------------------------------------------------------




--------------------------------------- Iteration      1(   2)  ---------------------------------------


     EDDAV:  cpu time  584.0327: real time  584.0439
       DOS:  cpu time    0.0012: real time    0.0012
    --------------------------------------------
      LOOP:  cpu time  584.0339: real time  584.0451

 eigenvalue-minimisations  :  1224
 total energy-change (2. order) :-0.2384134E+04  (-0.2145522E+04)
 number of electron     560.0000000 magnetization 
 augmentation part      560.0000000 magnetization 

 Free energy of the ion-electron system (eV)
  ---------------------------------------------------
  alpha Z        PSCENC =        75.25431677
  Ewald energy   TEWEN  =    138651.99183229
  -Hartree energ DENC   =   -182005.81796824
  -exchange      EXHF   =         0.00000000
  -V(xc)+E(xc)   XCENC  =     -1702.14914758
  PAW double counting   =     44873.02882129   -41398.84523641
  entropy T*S    EENTRO =        -0.04869977
  eigenvalues    EBANDS =     -1568.50842701
  atomic energy  EATOM  =     45086.50549395
  Solvation  Ediel_sol  =         0.00000000
  ---------------------------------------------------
  free energy    TOTEN  =      2011.41098529 eV

  energy without entropy =     2011.45968506  energy(sigma->0) =     2011.42316023


--------------------------------------------------------------------------------------------------------




--------------------------------------- Iteration      1(   3)  ---------------------------------------


     EDDAV:  cpu time  495.2528: real time  495.2568
       DOS:  cpu time    0.0011: real time    0.0011
    --------------------------------------------
      LOOP:  cpu time  495.2538: real time  495.2579

 eigenvalue-minimisations  :  1008
 total energy-change (2. order) :-0.1782132E+04  (-0.1680057E+04)
 number of electron     560.0000000 magnetization 
 augmentation part      560.0000000 magnetization 

 Free energy of the ion-electron system (eV)
  ---------------------------------------------------
  alpha Z        PSCENC =        75.25431677
  Ewald energy   TEWEN  =    138651.99183229
  -Hartree energ DENC   =   -182005.81796824
  -exchange      EXHF   =         0.00000000
  -V(xc)+E(xc)   XCENC  =     -1702.14914758
  PAW double counting   =     44873.02882129   -41398.84523641
  entropy T*S    EENTRO =        -0.00795561
  eigenvalues    EBANDS =     -3350.68072445
  atomic energy  EATOM  =     45086.50549395
  Solvation  Ediel_sol  =         0.00000000
  ---------------------------------------------------
  free energy    TOTEN  =       229.27943200 eV

  energy without entropy =      229.28738761  energy(sigma->0) =      229.28142090


--------------------------------------------------------------------------------------------------------




--------------------------------------- Iteration      1(   4)  ---------------------------------------


     EDDAV:  cpu time  427.8868: real time  427.8939
       DOS:  cpu time    0.0012: real time    0.0012
    --------------------------------------------
      LOOP:  cpu time  427.8879: real time  427.8951

 eigenvalue-minimisations  :   840
 total energy-change (2. order) :-0.3649841E+03  (-0.3116137E+03)
 number of electron     560.0000000 magnetization 
 augmentation part      560.0000000 magnetization 

 Free energy of the ion-electron system (eV)
  ---------------------------------------------------
  alpha Z        PSCENC =        75.25431677
  Ewald energy   TEWEN  =    138651.99183229
  -Hartree energ DENC   =   -182005.81796824
  -exchange      EXHF   =         0.00000000
  -V(xc)+E(xc)   XCENC  =     -1702.14914758
  PAW double counting   =     44873.02882129   -41398.84523641
  entropy T*S    EENTRO =        -0.05770535
  eigenvalues    EBANDS =     -3715.61508168
  atomic energy  EATOM  =     45086.50549395
  Solvation  Ediel_sol  =         0.00000000
  ---------------------------------------------------
  free energy    TOTEN  =      -135.70467496 eV

  energy without entropy =     -135.64696961  energy(sigma->0) =     -135.69024862


--------------------------------------------------------------------------------------------------------




--------------------------------------- Iteration      1(   5)  ---------------------------------------


     EDDAV:  cpu time  511.5606: real time  511.6183
       DOS:  cpu time    0.0014: real time    0.0014
    CHARGE:  cpu time   25.6623: real time   25.6634
    MIXING:  cpu time    0.4409: real time    0.4409
    --------------------------------------------
      LOOP:  cpu time  537.6652: real time  537.7240

 eigenvalue-minimisations  :  1048
 total energy-change (2. order) :-0.4553007E+02  (-0.3764703E+02)
 number of electron     559.9999880 magnetization 
 augmentation part      244.9538027 magnetization 

 Broyden mixing:
  rms(total) = 0.16162E+01    rms(broyden)= 0.16152E+01
  rms(prec ) = 0.17227E+01
  weight for this iteration     100.00

 Free energy of the ion-electron system (eV)
  ---------------------------------------------------
  alpha Z        PSCENC =        75.25431677
  Ewald energy   TEWEN  =    138651.99183229
  -Hartree energ DENC   =   -182005.81796824
  -exchange      EXHF   =         0.00000000
  -V(xc)+E(xc)   XCENC  =     -1702.14914758
  PAW double counting   =     44873.02882129   -41398.84523641
  entropy T*S    EENTRO =         0.51931895
  eigenvalues    EBANDS =     -3761.72217409
  atomic energy  EATOM  =     45086.50549395
  Solvation  Ediel_sol  =         0.00000000
  ---------------------------------------------------
  free energy    TOTEN  =      -181.23474307 eV

  energy without entropy =     -181.75406202  energy(sigma->0) =     -181.36457281


--------------------------------------------------------------------------------------------------------




--------------------------------------- Iteration      1(   6)  ---------------------------------------


    POTLOK:  cpu time   13.3428: real time   13.3451
    SETDIJ:  cpu time    0.1261: real time    0.1261
    EDDIAG:  cpu time   67.6812: real time   67.6848
  RMM-DIIS:  cpu time  188.5497: real time  188.5731
    ORTHCH:  cpu time   13.6510: real time   13.6537
       DOS:  cpu time    0.0015: real time    0.0015
    CHARGE:  cpu time   26.0291: real time   26.0301
    MIXING:  cpu time    0.4544: real time    0.4544
    --------------------------------------------
      LOOP:  cpu time  309.8358: real time  309.8688

 eigenvalue-minimisations  :   725
 total energy-change (2. order) :-0.4657366E-01  (-0.6262771E+01)
 number of electron     559.9999864 magnetization 
 augmentation part      240.5603779 magnetization 

 Broyden mixing:
  rms(total) = 0.25844E+01    rms(broyden)= 0.25841E+01
  rms(prec ) = 0.29947E+01
  weight for this iteration     100.00

 eigenvalues of (default mixing * dielectric matrix)
  average eigenvalue GAMMA=   0.3139
  0.3139

 Free energy of the ion-electron system (eV)
  ---------------------------------------------------
  alpha Z        PSCENC =        75.25431677
  Ewald energy   TEWEN  =    138651.99183229
  -Hartree energ DENC   =   -182411.67110407
  -exchange      EXHF   =         0.00000000
  -V(xc)+E(xc)   XCENC  =     -1695.72833146
  PAW double counting   =     45670.42806805   -42170.20669117
  entropy T*S    EENTRO =        -0.18748012
  eigenvalues    EBANDS =     -3387.66742097
  atomic energy  EATOM  =     45086.50549395
  Solvation  Ediel_sol  =         0.00000000
  ---------------------------------------------------
  free energy    TOTEN  =      -181.28131674 eV

  energy without entropy =     -181.09383661  energy(sigma->0) =     -181.23444671


--------------------------------------------------------------------------------------------------------




--------------------------------------- Iteration      1(   7)  ---------------------------------------


    POTLOK:  cpu time   13.6544: real time   13.6588
    SETDIJ:  cpu time    0.1210: real time    0.1210
    EDDIAG:  cpu time   67.8040: real time   67.8100
  RMM-DIIS:  cpu time  221.7832: real time  221.8058
    ORTHCH:  cpu time   13.4363: real time   13.4368
       DOS:  cpu time    0.0015: real time    0.0015
    CHARGE:  cpu time   25.1955: real time   25.1966
    MIXING:  cpu time    0.4892: real time    0.4892
    --------------------------------------------
      LOOP:  cpu time  342.4852: real time  342.5196

 eigenvalue-minimisations  :   860
 total energy-change (2. order) :-0.3283088E+01  (-0.2055440E+01)
 number of electron     559.9999862 magnetization 
 augmentation part      240.1792958 magnetization 

 Broyden mixing:
  rms(total) = 0.24575E+01    rms(broyden)= 0.24573E+01
  rms(prec ) = 0.30094E+01
  weight for this iteration     100.00

 eigenvalues of (default mixing * dielectric matrix)
  average eigenvalue GAMMA=   0.3065
  0.4629  0.1500

 Free energy of the ion-electron system (eV)
  ---------------------------------------------------
  alpha Z        PSCENC =        75.25431677
  Ewald energy   TEWEN  =    138651.99183229
  -Hartree energ DENC   =   -182489.58036553
  -exchange      EXHF   =         0.00000000
  -V(xc)+E(xc)   XCENC  =     -1695.95322182
  PAW double counting   =     45744.07086404   -42241.54358569
  entropy T*S    EENTRO =        -0.08773753
  eigenvalues    EBANDS =     -3315.22200096
  atomic energy  EATOM  =     45086.50549395
  Solvation  Ediel_sol  =         0.00000000
  ---------------------------------------------------
  free energy    TOTEN  =      -184.56440448 eV

  energy without entropy =     -184.47666695  energy(sigma->0) =     -184.54247010


--------------------------------------------------------------------------------------------------------




--------------------------------------- Iteration      1(   8)  ---------------------------------------


    POTLOK:  cpu time   13.1736: real time   13.1774
    SETDIJ:  cpu time    0.1209: real time    0.1209
    EDDIAG:  cpu time   67.3645: real time   67.3686
  RMM-DIIS:  cpu time  201.4811: real time  201.5065
    ORTHCH:  cpu time   13.4924: real time   13.4929
       DOS:  cpu time    0.0014: real time    0.0014
    CHARGE:  cpu time   25.3365: real time   25.3383
    MIXING:  cpu time    0.5195: real time    0.5195
    --------------------------------------------
      LOOP:  cpu time  321.4899: real time  321.5256

 eigenvalue-minimisations  :   777
 total energy-change (2. order) :-0.1424603E+01  (-0.7805777E+00)
 number of electron     559.9999863 magnetization 
 augmentation part      239.9465487 magnetization 

 Broyden mixing:
  rms(total) = 0.26167E+01    rms(broyden)= 0.26164E+01
  rms(prec ) = 0.30416E+01
  weight for this iteration     100.00

 eigenvalues of (default mixing * dielectric matrix)
  average eigenvalue GAMMA=   0.3098
  0.6437  0.1429  0.1429

 Free energy of the ion-electron system (eV)
  ---------------------------------------------------
  alpha Z        PSCENC =        75.25431677
  Ewald energy   TEWEN  =    138651.99183229
  -Hartree energ DENC   =   -182532.27411295
  -exchange      EXHF   =         0.00000000
  -V(xc)+E(xc)   XCENC  =     -1696.07922753
  PAW double counting   =     45811.26522076   -42306.65513764
  entropy T*S    EENTRO =        -0.17436370
  eigenvalues    EBANDS =     -3275.82302916
  atomic energy  EATOM  =     45086.50549395
  Solvation  Ediel_sol  =         0.00000000
  ---------------------------------------------------
  free energy    TOTEN  =      -185.98900721 eV

  energy without entropy =     -185.81464351  energy(sigma->0) =     -185.94541629


--------------------------------------------------------------------------------------------------------




--------------------------------------- Iteration      1(   9)  ---------------------------------------


    POTLOK:  cpu time   13.2388: real time   13.2408
    SETDIJ:  cpu time    0.1220: real time    0.1220
    EDDIAG:  cpu time   67.8379: real time   67.8436
  RMM-DIIS:  cpu time  190.3348: real time  190.3352
    ORTHCH:  cpu time   13.6100: real time   13.6099
       DOS:  cpu time    0.0014: real time    0.0014
    CHARGE:  cpu time   25.6737: real time   25.6735
    MIXING:  cpu time    0.5681: real time    0.5681
    --------------------------------------------
      LOOP:  cpu time  311.3867: real time  311.3945

 eigenvalue-minimisations  :   724
 total energy-change (2. order) : 0.2413592E+01  (-0.6707564E+00)
 number of electron     559.9999876 magnetization 
 augmentation part      241.0167360 magnetization 

 Broyden mixing:
  rms(total) = 0.24902E+01    rms(broyden)= 0.24899E+01
  rms(prec ) = 0.28976E+01
  weight for this iteration     100.00

 eigenvalues of (default mixing * dielectric matrix)
  average eigenvalue GAMMA=   0.2927
  0.7315  0.1646  0.1646  0.1102

 Free energy of the ion-electron system (eV)
  ---------------------------------------------------
  alpha Z        PSCENC =        75.25431677
  Ewald energy   TEWEN  =    138651.99183229
  -Hartree energ DENC   =   -182542.62619389
  -exchange      EXHF   =         0.00000000
  -V(xc)+E(xc)   XCENC  =     -1696.12689126
  PAW double counting   =     45887.02932427   -42380.13823980
  entropy T*S    EENTRO =        -0.09445185
  eigenvalues    EBANDS =     -3265.37060604
  atomic energy  EATOM  =     45086.50549395
  Solvation  Ediel_sol  =         0.00000000
  ---------------------------------------------------
  free energy    TOTEN  =      -183.57541556 eV

  energy without entropy =     -183.48096371  energy(sigma->0) =     -183.55180260


--------------------------------------------------------------------------------------------------------




--------------------------------------- Iteration      1(  10)  ---------------------------------------


    POTLOK:  cpu time   13.3943: real time   13.3958
    SETDIJ:  cpu time    0.1236: real time    0.1236
    EDDIAG:  cpu time   67.6803: real time   67.6807
  RMM-DIIS:  cpu time  192.8542: real time  192.8601
    ORTHCH:  cpu time   13.6897: real time   13.6898
       DOS:  cpu time    0.0014: real time    0.0014
    CHARGE:  cpu time   25.6038: real time   25.6041
    MIXING:  cpu time    0.5797: real time    0.5798
    --------------------------------------------
      LOOP:  cpu time  313.9270: real time  313.9353

 eigenvalue-minimisations  :   735
 total energy-change (2. order) : 0.2243449E+01  (-0.3399210E+00)
 number of electron     559.9999884 magnetization 
 augmentation part      241.3674900 magnetization 

 Broyden mixing:
  rms(total) = 0.22183E+01    rms(broyden)= 0.22180E+01
  rms(prec ) = 0.25762E+01
  weight for this iteration     100.00

 eigenvalues of (default mixing * dielectric matrix)
  average eigenvalue GAMMA=   0.2782
  0.8175  0.1748  0.1748  0.1345  0.0893

 Free energy of the ion-electron system (eV)
  ---------------------------------------------------
  alpha Z        PSCENC =        75.25431677
  Ewald energy   TEWEN  =    138651.99183229
  -Hartree energ DENC   =   -182571.95189039
  -exchange      EXHF   =         0.00000000
  -V(xc)+E(xc)   XCENC  =     -1696.01415886
  PAW double counting   =     45935.97404708   -42427.53982847
  entropy T*S    EENTRO =        -0.15884890
  eigenvalues    EBANDS =     -3235.39292956
  atomic energy  EATOM  =     45086.50549395
  Solvation  Ediel_sol  =         0.00000000
  ---------------------------------------------------
  free energy    TOTEN  =      -181.33196609 eV

  energy without entropy =     -181.17311719  energy(sigma->0) =     -181.29225386


--------------------------------------------------------------------------------------------------------




--------------------------------------- Iteration      1(  11)  ---------------------------------------


    POTLOK:  cpu time   13.4060: real time   13.4078
    SETDIJ:  cpu time    0.1194: real time    0.1194
    EDDIAG:  cpu time   68.1522: real time   68.1526
  RMM-DIIS:  cpu time  189.3820: real time  189.3845
    ORTHCH:  cpu time   13.6230: real time   13.6230
       DOS:  cpu time    0.0015: real time    0.0015
    CHARGE:  cpu time   25.5016: real time   25.5016
    MIXING:  cpu time    0.6370: real time    0.6370
    --------------------------------------------
      LOOP:  cpu time  310.8227: real time  310.8275

 eigenvalue-minimisations  :   725
 total energy-change (2. order) : 0.2191636E+01  (-0.2599172E+00)
 number of electron     559.9999889 magnetization 
 augmentation part      241.6732875 magnetization 

 Broyden mixing:
  rms(total) = 0.17549E+01    rms(broyden)= 0.17546E+01
  rms(prec ) = 0.20712E+01
  weight for this iteration     100.00

 eigenvalues of (default mixing * dielectric matrix)
  average eigenvalue GAMMA=   0.2848
  0.9403  0.2252  0.2252  0.1198  0.1198  0.0783

 Free energy of the ion-electron system (eV)
  ---------------------------------------------------
  alpha Z        PSCENC =        75.25431677
  Ewald energy   TEWEN  =    138651.99183229
  -Hartree energ DENC   =   -182595.54874058
  -exchange      EXHF   =         0.00000000
  -V(xc)+E(xc)   XCENC  =     -1695.82605064
  PAW double counting   =     45981.09683627   -42471.07310660
  entropy T*S    EENTRO =        -0.01824860
  eigenvalues    EBANDS =     -3211.52266267
  atomic energy  EATOM  =     45086.50549395
  Solvation  Ediel_sol  =         0.00000000
  ---------------------------------------------------
  free energy    TOTEN  =      -179.14032982 eV

  energy without entropy =     -179.12208121  energy(sigma->0) =     -179.13576767


--------------------------------------------------------------------------------------------------------




--------------------------------------- Iteration      1(  12)  ---------------------------------------


    POTLOK:  cpu time   13.3963: real time   13.3979
    SETDIJ:  cpu time    0.1205: real time    0.1205
    EDDIAG:  cpu time   68.3695: real time   68.3698
  RMM-DIIS:  cpu time  188.6583: real time  188.6645
    ORTHCH:  cpu time   13.6983: real time   13.6982
       DOS:  cpu time    0.0015: real time    0.0015
    CHARGE:  cpu time   25.7709: real time   25.7707
    MIXING:  cpu time    0.6709: real time    0.6709
    --------------------------------------------
      LOOP:  cpu time  310.6863: real time  310.6940

 eigenvalue-minimisations  :   719
 total energy-change (2. order) : 0.4756140E-01  (-0.2089552E+00)
 number of electron     559.9999870 magnetization 
 augmentation part      241.6266237 magnetization 

 Broyden mixing:
  rms(total) = 0.18014E+01    rms(broyden)= 0.18010E+01
  rms(prec ) = 0.21682E+01
  weight for this iteration     100.00

 eigenvalues of (default mixing * dielectric matrix)
  average eigenvalue GAMMA=   0.2851
  1.0277  0.2749  0.2749  0.1244  0.1244  0.1009  0.0684

 Free energy of the ion-electron system (eV)
  ---------------------------------------------------
  alpha Z        PSCENC =        75.25431677
  Ewald energy   TEWEN  =    138651.99183229
  -Hartree energ DENC   =   -182615.41905864
  -exchange      EXHF   =         0.00000000
  -V(xc)+E(xc)   XCENC  =     -1695.50413659
  PAW double counting   =     46033.21064123   -42521.13329795
  entropy T*S    EENTRO =        -0.15467127
  eigenvalues    EBANDS =     -3193.84388821
  atomic energy  EATOM  =     45086.50549395
  Solvation  Ediel_sol  =         0.00000000
  ---------------------------------------------------
  free energy    TOTEN  =      -179.09276842 eV

  energy without entropy =     -178.93809714  energy(sigma->0) =     -179.05410060


--------------------------------------------------------------------------------------------------------




--------------------------------------- Iteration      1(  13)  ---------------------------------------


    POTLOK:  cpu time   13.4175: real time   13.4196
    SETDIJ:  cpu time    0.1260: real time    0.1260
    EDDIAG:  cpu time   69.3827: real time   69.3891
  RMM-DIIS:  cpu time  189.9293: real time  189.9297
    ORTHCH:  cpu time   13.6761: real time   13.6760
       DOS:  cpu time    0.0015: real time    0.0015
    CHARGE:  cpu time   25.8348: real time   25.8366
    MIXING:  cpu time    0.7094: real time    0.7094
    --------------------------------------------
      LOOP:  cpu time  313.0774: real time  313.0881

 eigenvalue-minimisations  :   727
 total energy-change (2. order) : 0.5507799E+00  (-0.1487535E+00)
 number of electron     559.9999869 magnetization 
 augmentation part      241.5393211 magnetization 

 Broyden mixing:
  rms(total) = 0.18120E+01    rms(broyden)= 0.18117E+01
  rms(prec ) = 0.20765E+01
  weight for this iteration     100.00

 eigenvalues of (default mixing * dielectric matrix)
  average eigenvalue GAMMA=   0.2964
  1.2045  0.3181  0.3181  0.1245  0.1245  0.1155  0.1040  0.0620

 Free energy of the ion-electron system (eV)
  ---------------------------------------------------
  alpha Z        PSCENC =        75.25431677
  Ewald energy   TEWEN  =    138651.99183229
  -Hartree energ DENC   =   -182645.78305839
  -exchange      EXHF   =         0.00000000
  -V(xc)+E(xc)   XCENC  =     -1695.17020593
  PAW double counting   =     46079.62060402   -42565.65152479
  entropy T*S    EENTRO =        -0.06706998
  eigenvalues    EBANDS =     -3165.24237651
  atomic energy  EATOM  =     45086.50549395
  Solvation  Ediel_sol  =         0.00000000
  ---------------------------------------------------
  free energy    TOTEN  =      -178.54198856 eV

  energy without entropy =     -178.47491859  energy(sigma->0) =     -178.52522107


--------------------------------------------------------------------------------------------------------




--------------------------------------- Iteration      1(  14)  ---------------------------------------


    POTLOK:  cpu time   13.6563: real time   13.6586
    SETDIJ:  cpu time    0.1191: real time    0.1191
    EDDIAG:  cpu time   69.5359: real time   69.5393
  RMM-DIIS:  cpu time  182.4835: real time  182.4900
    ORTHCH:  cpu time   13.8415: real time   13.8415
       DOS:  cpu time    0.0015: real time    0.0015
    CHARGE:  cpu time   25.9271: real time   25.9299
    MIXING:  cpu time    0.7490: real time    0.7491
    --------------------------------------------
      LOOP:  cpu time  306.3139: real time  306.3290

 eigenvalue-minimisations  :   702
 total energy-change (2. order) : 0.4503635E+00  (-0.1711941E+00)
 number of electron     559.9999855 magnetization 
 augmentation part      241.3426231 magnetization 

 Broyden mixing:
  rms(total) = 0.20820E+01    rms(broyden)= 0.20817E+01
  rms(prec ) = 0.23638E+01
  weight for this iteration     100.00

 eigenvalues of (default mixing * dielectric matrix)
  average eigenvalue GAMMA=   0.3026
  1.3624  0.4533  0.2620  0.1434  0.1434  0.1101  0.1101  0.0763  0.0625

 Free energy of the ion-electron system (eV)
  ---------------------------------------------------
  alpha Z        PSCENC =        75.25431677
  Ewald energy   TEWEN  =    138651.99183229
  -Hartree energ DENC   =   -182688.24060230
  -exchange      EXHF   =         0.00000000
  -V(xc)+E(xc)   XCENC  =     -1694.55670048
  PAW double counting   =     46155.84909967   -42638.72946722
  entropy T*S    EENTRO =        -0.05472838
  eigenvalues    EBANDS =     -3126.11086933
  atomic energy  EATOM  =     45086.50549395
  Solvation  Ediel_sol  =         0.00000000
  ---------------------------------------------------
  free energy    TOTEN  =      -178.09162502 eV

  energy without entropy =     -178.03689664  energy(sigma->0) =     -178.07794293


--------------------------------------------------------------------------------------------------------




--------------------------------------- Iteration      1(  15)  ---------------------------------------


    POTLOK:  cpu time   13.6179: real time   13.6215
    SETDIJ:  cpu time    0.1289: real time    0.1289
    EDDIAG:  cpu time   69.5902: real time   69.5973
  RMM-DIIS:  cpu time  183.4492: real time  183.4665
    ORTHCH:  cpu time   13.6180: real time   13.6185
       DOS:  cpu time    0.0015: real time    0.0015
    CHARGE:  cpu time   25.7633: real time   25.7658
    MIXING:  cpu time    0.8333: real time    0.8333
    --------------------------------------------
      LOOP:  cpu time  307.0022: real time  307.0333

 eigenvalue-minimisations  :   704
 total energy-change (2. order) : 0.8554787E+00  (-0.1318255E+00)
 number of electron     559.9999891 magnetization 
 augmentation part      241.2318485 magnetization 

 Broyden mixing:
  rms(total) = 0.17600E+01    rms(broyden)= 0.17599E+01
  rms(prec ) = 0.20618E+01
  weight for this iteration     100.00

 eigenvalues of (default mixing * dielectric matrix)
  average eigenvalue GAMMA=   0.2903
  1.4029  0.5004  0.2514  0.1594  0.1594  0.1133  0.1133  0.0668  0.0679  0.0679

 Free energy of the ion-electron system (eV)
  ---------------------------------------------------
  alpha Z        PSCENC =        75.25431677
  Ewald energy   TEWEN  =    138651.99183229
  -Hartree energ DENC   =   -182723.92197298
  -exchange      EXHF   =         0.00000000
  -V(xc)+E(xc)   XCENC  =     -1694.07619537
  PAW double counting   =     46213.81760270   -42694.25561331
  entropy T*S    EENTRO =        -0.00779980
  eigenvalues    EBANDS =     -3092.54381053
  atomic energy  EATOM  =     45086.50549395
  Solvation  Ediel_sol  =         0.00000000
  ---------------------------------------------------
  free energy    TOTEN  =      -177.23614628 eV

  energy without entropy =     -177.22834648  energy(sigma->0) =     -177.23419633


--------------------------------------------------------------------------------------------------------




--------------------------------------- Iteration      1(  16)  ---------------------------------------


    POTLOK:  cpu time   13.5887: real time   13.5910
    SETDIJ:  cpu time    0.1256: real time    0.1256
    EDDIAG:  cpu time   68.8333: real time   68.8378
  RMM-DIIS:  cpu time  191.4653: real time  191.4813
    ORTHCH:  cpu time   13.7461: real time   13.7474
       DOS:  cpu time    0.0015: real time    0.0015
    CHARGE:  cpu time   26.3898: real time   26.3925
    MIXING:  cpu time    0.8782: real time    0.8782
    --------------------------------------------
      LOOP:  cpu time  315.0286: real time  315.0553

 eigenvalue-minimisations  :   727
 total energy-change (2. order) : 0.7935152E+00  (-0.5592257E-01)
 number of electron     559.9999879 magnetization 
 augmentation part      241.2387393 magnetization 

 Broyden mixing:
  rms(total) = 0.90131E+00    rms(broyden)= 0.90103E+00
  rms(prec ) = 0.10749E+01
  weight for this iteration     100.00

 eigenvalues of (default mixing * dielectric matrix)
  average eigenvalue GAMMA=   0.2960
  1.4749  0.5770  0.2292  0.2292  0.2021  0.1172  0.1172  0.1060  0.0719  0.0719
  0.0599

 Free energy of the ion-electron system (eV)
  ---------------------------------------------------
  alpha Z        PSCENC =        75.25431677
  Ewald energy   TEWEN  =    138651.99183229
  -Hartree energ DENC   =   -182736.10560106
  -exchange      EXHF   =         0.00000000
  -V(xc)+E(xc)   XCENC  =     -1693.92271881
  PAW double counting   =     46231.34352712   -42710.95560844
  entropy T*S    EENTRO =        -0.06067121
  eigenvalues    EBANDS =     -3080.49320167
  atomic energy  EATOM  =     45086.50549395
  Solvation  Ediel_sol  =         0.00000000
  ---------------------------------------------------
  free energy    TOTEN  =      -176.44263106 eV

  energy without entropy =     -176.38195986  energy(sigma->0) =     -176.42746326


--------------------------------------------------------------------------------------------------------




--------------------------------------- Iteration      1(  17)  ---------------------------------------


    POTLOK:  cpu time   13.5200: real time   13.5229
    SETDIJ:  cpu time    0.1234: real time    0.1233
    EDDIAG:  cpu time   68.7448: real time   68.7516
  RMM-DIIS:  cpu time  188.0693: real time  188.0855
    ORTHCH:  cpu time   13.7690: real time   13.7695
       DOS:  cpu time    0.0015: real time    0.0015
    CHARGE:  cpu time   26.3999: real time   26.4011
    MIXING:  cpu time    0.9194: real time    0.9195
    --------------------------------------------
      LOOP:  cpu time  311.5473: real time  311.5750

 eigenvalue-minimisations  :   716
 total energy-change (2. order) :-0.4840181E+00  (-0.5321134E-01)
 number of electron     559.9999879 magnetization 
 augmentation part      241.1829008 magnetization 

 Broyden mixing:
  rms(total) = 0.16287E+01    rms(broyden)= 0.16285E+01
  rms(prec ) = 0.19779E+01
  weight for this iteration     100.00

 eigenvalues of (default mixing * dielectric matrix)
  average eigenvalue GAMMA=   0.2951
  1.5207  0.6807  0.2871  0.2871  0.1207  0.1207  0.1249  0.1201  0.0837  0.0837
  0.0558  0.0558

 Free energy of the ion-electron system (eV)
  ---------------------------------------------------
  alpha Z        PSCENC =        75.25431677
  Ewald energy   TEWEN  =    138651.99183229
  -Hartree energ DENC   =   -182753.69443258
  -exchange      EXHF   =         0.00000000
  -V(xc)+E(xc)   XCENC  =     -1693.64211812
  PAW double counting   =     46256.04893917   -42734.27110764
  entropy T*S    EENTRO =         0.07055533
  eigenvalues    EBANDS =     -3065.19012839
  atomic energy  EATOM  =     45086.50549395
  Solvation  Ediel_sol  =         0.00000000
  ---------------------------------------------------
  free energy    TOTEN  =      -176.92664921 eV

  energy without entropy =     -176.99720454  energy(sigma->0) =     -176.94428804


--------------------------------------------------------------------------------------------------------




--------------------------------------- Iteration      1(  18)  ---------------------------------------


    POTLOK:  cpu time   13.8996: real time   13.9023
    SETDIJ:  cpu time    0.1332: real time    0.1332
    EDDIAG:  cpu time   70.2175: real time   70.2223
  RMM-DIIS:  cpu time  187.5557: real time  187.5667
    ORTHCH:  cpu time   13.7284: real time   13.7290
       DOS:  cpu time    0.0015: real time    0.0015
    CHARGE:  cpu time   26.6066: real time   26.6099
    MIXING:  cpu time    0.9119: real time    0.9119
    --------------------------------------------
      LOOP:  cpu time  313.0541: real time  313.0767

 eigenvalue-minimisations  :   717
 total energy-change (2. order) : 0.1829107E+00  (-0.3892356E-01)
 number of electron     559.9999868 magnetization 
 augmentation part      241.1283430 magnetization 

 Broyden mixing:
  rms(total) = 0.14115E+01    rms(broyden)= 0.14113E+01
  rms(prec ) = 0.16606E+01
  weight for this iteration     100.00

 eigenvalues of (default mixing * dielectric matrix)
  average eigenvalue GAMMA=   0.3019
  1.5677  0.8436  0.3316  0.3316  0.1417  0.1417  0.1116  0.1116  0.0853  0.0853
  0.0650  0.0650  0.0431

 Free energy of the ion-electron system (eV)
  ---------------------------------------------------
  alpha Z        PSCENC =        75.25431677
  Ewald energy   TEWEN  =    138651.99183229
  -Hartree energ DENC   =   -182768.34225802
  -exchange      EXHF   =         0.00000000
  -V(xc)+E(xc)   XCENC  =     -1693.41426306
  PAW double counting   =     46272.80709896   -42749.99279801
  entropy T*S    EENTRO =         0.04751195
  eigenvalues    EBANDS =     -3051.60067331
  atomic energy  EATOM  =     45086.50549395
  Solvation  Ediel_sol  =         0.00000000
  ---------------------------------------------------
  free energy    TOTEN  =      -176.74373849 eV

  energy without entropy =     -176.79125044  energy(sigma->0) =     -176.75561648


--------------------------------------------------------------------------------------------------------




--------------------------------------- Iteration      1(  19)  ---------------------------------------


    POTLOK:  cpu time   13.4238: real time   13.4281
    SETDIJ:  cpu time    0.1245: real time    0.1245
    EDDIAG:  cpu time   69.0839: real time   69.0887
  RMM-DIIS:  cpu time  184.5345: real time  184.5497
    ORTHCH:  cpu time   13.3557: real time   13.3568
       DOS:  cpu time    0.0014: real time    0.0014
    CHARGE:  cpu time   25.8024: real time   25.8059
    MIXING:  cpu time    1.0034: real time    1.0035
    --------------------------------------------
      LOOP:  cpu time  307.3297: real time  307.3587

 eigenvalue-minimisations  :   702
 total energy-change (2. order) : 0.2617309E+00  (-0.3996386E-01)
 number of electron     559.9999875 magnetization 
 augmentation part      241.0477200 magnetization 

 Broyden mixing:
  rms(total) = 0.11789E+01    rms(broyden)= 0.11787E+01
  rms(prec ) = 0.13597E+01
  weight for this iteration     100.00

 eigenvalues of (default mixing * dielectric matrix)
  average eigenvalue GAMMA=   0.3079
  1.6473  0.9651  0.3675  0.3675  0.1571  0.1571  0.1122  0.1122  0.0900  0.0900
  0.0685  0.0685  0.0641  0.0431

 Free energy of the ion-electron system (eV)
  ---------------------------------------------------
  alpha Z        PSCENC =        75.25431677
  Ewald energy   TEWEN  =    138651.99183229
  -Hartree energ DENC   =   -182789.49563923
  -exchange      EXHF   =         0.00000000
  -V(xc)+E(xc)   XCENC  =     -1693.18376894
  PAW double counting   =     46290.34492626   -42766.33953092
  entropy T*S    EENTRO =         0.01957866
  eigenvalues    EBANDS =     -3031.57921649
  atomic energy  EATOM  =     45086.50549395
  Solvation  Ediel_sol  =         0.00000000
  ---------------------------------------------------
  free energy    TOTEN  =      -176.48200764 eV

  energy without entropy =     -176.50158630  energy(sigma->0) =     -176.48690231


--------------------------------------------------------------------------------------------------------




--------------------------------------- Iteration      1(  20)  ---------------------------------------


    POTLOK:  cpu time   13.3767: real time   13.3813
    SETDIJ:  cpu time    0.1219: real time    0.1219
    EDDIAG:  cpu time   69.6696: real time   69.6782
  RMM-DIIS:  cpu time  181.8951: real time  181.9097
    ORTHCH:  cpu time   13.5166: real time   13.5177
       DOS:  cpu time    0.0015: real time    0.0015
    CHARGE:  cpu time   25.9540: real time   25.9574
    MIXING:  cpu time    1.0652: real time    1.0652
    --------------------------------------------
      LOOP:  cpu time  305.6006: real time  305.6329

 eigenvalue-minimisations  :   698
 total energy-change (2. order) : 0.7387362E-01  (-0.3114708E-01)
 number of electron     559.9999891 magnetization 
 augmentation part      241.1192028 magnetization 

 Broyden mixing:
  rms(total) = 0.13508E+01    rms(broyden)= 0.13507E+01
  rms(prec ) = 0.16202E+01
  weight for this iteration     100.00

 eigenvalues of (default mixing * dielectric matrix)
  average eigenvalue GAMMA=   0.3060
  1.6821  1.0215  0.4055  0.4055  0.1737  0.1737  0.1124  0.1124  0.0975  0.0975
  0.0728  0.0690  0.0690  0.0558  0.0411

 Free energy of the ion-electron system (eV)
  ---------------------------------------------------
  alpha Z        PSCENC =        75.25431677
  Ewald energy   TEWEN  =    138651.99183229
  -Hartree energ DENC   =   -182804.46130516
  -exchange      EXHF   =         0.00000000
  -V(xc)+E(xc)   XCENC  =     -1692.99489768
  PAW double counting   =     46302.17831456   -42777.24621014
  entropy T*S    EENTRO =         0.08592084
  eigenvalues    EBANDS =     -3017.72159945
  atomic energy  EATOM  =     45086.50549395
  Solvation  Ediel_sol  =         0.00000000
  ---------------------------------------------------
  free energy    TOTEN  =      -176.40813402 eV

  energy without entropy =     -176.49405486  energy(sigma->0) =     -176.42961423


--------------------------------------------------------------------------------------------------------




--------------------------------------- Iteration      1(  21)  ---------------------------------------


    POTLOK:  cpu time   13.6053: real time   13.6096
    SETDIJ:  cpu time    0.1246: real time    0.1246
    EDDIAG:  cpu time   69.8102: real time   69.8186
  RMM-DIIS:  cpu time  181.1791: real time  181.1951
    ORTHCH:  cpu time   13.6593: real time   13.6600
       DOS:  cpu time    0.0015: real time    0.0015
    CHARGE:  cpu time   26.3485: real time   26.3496
    MIXING:  cpu time    1.1359: real time    1.1360
    --------------------------------------------
      LOOP:  cpu time  305.8643: real time  305.8949

 eigenvalue-minimisations  :   702
 total energy-change (2. order) : 0.3235026E+00  (-0.2252531E-01)
 number of electron     559.9999886 magnetization 
 augmentation part      241.1487246 magnetization 

 Broyden mixing:
  rms(total) = 0.74787E+00    rms(broyden)= 0.74770E+00
  rms(prec ) = 0.86359E+00
  weight for this iteration     100.00

 eigenvalues of (default mixing * dielectric matrix)
  average eigenvalue GAMMA=   0.3118
  1.7318  1.0915  0.4686  0.4686  0.1849  0.1849  0.1398  0.1127  0.1127  0.0957
  0.0957  0.0704  0.0696  0.0696  0.0511  0.0409

 Free energy of the ion-electron system (eV)
  ---------------------------------------------------
  alpha Z        PSCENC =        75.25431677
  Ewald energy   TEWEN  =    138651.99183229
  -Hartree energ DENC   =   -182812.45426817
  -exchange      EXHF   =         0.00000000
  -V(xc)+E(xc)   XCENC  =     -1692.93759895
  PAW double counting   =     46304.92621232   -42779.56275911
  entropy T*S    EENTRO =         0.00686624
  eigenvalues    EBANDS =     -3009.81472673
  atomic energy  EATOM  =     45086.50549395
  Solvation  Ediel_sol  =         0.00000000
  ---------------------------------------------------
  free energy    TOTEN  =      -176.08463139 eV

  energy without entropy =     -176.09149763  energy(sigma->0) =     -176.08634795


--------------------------------------------------------------------------------------------------------




--------------------------------------- Iteration      1(  22)  ---------------------------------------


    POTLOK:  cpu time   13.6095: real time   13.6131
    SETDIJ:  cpu time    0.1296: real time    0.1296
    EDDIAG:  cpu time   69.6298: real time   69.6385
  RMM-DIIS:  cpu time  182.4631: real time  182.4770
    ORTHCH:  cpu time   13.6034: real time   13.6039
       DOS:  cpu time    0.0015: real time    0.0015
    CHARGE:  cpu time   25.8839: real time   25.8849
    MIXING:  cpu time    1.2292: real time    1.2292
    --------------------------------------------
      LOOP:  cpu time  306.5499: real time  306.5778

 eigenvalue-minimisations  :   698
 total energy-change (2. order) : 0.6993521E-01  (-0.2579070E-01)
 number of electron     559.9999878 magnetization 
 augmentation part      241.1468555 magnetization 

 Broyden mixing:
  rms(total) = 0.62236E+00    rms(broyden)= 0.62219E+00
  rms(prec ) = 0.71769E+00
  weight for this iteration     100.00

 eigenvalues of (default mixing * dielectric matrix)
  average eigenvalue GAMMA=   0.3254
  1.8701  1.2485  0.4656  0.4656  0.3226  0.1658  0.1658  0.1122  0.1122  0.1113
  0.1113  0.0785  0.0785  0.0655  0.0655  0.0517  0.0407

 Free energy of the ion-electron system (eV)
  ---------------------------------------------------
  alpha Z        PSCENC =        75.25431677
  Ewald energy   TEWEN  =    138651.99183229
  -Hartree energ DENC   =   -182827.93779707
  -exchange      EXHF   =         0.00000000
  -V(xc)+E(xc)   XCENC  =     -1692.80049035
  PAW double counting   =     46308.79409560   -42782.74927052
  entropy T*S    EENTRO =        -0.05717766
  eigenvalues    EBANDS =     -2995.01569920
  atomic energy  EATOM  =     45086.50549395
  Solvation  Ediel_sol  =         0.00000000
  ---------------------------------------------------
  free energy    TOTEN  =      -176.01469618 eV

  energy without entropy =     -175.95751852  energy(sigma->0) =     -176.00040177


--------------------------------------------------------------------------------------------------------




--------------------------------------- Iteration      1(  23)  ---------------------------------------


    POTLOK:  cpu time   13.4524: real time   13.4557
    SETDIJ:  cpu time    0.1237: real time    0.1237
    EDDIAG:  cpu time   69.2459: real time   69.2519
  RMM-DIIS:  cpu time  182.5270: real time  182.5416
    ORTHCH:  cpu time   13.5467: real time   13.5472
       DOS:  cpu time    0.0015: real time    0.0015
    CHARGE:  cpu time   25.4722: real time   25.4747
    MIXING:  cpu time    1.2649: real time    1.2650
    --------------------------------------------
      LOOP:  cpu time  305.6344: real time  305.6614

 eigenvalue-minimisations  :   699
 total energy-change (2. order) :-0.1045420E+00  (-0.2391215E-01)
 number of electron     559.9999880 magnetization 
 augmentation part      241.1191315 magnetization 

 Broyden mixing:
  rms(total) = 0.85413E+00    rms(broyden)= 0.85399E+00
  rms(prec ) = 0.10191E+01
  weight for this iteration     100.00

 eigenvalues of (default mixing * dielectric matrix)
  average eigenvalue GAMMA=   0.3329
[...]
 -0.007  -0.012   0.004   0.004   0.006  -0.006  -0.012   0.004
 -0.011  -0.020   0.007   0.007   0.009  -0.011  -0.019   0.006
 -0.015  -0.005   0.013   0.000   0.022  -0.014  -0.005   0.012
  0.000  -0.023  -0.006  -0.015  -0.000   0.000  -0.022  -0.006
 -0.022   0.000   0.009  -0.005  -0.016  -0.022   0.000   0.008
 -0.018  -0.006   0.015   0.000   0.027  -0.017  -0.006   0.015
  0.000  -0.027  -0.007  -0.018  -0.000   0.000  -0.027  -0.007
 -0.027   0.000   0.010  -0.006  -0.019  -0.026   0.000   0.010
 total augmentation occupancy for first ion, spin component:           1
  1.535  -0.030   0.004   0.016   0.022   0.076  -0.008  -0.002   0.036  -0.009   0.091  -0.031   0.012   0.002   0.003  -0.019
 -0.030   1.401   0.028   0.072  -0.003  -0.007   0.071   0.011  -0.015  -0.007   0.210  -0.064   0.019   0.000   0.002  -0.006
  0.004   0.028   1.541   0.002   0.001  -0.002   0.013   0.074  -0.013   0.017  -0.057   0.019  -0.003  -0.007  -0.005   0.016
  0.016   0.072   0.002   1.336   0.043   0.033  -0.014  -0.012   0.092  -0.022  -0.086   0.022  -0.001  -0.009  -0.004   0.001
  0.022  -0.003   0.001   0.043   1.439  -0.010  -0.008   0.016  -0.022   0.068  -0.098   0.032  -0.003  -0.009  -0.009   0.026
  0.076  -0.007  -0.002   0.033  -0.010   0.217   0.019  -0.002  -0.045   0.003  -0.048   0.002   0.017  -0.010   0.035  -0.004
 -0.008   0.071   0.013  -0.014  -0.008   0.019   0.263  -0.023  -0.003   0.005  -0.108   0.007  -0.001   0.052  -0.010  -0.000
 -0.002   0.011   0.074  -0.012   0.016  -0.002  -0.023   0.215   0.014  -0.020   0.028  -0.001  -0.012   0.009  -0.018   0.003
  0.036  -0.015  -0.013   0.092  -0.022  -0.045  -0.003   0.014   0.261   0.007   0.043  -0.004  -0.009   0.036   0.004   0.000
 -0.009  -0.007   0.017  -0.022   0.068   0.003   0.005  -0.020   0.007   0.259   0.047  -0.003  -0.038   0.002   0.049   0.007
  0.091   0.210  -0.057  -0.086  -0.098  -0.048  -0.108   0.028   0.043   0.047   0.943  -0.140   0.084   0.014   0.064  -0.013
 -0.031  -0.064   0.019   0.022   0.032   0.002   0.007  -0.001  -0.004  -0.003  -0.140   0.023  -0.014  -0.003  -0.010   0.003
  0.012   0.019  -0.003  -0.001  -0.003   0.017  -0.001  -0.012  -0.009  -0.038   0.084  -0.014   0.029  -0.009  -0.004  -0.003
  0.002   0.000  -0.007  -0.009  -0.009  -0.010   0.052   0.009   0.036   0.002   0.014  -0.003  -0.009   0.036   0.005   0.000
  0.003   0.002  -0.005  -0.004  -0.009   0.035  -0.010  -0.018   0.004   0.049   0.064  -0.010  -0.004   0.005   0.035  -0.000
 -0.019  -0.006   0.016   0.001   0.026  -0.004  -0.000   0.003   0.000   0.007  -0.013   0.003  -0.003   0.000  -0.000   0.001
  0.001  -0.028  -0.007  -0.018   0.001   0.001  -0.008  -0.002  -0.006  -0.000  -0.003   0.001   0.000  -0.003  -0.000   0.000
 -0.028   0.001   0.012  -0.005  -0.020  -0.006   0.001   0.003  -0.001  -0.007  -0.008   0.001  -0.000  -0.000  -0.003   0.000


------------------------ aborting loop because EDIFF is reached ----------------------------------------


    CHARGE:  cpu time   26.2522: real time   26.2532
    FORLOC:  cpu time    6.8814: real time    6.8826
    FORNL :  cpu time   66.5031: real time   66.5129
    STRESS:  cpu time  203.7357: real time  203.7556
    FORCOR:  cpu time   22.7750: real time   22.7760
    FORHAR:  cpu time    9.8427: real time    9.8431
    MIXING:  cpu time    3.6508: real time    3.6509
    OFIELD:  cpu time    0.0000: real time    0.0000

  FORCE on cell =-STRESS in cart. coord.  units (eV):
  Direction    XX          YY          ZZ          XY          YZ          ZX
  --------------------------------------------------------------------------------------
  Alpha Z    75.25432    75.25432    75.25432
  Ewald   44810.10794 45957.06135 47884.71675  -448.81539 -2015.04016   797.63914
  Hartree 59585.93646 60815.63562 62599.80632  -416.79698 -1822.00089   731.23489
  E(xc)   -2905.21483 -2906.34927 -2905.47136    -0.25120    -0.97694     0.25676
  Local  ************************************   858.75367  3818.42671 -1521.81086
  n-local  -877.67390  -883.11518  -884.15031     0.18475     2.25507     0.07580
  augment  4099.56385  4106.34659  4104.26239     1.20308     1.49968    -0.69534
  Kinetic  7803.82675  7815.00007  7805.56256     4.75929    11.69807    -5.01174
  Fock        0.00000     0.00000     0.00000     0.00000     0.00000     0.00000
  -------------------------------------------------------------------------------------
  Total    -113.84097  -110.01898  -107.66803    -0.96278    -4.13846     1.68865
  in kB      -6.75531    -6.52852    -6.38901    -0.05713    -0.24558     0.10020
  external pressure =       -6.56 kB  Pullay stress =        0.00 kB


 VOLUME and BASIS-vectors are now :
 -----------------------------------------------------------------------------
  energy-cutoff  :      400.00
  volume of cell :    27000.00
      direct lattice vectors                 reciprocal lattice vectors
    30.000000000  0.000000000  0.000000000     0.033333333  0.000000000  0.000000000
     0.000000000 30.000000000  0.000000000     0.000000000  0.033333333  0.000000000
     0.000000000  0.000000000 30.000000000     0.000000000  0.000000000  0.033333333

  length of vectors
    30.000000000 30.000000000 30.000000000     0.033333333  0.033333333  0.033333333


 FORCES acting on ions
    electron-ion (+dipol)            ewald-force                    non-local-force                 convergence-correction
 -----------------------------------------------------------------------------------------------
   0.399E+03 0.971E+03 0.429E+03   -.397E+03 -.968E+03 -.428E+03   -.150E+01 -.182E+01 -.227E+00   0.556E-02 -.255E-02 0.110E-01
   -.973E+03 -.399E+03 0.423E+03   0.970E+03 0.397E+03 -.422E+03   0.181E+01 0.151E+01 -.195E+00   0.320E-02 -.697E-02 0.825E-02
   -.393E+03 0.972E+03 0.432E+03   0.391E+03 -.969E+03 -.432E+03   0.149E+01 -.181E+01 -.249E+00   0.357E-02 0.359E-02 0.987E-02
   0.974E+03 -.397E+03 0.420E+03   -.971E+03 0.395E+03 -.420E+03   -.183E+01 0.151E+01 -.242E+00   -.106E-01 -.295E-02 0.109E-01
   0.174E+01 0.585E+03 0.971E+03   -.174E+01 -.584E+03 -.968E+03   -.210E-02 -.323E+00 -.234E+01   0.846E-02 -.667E-02 0.553E-02
   0.208E+03 0.493E+03 -.828E+03   -.203E+03 -.494E+03 0.828E+03   -.505E+01 0.171E+01 -.130E+01   -.339E-02 0.464E-02 -.877E-02
   0.797E+01 0.114E+04 0.267E+02   -.789E+01 -.114E+04 -.266E+02   -.516E-01 -.313E+01 -.177E-01   0.166E-02 0.774E-02 0.821E-02
   0.114E+04 -.373E+01 0.497E+01   -.113E+04 0.374E+01 -.500E+01   -.311E+01 -.561E-02 0.868E-02   0.130E-02 -.325E-02 0.170E-01
   -.114E+04 -.785E+01 0.106E+02   0.114E+04 0.786E+01 -.106E+02   0.306E+01 -.743E-02 0.992E-04   -.605E-02 -.271E-02 0.315E-02
   0.110E+01 -.114E+04 0.350E+01   -.110E+01 0.113E+04 -.351E+01   0.664E-03 0.311E+01 -.102E-02   0.190E-02 0.192E-02 0.133E-01
   -.579E+03 0.576E+03 0.820E+03   0.577E+03 -.574E+03 -.816E+03   0.155E+01 -.157E+01 -.219E+01   0.213E-02 -.228E-02 0.717E-02
   -.759E+03 0.465E+03 -.672E+03   0.753E+03 -.465E+03 0.671E+03   0.448E+01 0.198E-01 0.110E+00   -.646E-02 0.237E-02 -.652E-02
   0.580E+03 -.580E+03 0.815E+03   -.577E+03 0.578E+03 -.811E+03   -.155E+01 0.156E+01 -.221E+01   -.898E-02 0.456E-02 -.591E-02
   0.585E+03 -.589E+03 -.809E+03   -.583E+03 0.586E+03 0.806E+03   -.156E+01 0.155E+01 0.221E+01   0.188E-02 -.136E-01 -.167E-02
   0.581E+03 0.577E+03 0.817E+03   -.579E+03 -.574E+03 -.814E+03   -.156E+01 -.157E+01 -.220E+01   0.113E-02 -.993E-02 0.170E-02
   0.622E+03 0.568E+03 -.800E+03   -.619E+03 -.566E+03 0.797E+03   -.171E+01 -.162E+01 0.233E+01   0.474E-02 0.828E-02 -.617E-02
   -.578E+03 -.581E+03 0.815E+03   0.576E+03 0.579E+03 -.812E+03   0.156E+01 0.156E+01 -.220E+01   0.126E-01 -.553E-02 0.181E-02
   -.581E+03 -.596E+03 -.808E+03   0.579E+03 0.594E+03 0.805E+03   0.153E+01 0.156E+01 0.221E+01   -.343E-02 -.570E-02 -.806E-03
   0.431E+03 0.978E+03 -.376E+03   -.429E+03 -.975E+03 0.376E+03   -.143E+01 -.189E+01 0.286E+00   0.343E-02 0.854E-02 0.239E-02
   -.980E+03 -.410E+03 -.405E+03   0.977E+03 0.408E+03 0.405E+03   0.185E+01 0.154E+01 0.171E+00   -.487E-02 -.555E-02 0.968E-03
   -.320E+03 0.315E+03 0.467E+03   0.321E+03 -.316E+03 -.468E+03   -.369E+00 0.364E+00 0.529E+00   0.824E-02 -.829E-02 0.145E-01
   0.976E+03 0.391E+03 0.422E+03   -.973E+03 -.389E+03 -.422E+03   -.182E+01 -.153E+01 -.198E+00   -.350E-02 -.869E-02 0.121E-01
   -.393E+03 -.975E+03 0.420E+03   0.391E+03 0.972E+03 -.419E+03   0.150E+01 0.183E+01 -.224E+00   0.111E-01 0.663E-03 0.838E-02
   -.390E+03 0.992E+03 -.315E+03   0.388E+03 -.989E+03 0.314E+03   0.144E+01 -.159E+01 0.558E+00   -.415E-02 0.818E-02 -.159E-02
   0.979E+03 -.401E+03 -.411E+03   -.976E+03 0.399E+03 0.410E+03   -.183E+01 0.150E+01 0.216E+00   0.598E-02 -.101E-01 0.135E-01
   -.975E+03 0.389E+03 0.427E+03   0.972E+03 -.387E+03 -.427E+03   0.182E+01 -.150E+01 -.211E+00   -.370E-02 -.281E-02 0.827E-02
   0.395E+03 -.974E+03 0.419E+03   -.393E+03 0.971E+03 -.419E+03   -.151E+01 0.183E+01 -.235E+00   -.309E-02 0.824E-02 0.793E-02
   0.325E+03 0.316E+03 0.464E+03   -.326E+03 -.317E+03 -.465E+03   0.377E+00 0.355E+00 0.545E+00   0.933E-02 -.125E-01 0.173E-01
   0.926E+01 0.633E+03 0.313E+02   -.928E+01 -.634E+03 -.313E+02   0.115E-02 0.738E+00 -.172E-01   0.534E-02 -.559E-03 0.142E-01
   -.587E+03 -.337E+01 0.970E+03   0.586E+03 0.337E+01 -.966E+03   0.299E+00 0.229E-02 -.236E+01   0.712E-02 -.833E-02 0.701E-02
   -.606E+03 -.508E+02 -.949E+03   0.605E+03 0.510E+02 0.945E+03   0.248E+00 -.875E-01 0.243E+01   -.627E-02 -.260E-02 -.477E-02
   0.589E+03 -.261E+01 0.968E+03   -.588E+03 0.258E+01 -.964E+03   -.313E+00 0.185E-01 -.237E+01   -.352E-02 -.863E-02 -.296E-02
   0.606E+03 -.172E+02 -.958E+03   -.605E+03 0.172E+02 0.955E+03   -.342E+00 0.226E-01 0.236E+01   0.346E-02 -.335E-02 -.576E-02
   0.772E+03 0.757E+03 0.149E+02   -.770E+03 -.755E+03 -.149E+02   -.118E+01 -.112E+01 -.595E-01   0.663E-02 -.157E-02 0.172E-01
   -.762E+03 -.768E+03 0.720E+01   0.760E+03 0.766E+03 -.723E+01   0.116E+01 0.114E+01 0.170E-01   0.511E-02 -.963E-02 0.101E-01
   -.768E+03 0.755E+03 0.315E+02   0.767E+03 -.753E+03 -.315E+02   0.116E+01 -.117E+01 0.128E-02   -.516E-02 0.206E-02 0.590E-02
   0.764E+03 -.766E+03 0.501E+01   -.762E+03 0.764E+03 -.504E+01   -.114E+01 0.115E+01 0.558E-02   -.360E-02 -.564E-02 0.223E-01
   0.133E+01 -.325E+01 0.107E+04   -.134E+01 0.325E+01 -.107E+04   0.630E-02 0.143E-01 -.162E+01   0.112E-01 -.125E-01 0.168E-02
   0.210E+02 -.522E+02 -.105E+04   -.211E+02 0.524E+02 0.105E+04   0.622E-01 -.122E+00 0.166E+01   -.612E-02 -.362E-02 -.588E-02
   0.986E+03 0.387E+03 -.407E+03   -.983E+03 -.385E+03 0.407E+03   -.184E+01 -.150E+01 0.224E+00   0.105E-01 0.339E-02 0.107E-01
   -.393E+03 -.980E+03 -.411E+03   0.391E+03 0.977E+03 0.411E+03   0.151E+01 0.180E+01 0.211E+00   0.124E-02 -.793E-02 0.943E-02
   -.320E+03 0.279E+03 -.397E+03   0.321E+03 -.279E+03 0.397E+03   -.400E+00 0.109E+00 -.187E+00   -.408E-02 -.331E-02 0.528E-03
   0.324E+03 -.326E+03 0.459E+03   -.324E+03 0.326E+03 -.460E+03   0.361E+00 -.358E+00 0.496E+00   0.548E-02 -.106E-01 0.167E-01
   0.346E+03 0.300E+03 -.426E+03   -.347E+03 -.301E+03 0.426E+03   0.389E+00 0.521E+00 -.659E+00   0.545E-03 -.107E-02 0.962E-02
   -.996E+03 0.373E+03 -.389E+03   0.993E+03 -.370E+03 0.388E+03   0.192E+01 -.149E+01 0.163E+00   -.826E-02 -.112E-02 -.195E-02
   0.397E+03 -.978E+03 -.412E+03   -.395E+03 0.975E+03 0.411E+03   -.150E+01 0.181E+01 0.216E+00   0.501E-03 -.822E-02 0.128E-01
   -.320E+03 -.327E+03 0.461E+03   0.321E+03 0.327E+03 -.461E+03   -.373E+00 -.385E+00 0.528E+00   0.140E-01 -.145E-01 0.152E-01
   0.646E+03 -.733E+01 0.990E+01   -.647E+03 0.739E+01 -.998E+01   0.750E+00 -.315E-01 0.280E-01   0.186E-02 -.985E-02 0.275E-01
   -.643E+03 -.129E+02 0.175E+02   0.643E+03 0.129E+02 -.175E+02   -.683E+00 0.414E-01 -.706E-01   -.812E-03 -.849E-02 0.745E-02
   0.934E+00 -.589E+03 0.967E+03   -.914E+00 0.588E+03 -.963E+03   -.159E-01 0.304E+00 -.236E+01   0.743E-02 -.488E-03 -.491E-02
   0.423E+01 -.604E+03 -.960E+03   -.424E+01 0.603E+03 0.957E+03   0.191E-02 0.339E+00 0.236E+01   -.174E-02 -.935E-02 -.521E-03
   0.520E+01 -.128E+02 0.174E+02   -.519E+01 0.128E+02 -.174E+02   -.132E-01 0.118E-01 -.163E-01   0.715E-02 -.127E-01 0.194E-01
   0.330E+03 -.336E+03 -.443E+03   -.330E+03 0.337E+03 0.444E+03   0.347E+00 -.356E+00 -.531E+00   -.154E-02 -.130E-01 0.157E-01
   -.320E+03 -.343E+03 -.439E+03   0.321E+03 0.343E+03 0.440E+03   -.362E+00 -.322E+00 -.516E+00   -.190E-02 -.941E-02 0.694E-02
   0.220E+01 -.647E+03 0.723E+01   -.221E+01 0.648E+03 -.726E+01   0.203E-02 -.741E+00 0.111E-01   0.648E-02 -.107E-01 0.216E-01
   -.512E+02 0.152E+03 -.249E+03   0.463E+02 -.140E+03 0.233E+03   0.392E+01 -.793E+01 0.105E+02   -.148E-02 0.168E-02 -.335E-02
   -.168E+03 0.481E+03 -.688E+03   0.183E+03 -.519E+03 0.740E+03   -.133E+02 0.338E+02 -.466E+02   -.168E-02 0.247E-02 -.430E-02
 -----------------------------------------------------------------------------------------------
   0.116E+02 -.292E+02 0.409E+02   0.568E-12 0.455E-12 -.682E-12   -.117E+02 0.294E+02 -.413E+02   0.760E-01 -.219E+00 0.369E+00
 
 
 POSITION                                       TOTAL-FORCE (eV/Angst)
 -----------------------------------------------------------------------------------
     13.37281      9.84801     12.50759         0.700800      1.106686      0.293123
     20.15199     16.62719     12.50759        -1.109177     -0.704406      0.276280
     16.62719      9.84801     12.50759        -0.704998      1.107876      0.291303
      9.84801     16.62719     12.50759         1.101254     -0.710302      0.306112
     15.00000     11.47521     10.20639         0.001766      0.417031      1.279679
     15.00000     11.47521     19.79360         0.161562      0.377571     -1.209347
     15.00000      8.28283     15.00000         0.029827      1.532414      0.023109
      8.28283     15.00000     15.00000         1.518455      0.003447     -0.004155
     21.71717     15.00000     15.00000        -1.501152      0.004121     -0.019787
     15.00000     21.71717     15.00000         0.000266     -1.512830      0.002544
     18.35858     11.64142     10.25025        -0.754249      0.762089      1.073337
     18.35858     11.64142     19.74975        -1.263364      0.604654     -0.911160
     11.64142     18.35858     10.25025         0.747340     -0.756476      1.071394
     11.64142     18.35858     19.74975         0.758819     -0.754475     -1.073952
     11.64142     11.64142     10.25025         0.755443      0.757645      1.071212
     11.64142     11.64142     19.74975         0.751187      0.761631     -1.087611
     18.35858     18.35858     10.25025        -0.752222     -0.758234      1.072995
     18.35858     18.35858     19.74975        -0.751752     -0.753384     -1.074481
     13.37281      9.84801     17.49241         0.619851      1.099238     -0.373618
     20.15199     16.62719     17.49241        -1.110211     -0.729668     -0.260495
     16.73751     13.26249     12.54279         0.116286     -0.113224     -0.155658
      9.84801     13.37281     12.50759         1.102409      0.713937      0.282548
     16.62719     20.15199     12.50759        -0.701764     -1.102871      0.289183
     16.62719      9.84801     17.49241        -0.772940      0.990836     -0.366322
      9.84801     16.62719     17.49241         1.111104     -0.699964     -0.289190
     20.15199     13.37281     12.50759        -1.111714      0.707824      0.286969
     13.37281     20.15199     12.50759         0.706819     -1.103600      0.300187
     13.26249     13.26249     12.54279        -0.110361     -0.100961     -0.163203
     15.00000     11.52498     15.00000        -0.012362     -0.226231     -0.001537
     18.52479     15.00000     10.20639        -0.409005     -0.003868      1.280845
     18.52479     15.00000     19.79360        -0.365174      0.101841     -1.313048
     11.47521     15.00000     10.20640         0.414842     -0.016362      1.281354
     11.47521     15.00000     19.79360         0.412588      0.001076     -1.288097
     11.49535     11.49535     15.00000         0.840942      0.816513      0.016624
     18.50465     18.50465     15.00000        -0.836812     -0.827073     -0.002436
     18.50465     11.49535     15.00000        -0.822729      0.836394     -0.023374
     11.49535     18.50465     15.00000         0.827871     -0.825453      0.000405
     15.00000     15.00000     10.04368         0.001620     -0.003913      1.176364
     15.00000     15.00000     19.95633        -0.024880      0.060635     -1.171183
      9.84801     13.37281     17.49241         1.112498      0.691902     -0.287919
     16.62719     20.15199     17.49241        -0.710855     -1.102522     -0.292118
     16.73751     13.26249     17.45721         0.113029     -0.021621      0.053642
     13.26249     16.73751     12.54279        -0.109216      0.113686     -0.156330
     13.26249     13.26249     17.45721        -0.140429     -0.088808      0.122248
     20.15199     13.37281     17.49241        -1.034505      0.815711     -0.362539
     13.37281     20.15199     17.49241         0.702386     -1.109318     -0.290704
     16.73751     16.73751     12.54279         0.110323      0.105100     -0.153239
     11.52498     15.00000     15.00000        -0.247491      0.014557     -0.024698
     18.47502     15.00000     15.00000         0.220961     -0.002673      0.004229
     15.00000     18.52480     10.20639         0.011797     -0.410150      1.281343
     15.00000     18.52480     19.79360        -0.004894     -0.405203     -1.283908
     15.00000     15.00000     15.00000         0.007282     -0.014298      0.010952
     13.26249     16.73751     17.45721        -0.112237      0.110142      0.162281
     16.73751     16.73751     17.45721         0.121029      0.112241      0.151123
     15.00000     18.47502     15.00000        -0.008786      0.218910      0.001206
     16.64524     10.90773     20.63278        -0.959781      4.184097     -5.652921
     16.90465     10.26250     21.52090         1.362702     -4.271917      5.830435
 -----------------------------------------------------------------------------------
    total drift:                               -0.008677     -0.002060     -0.006172


--------------------------------------------------------------------------------------------------------



  FREE ENERGIE OF THE ION-ELECTRON SYSTEM (eV)
  ---------------------------------------------------
  free  energy   TOTEN  =      -175.69006431 eV

  energy  without entropy=     -175.62844714  energy(sigma->0) =     -175.67466002
 


--------------------------------------------------------------------------------------------------------


    POTLOK:  cpu time   14.1522: real time   14.1529


--------------------------------------------------------------------------------------------------------


     LOOP+:  cpu time18724.1500: real time18725.3112
    4ORBIT:  cpu time    0.0000: real time    0.0000

 total amount of memory used by VASP MPI-rank0  5486942. kBytes
=======================================================================

   base      :      30000. kBytes
   nonlr-proj:      17127. kBytes
   fftplans  :     924480. kBytes
   grid      :    1872000. kBytes
   one-center:        886. kBytes
   wavefun   :    2642449. kBytes
 
  
  
 General timing and accounting informations for this job:
 ========================================================
  
                  Total CPU time used (sec):    18799.184
                            User time (sec):    17733.011
                          System time (sec):     1066.172
                         Elapsed time (sec):    18800.471
  
                   Maximum memory used (kb):     7179188.
                   Average memory used (kb):           0.
  
                          Minor page faults:    835614999
                          Major page faults:            0
                 Voluntary context switches:          586
