 running on    1 total cores
 distrk:  each k-point on    1 cores,    1 groups
 distr:  one band on    1 cores,    1 groups
 using from now: INCAR     
 vasp.5.4.4.18Apr17-6-g9f103f2a35 (build Sep 03 2018 23:53:05) complex          
  
 POSCAR found type information on POSCAR  Pd C  O 
 POSCAR found :  3 types and      57 ions
 scaLAPACK will be used

 ----------------------------------------------------------------------------- 
|                                                                             |
|  ADVICE TO THIS USER RUNNING 'VASP/VAMP'   (HEAR YOUR MASTER'S VOICE ...):  |
|                                                                             |
|      You enforced a specific xc-type in the INCAR file,                     |
|      a different type was found on the POTCAR file                          |
|          I HOPE YOU KNOW, WHAT YOU ARE  DOING                               |
|                                                                             |
 ----------------------------------------------------------------------------- 

 LDA part: xc-table for Pade appr. of Perdew
 POSCAR, INCAR and KPOINTS ok, starting setup
 FFT: planning ...
 WAVECAR not read
 entering main loop
       N       E                     dE             d eps       ncg     rms          rms(c)
DAV:   1     0.439554533883E+04    0.43955E+04   -0.10053E+05   688   0.815E+02
DAV:   2     0.201141098529E+04   -0.23841E+04   -0.21455E+04  1224   0.105E+02
DAV:   3     0.229279432001E+03   -0.17821E+04   -0.16801E+04  1008   0.918E+01
DAV:   4    -0.135704674959E+03   -0.36498E+03   -0.31161E+03   840   0.435E+01
DAV:   5    -0.181234743074E+03   -0.45530E+02   -0.37647E+02  1048   0.146E+01    0.162E+01
RMM:   6    -0.181281316737E+03   -0.46574E-01   -0.62628E+01   725   0.932E+00    0.258E+01
RMM:   7    -0.184564404478E+03   -0.32831E+01   -0.20554E+01   860   0.481E+00    0.246E+01
RMM:   8    -0.185989007210E+03   -0.14246E+01   -0.78058E+00   777   0.367E+00    0.262E+01
RMM:   9    -0.183575415563E+03    0.24136E+01   -0.67076E+00   724   0.370E+00    0.249E+01
RMM:  10    -0.181331966089E+03    0.22434E+01   -0.33992E+00   735   0.272E+00    0.222E+01
RMM:  11    -0.179140329817E+03    0.21916E+01   -0.25992E+00   725   0.235E+00    0.175E+01
RMM:  12    -0.179092768416E+03    0.47561E-01   -0.20896E+00   719   0.212E+00    0.180E+01
RMM:  13    -0.178541988565E+03    0.55078E+00   -0.14875E+00   727   0.180E+00    0.181E+01
RMM:  14    -0.178091625023E+03    0.45036E+00   -0.17119E+00   702   0.196E+00    0.208E+01
RMM:  15    -0.177236146276E+03    0.85548E+00   -0.13183E+00   704   0.169E+00    0.176E+01
RMM:  16    -0.176442631062E+03    0.79352E+00   -0.55923E-01   727   0.108E+00    0.901E+00
RMM:  17    -0.176926649211E+03   -0.48402E+00   -0.53211E-01   716   0.107E+00    0.163E+01
RMM:  18    -0.176743738495E+03    0.18291E+00   -0.38924E-01   717   0.939E-01    0.141E+01
RMM:  19    -0.176482007643E+03    0.26173E+00   -0.39964E-01   702   0.961E-01    0.118E+01
RMM:  20    -0.176408134020E+03    0.73874E-01   -0.31147E-01   698   0.859E-01    0.135E+01
RMM:  21    -0.176084631394E+03    0.32350E+00   -0.22525E-01   702   0.723E-01    0.748E+00
RMM:  22    -0.176014696184E+03    0.69935E-01   -0.25791E-01   698   0.750E-01    0.622E+00
RMM:  23    -0.176119238167E+03   -0.10454E+00   -0.23912E-01   699   0.744E-01    0.854E+00
RMM:  24    -0.175928098233E+03    0.19114E+00   -0.16290E-01   702   0.633E-01    0.584E+00
RMM:  25    -0.175832745287E+03    0.95353E-01   -0.11858E-01   696   0.534E-01    0.437E+00
RMM:  26    -0.175795708524E+03    0.37037E-01   -0.69596E-02   694   0.410E-01    0.416E+00
RMM:  27    -0.175734887497E+03    0.60821E-01   -0.48184E-02   695   0.350E-01    0.323E+00
RMM:  28    -0.175709545850E+03    0.25342E-01   -0.41187E-02   693   0.312E-01    0.243E+00
RMM:  29    -0.175696884223E+03    0.12662E-01   -0.28321E-02   692   0.277E-01    0.197E+00
RMM:  30    -0.175687412686E+03    0.94715E-02   -0.20950E-02   693   0.232E-01    0.191E+00
RMM:  31    -0.175674920914E+03    0.12492E-01   -0.12071E-02   691   0.184E-01    0.133E+00
RMM:  32    -0.175666483918E+03    0.84370E-02   -0.91036E-03   691   0.152E-01    0.100E+00
RMM:  33    -0.175664640077E+03    0.18438E-02   -0.52609E-03   694   0.116E-01    0.938E-01
RMM:  34    -0.175662270702E+03    0.23694E-02   -0.33193E-03   690   0.969E-02    0.717E-01
RMM:  35    -0.175661547934E+03    0.72277E-03   -0.19056E-03   691   0.747E-02    0.619E-01
RMM:  36    -0.175662343828E+03   -0.79589E-03   -0.18907E-03   688   0.689E-02    0.515E-01
RMM:  37    -0.175663447369E+03   -0.11035E-02   -0.16618E-03   687   0.649E-02    0.434E-01
RMM:  38    -0.175666268839E+03   -0.28215E-02   -0.13019E-03   687   0.537E-02    0.546E-01
RMM:  39    -0.175669178493E+03   -0.29097E-02   -0.12760E-03   686   0.540E-02    0.405E-01
RMM:  40    -0.175671314664E+03   -0.21362E-02   -0.83759E-04   680   0.436E-02    0.402E-01
RMM:  41    -0.175672794757E+03   -0.14801E-02   -0.55463E-04   607   0.376E-02    0.266E-01
RMM:  42    -0.175673731770E+03   -0.93701E-03   -0.31113E-04   437   0.301E-02    0.166E-01
RMM:  43    -0.175675187988E+03   -0.14562E-02   -0.21298E-04   408   0.232E-02    0.157E-01
RMM:  44    -0.175676395311E+03   -0.12073E-02   -0.16450E-04   403   0.209E-02    0.107E-01
RMM:  45    -0.175678182635E+03   -0.17873E-02   -0.20155E-04   411   0.208E-02    0.155E-01
RMM:  46    -0.175680232116E+03   -0.20495E-02   -0.22655E-04   421   0.212E-02    0.120E-01
RMM:  47    -0.175681525023E+03   -0.12929E-02   -0.15062E-04   411   0.170E-02    0.117E-01
RMM:  48    -0.175683720857E+03   -0.21958E-02   -0.21640E-04   425   0.182E-02    0.936E-02
RMM:  49    -0.175684639199E+03   -0.91834E-03   -0.11929E-04   415   0.137E-02    0.748E-02
RMM:  50    -0.175686168364E+03   -0.15292E-02   -0.14514E-04   411   0.138E-02    0.674E-02
RMM:  51    -0.175686627387E+03   -0.45902E-03   -0.75806E-05   412   0.103E-02    0.404E-02
RMM:  52    -0.175687353598E+03   -0.72621E-03   -0.60332E-05   407   0.898E-03    0.534E-02
RMM:  53    -0.175688012555E+03   -0.65896E-03   -0.50802E-05   401   0.799E-03    0.325E-02
RMM:  54    -0.175688297622E+03   -0.28507E-03   -0.27802E-05   374   0.596E-03    0.308E-02
RMM:  55    -0.175688592715E+03   -0.29509E-03   -0.14918E-05   277   0.479E-03    0.148E-02
RMM:  56    -0.175688767972E+03   -0.17526E-03   -0.43257E-06   160   0.418E-03    0.153E-02
RMM:  57    -0.175689179120E+03   -0.41115E-03   -0.10519E-05   261   0.449E-03    0.148E-02
RMM:  58    -0.175689397949E+03   -0.21883E-03   -0.48796E-06   160   0.377E-03    0.102E-02
RMM:  59    -0.175689666799E+03   -0.26885E-03   -0.79616E-06   189   0.394E-03    0.101E-02
RMM:  60    -0.175689814368E+03   -0.14757E-03   -0.45434E-06   142   0.359E-03    0.619E-03
RMM:  61    -0.175689997126E+03   -0.18276E-03   -0.71202E-06   166   0.401E-03    0.947E-03
RMM:  62    -0.175690064310E+03   -0.67184E-04   -0.51904E-06   145   0.364E-03
   1 F= -.17569006E+03 E0= -.17567466E+03  d E =-.616172E-01
================================= SLURM INFO ===================================
Command: run-cluster -n 1 -m 10000 -j 0300_vasp --same-node /opt/VASP/vasp
Exit code: 0
Job name: 0300_vasp
Job time: 0 days 5h:13m:20s
MPI task count: 1
Working dir: /home/pashkov/pyFitIt/pyfitit/data/random_pd_co_new/sample/0300
Job was running on nodes: h8
Task per node: 1
       JobID     MaxRSS  MaxDiskRead MaxDiskWrite    Elapsed    JobName 
------------ ---------- ------------ ------------ ---------- ---------- 
105712                                              05:13:21  0300_vasp 
105712.batch                                        05:13:21      batch 
