  57  57   0   0
  0.4736842E+03  0.3000000E-08  0.3000000E-08  0.3000000E-08  0.5000000E-15
  1.000000000000000E-004
  CAR 
 6_Pd100_top_free_z(O)                   
      1.38963810    -31.19664678  301     -4.12284566      1.00000000
    -31.197  0.0000E+00  0.0000E+00
    -31.088  0.0000E+00  0.0000E+00
    -30.979  0.0000E+00  0.0000E+00
    -30.871  0.5373E-27  0.5836E-28
    -30.762  0.2884E-23  0.3134E-24
    -30.654  0.8446E-20  0.9178E-21
    -30.545  0.1345E-16  0.1462E-17
    -30.436  0.1160E-13  0.1261E-14
    -30.328  0.5399E-11  0.5877E-12
    -30.219  0.1343E-08  0.1465E-09
    -30.110  0.1767E-06  0.1934E-07
    -30.002  0.1209E-04  0.1332E-05
    -29.893  0.4168E-03  0.4661E-04
    -29.785  0.6800E-02  0.7853E-03
    -29.676  0.4396E-01  0.5560E-02
    -29.567  0.1944E-01  0.7672E-02
    -29.459 -0.5725E+00 -0.5451E-01
    -29.350 -0.1596E+00 -0.7185E-01
    -29.241  0.5668E+01  0.5439E+00
    -29.133  0.9947E+01  0.1624E+01
    -29.024  0.4343E+01  0.2096E+01
    -28.916 -0.5434E+00  0.2037E+01
    -28.807 -0.4287E+00  0.1990E+01
    -28.698  0.4839E-01  0.1996E+01
    -28.590  0.3455E-01  0.1999E+01
    -28.481  0.4429E-02  0.2000E+01
    -28.373  0.2364E-03  0.2000E+01
    -28.264  0.6063E-05  0.2000E+01
    -28.155  0.7893E-07  0.2000E+01
    -28.047  0.5362E-09  0.2000E+01
    -27.938  0.1932E-11  0.2000E+01
    -27.829  0.4088E-14  0.2000E+01
    -27.721  0.0000E+00  0.2000E+01
    -27.612  0.0000E+00  0.2000E+01
    -27.504  0.0000E+00  0.2000E+01
    -27.395  0.0000E+00  0.2000E+01
    -27.286  0.0000E+00  0.2000E+01
    -27.178  0.0000E+00  0.2000E+01
    -27.069  0.0000E+00  0.2000E+01
    -26.960  0.0000E+00  0.2000E+01
    -26.852  0.0000E+00  0.2000E+01
    -26.743  0.0000E+00  0.2000E+01
    -26.635  0.0000E+00  0.2000E+01
    -26.526  0.0000E+00  0.2000E+01
    -26.417  0.0000E+00  0.2000E+01
    -26.309  0.0000E+00  0.2000E+01
    -26.200  0.0000E+00  0.2000E+01
    -26.091  0.0000E+00  0.2000E+01
    -25.983  0.0000E+00  0.2000E+01
    -25.874  0.0000E+00  0.2000E+01
    -25.766  0.0000E+00  0.2000E+01
    -25.657  0.0000E+00  0.2000E+01
    -25.548  0.0000E+00  0.2000E+01
    -25.440  0.0000E+00  0.2000E+01
    -25.331  0.0000E+00  0.2000E+01
    -25.222  0.0000E+00  0.2000E+01
    -25.114  0.0000E+00  0.2000E+01
    -25.005  0.0000E+00  0.2000E+01
    -24.897  0.0000E+00  0.2000E+01
    -24.788  0.0000E+00  0.2000E+01
    -24.679  0.0000E+00  0.2000E+01
    -24.571  0.0000E+00  0.2000E+01
    -24.462  0.0000E+00  0.2000E+01
    -24.354  0.0000E+00  0.2000E+01
    -24.245  0.0000E+00  0.2000E+01
    -24.136  0.0000E+00  0.2000E+01
    -24.028  0.0000E+00  0.2000E+01
    -23.919  0.0000E+00  0.2000E+01
    -23.810  0.0000E+00  0.2000E+01
    -23.702  0.0000E+00  0.2000E+01
    -23.593  0.0000E+00  0.2000E+01
    -23.485  0.0000E+00  0.2000E+01
    -23.376  0.0000E+00  0.2000E+01
    -23.267  0.0000E+00  0.2000E+01
    -23.159  0.0000E+00  0.2000E+01
    -23.050  0.0000E+00  0.2000E+01
    -22.941  0.0000E+00  0.2000E+01
    -22.833  0.0000E+00  0.2000E+01
    -22.724  0.0000E+00  0.2000E+01
    -22.616  0.0000E+00  0.2000E+01
    -22.507  0.0000E+00  0.2000E+01
    -22.398  0.0000E+00  0.2000E+01
    -22.290  0.0000E+00  0.2000E+01
    -22.181  0.0000E+00  0.2000E+01
    -22.072  0.0000E+00  0.2000E+01
    -21.964  0.0000E+00  0.2000E+01
    -21.855  0.0000E+00  0.2000E+01
    -21.747  0.0000E+00  0.2000E+01
    -21.638  0.0000E+00  0.2000E+01
    -21.529  0.0000E+00  0.2000E+01
    -21.421  0.0000E+00  0.2000E+01
    -21.312  0.0000E+00  0.2000E+01
    -21.204  0.0000E+00  0.2000E+01
    -21.095  0.0000E+00  0.2000E+01
    -20.986  0.0000E+00  0.2000E+01
    -20.878  0.0000E+00  0.2000E+01
    -20.769  0.0000E+00  0.2000E+01
    -20.660  0.0000E+00  0.2000E+01
    -20.552  0.0000E+00  0.2000E+01
    -20.443  0.0000E+00  0.2000E+01
    -20.335  0.0000E+00  0.2000E+01
    -20.226  0.0000E+00  0.2000E+01
    -20.117  0.0000E+00  0.2000E+01
    -20.009  0.0000E+00  0.2000E+01
    -19.900  0.0000E+00  0.2000E+01
    -19.791  0.0000E+00  0.2000E+01
    -19.683  0.0000E+00  0.2000E+01
    -19.574  0.0000E+00  0.2000E+01
    -19.466  0.0000E+00  0.2000E+01
    -19.357  0.0000E+00  0.2000E+01
    -19.248  0.0000E+00  0.2000E+01
    -19.140  0.0000E+00  0.2000E+01
    -19.031  0.0000E+00  0.2000E+01
    -18.922  0.0000E+00  0.2000E+01
    -18.814  0.0000E+00  0.2000E+01
    -18.705  0.0000E+00  0.2000E+01
    -18.597  0.0000E+00  0.2000E+01
    -18.488  0.0000E+00  0.2000E+01
    -18.379  0.0000E+00  0.2000E+01
    -18.271  0.0000E+00  0.2000E+01
    -18.162  0.0000E+00  0.2000E+01
    -18.054  0.0000E+00  0.2000E+01
    -17.945  0.0000E+00  0.2000E+01
    -17.836  0.0000E+00  0.2000E+01
    -17.728  0.0000E+00  0.2000E+01
    -17.619  0.0000E+00  0.2000E+01
    -17.510  0.0000E+00  0.2000E+01
    -17.402  0.0000E+00  0.2000E+01
    -17.293  0.0000E+00  0.2000E+01
    -17.185  0.0000E+00  0.2000E+01
    -17.076  0.0000E+00  0.2000E+01
    -16.967  0.0000E+00  0.2000E+01
    -16.859  0.0000E+00  0.2000E+01
    -16.750  0.0000E+00  0.2000E+01
    -16.641  0.0000E+00  0.2000E+01
    -16.533  0.0000E+00  0.2000E+01
    -16.424  0.0000E+00  0.2000E+01
    -16.316  0.0000E+00  0.2000E+01
    -16.207  0.0000E+00  0.2000E+01
    -16.098  0.0000E+00  0.2000E+01
    -15.990  0.0000E+00  0.2000E+01
    -15.881  0.0000E+00  0.2000E+01
    -15.772  0.0000E+00  0.2000E+01
    -15.664  0.0000E+00  0.2000E+01
    -15.555  0.0000E+00  0.2000E+01
    -15.447  0.0000E+00  0.2000E+01
    -15.338  0.2786E-25  0.2000E+01
    -15.229  0.1138E-21  0.2000E+01
    -15.121  0.2533E-18  0.2000E+01
    -15.012  0.3060E-15  0.2000E+01
    -14.904  0.1998E-12  0.2000E+01
    -14.795  0.7026E-10  0.2000E+01
    -14.686  0.1313E-07  0.2000E+01
    -14.578  0.1290E-05  0.2000E+01
    -14.469  0.6513E-04  0.2000E+01
    -14.360  0.1621E-02  0.2000E+01
    -14.252  0.1807E-01  0.2002E+01
    -14.143  0.6342E-01  0.2009E+01
    -14.035 -0.1590E+00  0.1992E+01
    -13.926 -0.8131E+00  0.1903E+01
    -13.817  0.1793E+01  0.2098E+01
    -13.709  0.8708E+01  0.3044E+01
    -13.600  0.8277E+01  0.3943E+01
    -13.491  0.1362E+01  0.4091E+01
    -13.383 -0.8005E+00  0.4004E+01
    -13.274 -0.1166E+00  0.3991E+01
    -13.166  0.6163E-01  0.3998E+01
    -13.057  0.1552E-01  0.4000E+01
    -12.948  0.1301E-02  0.4000E+01
    -12.840  0.4940E-04  0.4000E+01
    -12.731  0.9288E-06  0.4000E+01
    -12.622  0.9010E-08  0.4000E+01
    -12.514  0.3925E-08  0.4000E+01
    -12.405  0.4875E-06  0.4000E+01
    -12.297  0.3180E-04  0.4000E+01
    -12.188  0.1043E-02  0.4000E+01
    -12.079  0.1606E-01  0.4002E+01
    -11.971  0.9566E-01  0.4012E+01
    -11.862  0.4156E-02  0.4013E+01
    -11.753 -0.1257E+01  0.3876E+01
    -11.645  0.1065E+00  0.3888E+01
    -11.536  0.1240E+02  0.5235E+01
    -11.428  0.1967E+02  0.7372E+01
    -11.319  0.7637E+01  0.8202E+01
    -11.210 -0.1293E+01  0.8061E+01
    -11.102 -0.7430E+00  0.7980E+01
    -10.993  0.1107E+00  0.7992E+01
    -10.885  0.6192E-01  0.7999E+01
    -10.776  0.7391E-02  0.8000E+01
    -10.667  0.3735E-03  0.8000E+01
    -10.559  0.9121E-05  0.8000E+01
    -10.450  0.1133E-06  0.8000E+01
    -10.341  0.7359E-09  0.8000E+01
    -10.233  0.4429E-11  0.8000E+01
    -10.124  0.5259E-09  0.8000E+01
    -10.016  0.7760E-07  0.8000E+01
     -9.907  0.5975E-05  0.8000E+01
     -9.798  0.2336E-03  0.8000E+01
     -9.690  0.4388E-02  0.8001E+01
     -9.581  0.3436E-01  0.8004E+01
     -9.472  0.4881E-01  0.8010E+01
     -9.364 -0.4257E+00  0.7963E+01
     -9.255 -0.5494E+00  0.7904E+01
     -9.147  0.4316E+01  0.8372E+01
     -9.038  0.9943E+01  0.9452E+01
     -8.929  0.5696E+01  0.1007E+02
     -8.821 -0.1495E+00  0.1005E+02
     -8.712 -0.5754E+00  0.9992E+01
     -8.603  0.1863E-01  0.9994E+01
     -8.495  0.4416E-01  0.9999E+01
     -8.386  0.6860E-02  0.1000E+02
     -8.278  0.4217E-03  0.1000E+02
     -8.169  0.1226E-04  0.1000E+02
     -8.060  0.1797E-06  0.1000E+02
     -7.952  0.1369E-08  0.1000E+02
     -7.843  0.5547E-11  0.1000E+02
     -7.735  0.1346E-10  0.1000E+02
     -7.626  0.3028E-08  0.1000E+02
     -7.517  0.3598E-06  0.1000E+02
     -7.409  0.2215E-04  0.1000E+02
     -7.300  0.6824E-03  0.1000E+02
     -7.191  0.9788E-02  0.1000E+02
     -7.083  0.5244E-01  0.1001E+02
     -6.974 -0.2428E-01  0.1000E+02
     -6.866 -0.6917E+00  0.9929E+01
     -6.757  0.3661E+00  0.9969E+01
     -6.648  0.6888E+01  0.1072E+02
     -6.540  0.9803E+01  0.1178E+02
     -6.431  0.2854E+01  0.1209E+02
     -6.322 -0.3061E+01  0.1176E+02
     -6.214  0.4037E+01  0.1220E+02
     -6.105  0.2476E+02  0.1489E+02
     -5.997  0.2389E+02  0.1748E+02
     -5.888  0.7929E+01  0.1834E+02
     -5.779  0.2385E+02  0.2093E+02
     -5.671  0.6625E+02  0.2813E+02
     -5.562  0.1561E+03  0.4508E+02
     -5.453  0.2804E+03  0.7554E+02
     -5.345  0.2982E+03  0.1079E+03
     -5.236  0.2194E+03  0.1318E+03
     -5.128  0.2191E+03  0.1556E+03
     -5.019  0.3172E+03  0.1900E+03
     -4.910  0.3697E+03  0.2302E+03
     -4.802  0.3124E+03  0.2641E+03
     -4.693  0.3066E+03  0.2974E+03
     -4.585  0.4004E+03  0.3409E+03
     -4.476  0.4272E+03  0.3873E+03
     -4.367  0.4375E+03  0.4348E+03
     -4.259  0.5415E+03  0.4936E+03
     -4.150  0.5185E+03  0.5500E+03
     -4.041  0.2522E+03  0.5774E+03
     -3.933  0.3834E+02  0.5815E+03
     -3.824  0.1775E+02  0.5835E+03
     -3.716  0.3156E+02  0.5869E+03
     -3.607  0.1125E+02  0.5881E+03
     -3.498  0.1484E+02  0.5897E+03
     -3.390  0.2869E+02  0.5928E+03
     -3.281  0.1090E+02  0.5940E+03
     -3.172 -0.4352E+01  0.5935E+03
     -3.064  0.2561E+02  0.5963E+03
     -2.955  0.6768E+02  0.6037E+03
     -2.847  0.5164E+02  0.6093E+03
     -2.738  0.8229E+01  0.6102E+03
     -2.629  0.5581E+00  0.6102E+03
     -2.521  0.2255E+02  0.6127E+03
     -2.412  0.2687E+02  0.6156E+03
     -2.303  0.1150E+02  0.6169E+03
     -2.195  0.1153E+02  0.6181E+03
     -2.086  0.2663E+02  0.6210E+03
     -1.978  0.3876E+02  0.6252E+03
     -1.869  0.4694E+02  0.6303E+03
     -1.760  0.4754E+02  0.6355E+03
     -1.652  0.4171E+02  0.6400E+03
     -1.543  0.4436E+02  0.6448E+03
     -1.435  0.3817E+02  0.6490E+03
     -1.326  0.1117E+02  0.6502E+03
     -1.217  0.3975E+01  0.6506E+03
     -1.109  0.2126E+02  0.6529E+03
     -1.000  0.4577E+02  0.6579E+03
     -0.891  0.6242E+02  0.6647E+03
     -0.783  0.4103E+02  0.6691E+03
     -0.674  0.1358E+02  0.6706E+03
     -0.566  0.8421E+01  0.6715E+03
     -0.457  0.4826E+01  0.6720E+03
     -0.348 -0.4009E-01  0.6720E+03
     -0.240 -0.4575E+00  0.6720E+03
     -0.131  0.4101E-01  0.6720E+03
     -0.022  0.4567E-01  0.6720E+03
      0.086  0.6866E-02  0.6720E+03
      0.195  0.4181E-03  0.6720E+03
      0.303  0.1210E-04  0.6720E+03
      0.412  0.1768E-06  0.6720E+03
      0.521  0.1343E-08  0.6720E+03
      0.629  0.5399E-11  0.6720E+03
      0.738  0.1227E-13  0.6720E+03
      0.847  0.0000E+00  0.6720E+03
      0.955  0.0000E+00  0.6720E+03
      1.064  0.0000E+00  0.6720E+03
      1.172  0.0000E+00  0.6720E+03
      1.281  0.0000E+00  0.6720E+03
      1.390  0.0000E+00  0.6720E+03
