<?xml version="1.0" encoding="ISO-8859-1"?>
<modeling>
 <generator>
  <i name="program" type="string">vasp </i>
  <i name="version" type="string">5.4.4.18Apr17-6-g9f103f2a35  </i>
  <i name="subversion" type="string">(build Sep 03 2018 23:53:05) complex            parallel </i>
  <i name="platform" type="string">LinuxIFC </i>
  <i name="date" type="string">2021 12 02 </i>
  <i name="time" type="string">21:41:19 </i>
 </generator>
 <incar>
  <i type="string" name="SYSTEM"> 6_Pd100_top_free_z(O)</i>
  <i type="int" name="ISTART">     0</i>
  <i type="string" name="PREC">normal   			! encut=max(enmax), ngx,y,z</i>
  <i type="string" name="ALGO"> Fast     			! Mix RMM-DIIS and Dav</i>
  <i type="logical" name="ADDGRID"> F  </i>
  <i type="int" name="ISPIN">     1</i>
  <i type="int" name="ICHARG">     2</i>
  <i type="int" name="NELM">   100</i>
  <i type="int" name="NELMIN">     6</i>
  <i type="int" name="IBRION">     2</i>
  <i name="EDIFF">      0.00010000</i>
  <i name="EDIFFG">     -0.05000000</i>
  <i type="int" name="NSW">     0</i>
  <i type="int" name="ISIF">     2</i>
  <i type="int" name="ISYM">     2</i>
  <i name="ENCUT">    400.00000000</i>
  <i type="string" name="LREAL"> Auto     			! Auto or A projection done</i>
  <i type="int" name="ISMEAR">     2</i>
  <i name="SIGMA">      0.20000000</i>
  <i type="logical" name="LWAVE"> F  </i>
  <i type="logical" name="LCHARG"> F  </i>
  <v type="int" name="KPOINT_BSE">    -1     0     0     0</v>
  <i type="int" name="MAXMEM"> 10000</i>
  <i type="int" name="NELM">   100</i>
  <i type="string" name="GGA"> RP         			! Revised PBE</i>
 </incar>
 <structure name="primitive_cell" >
  <crystal>
   <varray name="basis" >
    <v>      30.00000000       0.00000000       0.00000000 </v>
    <v>       0.00000000      30.00000000       0.00000000 </v>
    <v>       0.00000000       0.00000000      30.00000000 </v>
   </varray>
   <i name="volume">  27000.00000000 </i>
   <varray name="rec_basis" >
    <v>       0.03333333       0.00000000       0.00000000 </v>
    <v>       0.00000000       0.03333333       0.00000000 </v>
    <v>       0.00000000       0.00000000       0.03333333 </v>
   </varray>
  </crystal>
  <varray name="positions" >
   <v>       0.44576020       0.32826710       0.41691983 </v>
   <v>      -0.44576020       0.32826710       0.41691983 </v>
   <v>      -0.50000000       0.38250690       0.34021317 </v>
   <v>      -0.50000000       0.27609440      -0.50000000 </v>
   <v>       0.38804720       0.38804720       0.34167483 </v>
   <v>      -0.50000000       0.38416601      -0.50000000 </v>
   <v>       0.44208300       0.44208300       0.41809300 </v>
   <v>       0.38317830       0.38317830      -0.50000000 </v>
   <v>      -0.44208300       0.44208300       0.41809300 </v>
   <v>       0.44576020       0.32826710      -0.41691977 </v>
   <v>       0.32826705       0.44576024       0.41691983 </v>
   <v>      -0.38804720       0.38804720       0.34167483 </v>
   <v>      -0.38317830       0.38317830      -0.50000000 </v>
   <v>      -0.50000000      -0.50000000       0.33478917 </v>
   <v>      -0.50000000      -0.50000000      -0.50000000 </v>
   <v>      -0.44576020       0.32826710      -0.41691977 </v>
   <v>       0.38250685      -0.49999995       0.34021317 </v>
   <v>       0.44208300       0.44208300      -0.41809297 </v>
   <v>       0.38416599      -0.49999998      -0.50000000 </v>
   <v>      -0.44208300       0.44208300      -0.41809297 </v>
   <v>       0.44208298      -0.44208298       0.41809300 </v>
   <v>       0.32826705       0.44576024      -0.41691977 </v>
   <v>      -0.50000000       0.38250690      -0.34021320 </v>
   <v>       0.32826712      -0.44576022       0.41691983 </v>
   <v>      -0.38250685      -0.49999995       0.34021317 </v>
   <v>      -0.32826705       0.44576024       0.41691983 </v>
   <v>       0.27609443       0.49999998      -0.50000000 </v>
   <v>       0.38804720       0.38804720      -0.34167487 </v>
   <v>      -0.38416599      -0.49999998      -0.50000000 </v>
   <v>      -0.44208298      -0.44208298       0.41809300 </v>
   <v>       0.44208298      -0.44208298      -0.41809297 </v>
   <v>      -0.38804720       0.38804720      -0.34167487 </v>
   <v>       0.38804722      -0.38804722       0.34167483 </v>
   <v>       0.38250685      -0.49999995      -0.34021320 </v>
   <v>       0.32826712      -0.44576022      -0.41691977 </v>
   <v>      -0.32826705       0.44576024      -0.41691977 </v>
   <v>       0.50000000      -0.38250681       0.34021317 </v>
   <v>      -0.50000000      -0.38416596      -0.50000000 </v>
   <v>      -0.44208298      -0.44208298      -0.41809297 </v>
   <v>      -0.50000000      -0.50000000      -0.33478913 </v>
   <v>       0.38317828      -0.38317828      -0.50000000 </v>
   <v>      -0.32826712      -0.44576022       0.41691983 </v>
   <v>      -0.27609443       0.49999998      -0.50000000 </v>
   <v>      -0.38804722      -0.38804722       0.34167483 </v>
   <v>      -0.38250685      -0.49999995      -0.34021320 </v>
   <v>       0.44576027      -0.32826707       0.41691983 </v>
   <v>      -0.38317828      -0.38317828      -0.50000000 </v>
   <v>      -0.45113753      -0.34824757       0.32330153 </v>
   <v>      -0.32826712      -0.44576022      -0.41691977 </v>
   <v>      -0.44576027      -0.32826707       0.41691983 </v>
   <v>       0.38804722      -0.38804722      -0.34167487 </v>
   <v>      -0.50000000      -0.38250681      -0.34021320 </v>
   <v>       0.44576027      -0.32826707      -0.41691977 </v>
   <v>      -0.44341773      -0.32427213       0.29538483 </v>
   <v>      -0.44576027      -0.32826707      -0.41691977 </v>
   <v>      -0.50000000      -0.27609445       0.50000000 </v>
   <v>      -0.38804722      -0.38804722      -0.34167487 </v>
  </varray>
 </structure>
 <varray name="primitive_index" >
  <v type="int" >        1 </v>
  <v type="int" >        3 </v>
  <v type="int" >        5 </v>
  <v type="int" >        7 </v>
  <v type="int" >       15 </v>
  <v type="int" >       29 </v>
  <v type="int" >       28 </v>
  <v type="int" >       34 </v>
  <v type="int" >       21 </v>
  <v type="int" >       19 </v>
  <v type="int" >       22 </v>
  <v type="int" >       11 </v>
  <v type="int" >       36 </v>
  <v type="int" >       38 </v>
  <v type="int" >       52 </v>
  <v type="int" >       24 </v>
  <v type="int" >       32 </v>
  <v type="int" >       44 </v>
  <v type="int" >       48 </v>
  <v type="int" >       42 </v>
  <v type="int" >       43 </v>
  <v type="int" >       40 </v>
  <v type="int" >        6 </v>
  <v type="int" >        4 </v>
  <v type="int" >       30 </v>
  <v type="int" >       26 </v>
  <v type="int" >        8 </v>
  <v type="int" >       16 </v>
  <v type="int" >       49 </v>
  <v type="int" >       47 </v>
  <v type="int" >       53 </v>
  <v type="int" >       12 </v>
  <v type="int" >       13 </v>
  <v type="int" >       33 </v>
  <v type="int" >       25 </v>
  <v type="int" >       45 </v>
  <v type="int" >       50 </v>
  <v type="int" >       55 </v>
  <v type="int" >       54 </v>
  <v type="int" >       39 </v>
  <v type="int" >       37 </v>
  <v type="int" >        2 </v>
  <v type="int" >        9 </v>
  <v type="int" >       17 </v>
  <v type="int" >       31 </v>
  <v type="int" >       27 </v>
  <v type="int" >       35 </v>
  <v type="int" >       56 </v>
  <v type="int" >       20 </v>
  <v type="int" >       23 </v>
  <v type="int" >       14 </v>
  <v type="int" >       51 </v>
  <v type="int" >       46 </v>
  <v type="int" >       57 </v>
  <v type="int" >       41 </v>
  <v type="int" >       10 </v>
  <v type="int" >       18 </v>
 </varray>
 <kpoints>
  <generation param="Monkhorst-Pack">
   <v type="int" name="divisions">       1        1        1 </v>
   <v name="usershift">      0.00000000       0.00000000       0.00000000 </v>
   <v name="genvec1">      1.00000000       0.00000000       0.00000000 </v>
   <v name="genvec2">      0.00000000       1.00000000       0.00000000 </v>
   <v name="genvec3">      0.00000000       0.00000000       1.00000000 </v>
   <v name="shift">      0.00000000       0.00000000       0.00000000 </v>
  </generation>
  <varray name="kpointlist" >
   <v>       0.00000000       0.00000000       0.00000000 </v>
  </varray>
  <varray name="weights" >
   <v>       1.00000000 </v>
  </varray>
 </kpoints>
 <parameters>
  <separator name="general" >
   <i type="string" name="SYSTEM">6_Pd100_top_free_z(O)</i>
   <i type="logical" name="LCOMPAT"> F  </i>
  </separator>
  <separator name="electronic" >
   <i type="string" name="PREC">normal</i>
   <i name="ENMAX">    400.00000000</i>
   <i name="ENAUG">    644.87300000</i>
   <i name="EDIFF">      0.00010000</i>
   <i type="int" name="IALGO">    68</i>
   <i type="int" name="IWAVPR">    10</i>
   <i type="int" name="NBANDS">   336</i>
   <i name="NELECT">    560.00000000</i>
   <i type="int" name="TURBO">     0</i>
   <i type="int" name="IRESTART">     0</i>
   <i type="int" name="NREBOOT">     0</i>
   <i type="int" name="NMIN">     0</i>
   <i name="EREF">      0.00000000</i>
   <separator name="electronic smearing" >
    <i type="int" name="ISMEAR">     2</i>
    <i name="SIGMA">      0.20000000</i>
    <i name="KSPACING">      0.50000000</i>
    <i type="logical" name="KGAMMA"> T  </i>
   </separator>
   <separator name="electronic projectors" >
    <i type="logical" name="LREAL"> T  </i>
    <v name="ROPT">     -0.00050000     -0.00050000     -0.00050000</v>
    <i type="int" name="LMAXPAW">  -100</i>
    <i type="int" name="LMAXMIX">     2</i>
    <i type="logical" name="NLSPLINE"> F  </i>
   </separator>
   <separator name="electronic startup" >
    <i type="int" name="ISTART">     0</i>
    <i type="int" name="ICHARG">     2</i>
    <i type="int" name="INIWAV">     1</i>
   </separator>
   <separator name="electronic spin" >
    <i type="int" name="ISPIN">     1</i>
    <i type="logical" name="LNONCOLLINEAR"> F  </i>
    <v name="MAGMOM">      1.00000000      1.00000000      1.00000000      1.00000000      1.00000000      1.00000000      1.00000000      1.00000000      1.00000000      1.00000000      1.00000000      1.00000000      1.00000000      1.00000000      1.00000000      1.00000000      1.00000000      1.00000000      1.00000000      1.00000000
      1.00000000      1.00000000      1.00000000      1.00000000      1.00000000      1.00000000      1.00000000      1.00000000      1.00000000      1.00000000      1.00000000      1.00000000      1.00000000      1.00000000      1.00000000      1.00000000      1.00000000      1.00000000      1.00000000      1.00000000
      1.00000000      1.00000000      1.00000000      1.00000000      1.00000000      1.00000000      1.00000000      1.00000000      1.00000000      1.00000000      1.00000000      1.00000000      1.00000000      1.00000000      1.00000000      1.00000000      1.00000000</v>
    <i name="NUPDOWN">     -1.00000000</i>
    <i type="logical" name="LSORBIT"> F  </i>
    <v name="SAXIS">      0.00000000      0.00000000      1.00000000</v>
    <i type="logical" name="LSPIRAL"> F  </i>
    <v name="QSPIRAL">      0.00000000      0.00000000      0.00000000</v>
    <i type="logical" name="LZEROZ"> F  </i>
   </separator>
   <separator name="electronic exchange-correlation" >
    <i type="logical" name="LASPH"> F  </i>
    <i type="logical" name="LMETAGGA"> F  </i>
   </separator>
   <separator name="electronic convergence" >
    <i type="int" name="NELM">   100</i>
    <i type="int" name="NELMDL">    -5</i>
    <i type="int" name="NELMIN">     6</i>
    <i name="ENINI">    400.00000000</i>
    <separator name="electronic convergence detail" >
     <i type="logical" name="LDIAG"> T  </i>
     <i type="logical" name="LSUBROT"> F  </i>
     <i name="WEIMIN">      0.00000000</i>
     <i name="EBREAK">      0.00000007</i>
     <i name="DEPER">      0.30000000</i>
     <i type="int" name="NRMM">     4</i>
     <i name="TIME">      0.40000000</i>
    </separator>
   </separator>
   <separator name="electronic mixer" >
    <i name="AMIX">      0.40000000</i>
    <i name="BMIX">      1.00000000</i>
    <i name="AMIN">      0.10000000</i>
    <i name="AMIX_MAG">      1.60000000</i>
    <i name="BMIX_MAG">      1.00000000</i>
    <separator name="electronic mixer details" >
     <i type="int" name="IMIX">     4</i>
     <i type="logical" name="MIXFIRST"> F  </i>
     <i type="int" name="MAXMIX">   -45</i>
     <i name="WC">    100.00000000</i>
     <i type="int" name="INIMIX">     1</i>
     <i type="int" name="MIXPRE">     1</i>
     <i type="int" name="MREMOVE">     5</i>
    </separator>
   </separator>
   <separator name="electronic dipolcorrection" >
    <i type="logical" name="LDIPOL"> F  </i>
    <i type="logical" name="LMONO"> F  </i>
    <i type="int" name="IDIPOL">     0</i>
    <i name="EPSILON">      1.00000000</i>
    <v name="DIPOL">   -100.00000000   -100.00000000   -100.00000000</v>
    <i name="EFIELD">      0.00000000</i>
   </separator>
  </separator>
  <separator name="grids" >
   <i type="int" name="NGX">   150</i>
   <i type="int" name="NGY">   150</i>
   <i type="int" name="NGZ">   150</i>
   <i type="int" name="NGXF">   300</i>
   <i type="int" name="NGYF">   300</i>
   <i type="int" name="NGZF">   300</i>
   <i type="logical" name="ADDGRID"> F  </i>
  </separator>
  <separator name="ionic" >
   <i type="int" name="NSW">     0</i>
   <i type="int" name="IBRION">    -1</i>
   <i type="int" name="MDALGO">     0</i>
   <i type="int" name="ISIF">     2</i>
   <i name="PSTRESS">      0.00000000</i>
   <i name="EDIFFG">     -0.05000000</i>
   <i type="int" name="NFREE">     1</i>
   <i name="POTIM">      0.50000000</i>
   <i name="SMASS">     -3.00000000</i>
   <i name="SCALEE">      1.00000000</i>
  </separator>
  <separator name="ionic md" >
   <i name="TEBEG">      0.00010000</i>
   <i name="TEEND">      0.00010000</i>
   <i type="int" name="NBLOCK">     1</i>
   <i type="int" name="KBLOCK">     1</i>
   <i type="int" name="NPACO">   256</i>
   <i name="APACO">     16.00000000</i>
  </separator>
  <separator name="symmetry" >
   <i type="int" name="ISYM">     2</i>
   <i name="SYMPREC">      0.00001000</i>
  </separator>
  <separator name="dos" >
   <i type="int" name="LORBIT">     0</i>
   <v name="RWIGS">     -1.00000000     -1.00000000     -1.00000000</v>
   <i type="int" name="NEDOS">   301</i>
   <i name="EMIN">     10.00000000</i>
   <i name="EMAX">    -10.00000000</i>
   <i name="EFERMI">      0.00000000</i>
  </separator>
  <separator name="writing" >
   <i type="int" name="NWRITE">     2</i>
   <i type="logical" name="LWAVE"> F  </i>
   <i type="logical" name="LDOWNSAMPLE"> F  </i>
   <i type="logical" name="LCHARG"> F  </i>
   <i type="logical" name="LPARD"> F  </i>
   <i type="logical" name="LVTOT"> F  </i>
   <i type="logical" name="LVHAR"> F  </i>
   <i type="logical" name="LELF"> F  </i>
   <i type="logical" name="LOPTICS"> F  </i>
   <v name="STM">      0.00000000      0.00000000      0.00000000      0.00000000      0.00000000      0.00000000      0.00000000</v>
  </separator>
  <separator name="performance" >
   <i type="int" name="NPAR">     1</i>
   <i type="int" name="NSIM">     4</i>
   <i type="int" name="NBLK">    -1</i>
   <i type="logical" name="LPLANE"> T  </i>
   <i type="logical" name="LSCALAPACK"> T  </i>
   <i type="logical" name="LSCAAWARE"> F  </i>
   <i type="logical" name="LSCALU"> F  </i>
   <i type="logical" name="LASYNC"> F  </i>
   <i type="logical" name="LORBITALREAL"> F  </i>
  </separator>
  <separator name="miscellaneous" >
   <i type="int" name="IDIOT">     3</i>
   <i type="int" name="ISPECIAL">     0</i>
   <i type="logical" name="LMUSIC"> F  </i>
   <v name="POMASS">    106.42000000     12.01100000     16.00000000</v>
   <v name="DARWINR">      0.00000000      0.00000000      0.00000000</v>
   <v name="DARWINV">      1.00000000      1.00000000      1.00000000</v>
   <i type="logical" name="LCORR"> T  </i>
  </separator>
  <i type="logical" name="GGA_COMPAT"> T  </i>
  <i type="logical" name="LBERRY"> F  </i>
  <i type="int" name="ICORELEVEL">     0</i>
  <i type="logical" name="LDAU"> F  </i>
  <i type="int" name="I_CONSTRAINED_M">     0</i>
  <separator name="electronic exchange-correlation" >
   <i type="string" name="GGA">RP</i>
   <i type="int" name="VOSKOWN">     0</i>
   <i type="logical" name="LHFCALC"> F  </i>
   <i type="string" name="PRECFOCK"></i>
   <i type="logical" name="LSYMGRAD"> F  </i>
   <i type="logical" name="LHFONE"> F  </i>
   <i type="logical" name="LRHFCALC"> F  </i>
   <i type="logical" name="LTHOMAS"> F  </i>
   <i type="logical" name="LMODELHF"> F  </i>
   <i name="ENCUT4O">     -1.00000000</i>
   <i type="int" name="EXXOEP">     0</i>
   <i type="int" name="FOURORBIT">     0</i>
   <i name="AEXX">      0.00000000</i>
   <i name="HFALPHA">      0.00000000</i>
   <i name="MCALPHA">      0.00000000</i>
   <i name="ALDAX">      1.00000000</i>
   <i name="AGGAX">      1.00000000</i>
   <i name="ALDAC">      1.00000000</i>
   <i name="AGGAC">      1.00000000</i>
   <i type="int" name="NKREDX">     1</i>
   <i type="int" name="NKREDY">     1</i>
   <i type="int" name="NKREDZ">     1</i>
   <i type="logical" name="SHIFTRED"> F  </i>
   <i type="logical" name="ODDONLY"> F  </i>
   <i type="logical" name="EVENONLY"> F  </i>
   <i type="int" name="LMAXFOCK">     0</i>
   <i type="int" name="NMAXFOCKAE">     0</i>
   <i type="logical" name="LFOCKAEDFT"> F  </i>
   <i name="HFSCREEN">      0.00000000</i>
   <i name="HFSCREENC">      0.00000000</i>
   <i type="int" name="NBANDSGWLOW">     0</i>
  </separator>
  <separator name="vdW DFT" >
   <i type="logical" name="LUSE_VDW"> F  </i>
   <i name="Zab_VDW">     -0.84910000</i>
   <i name="PARAM1">      0.12340000</i>
   <i name="PARAM2">      1.00000000</i>
   <i name="PARAM3">      0.00000000</i>
  </separator>
  <separator name="model GW" >
   <i type="int" name="MODEL_GW">     0</i>
   <i name="MODEL_EPS0">    284.21052632</i>
   <i name="MODEL_ALPHA">      1.00000000</i>
  </separator>
  <separator name="linear response parameters" >
   <i type="logical" name="LEPSILON"> F  </i>
   <i type="logical" name="LRPA"> F  </i>
   <i type="logical" name="LNABLA"> F  </i>
   <i type="logical" name="LVEL"> F  </i>
   <i type="int" name="KINTER">     0</i>
   <i name="CSHIFT">      0.10000000</i>
   <i name="OMEGAMAX">     -1.00000000</i>
   <i name="DEG_THRESHOLD">      0.00200000</i>
   <i name="RTIME">     -0.10000000</i>
   <i name="WPLASMAI">      0.00000000</i>
   <v name="DFIELD">      0.00000000      0.00000000      0.00000000</v>
   <v name="WPLASMA">      0.00000000      0.00000000      0.00000000      0.00000000      0.00000000      0.00000000      0.00000000      0.00000000      0.00000000</v>
  </separator>
  <separator name="orbital magnetization" >
   <i type="logical" name="NUCIND"> F  </i>
   <v name="MAGPOS">      0.00000000      0.00000000      0.00000000</v>
   <i type="logical" name="LNICSALL"> T  </i>
   <i type="logical" name="ORBITALMAG"> F  </i>
   <i type="logical" name="LMAGBLOCH"> F  </i>
   <i type="logical" name="LCHIMAG"> F  </i>
   <i type="logical" name="LGAUGE"> T  </i>
   <i type="int" name="MAGATOM">     0</i>
   <v name="MAGDIPOL">      0.00000000      0.00000000      0.00000000</v>
   <v name="AVECCONST">      0.00000000      0.00000000      0.00000000</v>
  </separator>
  <separator name="response functions" >
   <i type="logical" name="LADDER"> F  </i>
   <i type="logical" name="LRPAFORCE"> F  </i>
   <i type="logical" name="LFXC"> F  </i>
   <i type="logical" name="LHARTREE"> T  </i>
   <i type="int" name="IBSE">     0</i>
   <v type="int" name="KPOINT">    -1     0     0     0</v>
   <i type="logical" name="LTCTE"> F  </i>
   <i type="logical" name="LTETE"> F  </i>
   <i type="logical" name="LTRIPLET"> F  </i>
   <i type="logical" name="LFXCEPS"> F  </i>
   <i type="logical" name="LFXHEG"> F  </i>
   <i type="int" name="NATURALO">     2</i>
   <i type="logical" name="L2ORDER"> F  </i>
   <i type="logical" name="LMP2LT"> F  </i>
   <i type="logical" name="LUSEW"> F  </i>
   <i name="ENCUTGW">     -2.00000000</i>
   <i name="ENCUTGWSOFT">     -2.00000000</i>
   <i name="ENCUTLF">     -1.00000000</i>
   <i type="int" name="LMAXMP2">    -1</i>
   <i name="SCISSOR">      0.00000000</i>
   <i type="int" name="NOMEGA">     0</i>
   <i type="int" name="NOMEGAR">     0</i>
   <i type="int" name="NBANDSGW">    -1</i>
   <i type="int" name="NBANDSO">    -1</i>
   <i type="int" name="NBANDSV">    -1</i>
   <i type="int" name="NELM">   100</i>
   <i type="int" name="NELMHF">     1</i>
   <i type="int" name="DIM">     3</i>
   <i type="int" name="ANTIRES">     0</i>
   <i name="OMEGAMAX">    -30.00000000</i>
   <i name="OMEGAMIN">    -30.00000000</i>
   <i name="OMEGATL">   -200.00000000</i>
   <i type="int" name="OMEGAGRID">   140</i>
   <i name="CSHIFT">     -0.10000000</i>
   <i type="logical" name="SELFENERGY"> F  </i>
   <i type="logical" name="LSPECTRAL"> F  </i>
   <i type="logical" name="LSPECTRALGW"> F  </i>
   <i type="logical" name="LSINGLES"> F  </i>
   <i type="logical" name="LFERMIGW"> F  </i>
   <i type="logical" name="ODDONLYGW"> F  </i>
   <i type="logical" name="EVENONLYGW"> F  </i>
   <i type="int" name="NKREDLFX">     1</i>
   <i type="int" name="NKREDLFY">     1</i>
   <i type="int" name="NKREDLFZ">     1</i>
   <i type="int" name="MAXMEM"> 10000</i>
   <i type="int" name="TELESCOPE">     0</i>
   <i type="int" name="TAUPAR">     1</i>
   <i type="int" name="OMEGAPAR">    -1</i>
   <i name="LAMBDA">      1.00000000</i>
  </separator>
  <separator name="External order field" >
   <i name="OFIELD_KAPPA">      0.00000000</i>
   <v name="OFIELD_K">      0.00000000      0.00000000      0.00000000</v>
   <i name="OFIELD_Q6_NEAR">      0.00000000</i>
   <i name="OFIELD_Q6_FAR">      0.00000000</i>
   <i name="OFIELD_A">      0.00000000</i>
  </separator>
 </parameters>
 <atominfo>
  <atoms>      57 </atoms>
  <types>       3 </types>
  <array name="atoms" >
   <dimension dim="1">ion</dimension>
   <field type="string">element</field>
   <field type="int">atomtype</field>
   <set>
    <rc><c>Pd</c><c>   1</c></rc>
    <rc><c>Pd</c><c>   1</c></rc>
    <rc><c>Pd</c><c>   1</c></rc>
    <rc><c>Pd</c><c>   1</c></rc>
    <rc><c>Pd</c><c>   1</c></rc>
    <rc><c>Pd</c><c>   1</c></rc>
    <rc><c>Pd</c><c>   1</c></rc>
    <rc><c>Pd</c><c>   1</c></rc>
    <rc><c>Pd</c><c>   1</c></rc>
    <rc><c>Pd</c><c>   1</c></rc>
    <rc><c>Pd</c><c>   1</c></rc>
    <rc><c>Pd</c><c>   1</c></rc>
    <rc><c>Pd</c><c>   1</c></rc>
    <rc><c>Pd</c><c>   1</c></rc>
    <rc><c>Pd</c><c>   1</c></rc>
    <rc><c>Pd</c><c>   1</c></rc>
    <rc><c>Pd</c><c>   1</c></rc>
    <rc><c>Pd</c><c>   1</c></rc>
    <rc><c>Pd</c><c>   1</c></rc>
    <rc><c>Pd</c><c>   1</c></rc>
    <rc><c>Pd</c><c>   1</c></rc>
    <rc><c>Pd</c><c>   1</c></rc>
    <rc><c>Pd</c><c>   1</c></rc>
    <rc><c>Pd</c><c>   1</c></rc>
    <rc><c>Pd</c><c>   1</c></rc>
    <rc><c>Pd</c><c>   1</c></rc>
    <rc><c>Pd</c><c>   1</c></rc>
    <rc><c>Pd</c><c>   1</c></rc>
    <rc><c>Pd</c><c>   1</c></rc>
    <rc><c>Pd</c><c>   1</c></rc>
    <rc><c>Pd</c><c>   1</c></rc>
    <rc><c>Pd</c><c>   1</c></rc>
    <rc><c>Pd</c><c>   1</c></rc>
    <rc><c>Pd</c><c>   1</c></rc>
    <rc><c>Pd</c><c>   1</c></rc>
    <rc><c>Pd</c><c>   1</c></rc>
    <rc><c>Pd</c><c>   1</c></rc>
    <rc><c>Pd</c><c>   1</c></rc>
    <rc><c>Pd</c><c>   1</c></rc>
    <rc><c>Pd</c><c>   1</c></rc>
    <rc><c>Pd</c><c>   1</c></rc>
    <rc><c>Pd</c><c>   1</c></rc>
    <rc><c>Pd</c><c>   1</c></rc>
    <rc><c>Pd</c><c>   1</c></rc>
    <rc><c>Pd</c><c>   1</c></rc>
    <rc><c>Pd</c><c>   1</c></rc>
    <rc><c>Pd</c><c>   1</c></rc>
    <rc><c>Pd</c><c>   1</c></rc>
    <rc><c>Pd</c><c>   1</c></rc>
    <rc><c>Pd</c><c>   1</c></rc>
    <rc><c>Pd</c><c>   1</c></rc>
    <rc><c>Pd</c><c>   1</c></rc>
    <rc><c>Pd</c><c>   1</c></rc>
    <rc><c>Pd</c><c>   1</c></rc>
    <rc><c>Pd</c><c>   1</c></rc>
    <rc><c>C </c><c>   2</c></rc>
    <rc><c>O </c><c>   3</c></rc>
   </set>
  </array>
  <array name="atomtypes" >
   <dimension dim="1">type</dimension>
   <field type="int">atomspertype</field>
   <field type="string">element</field>
   <field>mass</field>
   <field>valence</field>
   <field type="string">pseudopotential</field>
   <set>
    <rc><c>  55</c><c>Pd</c><c>    106.42000000</c><c>     10.00000000</c><c>  PAW_PBE Pd 04Jan2005                  </c></rc>
    <rc><c>   1</c><c>C </c><c>     12.01100000</c><c>      4.00000000</c><c>  PAW_PBE C 08Apr2002                   </c></rc>
    <rc><c>   1</c><c>O </c><c>     16.00000000</c><c>      6.00000000</c><c>  PAW_PBE O 08Apr2002                   </c></rc>
   </set>
  </array>
 </atominfo>
 <structure name="initialpos" >
  <crystal>
   <varray name="basis" >
    <v>      30.00000000       0.00000000       0.00000000 </v>
    <v>       0.00000000      30.00000000       0.00000000 </v>
    <v>       0.00000000       0.00000000      30.00000000 </v>
   </varray>
   <i name="volume">  27000.00000000 </i>
   <varray name="rec_basis" >
    <v>       0.03333333       0.00000000       0.00000000 </v>
    <v>       0.00000000       0.03333333       0.00000000 </v>
    <v>       0.00000000       0.00000000       0.03333333 </v>
   </varray>
  </crystal>
  <varray name="positions" >
   <v>       0.44576020       0.32826710       0.41691983 </v>
   <v>       0.67173288       0.55423978       0.41691983 </v>
   <v>       0.55423980       0.32826710       0.41691983 </v>
   <v>       0.32826712       0.55423978       0.41691983 </v>
   <v>       0.50000000       0.38250690       0.34021317 </v>
   <v>       0.50000000       0.38250690       0.65978680 </v>
   <v>       0.50000000       0.27609440       0.50000000 </v>
   <v>       0.27609443       0.49999998       0.50000000 </v>
   <v>       0.72390557       0.49999998       0.50000000 </v>
   <v>       0.50000000       0.72390555       0.50000000 </v>
   <v>       0.61195280       0.38804720       0.34167483 </v>
   <v>       0.61195280       0.38804720       0.65832513 </v>
   <v>       0.38804722       0.61195278       0.34167483 </v>
   <v>       0.38804722       0.61195278       0.65832513 </v>
   <v>       0.38804720       0.38804720       0.34167483 </v>
   <v>       0.38804720       0.38804720       0.65832513 </v>
   <v>       0.61195278       0.61195278       0.34167483 </v>
   <v>       0.61195278       0.61195278       0.65832513 </v>
   <v>       0.44576020       0.32826710       0.58308023 </v>
   <v>       0.67173288       0.55423978       0.58308023 </v>
   <v>       0.55791699       0.44208301       0.41809300 </v>
   <v>       0.32826705       0.44576024       0.41691983 </v>
   <v>       0.55423973       0.67173293       0.41691983 </v>
   <v>       0.55423980       0.32826710       0.58308023 </v>
   <v>       0.32826712       0.55423978       0.58308023 </v>
   <v>       0.67173295       0.44576024       0.41691983 </v>
   <v>       0.44576027       0.67173293       0.41691983 </v>
   <v>       0.44208301       0.44208301       0.41809300 </v>
   <v>       0.50000000       0.38416601       0.50000000 </v>
   <v>       0.61749315       0.50000005       0.34021317 </v>
   <v>       0.61749315       0.50000005       0.65978680 </v>
   <v>       0.38250685       0.50000005       0.34021317 </v>
   <v>       0.38250685       0.50000005       0.65978680 </v>
   <v>       0.38317830       0.38317830       0.50000000 </v>
   <v>       0.61682172       0.61682172       0.50000000 </v>
   <v>       0.61682170       0.38317830       0.50000000 </v>
   <v>       0.38317828       0.61682172       0.50000000 </v>
   <v>       0.50000000       0.50000000       0.33478917 </v>
   <v>       0.50000000       0.50000000       0.66521087 </v>
   <v>       0.32826705       0.44576024       0.58308023 </v>
   <v>       0.55423973       0.67173293       0.58308023 </v>
   <v>       0.55791699       0.44208301       0.58190703 </v>
   <v>       0.44208298       0.55791702       0.41809300 </v>
   <v>       0.44208301       0.44208301       0.58190703 </v>
   <v>       0.67173295       0.44576024       0.58308023 </v>
   <v>       0.44576027       0.67173293       0.58308023 </v>
   <v>       0.55791702       0.55791702       0.41809300 </v>
   <v>       0.38416599       0.50000002       0.50000000 </v>
   <v>       0.61583401       0.50000002       0.50000000 </v>
   <v>       0.50000000       0.61749319       0.34021317 </v>
   <v>       0.50000000       0.61749319       0.65978680 </v>
   <v>       0.50000000       0.50000000       0.50000000 </v>
   <v>       0.44208298       0.55791702       0.58190703 </v>
   <v>       0.55791702       0.55791702       0.58190703 </v>
   <v>       0.50000000       0.61583404       0.50000000 </v>
   <v>       0.54886247       0.65175243       0.32330153 </v>
   <v>       0.55658227       0.67572787       0.29538483 </v>
  </varray>
  <varray name="selective"  type="logical" >
   <v type="logical" >  F  F  F </v>
   <v type="logical" >  F  F  F </v>
   <v type="logical" >  F  F  F </v>
   <v type="logical" >  F  F  F </v>
   <v type="logical" >  F  F  F </v>
   <v type="logical" >  F  F  F </v>
   <v type="logical" >  F  F  F </v>
   <v type="logical" >  F  F  F </v>
   <v type="logical" >  F  F  F </v>
   <v type="logical" >  F  F  F </v>
   <v type="logical" >  F  F  F </v>
   <v type="logical" >  F  F  F </v>
   <v type="logical" >  F  F  F </v>
   <v type="logical" >  F  F  F </v>
   <v type="logical" >  F  F  F </v>
   <v type="logical" >  F  F  F </v>
   <v type="logical" >  F  F  F </v>
   <v type="logical" >  F  F  F </v>
   <v type="logical" >  F  F  F </v>
   <v type="logical" >  F  F  F </v>
   <v type="logical" >  F  F  F </v>
   <v type="logical" >  F  F  F </v>
   <v type="logical" >  F  F  F </v>
   <v type="logical" >  F  F  F </v>
   <v type="logical" >  F  F  F </v>
   <v type="logical" >  F  F  F </v>
   <v type="logical" >  F  F  F </v>
   <v type="logical" >  F  F  F </v>
   <v type="logical" >  F  F  F </v>
   <v type="logical" >  F  F  F </v>
   <v type="logical" >  F  F  F </v>
   <v type="logical" >  F  F  F </v>
   <v type="logical" >  F  F  F </v>
   <v type="logical" >  F  F  F </v>
   <v type="logical" >  F  F  F </v>
   <v type="logical" >  F  F  F </v>
   <v type="logical" >  F  F  F </v>
   <v type="logical" >  F  F  F </v>
   <v type="logical" >  F  F  F </v>
   <v type="logical" >  F  F  F </v>
   <v type="logical" >  F  F  F </v>
   <v type="logical" >  F  F  F </v>
   <v type="logical" >  F  F  F </v>
   <v type="logical" >  F  F  F </v>
   <v type="logical" >  F  F  F </v>
   <v type="logical" >  F  F  F </v>
   <v type="logical" >  F  F  F </v>
   <v type="logical" >  F  F  F </v>
   <v type="logical" >  F  F  F </v>
   <v type="logical" >  F  F  F </v>
   <v type="logical" >  F  F  F </v>
   <v type="logical" >  F  F  F </v>
   <v type="logical" >  F  F  F </v>
   <v type="logical" >  F  F  F </v>
   <v type="logical" >  F  F  F </v>
   <v type="logical" >  F  F  F </v>
   <v type="logical" >  F  F  F </v>
  </varray>
  <nose>
   <v>      -3.00000000       0.00000000       0.00010000       0.00010000 </v>
  </nose>
 </structure>
 <calculation>
  <scstep>
   <time name="dav">  367.43  367.51</time>
   <time name="total">  382.05  382.13</time>
   <energy>
    <i name="alphaZ">     75.25431677 </i>
    <i name="ewald"> 138671.00954045 </i>
    <i name="hartreedc">-182025.58937876 </i>
    <i name="XCdc">  -1702.24208799 </i>
    <i name="pawpsdc">  44873.02882129 </i>
    <i name="pawaedc"> -41398.84523641 </i>
    <i name="eentropy">     -0.00553615 </i>
    <i name="bandstr">    815.37549220 </i>
    <i name="atom">  45086.50549395 </i>
    <i name="e_fr_energy">   4394.49142535 </i>
    <i name="e_wo_entrp">   4394.49696151 </i>
    <i name="e_0_energy">   4394.49280939 </i>
   </energy>
  </scstep>
  <scstep>
   <time name="dav">  589.07  589.09</time>
   <time name="total">  589.08  589.09</time>
   <energy>
    <i name="e_fr_energy">   2007.95970619 </i>
    <i name="e_wo_entrp">   2007.99997571 </i>
    <i name="e_0_energy">   2007.96977357 </i>
   </energy>
  </scstep>
  <scstep>
   <time name="dav">  499.18  499.20</time>
   <time name="total">  499.19  499.20</time>
   <energy>
    <i name="e_fr_energy">    228.82352386 </i>
    <i name="e_wo_entrp">    228.78360884 </i>
    <i name="e_0_energy">    228.81354510 </i>
   </energy>
  </scstep>
  <scstep>
   <time name="dav">  428.66  428.67</time>
   <time name="total">  428.66  428.67</time>
   <energy>
    <i name="e_fr_energy">   -137.67845693 </i>
    <i name="e_wo_entrp">   -137.71302479 </i>
    <i name="e_0_energy">   -137.68709889 </i>
   </energy>
  </scstep>
  <scstep>
   <time name="dav">  510.83  510.84</time>
   <time name="total">  537.22  537.23</time>
   <energy>
    <i name="e_fr_energy">   -180.94261496 </i>
    <i name="e_wo_entrp">   -181.49492444 </i>
    <i name="e_0_energy">   -181.08069233 </i>
   </energy>
  </scstep>
  <scstep>
   <time name="diag">   69.02   69.03</time>
   <time name="diis">  190.55  190.56</time>
   <time name="orth">   13.80   13.80</time>
   <time name="total">  313.59  313.60</time>
   <energy>
    <i name="e_fr_energy">   -181.41509147 </i>
    <i name="e_wo_entrp">   -181.27949048 </i>
    <i name="e_0_energy">   -181.38119122 </i>
   </energy>
  </scstep>
  <scstep>
   <time name="diag">   69.18   69.19</time>
   <time name="diis">  225.45  225.45</time>
   <time name="orth">   13.87   13.87</time>
   <time name="total">  348.49  348.50</time>
   <energy>
    <i name="e_fr_energy">   -183.86826162 </i>
    <i name="e_wo_entrp">   -183.80937761 </i>
    <i name="e_0_energy">   -183.85354062 </i>
   </energy>
  </scstep>
  <scstep>
   <time name="diag">   68.57   68.57</time>
   <time name="diis">  204.43  204.43</time>
   <time name="orth">   13.53   13.53</time>
   <time name="total">  326.25  326.26</time>
   <energy>
    <i name="e_fr_energy">   -185.96377402 </i>
    <i name="e_wo_entrp">   -185.85276722 </i>
    <i name="e_0_energy">   -185.93602232 </i>
   </energy>
  </scstep>
  <scstep>
   <time name="diag">   68.64   68.64</time>
   <time name="diis">  196.20  196.21</time>
   <time name="orth">   13.42   13.42</time>
   <time name="total">  317.75  317.76</time>
   <energy>
    <i name="e_fr_energy">   -184.60609655 </i>
    <i name="e_wo_entrp">   -184.43881094 </i>
    <i name="e_0_energy">   -184.56427515 </i>
   </energy>
  </scstep>
  <scstep>
   <time name="diag">   68.32   68.32</time>
   <time name="diis">  196.19  196.19</time>
   <time name="orth">   13.49   13.49</time>
   <time name="total">  317.40  317.41</time>
   <energy>
    <i name="e_fr_energy">   -182.27281111 </i>
    <i name="e_wo_entrp">   -182.13146623 </i>
    <i name="e_0_energy">   -182.23747489 </i>
   </energy>
  </scstep>
  <scstep>
   <time name="diag">   68.34   68.34</time>
   <time name="diis">  193.92  193.92</time>
   <time name="orth">   13.70   13.70</time>
   <time name="total">  315.25  315.25</time>
   <energy>
    <i name="e_fr_energy">   -179.60917313 </i>
    <i name="e_wo_entrp">   -179.57047406 </i>
    <i name="e_0_energy">   -179.59949836 </i>
   </energy>
  </scstep>
  <scstep>
   <time name="diag">   68.14   68.15</time>
   <time name="diis">  191.85  191.85</time>
   <time name="orth">   13.71   13.71</time>
   <time name="total">  312.69  312.70</time>
   <energy>
    <i name="e_fr_energy">   -178.29948438 </i>
    <i name="e_wo_entrp">   -178.24225514 </i>
    <i name="e_0_energy">   -178.28517707 </i>
   </energy>
  </scstep>
  <scstep>
   <time name="diag">   68.07   68.07</time>
   <time name="diis">  193.14  193.15</time>
   <time name="orth">   13.34   13.34</time>
   <time name="total">  314.02  314.03</time>
   <energy>
    <i name="e_fr_energy">   -178.41572229 </i>
    <i name="e_wo_entrp">   -178.35565433 </i>
    <i name="e_0_energy">   -178.40070530 </i>
   </energy>
  </scstep>
  <scstep>
   <time name="diag">   69.04   69.04</time>
   <time name="diis">  194.17  194.18</time>
   <time name="orth">   13.55   13.55</time>
   <time name="total">  315.82  315.83</time>
   <energy>
    <i name="e_fr_energy">   -178.07479042 </i>
    <i name="e_wo_entrp">   -177.95871087 </i>
    <i name="e_0_energy">   -178.04577053 </i>
   </energy>
  </scstep>
  <scstep>
   <time name="diag">   69.43   69.43</time>
   <time name="diis">  190.65  190.65</time>
   <time name="orth">   13.45   13.45</time>
   <time name="total">  312.43  312.44</time>
   <energy>
    <i name="e_fr_energy">   -177.79709502 </i>
    <i name="e_wo_entrp">   -177.66990311 </i>
    <i name="e_0_energy">   -177.76529705 </i>
   </energy>
  </scstep>
  <scstep>
   <time name="diag">   68.68   68.68</time>
   <time name="diis">  192.50  192.50</time>
   <time name="orth">   13.42   13.42</time>
   <time name="total">  313.72  313.73</time>
   <energy>
    <i name="e_fr_energy">   -176.97708991 </i>
    <i name="e_wo_entrp">   -176.94281121 </i>
    <i name="e_0_energy">   -176.96852023 </i>
   </energy>
  </scstep>
  <scstep>
   <time name="diag">   68.72   68.72</time>
   <time name="diis">  192.48  192.52</time>
   <time name="orth">   13.41   13.41</time>
   <time name="total">  314.08  314.12</time>
   <energy>
    <i name="e_fr_energy">   -176.44314887 </i>
    <i name="e_wo_entrp">   -176.37941254 </i>
    <i name="e_0_energy">   -176.42721479 </i>
   </energy>
  </scstep>
  <scstep>
   <time name="diag">   68.73   68.74</time>
   <time name="diis">  194.59  194.61</time>
   <time name="orth">   13.38   13.38</time>
   <time name="total">  316.15  316.18</time>
   <energy>
    <i name="e_fr_energy">   -176.17483342 </i>
    <i name="e_wo_entrp">   -176.15559016 </i>
    <i name="e_0_energy">   -176.17002260 </i>
   </energy>
  </scstep>
  <scstep>
   <time name="diag">   68.39   68.40</time>
   <time name="diis">  189.47  189.48</time>
   <time name="orth">   13.72   13.72</time>
   <time name="total">  310.73  310.75</time>
   <energy>
    <i name="e_fr_energy">   -176.13900412 </i>
    <i name="e_wo_entrp">   -176.13952436 </i>
    <i name="e_0_energy">   -176.13913418 </i>
   </energy>
  </scstep>
  <scstep>
   <time name="diag">   68.27   68.27</time>
   <time name="diis">  189.98  189.99</time>
   <time name="orth">   13.51   13.51</time>
   <time name="total">  311.08  311.08</time>
   <energy>
    <i name="e_fr_energy">   -176.23516647 </i>
    <i name="e_wo_entrp">   -176.25982777 </i>
    <i name="e_0_energy">   -176.24133179 </i>
   </energy>
  </scstep>
  <scstep>
   <time name="diag">   68.68   68.68</time>
   <time name="diis">  189.22  189.22</time>
   <time name="orth">   13.74   13.74</time>
   <time name="total">  311.54  311.55</time>
   <energy>
    <i name="e_fr_energy">   -175.91925253 </i>
    <i name="e_wo_entrp">   -175.89995340 </i>
    <i name="e_0_energy">   -175.91442775 </i>
   </energy>
  </scstep>
  <scstep>
   <time name="diag">   68.68   68.68</time>
   <time name="diis">  186.51  186.51</time>
   <time name="orth">   13.58   13.58</time>
   <time name="total">  308.91  308.92</time>
   <energy>
    <i name="e_fr_energy">   -175.72351106 </i>
    <i name="e_wo_entrp">   -175.66447985 </i>
    <i name="e_0_energy">   -175.70875326 </i>
   </energy>
  </scstep>
  <scstep>
   <time name="diag">   68.00   68.00</time>
   <time name="diis">  186.73  186.74</time>
   <time name="orth">   13.52   13.52</time>
   <time name="total">  307.87  307.87</time>
   <energy>
    <i name="e_fr_energy">   -175.75291871 </i>
    <i name="e_wo_entrp">   -175.67009320 </i>
    <i name="e_0_energy">   -175.73221234 </i>
   </energy>
  </scstep>
  <scstep>
   <time name="diag">   68.51   68.51</time>
   <time name="diis">  186.87  186.87</time>
   <time name="orth">   13.62   13.62</time>
   <time name="total">  309.18  309.19</time>
   <energy>
    <i name="e_fr_energy">   -175.67088908 </i>
    <i name="e_wo_entrp">   -175.59442933 </i>
    <i name="e_0_energy">   -175.65177414 </i>
   </energy>
  </scstep>
  <scstep>
   <time name="diag">   68.83   68.83</time>
   <time name="diis">  184.44  184.44</time>
   <time name="orth">   13.62   13.62</time>
   <time name="total">  307.50  307.50</time>
   <energy>
    <i name="e_fr_energy">   -175.56913839 </i>
    <i name="e_wo_entrp">   -175.48675955 </i>
    <i name="e_0_energy">   -175.54854368 </i>
   </energy>
  </scstep>
  <scstep>
   <time name="diag">   68.60   68.60</time>
   <time name="diis">  185.52  185.53</time>
   <time name="orth">   13.57   13.57</time>
   <time name="total">  307.74  307.75</time>
   <energy>
    <i name="e_fr_energy">   -175.53369754 </i>
    <i name="e_wo_entrp">   -175.46376050 </i>
    <i name="e_0_energy">   -175.51621328 </i>
   </energy>
  </scstep>
  <scstep>
   <time name="diag">   68.07   68.07</time>
   <time name="diis">  184.75  184.76</time>
   <time name="orth">   13.60   13.60</time>
   <time name="total">  306.81  306.82</time>
   <energy>
    <i name="e_fr_energy">   -175.49280353 </i>
    <i name="e_wo_entrp">   -175.41953202 </i>
    <i name="e_0_energy">   -175.47448565 </i>
   </energy>
  </scstep>
  <scstep>
   <time name="diag">   68.45   68.45</time>
   <time name="diis">  184.09  184.10</time>
   <time name="orth">   13.58   13.58</time>
   <time name="total">  306.72  306.73</time>
   <energy>
    <i name="e_fr_energy">   -175.46437391 </i>
    <i name="e_wo_entrp">   -175.38240332 </i>
    <i name="e_0_energy">   -175.44388126 </i>
   </energy>
  </scstep>
  <scstep>
   <time name="diag">   67.84   67.84</time>
   <time name="diis">  179.95  179.95</time>
   <time name="orth">   13.45   13.45</time>
   <time name="total">  301.79  301.80</time>
   <energy>
    <i name="e_fr_energy">   -175.46269104 </i>
    <i name="e_wo_entrp">   -175.37715475 </i>
    <i name="e_0_energy">   -175.44130697 </i>
   </energy>
  </scstep>
  <scstep>
   <time name="diag">   68.51   68.51</time>
   <time name="diis">  183.99  184.00</time>
   <time name="orth">   13.52   13.52</time>
   <time name="total">  306.83  306.84</time>
   <energy>
    <i name="e_fr_energy">   -175.43990135 </i>
    <i name="e_wo_entrp">   -175.34855092 </i>
    <i name="e_0_energy">   -175.41706374 </i>
   </energy>
  </scstep>
  <scstep>
   <time name="diag">   68.02   68.02</time>
   <time name="diis">  184.89  184.89</time>
   <time name="orth">   13.58   13.58</time>
   <time name="total">  307.54  307.55</time>
   <energy>
    <i name="e_fr_energy">   -175.42992650 </i>
    <i name="e_wo_entrp">   -175.34351737 </i>
    <i name="e_0_energy">   -175.40832422 </i>
   </energy>
  </scstep>
  <scstep>
   <time name="diag">   68.29   68.29</time>
   <time name="diis">  182.60  182.61</time>
   <time name="orth">   13.30   13.30</time>
   <time name="total">  304.94  304.94</time>
   <energy>
    <i name="e_fr_energy">   -175.42713096 </i>
    <i name="e_wo_entrp">   -175.34262659 </i>
    <i name="e_0_energy">   -175.40600486 </i>
   </energy>
  </scstep>
  <scstep>
   <time name="diag">   68.09   68.09</time>
   <time name="diis">  182.53  182.53</time>
   <time name="orth">   13.59   13.59</time>
   <time name="total">  304.84  304.85</time>
   <energy>
    <i name="e_fr_energy">   -175.42353498 </i>
    <i name="e_wo_entrp">   -175.33870100 </i>
    <i name="e_0_energy">   -175.40232649 </i>
   </energy>
  </scstep>
  <scstep>
   <time name="diag">   69.03   69.03</time>
   <time name="diis">  181.50  181.50</time>
   <time name="orth">   13.71   13.71</time>
   <time name="total">  305.61  305.61</time>
   <energy>
    <i name="e_fr_energy">   -175.42293975 </i>
    <i name="e_wo_entrp">   -175.34185163 </i>
    <i name="e_0_energy">   -175.40266772 </i>
   </energy>
  </scstep>
  <scstep>
   <time name="diag">   69.28   69.28</time>
   <time name="diis">  180.34  180.35</time>
   <time name="orth">   13.75   13.75</time>
   <time name="total">  304.98  304.98</time>
   <energy>
    <i name="e_fr_energy">   -175.42214615 </i>
    <i name="e_wo_entrp">   -175.33839653 </i>
    <i name="e_0_energy">   -175.40120875 </i>
   </energy>
  </scstep>
  <scstep>
   <time name="diag">   68.03   68.04</time>
   <time name="diis">  181.55  181.55</time>
   <time name="orth">   13.24   13.24</time>
   <time name="total">  304.48  304.49</time>
   <energy>
    <i name="e_fr_energy">   -175.42234414 </i>
    <i name="e_wo_entrp">   -175.33843967 </i>
    <i name="e_0_energy">   -175.40136802 </i>
   </energy>
  </scstep>
  <scstep>
   <time name="diag">   67.91   67.91</time>
   <time name="diis">  182.13  182.13</time>
   <time name="orth">   13.26   13.26</time>
   <time name="total">  304.40  304.40</time>
   <energy>
    <i name="e_fr_energy">   -175.42482204 </i>
    <i name="e_wo_entrp">   -175.34236030 </i>
    <i name="e_0_energy">   -175.40420661 </i>
   </energy>
  </scstep>
  <scstep>
   <time name="diag">   68.42   68.42</time>
   <time name="diis">  183.97  183.98</time>
   <time name="orth">   13.57   13.58</time>
   <time name="total">  307.53  307.55</time>
   <energy>
    <i name="e_fr_energy">   -175.42627117 </i>
    <i name="e_wo_entrp">   -175.34303473 </i>
    <i name="e_0_energy">   -175.40546206 </i>
   </energy>
  </scstep>
  <scstep>
   <time name="diag">   69.13   69.13</time>
   <time name="diis">  179.87  179.88</time>
   <time name="orth">   13.80   13.81</time>
   <time name="total">  305.09  305.11</time>
   <energy>
    <i name="e_fr_energy">   -175.42803322 </i>
    <i name="e_wo_entrp">   -175.34179952 </i>
    <i name="e_0_energy">   -175.40647479 </i>
   </energy>
  </scstep>
  <scstep>
   <time name="diag">   68.23   68.24</time>
   <time name="diis">  165.84  165.87</time>
   <time name="orth">   13.71   13.71</time>
   <time name="total">  290.20  290.26</time>
   <energy>
    <i name="e_fr_energy">   -175.43018480 </i>
    <i name="e_wo_entrp">   -175.34409038 </i>
    <i name="e_0_energy">   -175.40866120 </i>
   </energy>
  </scstep>
  <scstep>
   <time name="diag">   68.52   68.52</time>
   <time name="diis">  140.31  140.33</time>
   <time name="orth">   13.36   13.37</time>
   <time name="total">  264.66  264.68</time>
   <energy>
    <i name="e_fr_energy">   -175.43169286 </i>
    <i name="e_wo_entrp">   -175.34755748 </i>
    <i name="e_0_energy">   -175.41065901 </i>
   </energy>
  </scstep>
  <scstep>
   <time name="diag">   69.34   69.35</time>
   <time name="diis">  148.87  148.88</time>
   <time name="orth">   13.52   13.52</time>
   <time name="total">  274.08  274.11</time>
   <energy>
    <i name="e_fr_energy">   -175.43437462 </i>
    <i name="e_wo_entrp">   -175.35138889 </i>
    <i name="e_0_energy">   -175.41362819 </i>
   </energy>
  </scstep>
  <scstep>
   <time name="diag">   69.57   69.57</time>
   <time name="diis">  123.13  123.14</time>
   <time name="orth">   13.28   13.29</time>
   <time name="total">  247.50  247.52</time>
   <energy>
    <i name="e_fr_energy">   -175.43628751 </i>
    <i name="e_wo_entrp">   -175.35266984 </i>
    <i name="e_0_energy">   -175.41538309 </i>
   </energy>
  </scstep>
  <scstep>
   <time name="diag">   69.98   69.99</time>
   <time name="diis">  120.06  120.06</time>
   <time name="orth">   13.20   13.20</time>
   <time name="total">  245.49  245.51</time>
   <energy>
    <i name="e_fr_energy">   -175.43784094 </i>
    <i name="e_wo_entrp">   -175.35358965 </i>
    <i name="e_0_energy">   -175.41677812 </i>
   </energy>
  </scstep>
  <scstep>
   <time name="diag">   67.65   67.65</time>
   <time name="diis">  122.23  122.25</time>
   <time name="orth">   13.71   13.71</time>
   <time name="total">  246.04  246.07</time>
   <energy>
    <i name="e_fr_energy">   -175.43999822 </i>
    <i name="e_wo_entrp">   -175.35573958 </i>
    <i name="e_0_energy">   -175.41893356 </i>
   </energy>
  </scstep>
  <scstep>
   <time name="diag">   67.63   67.63</time>
   <time name="diis">  116.54  116.56</time>
   <time name="orth">   13.62   13.62</time>
   <time name="total">  241.02  241.05</time>
   <energy>
    <i name="e_fr_energy">   -175.44144883 </i>
    <i name="e_wo_entrp">   -175.35644971 </i>
    <i name="e_0_energy">   -175.42019905 </i>
   </energy>
  </scstep>
  <scstep>
   <time name="diag">   68.66   68.66</time>
   <time name="diis">  126.41  126.42</time>
   <time name="orth">   13.75   13.75</time>
   <time name="total">  251.99  252.00</time>
   <energy>
    <i name="e_fr_energy">   -175.44388151 </i>
    <i name="e_wo_entrp">   -175.35926230 </i>
    <i name="e_0_energy">   -175.42272671 </i>
   </energy>
  </scstep>
  <scstep>
   <time name="diag">   68.68   68.68</time>
   <time name="diis">  118.09  118.09</time>
   <time name="orth">   13.29   13.29</time>
   <time name="total">  242.64  242.65</time>
   <energy>
    <i name="e_fr_energy">   -175.44487194 </i>
    <i name="e_wo_entrp">   -175.36084787 </i>
    <i name="e_0_energy">   -175.42386592 </i>
   </energy>
  </scstep>
  <scstep>
   <time name="diag">   66.68   66.68</time>
   <time name="diis">  114.44  114.44</time>
   <time name="orth">   13.81   13.81</time>
   <time name="total">  237.27  237.28</time>
   <energy>
    <i name="e_fr_energy">   -175.44604067 </i>
    <i name="e_wo_entrp">   -175.36187871 </i>
    <i name="e_0_energy">   -175.42500018 </i>
   </energy>
  </scstep>
  <scstep>
   <time name="diag">   66.21   66.21</time>
   <time name="diis">  114.99  114.99</time>
   <time name="orth">   13.83   13.83</time>
   <time name="total">  237.40  237.40</time>
   <energy>
    <i name="e_fr_energy">   -175.44662390 </i>
    <i name="e_wo_entrp">   -175.36230924 </i>
    <i name="e_0_energy">   -175.42554523 </i>
   </energy>
  </scstep>
  <scstep>
   <time name="diag">   67.70   67.70</time>
   <time name="diis">  114.61  114.61</time>
   <time name="orth">   13.74   13.74</time>
   <time name="total">  239.14  239.15</time>
   <energy>
    <i name="e_fr_energy">   -175.44700245 </i>
    <i name="e_wo_entrp">   -175.36307285 </i>
    <i name="e_0_energy">   -175.42602005 </i>
   </energy>
  </scstep>
  <scstep>
   <time name="diag">   68.24   68.25</time>
   <time name="diis">  113.07  113.08</time>
   <time name="orth">   13.59   13.59</time>
   <time name="total">  238.15  238.16</time>
   <energy>
    <i name="e_fr_energy">   -175.44781599 </i>
    <i name="e_wo_entrp">   -175.36348071 </i>
    <i name="e_0_energy">   -175.42673217 </i>
   </energy>
  </scstep>
  <scstep>
   <time name="diag">   68.44   68.44</time>
   <time name="diis">  109.22  109.23</time>
   <time name="orth">   13.54   13.54</time>
   <time name="total">  233.99  234.00</time>
   <energy>
    <i name="e_fr_energy">   -175.44817082 </i>
    <i name="e_wo_entrp">   -175.36370190 </i>
    <i name="e_0_energy">   -175.42705359 </i>
   </energy>
  </scstep>
  <scstep>
   <time name="diag">   67.88   67.89</time>
   <time name="diis">  110.30  110.34</time>
   <time name="orth">   13.51   13.52</time>
   <time name="total">  235.13  235.18</time>
   <energy>
    <i name="e_fr_energy">   -175.44890367 </i>
    <i name="e_wo_entrp">   -175.36455508 </i>
    <i name="e_0_energy">   -175.42781652 </i>
   </energy>
  </scstep>
  <scstep>
   <time name="diag">   67.45   67.46</time>
   <time name="diis">   91.28   91.30</time>
   <time name="orth">   13.51   13.51</time>
   <time name="total">  215.12  215.14</time>
   <energy>
    <i name="e_fr_energy">   -175.44918762 </i>
    <i name="e_wo_entrp">   -175.36478532 </i>
    <i name="e_0_energy">   -175.42808705 </i>
   </energy>
  </scstep>
  <scstep>
   <time name="diag">   68.06   68.06</time>
   <time name="diis">   89.64   89.66</time>
   <time name="orth">   13.79   13.79</time>
   <time name="total">  214.00  214.02</time>
   <energy>
    <i name="e_fr_energy">   -175.44953767 </i>
    <i name="e_wo_entrp">   -175.36525250 </i>
    <i name="e_0_energy">   -175.42846638 </i>
   </energy>
  </scstep>
  <scstep>
   <time name="diag">   67.96   67.97</time>
   <time name="diis">   84.25   84.25</time>
   <time name="orth">   13.43   13.43</time>
   <time name="total">  208.61  208.62</time>
   <energy>
    <i name="e_fr_energy">   -175.44976248 </i>
    <i name="e_wo_entrp">   -175.36531328 </i>
    <i name="e_0_energy">   -175.42865018 </i>
   </energy>
  </scstep>
  <scstep>
   <time name="diag">   67.00   67.00</time>
   <time name="diis">   91.80   91.80</time>
   <time name="orth">   13.45   13.45</time>
   <time name="total">  215.30  215.30</time>
   <energy>
    <i name="e_fr_energy">   -175.45002608 </i>
    <i name="e_wo_entrp">   -175.36576555 </i>
    <i name="e_0_energy">   -175.42896095 </i>
   </energy>
  </scstep>
  <scstep>
   <time name="diag">   67.45   67.45</time>
   <time name="diis">   83.81   83.81</time>
   <time name="orth">   13.28   13.28</time>
   <time name="total">  208.43  208.43</time>
   <energy>
    <i name="e_fr_energy">   -175.45023794 </i>
    <i name="e_wo_entrp">   -175.36589361 </i>
    <i name="e_0_energy">   -175.42915185 </i>
   </energy>
  </scstep>
  <scstep>
   <time name="diag">   67.86   67.86</time>
   <time name="diis">   84.97   84.97</time>
   <time name="orth">   13.39   13.39</time>
   <time name="total">  209.49  209.49</time>
   <energy>
    <i name="e_fr_energy">   -175.45043070 </i>
    <i name="e_wo_entrp">   -175.36604390 </i>
    <i name="e_0_energy">   -175.42933400 </i>
   </energy>
  </scstep>
  <scstep>
   <time name="diag">   68.24   68.24</time>
   <time name="diis">   84.65   84.65</time>
   <time name="orth">   13.58   13.58</time>
   <time name="total">  209.84  209.84</time>
   <energy>
    <i name="e_fr_energy">   -175.45055461 </i>
    <i name="e_wo_entrp">   -175.36619505 </i>
    <i name="e_0_energy">   -175.42946472 </i>
   </energy>
  </scstep>
  <scstep>
   <time name="diag">   67.82   67.82</time>
   <time name="diis">   74.69   74.69</time>
   <time name="orth">   13.56   13.56</time>
   <time name="total">  170.24  170.25</time>
   <energy>
    <i name="alphaZ">     75.25431677 </i>
    <i name="ewald"> 138671.00954045 </i>
    <i name="hartreedc">-183019.80656684 </i>
    <i name="XCdc">  -1691.55127674 </i>
    <i name="pawpsdc">  46248.43485421 </i>
    <i name="pawaedc"> -42719.66594668 </i>
    <i name="eentropy">     -0.08434622 </i>
    <i name="bandstr">  -2825.54667556 </i>
    <i name="atom">  45086.50549395 </i>
    <i name="e_fr_energy">   -175.45060666 </i>
    <i name="e_wo_entrp">   -175.36626044 </i>
    <i name="e_0_energy">   -175.42952011 </i>
   </energy>
  </scstep>
  <structure>
   <crystal>
    <varray name="basis" >
     <v>      30.00000000       0.00000000       0.00000000 </v>
     <v>       0.00000000      30.00000000       0.00000000 </v>
     <v>       0.00000000       0.00000000      30.00000000 </v>
    </varray>
    <i name="volume">  27000.00000000 </i>
    <varray name="rec_basis" >
     <v>       0.03333333       0.00000000       0.00000000 </v>
     <v>       0.00000000       0.03333333       0.00000000 </v>
     <v>       0.00000000       0.00000000       0.03333333 </v>
    </varray>
   </crystal>
   <varray name="positions" >
    <v>       0.44576020       0.32826710       0.41691983 </v>
    <v>       0.67173288       0.55423978       0.41691983 </v>
    <v>       0.55423980       0.32826710       0.41691983 </v>
    <v>       0.32826712       0.55423978       0.41691983 </v>
    <v>       0.50000000       0.38250690       0.34021317 </v>
    <v>       0.50000000       0.38250690       0.65978680 </v>
    <v>       0.50000000       0.27609440       0.50000000 </v>
    <v>       0.27609443       0.49999998       0.50000000 </v>
    <v>       0.72390557       0.49999998       0.50000000 </v>
    <v>       0.50000000       0.72390555       0.50000000 </v>
    <v>       0.61195280       0.38804720       0.34167483 </v>
    <v>       0.61195280       0.38804720       0.65832513 </v>
    <v>       0.38804722       0.61195278       0.34167483 </v>
    <v>       0.38804722       0.61195278       0.65832513 </v>
    <v>       0.38804720       0.38804720       0.34167483 </v>
    <v>       0.38804720       0.38804720       0.65832513 </v>
    <v>       0.61195278       0.61195278       0.34167483 </v>
    <v>       0.61195278       0.61195278       0.65832513 </v>
    <v>       0.44576020       0.32826710       0.58308023 </v>
    <v>       0.67173288       0.55423978       0.58308023 </v>
    <v>       0.55791699       0.44208301       0.41809300 </v>
    <v>       0.32826705       0.44576024       0.41691983 </v>
    <v>       0.55423973       0.67173293       0.41691983 </v>
    <v>       0.55423980       0.32826710       0.58308023 </v>
    <v>       0.32826712       0.55423978       0.58308023 </v>
    <v>       0.67173295       0.44576024       0.41691983 </v>
    <v>       0.44576027       0.67173293       0.41691983 </v>
    <v>       0.44208301       0.44208301       0.41809300 </v>
    <v>       0.50000000       0.38416601       0.50000000 </v>
    <v>       0.61749315       0.50000005       0.34021317 </v>
    <v>       0.61749315       0.50000005       0.65978680 </v>
    <v>       0.38250685       0.50000005       0.34021317 </v>
    <v>       0.38250685       0.50000005       0.65978680 </v>
    <v>       0.38317830       0.38317830       0.50000000 </v>
    <v>       0.61682172       0.61682172       0.50000000 </v>
    <v>       0.61682170       0.38317830       0.50000000 </v>
    <v>       0.38317828       0.61682172       0.50000000 </v>
    <v>       0.50000000       0.50000000       0.33478917 </v>
    <v>       0.50000000       0.50000000       0.66521087 </v>
    <v>       0.32826705       0.44576024       0.58308023 </v>
    <v>       0.55423973       0.67173293       0.58308023 </v>
    <v>       0.55791699       0.44208301       0.58190703 </v>
    <v>       0.44208298       0.55791702       0.41809300 </v>
    <v>       0.44208301       0.44208301       0.58190703 </v>
    <v>       0.67173295       0.44576024       0.58308023 </v>
    <v>       0.44576027       0.67173293       0.58308023 </v>
    <v>       0.55791702       0.55791702       0.41809300 </v>
    <v>       0.38416599       0.50000002       0.50000000 </v>
    <v>       0.61583401       0.50000002       0.50000000 </v>
    <v>       0.50000000       0.61749319       0.34021317 </v>
    <v>       0.50000000       0.61749319       0.65978680 </v>
    <v>       0.50000000       0.50000000       0.50000000 </v>
    <v>       0.44208298       0.55791702       0.58190703 </v>
    <v>       0.55791702       0.55791702       0.58190703 </v>
    <v>       0.50000000       0.61583404       0.50000000 </v>
    <v>       0.54886247       0.65175243       0.32330153 </v>
    <v>       0.55658227       0.67572787       0.29538483 </v>
   </varray>
  </structure>
  <varray name="forces" >
   <v>       0.70624169       1.10857593       0.28889581 </v>
   <v>      -1.05011020      -0.79205038       0.34450708 </v>
   <v>      -0.71359302       1.10194129       0.29176212 </v>
   <v>       1.11265018      -0.69585893       0.28931981 </v>
   <v>      -0.00538171       0.39640338       1.29167694 </v>
   <v>       0.00845585       0.41053748      -1.28266222 </v>
   <v>       0.00058828       1.51510494      -0.00458606 </v>
   <v>       1.52008281      -0.00289996       0.00544794 </v>
   <v>      -1.50828816      -0.00675451       0.01634147 </v>
   <v>       0.02333223      -1.53938170      -0.01386593 </v>
   <v>      -0.75376363       0.75105078       1.07584001 </v>
   <v>      -0.75235508       0.75981314      -1.07400349 </v>
   <v>       0.75688536      -0.77520818       1.07701371 </v>
   <v>       0.75535128      -0.76037827      -1.07277965 </v>
   <v>       0.76001236       0.75301786       1.07618045 </v>
   <v>       0.74876946       0.75893955      -1.07095507 </v>
   <v>      -1.49651690      -0.23282154       0.85605648 </v>
   <v>      -0.75355257      -0.76382046      -1.07396189 </v>
   <v>       0.70872714       1.10557544      -0.29752642 </v>
   <v>      -1.11178464      -0.71284578      -0.28353873 </v>
   <v>       0.11991959      -0.10832405      -0.15463791 </v>
   <v>       1.11048210       0.70105769       0.28963730 </v>
   <v>      -0.74361561      -1.01392006       0.09470376 </v>
   <v>      -0.70346331       1.10484120      -0.29003187 </v>
   <v>       1.10415166      -0.71674129      -0.28187423 </v>
   <v>      -1.10743429       0.73228278       0.26626466 </v>
   <v>       0.60896910      -1.10230842       0.37417105 </v>
   <v>      -0.11329381      -0.10796062      -0.16511610 </v>
   <v>      -0.00559940      -0.21967202      -0.00306966 </v>
   <v>      -0.37455091      -0.08666966       1.30276045 </v>
   <v>      -0.40755292       0.00394947      -1.28287641 </v>
   <v>       0.41552495       0.00456845       1.28665394 </v>
   <v>       0.41429599       0.01627131      -1.28430892 </v>
   <v>       0.82861463       0.82612970      -0.00123874 </v>
   <v>      -0.81943985      -0.83617831       0.03172757 </v>
   <v>      -0.83512327       0.82689561       0.00381560 </v>
   <v>       0.83863870      -0.81493601      -0.01022904 </v>
   <v>      -0.02524420      -0.08097778       1.17868935 </v>
   <v>       0.00187433       0.00217016      -1.17617888 </v>
   <v>       1.10151278       0.71321398      -0.30418250 </v>
   <v>      -0.70709754      -1.10636461      -0.29330560 </v>
   <v>       0.11115982      -0.10546087       0.15432645 </v>
   <v>      -0.13512717       0.08011699      -0.13582297 </v>
   <v>      -0.10865718      -0.11466994       0.15644839 </v>
   <v>      -1.10894517       0.70654853      -0.27899544 </v>
   <v>       0.70290213      -1.10386483      -0.29731894 </v>
   <v>       0.11953009       0.00801786      -0.05625399 </v>
   <v>      -0.24827656      -0.01386130       0.02444656 </v>
   <v>       0.22525817       0.00027616      -0.00243352 </v>
   <v>      -0.65896024      -0.77431297       1.63167033 </v>
   <v>       0.00138260      -0.41660813      -1.28028346 </v>
   <v>       0.00554054       0.01544353      -0.00981376 </v>
   <v>      -0.11457151       0.10143743       0.16601820 </v>
   <v>       0.11524217       0.11452722       0.15696487 </v>
   <v>      -0.01352111       0.22125675       0.01527683 </v>
   <v>       0.01880894      -4.54050840       4.59444653 </v>
   <v>       1.43091502       4.70539440      -4.85921228 </v>
  </varray>
  <varray name="stress" >
   <v>      -6.72238149       0.14507988      -0.12447101 </v>
   <v>       0.14507985      -6.48913436      -0.26129336 </v>
   <v>      -0.12447103      -0.26129342      -6.49280442 </v>
  </varray>
  <energy>
   <i name="e_fr_energy">   -175.45060666 </i>
   <i name="e_wo_entrp">   -175.42952011 </i>
   <i name="e_0_energy">     -0.08434622 </i>
  </energy>
  <time name="totalsc">18747.8618748.77</time>
  <eigenvalues>
   <array>
    <dimension dim="1">band</dimension>
    <dimension dim="2">kpoint</dimension>
    <dimension dim="3">spin</dimension>
    <field>eigene</field>
    <field>occ</field>
    <set>
     <set comment="spin 1">
      <set comment="kpoint 1">
       <r>  -28.1721    1.0000 </r>
       <r>  -13.3820    1.0000 </r>
       <r>  -11.1929    1.0000 </r>
       <r>  -10.8701    1.0000 </r>
       <r>  -10.5647    1.0000 </r>
       <r>   -6.6662    1.0000 </r>
       <r>   -6.4358    1.0000 </r>
       <r>   -6.3544    1.0000 </r>
       <r>   -6.1525    1.0000 </r>
       <r>   -6.1404    1.0000 </r>
       <r>   -6.1289    1.0000 </r>
       <r>   -5.8654    1.0000 </r>
       <r>   -5.8402    1.0000 </r>
       <r>   -5.8187    1.0000 </r>
       <r>   -5.7916    1.0000 </r>
       <r>   -5.7363    1.0000 </r>
       <r>   -5.7185    1.0000 </r>
       <r>   -5.7088    1.0000 </r>
       <r>   -5.7023    1.0000 </r>
       <r>   -5.6891    1.0000 </r>
       <r>   -5.6817    1.0000 </r>
       <r>   -5.6668    1.0000 </r>
       <r>   -5.6378    1.0000 </r>
       <r>   -5.6245    1.0000 </r>
       <r>   -5.6114    1.0000 </r>
       <r>   -5.5999    1.0000 </r>
       <r>   -5.5955    1.0000 </r>
       <r>   -5.5855    1.0000 </r>
       <r>   -5.5634    1.0000 </r>
       <r>   -5.5609    1.0000 </r>
       <r>   -5.5505    1.0000 </r>
       <r>   -5.5406    1.0000 </r>
       <r>   -5.5344    1.0000 </r>
       <r>   -5.5328    1.0000 </r>
       <r>   -5.5277    1.0000 </r>
       <r>   -5.5270    1.0000 </r>
       <r>   -5.5240    1.0000 </r>
       <r>   -5.5221    1.0000 </r>
       <r>   -5.5089    1.0000 </r>
       <r>   -5.5057    1.0000 </r>
       <r>   -5.4876    1.0000 </r>
       <r>   -5.4858    1.0000 </r>
       <r>   -5.4832    1.0000 </r>
       <r>   -5.4805    1.0000 </r>
       <r>   -5.4794    1.0000 </r>
       <r>   -5.4687    1.0000 </r>
       <r>   -5.4564    1.0000 </r>
       <r>   -5.4467    1.0000 </r>
       <r>   -5.4453    1.0000 </r>
       <r>   -5.4399    1.0000 </r>
       <r>   -5.4392    1.0000 </r>
       <r>   -5.4338    1.0000 </r>
       <r>   -5.4237    1.0000 </r>
       <r>   -5.4186    1.0000 </r>
       <r>   -5.4156    1.0000 </r>
       <r>   -5.4110    1.0000 </r>
       <r>   -5.3922    1.0000 </r>
       <r>   -5.3793    1.0000 </r>
       <r>   -5.3761    1.0000 </r>
       <r>   -5.3506    1.0000 </r>
       <r>   -5.3401    1.0000 </r>
       <r>   -5.3356    1.0000 </r>
       <r>   -5.3302    1.0000 </r>
       <r>   -5.3246    1.0000 </r>
       <r>   -5.3210    1.0000 </r>
       <r>   -5.3126    1.0000 </r>
       <r>   -5.3113    1.0000 </r>
       <r>   -5.3009    1.0000 </r>
       <r>   -5.2916    1.0000 </r>
       <r>   -5.2723    1.0000 </r>
       <r>   -5.2337    1.0000 </r>
       <r>   -5.2322    1.0000 </r>
       <r>   -5.2249    1.0000 </r>
       <r>   -5.2103    1.0000 </r>
       <r>   -5.2080    1.0000 </r>
       <r>   -5.1976    1.0000 </r>
       <r>   -5.1936    1.0000 </r>
       <r>   -5.1856    1.0000 </r>
       <r>   -5.1839    1.0000 </r>
       <r>   -5.1801    1.0000 </r>
       <r>   -5.1761    1.0000 </r>
       <r>   -5.1647    1.0000 </r>
       <r>   -5.1627    1.0000 </r>
       <r>   -5.1525    1.0000 </r>
       <r>   -5.1411    1.0000 </r>
       <r>   -5.1363    1.0000 </r>
       <r>   -5.1230    1.0000 </r>
       <r>   -5.1212    1.0000 </r>
       <r>   -5.1121    1.0000 </r>
       <r>   -5.1023    1.0000 </r>
       <r>   -5.0863    1.0000 </r>
       <r>   -5.0771    1.0000 </r>
       <r>   -5.0706    1.0000 </r>
       <r>   -5.0674    1.0000 </r>
       <r>   -5.0644    1.0000 </r>
       <r>   -5.0611    1.0000 </r>
       <r>   -5.0580    1.0000 </r>
       <r>   -5.0537    1.0000 </r>
       <r>   -5.0459    1.0000 </r>
       <r>   -5.0420    1.0000 </r>
       <r>   -5.0398    1.0000 </r>
       <r>   -5.0297    1.0000 </r>
       <r>   -5.0271    1.0000 </r>
       <r>   -5.0206    1.0000 </r>
       <r>   -5.0176    1.0000 </r>
       <r>   -5.0143    1.0000 </r>
       <r>   -5.0124    1.0000 </r>
       <r>   -5.0075    1.0000 </r>
       <r>   -4.9995    1.0000 </r>
       <r>   -4.9928    1.0000 </r>
       <r>   -4.9913    1.0000 </r>
       <r>   -4.9856    1.0000 </r>
       <r>   -4.9789    1.0000 </r>
       <r>   -4.9747    1.0000 </r>
       <r>   -4.9739    1.0000 </r>
       <r>   -4.9681    1.0000 </r>
       <r>   -4.9636    1.0000 </r>
       <r>   -4.9528    1.0000 </r>
       <r>   -4.9481    1.0000 </r>
       <r>   -4.9432    1.0000 </r>
       <r>   -4.9337    1.0000 </r>
       <r>   -4.9242    1.0000 </r>
       <r>   -4.9208    1.0000 </r>
       <r>   -4.9160    1.0000 </r>
       <r>   -4.9153    1.0000 </r>
       <r>   -4.9109    1.0000 </r>
       <r>   -4.8974    1.0000 </r>
       <r>   -4.8848    1.0000 </r>
       <r>   -4.8809    1.0000 </r>
       <r>   -4.8697    1.0000 </r>
       <r>   -4.8629    1.0000 </r>
       <r>   -4.8530    1.0000 </r>
       <r>   -4.8505    1.0000 </r>
       <r>   -4.8462    1.0000 </r>
       <r>   -4.8431    1.0000 </r>
       <r>   -4.8420    1.0000 </r>
       <r>   -4.8240    0.9999 </r>
       <r>   -4.8139    0.9999 </r>
       <r>   -4.8075    0.9999 </r>
       <r>   -4.8051    0.9999 </r>
       <r>   -4.7916    0.9999 </r>
       <r>   -4.7906    0.9999 </r>
       <r>   -4.7798    0.9998 </r>
       <r>   -4.7779    0.9998 </r>
       <r>   -4.7715    0.9998 </r>
       <r>   -4.7605    0.9997 </r>
       <r>   -4.7529    0.9996 </r>
       <r>   -4.7421    0.9995 </r>
       <r>   -4.7377    0.9995 </r>
       <r>   -4.7366    0.9995 </r>
       <r>   -4.7256    0.9993 </r>
       <r>   -4.7210    0.9993 </r>
       <r>   -4.7070    0.9991 </r>
       <r>   -4.7015    0.9989 </r>
       <r>   -4.6979    0.9989 </r>
       <r>   -4.6947    0.9988 </r>
       <r>   -4.6928    0.9988 </r>
       <r>   -4.6903    0.9987 </r>
       <r>   -4.6837    0.9986 </r>
       <r>   -4.6780    0.9984 </r>
       <r>   -4.6761    0.9984 </r>
       <r>   -4.6692    0.9982 </r>
       <r>   -4.6649    0.9980 </r>
       <r>   -4.6634    0.9980 </r>
       <r>   -4.6593    0.9979 </r>
       <r>   -4.6588    0.9978 </r>
       <r>   -4.6574    0.9978 </r>
       <r>   -4.6540    0.9977 </r>
       <r>   -4.6505    0.9976 </r>
       <r>   -4.6453    0.9974 </r>
       <r>   -4.6307    0.9968 </r>
       <r>   -4.6299    0.9968 </r>
       <r>   -4.6212    0.9965 </r>
       <r>   -4.6167    0.9963 </r>
       <r>   -4.6122    0.9962 </r>
       <r>   -4.6082    0.9960 </r>
       <r>   -4.6057    0.9959 </r>
       <r>   -4.6049    0.9959 </r>
       <r>   -4.6001    0.9957 </r>
       <r>   -4.5917    0.9955 </r>
       <r>   -4.5896    0.9954 </r>
       <r>   -4.5836    0.9953 </r>
       <r>   -4.5812    0.9952 </r>
       <r>   -4.5798    0.9952 </r>
       <r>   -4.5751    0.9951 </r>
       <r>   -4.5689    0.9951 </r>
       <r>   -4.5674    0.9951 </r>
       <r>   -4.5625    0.9951 </r>
       <r>   -4.5598    0.9951 </r>
       <r>   -4.5580    0.9951 </r>
       <r>   -4.5549    0.9952 </r>
       <r>   -4.5400    0.9957 </r>
       <r>   -4.5227    0.9970 </r>
       <r>   -4.5211    0.9972 </r>
       <r>   -4.5178    0.9976 </r>
       <r>   -4.5140    0.9980 </r>
       <r>   -4.5090    0.9988 </r>
       <r>   -4.5058    0.9993 </r>
       <r>   -4.5028    0.9998 </r>
       <r>   -4.4963    1.0010 </r>
       <r>   -4.4900    1.0024 </r>
       <r>   -4.4846    1.0038 </r>
       <r>   -4.4827    1.0042 </r>
       <r>   -4.4746    1.0066 </r>
       <r>   -4.4723    1.0073 </r>
       <r>   -4.4637    1.0101 </r>
       <r>   -4.4612    1.0110 </r>
       <r>   -4.4593    1.0118 </r>
       <r>   -4.4559    1.0130 </r>
       <r>   -4.4473    1.0165 </r>
       <r>   -4.4416    1.0189 </r>
       <r>   -4.4375    1.0208 </r>
       <r>   -4.4360    1.0215 </r>
       <r>   -4.4323    1.0231 </r>
       <r>   -4.4236    1.0272 </r>
       <r>   -4.4206    1.0287 </r>
       <r>   -4.4199    1.0290 </r>
       <r>   -4.4170    1.0304 </r>
       <r>   -4.4124    1.0326 </r>
       <r>   -4.4059    1.0357 </r>
       <r>   -4.3923    1.0419 </r>
       <r>   -4.3824    1.0457 </r>
       <r>   -4.3798    1.0466 </r>
       <r>   -4.3758    1.0479 </r>
       <r>   -4.3723    1.0489 </r>
       <r>   -4.3681    1.0499 </r>
       <r>   -4.3548    1.0516 </r>
       <r>   -4.3494    1.0515 </r>
       <r>   -4.3479    1.0514 </r>
       <r>   -4.3458    1.0511 </r>
       <r>   -4.3447    1.0510 </r>
       <r>   -4.3435    1.0508 </r>
       <r>   -4.3394    1.0498 </r>
       <r>   -4.3375    1.0493 </r>
       <r>   -4.3366    1.0490 </r>
       <r>   -4.3347    1.0483 </r>
       <r>   -4.3330    1.0476 </r>
       <r>   -4.3316    1.0470 </r>
       <r>   -4.3288    1.0457 </r>
       <r>   -4.3215    1.0412 </r>
       <r>   -4.3193    1.0396 </r>
       <r>   -4.3127    1.0338 </r>
       <r>   -4.3054    1.0259 </r>
       <r>   -4.3025    1.0223 </r>
       <r>   -4.3000    1.0189 </r>
       <r>   -4.2971    1.0147 </r>
       <r>   -4.2953    1.0120 </r>
       <r>   -4.2935    1.0092 </r>
       <r>   -4.2911    1.0052 </r>
       <r>   -4.2829    0.9902 </r>
       <r>   -4.2788    0.9816 </r>
       <r>   -4.2740    0.9708 </r>
       <r>   -4.2732    0.9689 </r>
       <r>   -4.2713    0.9643 </r>
       <r>   -4.2674    0.9546 </r>
       <r>   -4.2646    0.9473 </r>
       <r>   -4.2643    0.9463 </r>
       <r>   -4.2598    0.9339 </r>
       <r>   -4.2578    0.9279 </r>
       <r>   -4.2568    0.9250 </r>
       <r>   -4.2535    0.9149 </r>
       <r>   -4.2529    0.9131 </r>
       <r>   -4.2508    0.9062 </r>
       <r>   -4.2491    0.9009 </r>
       <r>   -4.2481    0.8976 </r>
       <r>   -4.2413    0.8740 </r>
       <r>   -4.2372    0.8590 </r>
       <r>   -4.2354    0.8521 </r>
       <r>   -4.2323    0.8403 </r>
       <r>   -4.2311    0.8355 </r>
       <r>   -4.2298    0.8306 </r>
       <r>   -4.2230    0.8026 </r>
       <r>   -4.2172    0.7774 </r>
       <r>   -4.2081    0.7362 </r>
       <r>   -4.1972    0.6839 </r>
       <r>   -4.1926    0.6612 </r>
       <r>   -4.1882    0.6393 </r>
       <r>   -4.1855    0.6255 </r>
       <r>   -4.1845    0.6204 </r>
       <r>   -4.1827    0.6110 </r>
       <r>   -4.1696    0.5428 </r>
       <r>   -4.1599    0.4916 </r>
       <r>   -4.1489    0.4336 </r>
       <r>   -4.1427    0.4010 </r>
       <r>   -4.1398    0.3861 </r>
       <r>   -4.1382    0.3777 </r>
       <r>   -4.1281    0.3268 </r>
       <r>   -4.1245    0.3093 </r>
       <r>   -4.0889    0.1525 </r>
       <r>   -3.9762   -0.0513 </r>
       <r>   -3.8835   -0.0199 </r>
       <r>   -3.8358   -0.0031 </r>
       <r>   -3.8250   -0.0007 </r>
       <r>   -3.6453    0.0016 </r>
       <r>   -3.5246    0.0001 </r>
       <r>   -3.5031    0.0001 </r>
       <r>   -3.3742    0.0000 </r>
       <r>   -3.0863    0.0000 </r>
       <r>   -3.0794    0.0000 </r>
       <r>   -3.0626    0.0000 </r>
       <r>   -3.0510    0.0000 </r>
       <r>   -3.0277    0.0000 </r>
       <r>   -2.9645    0.0000 </r>
       <r>   -2.9528    0.0000 </r>
       <r>   -2.7126    0.0000 </r>
       <r>   -2.5710    0.0000 </r>
       <r>   -2.5331    0.0000 </r>
       <r>   -2.4467    0.0000 </r>
       <r>   -2.3145    0.0000 </r>
       <r>   -2.1397    0.0000 </r>
       <r>   -2.1243    0.0000 </r>
       <r>   -2.1036    0.0000 </r>
       <r>   -2.0686    0.0000 </r>
       <r>   -1.9725    0.0000 </r>
       <r>   -1.9297    0.0000 </r>
       <r>   -1.8912    0.0000 </r>
       <r>   -1.7865    0.0000 </r>
       <r>   -1.7441    0.0000 </r>
       <r>   -1.6939    0.0000 </r>
       <r>   -1.6543    0.0000 </r>
       <r>   -1.6091    0.0000 </r>
       <r>   -1.5653    0.0000 </r>
       <r>   -1.4448    0.0000 </r>
       <r>   -1.3533    0.0000 </r>
       <r>   -1.2506    0.0000 </r>
       <r>   -1.2126    0.0000 </r>
       <r>   -1.1338    0.0000 </r>
       <r>   -1.0111    0.0000 </r>
       <r>   -0.9944    0.0000 </r>
       <r>   -0.9807    0.0000 </r>
       <r>   -0.9629    0.0000 </r>
       <r>   -0.9435    0.0000 </r>
       <r>   -0.9281    0.0000 </r>
       <r>   -0.9133    0.0000 </r>
       <r>   -0.8201    0.0000 </r>
       <r>   -0.7374    0.0000 </r>
      </set>
     </set>
    </set>
   </array>
  </eigenvalues>
  <separator name="orbital magnetization" >
   <v name="MAGDIPOLOUT">      0.00000000      0.00000000      0.00000000</v>
  </separator>
  <dos>
   <i name="efermi">     -4.16152254 </i>
   <total>
    <array>
     <dimension dim="1">gridpoints</dimension>
     <dimension dim="2">spin</dimension>
     <field>energy</field>
     <field>total</field>
     <field>integrated</field>
     <set>
      <set comment="spin 1">
       <r>   -30.1721     0.0000     0.0000 </r>
       <r>   -30.0673     0.0000     0.0000 </r>
       <r>   -29.9625     0.0000     0.0000 </r>
       <r>   -29.8577     0.0000     0.0000 </r>
       <r>   -29.7530     0.0000     0.0000 </r>
       <r>   -29.6482     0.0000     0.0000 </r>
       <r>   -29.5434     0.0000     0.0000 </r>
       <r>   -29.4386     0.0000     0.0000 </r>
       <r>   -29.3338     0.0000     0.0000 </r>
       <r>   -29.2290     0.0000     0.0000 </r>
       <r>   -29.1243     0.0000     0.0000 </r>
       <r>   -29.0195     0.0000     0.0000 </r>
       <r>   -28.9147     0.0001     0.0000 </r>
       <r>   -28.8099     0.0021     0.0002 </r>
       <r>   -28.7051     0.0206     0.0024 </r>
       <r>   -28.6004     0.0645     0.0091 </r>
       <r>   -28.4956    -0.1570    -0.0073 </r>
       <r>   -28.3908    -0.8179    -0.0930 </r>
       <r>   -28.2860     1.3804     0.0516 </r>
       <r>   -28.1812     8.1299     0.9035 </r>
       <r>   -28.0764     9.0545     1.8523 </r>
       <r>   -27.9717     2.3837     2.1020 </r>
       <r>   -27.8669    -0.8001     2.0182 </r>
       <r>   -27.7621    -0.2674     1.9902 </r>
       <r>   -27.6573     0.0624     1.9967 </r>
       <r>   -27.5525     0.0278     1.9996 </r>
       <r>   -27.4477     0.0034     2.0000 </r>
       <r>   -27.3430     0.0002     2.0000 </r>
       <r>   -27.2382     0.0000     2.0000 </r>
       <r>   -27.1334     0.0000     2.0000 </r>
       <r>   -27.0286     0.0000     2.0000 </r>
       <r>   -26.9238     0.0000     2.0000 </r>
       <r>   -26.8191     0.0000     2.0000 </r>
       <r>   -26.7143     0.0000     2.0000 </r>
       <r>   -26.6095     0.0000     2.0000 </r>
       <r>   -26.5047     0.0000     2.0000 </r>
       <r>   -26.3999     0.0000     2.0000 </r>
       <r>   -26.2951     0.0000     2.0000 </r>
       <r>   -26.1904     0.0000     2.0000 </r>
       <r>   -26.0856     0.0000     2.0000 </r>
       <r>   -25.9808     0.0000     2.0000 </r>
       <r>   -25.8760     0.0000     2.0000 </r>
       <r>   -25.7712     0.0000     2.0000 </r>
       <r>   -25.6664     0.0000     2.0000 </r>
       <r>   -25.5617     0.0000     2.0000 </r>
       <r>   -25.4569     0.0000     2.0000 </r>
       <r>   -25.3521     0.0000     2.0000 </r>
       <r>   -25.2473     0.0000     2.0000 </r>
       <r>   -25.1425     0.0000     2.0000 </r>
       <r>   -25.0378     0.0000     2.0000 </r>
       <r>   -24.9330     0.0000     2.0000 </r>
       <r>   -24.8282     0.0000     2.0000 </r>
       <r>   -24.7234     0.0000     2.0000 </r>
       <r>   -24.6186     0.0000     2.0000 </r>
       <r>   -24.5138     0.0000     2.0000 </r>
       <r>   -24.4091     0.0000     2.0000 </r>
       <r>   -24.3043     0.0000     2.0000 </r>
       <r>   -24.1995     0.0000     2.0000 </r>
       <r>   -24.0947     0.0000     2.0000 </r>
       <r>   -23.9899     0.0000     2.0000 </r>
       <r>   -23.8851     0.0000     2.0000 </r>
       <r>   -23.7804     0.0000     2.0000 </r>
       <r>   -23.6756     0.0000     2.0000 </r>
       <r>   -23.5708     0.0000     2.0000 </r>
       <r>   -23.4660     0.0000     2.0000 </r>
       <r>   -23.3612     0.0000     2.0000 </r>
       <r>   -23.2565     0.0000     2.0000 </r>
       <r>   -23.1517     0.0000     2.0000 </r>
       <r>   -23.0469     0.0000     2.0000 </r>
       <r>   -22.9421     0.0000     2.0000 </r>
       <r>   -22.8373     0.0000     2.0000 </r>
       <r>   -22.7325     0.0000     2.0000 </r>
       <r>   -22.6278     0.0000     2.0000 </r>
       <r>   -22.5230     0.0000     2.0000 </r>
       <r>   -22.4182     0.0000     2.0000 </r>
       <r>   -22.3134     0.0000     2.0000 </r>
       <r>   -22.2086     0.0000     2.0000 </r>
       <r>   -22.1039     0.0000     2.0000 </r>
       <r>   -21.9991     0.0000     2.0000 </r>
       <r>   -21.8943     0.0000     2.0000 </r>
       <r>   -21.7895     0.0000     2.0000 </r>
       <r>   -21.6847     0.0000     2.0000 </r>
       <r>   -21.5799     0.0000     2.0000 </r>
       <r>   -21.4752     0.0000     2.0000 </r>
       <r>   -21.3704     0.0000     2.0000 </r>
       <r>   -21.2656     0.0000     2.0000 </r>
       <r>   -21.1608     0.0000     2.0000 </r>
       <r>   -21.0560     0.0000     2.0000 </r>
       <r>   -20.9512     0.0000     2.0000 </r>
       <r>   -20.8465     0.0000     2.0000 </r>
       <r>   -20.7417     0.0000     2.0000 </r>
       <r>   -20.6369     0.0000     2.0000 </r>
       <r>   -20.5321     0.0000     2.0000 </r>
       <r>   -20.4273     0.0000     2.0000 </r>
       <r>   -20.3226     0.0000     2.0000 </r>
       <r>   -20.2178     0.0000     2.0000 </r>
       <r>   -20.1130     0.0000     2.0000 </r>
       <r>   -20.0082     0.0000     2.0000 </r>
       <r>   -19.9034     0.0000     2.0000 </r>
       <r>   -19.7986     0.0000     2.0000 </r>
       <r>   -19.6939     0.0000     2.0000 </r>
       <r>   -19.5891     0.0000     2.0000 </r>
       <r>   -19.4843     0.0000     2.0000 </r>
       <r>   -19.3795     0.0000     2.0000 </r>
       <r>   -19.2747     0.0000     2.0000 </r>
       <r>   -19.1699     0.0000     2.0000 </r>
       <r>   -19.0652     0.0000     2.0000 </r>
       <r>   -18.9604     0.0000     2.0000 </r>
       <r>   -18.8556     0.0000     2.0000 </r>
       <r>   -18.7508     0.0000     2.0000 </r>
       <r>   -18.6460     0.0000     2.0000 </r>
       <r>   -18.5413     0.0000     2.0000 </r>
       <r>   -18.4365     0.0000     2.0000 </r>
       <r>   -18.3317     0.0000     2.0000 </r>
       <r>   -18.2269     0.0000     2.0000 </r>
       <r>   -18.1221     0.0000     2.0000 </r>
       <r>   -18.0173     0.0000     2.0000 </r>
       <r>   -17.9126     0.0000     2.0000 </r>
       <r>   -17.8078     0.0000     2.0000 </r>
       <r>   -17.7030     0.0000     2.0000 </r>
       <r>   -17.5982     0.0000     2.0000 </r>
       <r>   -17.4934     0.0000     2.0000 </r>
       <r>   -17.3886     0.0000     2.0000 </r>
       <r>   -17.2839     0.0000     2.0000 </r>
       <r>   -17.1791     0.0000     2.0000 </r>
       <r>   -17.0743     0.0000     2.0000 </r>
       <r>   -16.9695     0.0000     2.0000 </r>
       <r>   -16.8647     0.0000     2.0000 </r>
       <r>   -16.7600     0.0000     2.0000 </r>
       <r>   -16.6552     0.0000     2.0000 </r>
       <r>   -16.5504     0.0000     2.0000 </r>
       <r>   -16.4456     0.0000     2.0000 </r>
       <r>   -16.3408     0.0000     2.0000 </r>
       <r>   -16.2360     0.0000     2.0000 </r>
       <r>   -16.1313     0.0000     2.0000 </r>
       <r>   -16.0265     0.0000     2.0000 </r>
       <r>   -15.9217     0.0000     2.0000 </r>
       <r>   -15.8169     0.0000     2.0000 </r>
       <r>   -15.7121     0.0000     2.0000 </r>
       <r>   -15.6073     0.0000     2.0000 </r>
       <r>   -15.5026     0.0000     2.0000 </r>
       <r>   -15.3978     0.0000     2.0000 </r>
       <r>   -15.2930     0.0000     2.0000 </r>
       <r>   -15.1882     0.0000     2.0000 </r>
       <r>   -15.0834     0.0000     2.0000 </r>
       <r>   -14.9787     0.0000     2.0000 </r>
       <r>   -14.8739     0.0000     2.0000 </r>
       <r>   -14.7691     0.0000     2.0000 </r>
       <r>   -14.6643     0.0000     2.0000 </r>
       <r>   -14.5595     0.0000     2.0000 </r>
       <r>   -14.4547     0.0000     2.0000 </r>
       <r>   -14.3500     0.0000     2.0000 </r>
       <r>   -14.2452     0.0000     2.0000 </r>
       <r>   -14.1404     0.0001     2.0000 </r>
       <r>   -14.0356     0.0014     2.0002 </r>
       <r>   -13.9308     0.0155     2.0018 </r>
       <r>   -13.8260     0.0609     2.0082 </r>
       <r>   -13.7213    -0.0810     1.9997 </r>
       <r>   -13.6165    -0.7652     1.9195 </r>
       <r>   -13.5117     0.6646     1.9891 </r>
       <r>   -13.4069     7.1616     2.7395 </r>
       <r>   -13.3021     9.6297     3.7486 </r>
       <r>   -13.1974     3.3764     4.1024 </r>
       <r>   -13.0926    -0.6907     4.0300 </r>
       <r>   -12.9878    -0.3788     3.9903 </r>
       <r>   -12.8830     0.0525     3.9958 </r>
       <r>   -12.7782     0.0350     3.9995 </r>
       <r>   -12.6734     0.0049     4.0000 </r>
       <r>   -12.5687     0.0003     4.0000 </r>
       <r>   -12.4639     0.0000     4.0000 </r>
       <r>   -12.3591     0.0000     4.0000 </r>
       <r>   -12.2543     0.0000     4.0000 </r>
       <r>   -12.1495     0.0000     4.0000 </r>
       <r>   -12.0447     0.0000     4.0000 </r>
       <r>   -11.9400     0.0001     4.0000 </r>
       <r>   -11.8352     0.0019     4.0002 </r>
       <r>   -11.7304     0.0190     4.0022 </r>
       <r>   -11.6256     0.0639     4.0089 </r>
       <r>   -11.5208    -0.1321     3.9951 </r>
       <r>   -11.4161    -0.7919     3.9121 </r>
       <r>   -11.3113     1.2250     4.0404 </r>
       <r>   -11.2065     7.7779     4.8554 </r>
       <r>   -11.1017     8.4810     5.7441 </r>
       <r>   -10.9969     3.5016     6.1110 </r>
       <r>   -10.8921     6.4314     6.7849 </r>
       <r>   -10.7874     8.4354     7.6688 </r>
       <r>   -10.6826     4.4356     8.1335 </r>
       <r>   -10.5778     7.2100     8.8890 </r>
       <r>   -10.4730     8.8668     9.8181 </r>
       <r>   -10.3682     2.6792    10.0988 </r>
       <r>   -10.2635    -0.7481    10.0205 </r>
       <r>   -10.1587    -0.2896     9.9901 </r>
       <r>   -10.0539     0.0610     9.9965 </r>
       <r>    -9.9491     0.0295     9.9996 </r>
       <r>    -9.8443     0.0037    10.0000 </r>
       <r>    -9.7395     0.0002    10.0000 </r>
       <r>    -9.6348     0.0000    10.0000 </r>
       <r>    -9.5300     0.0000    10.0000 </r>
       <r>    -9.4252     0.0000    10.0000 </r>
       <r>    -9.3204     0.0000    10.0000 </r>
       <r>    -9.2156     0.0000    10.0000 </r>
       <r>    -9.1108     0.0000    10.0000 </r>
       <r>    -9.0061     0.0000    10.0000 </r>
       <r>    -8.9013     0.0000    10.0000 </r>
       <r>    -8.7965     0.0000    10.0000 </r>
       <r>    -8.6917     0.0000    10.0000 </r>
       <r>    -8.5869     0.0000    10.0000 </r>
       <r>    -8.4822     0.0000    10.0000 </r>
       <r>    -8.3774     0.0000    10.0000 </r>
       <r>    -8.2726     0.0000    10.0000 </r>
       <r>    -8.1678     0.0000    10.0000 </r>
       <r>    -8.0630     0.0000    10.0000 </r>
       <r>    -7.9582     0.0000    10.0000 </r>
       <r>    -7.8535     0.0000    10.0000 </r>
       <r>    -7.7487     0.0000    10.0000 </r>
       <r>    -7.6439     0.0000    10.0000 </r>
       <r>    -7.5391     0.0000    10.0000 </r>
       <r>    -7.4343     0.0000    10.0000 </r>
       <r>    -7.3295     0.0011    10.0001 </r>
       <r>    -7.2248     0.0129    10.0015 </r>
       <r>    -7.1200     0.0579    10.0075 </r>
       <r>    -7.0152    -0.0336    10.0040 </r>
       <r>    -6.9104    -0.6505     9.9359 </r>
       <r>    -6.8056     0.3749     9.9751 </r>
       <r>    -6.7009     5.9316    10.5967 </r>
       <r>    -6.5961     9.0095    11.5407 </r>
       <r>    -6.4913     9.3598    12.5214 </r>
       <r>    -6.3865    14.1194    14.0009 </r>
       <r>    -6.2817    15.9375    15.6709 </r>
       <r>    -6.1769    23.0314    18.0842 </r>
       <r>    -6.0722    26.3199    20.8420 </r>
       <r>    -5.9674    11.5287    22.0500 </r>
       <r>    -5.8626    18.7144    24.0110 </r>
       <r>    -5.7578    58.9019    30.1828 </r>
       <r>    -5.6530   121.0475    42.8665 </r>
       <r>    -5.5482   219.2718    65.8423 </r>
       <r>    -5.4435   292.0233    96.4411 </r>
       <r>    -5.3387   259.7604   123.6594 </r>
       <r>    -5.2339   210.1389   145.6783 </r>
       <r>    -5.1291   250.2254   171.8975 </r>
       <r>    -5.0243   335.1629   207.0166 </r>
       <r>    -4.9196   350.1004   243.7009 </r>
       <r>    -4.8148   303.7536   275.5289 </r>
       <r>    -4.7100   328.0352   309.9012 </r>
       <r>    -4.6052   405.0546   352.3438 </r>
       <r>    -4.5004   418.9483   396.2421 </r>
       <r>    -4.3956   441.5670   442.5105 </r>
       <r>    -4.2909   538.0612   498.8898 </r>
       <r>    -4.1861   499.5701   551.2359 </r>
       <r>    -4.0813   245.0406   576.9119 </r>
       <r>    -3.9765    40.3563   581.1405 </r>
       <r>    -3.8717    10.3242   582.2223 </r>
       <r>    -3.7669    25.7055   584.9158 </r>
       <r>    -3.6622    18.6714   586.8722 </r>
       <r>    -3.5574    19.5041   588.9159 </r>
       <r>    -3.4526    25.4903   591.5868 </r>
       <r>    -3.3478    16.4343   593.3088 </r>
       <r>    -3.2430     2.4654   593.5672 </r>
       <r>    -3.1383    16.7003   595.3171 </r>
       <r>    -3.0335    54.1786   600.9940 </r>
       <r>    -2.9287    53.1593   606.5642 </r>
       <r>    -2.8239    17.6461   608.4132 </r>
       <r>    -2.7191     4.5628   608.8913 </r>
       <r>    -2.6143    15.6225   610.5282 </r>
       <r>    -2.5096    25.9413   613.2464 </r>
       <r>    -2.4048    22.7020   615.6252 </r>
       <r>    -2.3000    12.9261   616.9796 </r>
       <r>    -2.1952    17.6376   618.8277 </r>
       <r>    -2.0904    36.8234   622.6862 </r>
       <r>    -1.9856    42.2560   627.1139 </r>
       <r>    -1.8809    33.5524   630.6296 </r>
       <r>    -1.7761    32.1833   634.0018 </r>
       <r>    -1.6713    40.5096   638.2465 </r>
       <r>    -1.5665    38.9645   642.3293 </r>
       <r>    -1.4617    24.7838   644.9262 </r>
       <r>    -1.3570    19.1391   646.9316 </r>
       <r>    -1.2522    23.1596   649.3583 </r>
       <r>    -1.1474    24.4767   651.9231 </r>
       <r>    -1.0426    38.0112   655.9060 </r>
       <r>    -0.9378    65.2274   662.7406 </r>
       <r>    -0.8330    57.8148   668.7986 </r>
       <r>    -0.7283    25.1835   671.4374 </r>
       <r>    -0.6235     6.1525   672.0821 </r>
       <r>    -0.5187    -0.2199   672.0590 </r>
       <r>    -0.4139    -0.7275   671.9828 </r>
       <r>    -0.3091     0.0290   671.9858 </r>
       <r>    -0.2043     0.1078   671.9971 </r>
       <r>    -0.0996     0.0250   671.9997 </r>
       <r>     0.0052     0.0024   672.0000 </r>
       <r>     0.1100     0.0001   672.0000 </r>
       <r>     0.2148     0.0000   672.0000 </r>
       <r>     0.3196     0.0000   672.0000 </r>
       <r>     0.4243     0.0000   672.0000 </r>
       <r>     0.5291     0.0000   672.0000 </r>
       <r>     0.6339     0.0000   672.0000 </r>
       <r>     0.7387     0.0000   672.0000 </r>
       <r>     0.8435     0.0000   672.0000 </r>
       <r>     0.9483     0.0000   672.0000 </r>
       <r>     1.0530     0.0000   672.0000 </r>
       <r>     1.1578     0.0000   672.0000 </r>
       <r>     1.2626     0.0000   672.0000 </r>
      </set>
     </set>
    </array>
   </total>
  </dos>
 </calculation>
 <structure name="finalpos" >
  <crystal>
   <varray name="basis" >
    <v>      30.00000000       0.00000000       0.00000000 </v>
    <v>       0.00000000      30.00000000       0.00000000 </v>
    <v>       0.00000000       0.00000000      30.00000000 </v>
   </varray>
   <i name="volume">  27000.00000000 </i>
   <varray name="rec_basis" >
    <v>       0.03333333       0.00000000       0.00000000 </v>
    <v>       0.00000000       0.03333333       0.00000000 </v>
    <v>       0.00000000       0.00000000       0.03333333 </v>
   </varray>
  </crystal>
  <varray name="positions" >
   <v>       0.44576020       0.32826710       0.41691983 </v>
   <v>       0.67173288       0.55423978       0.41691983 </v>
   <v>       0.55423980       0.32826710       0.41691983 </v>
   <v>       0.32826712       0.55423978       0.41691983 </v>
   <v>       0.50000000       0.38250690       0.34021317 </v>
   <v>       0.50000000       0.38250690       0.65978680 </v>
   <v>       0.50000000       0.27609440       0.50000000 </v>
   <v>       0.27609443       0.49999998       0.50000000 </v>
   <v>       0.72390557       0.49999998       0.50000000 </v>
   <v>       0.50000000       0.72390555       0.50000000 </v>
   <v>       0.61195280       0.38804720       0.34167483 </v>
   <v>       0.61195280       0.38804720       0.65832513 </v>
   <v>       0.38804722       0.61195278       0.34167483 </v>
   <v>       0.38804722       0.61195278       0.65832513 </v>
   <v>       0.38804720       0.38804720       0.34167483 </v>
   <v>       0.38804720       0.38804720       0.65832513 </v>
   <v>       0.61195278       0.61195278       0.34167483 </v>
   <v>       0.61195278       0.61195278       0.65832513 </v>
   <v>       0.44576020       0.32826710       0.58308023 </v>
   <v>       0.67173288       0.55423978       0.58308023 </v>
   <v>       0.55791699       0.44208301       0.41809300 </v>
   <v>       0.32826705       0.44576024       0.41691983 </v>
   <v>       0.55423973       0.67173293       0.41691983 </v>
   <v>       0.55423980       0.32826710       0.58308023 </v>
   <v>       0.32826712       0.55423978       0.58308023 </v>
   <v>       0.67173295       0.44576024       0.41691983 </v>
   <v>       0.44576027       0.67173293       0.41691983 </v>
   <v>       0.44208301       0.44208301       0.41809300 </v>
   <v>       0.50000000       0.38416601       0.50000000 </v>
   <v>       0.61749315       0.50000005       0.34021317 </v>
   <v>       0.61749315       0.50000005       0.65978680 </v>
   <v>       0.38250685       0.50000005       0.34021317 </v>
   <v>       0.38250685       0.50000005       0.65978680 </v>
   <v>       0.38317830       0.38317830       0.50000000 </v>
   <v>       0.61682172       0.61682172       0.50000000 </v>
   <v>       0.61682170       0.38317830       0.50000000 </v>
   <v>       0.38317828       0.61682172       0.50000000 </v>
   <v>       0.50000000       0.50000000       0.33478917 </v>
   <v>       0.50000000       0.50000000       0.66521087 </v>
   <v>       0.32826705       0.44576024       0.58308023 </v>
   <v>       0.55423973       0.67173293       0.58308023 </v>
   <v>       0.55791699       0.44208301       0.58190703 </v>
   <v>       0.44208298       0.55791702       0.41809300 </v>
   <v>       0.44208301       0.44208301       0.58190703 </v>
   <v>       0.67173295       0.44576024       0.58308023 </v>
   <v>       0.44576027       0.67173293       0.58308023 </v>
   <v>       0.55791702       0.55791702       0.41809300 </v>
   <v>       0.38416599       0.50000002       0.50000000 </v>
   <v>       0.61583401       0.50000002       0.50000000 </v>
   <v>       0.50000000       0.61749319       0.34021317 </v>
   <v>       0.50000000       0.61749319       0.65978680 </v>
   <v>       0.50000000       0.50000000       0.50000000 </v>
   <v>       0.44208298       0.55791702       0.58190703 </v>
   <v>       0.55791702       0.55791702       0.58190703 </v>
   <v>       0.50000000       0.61583404       0.50000000 </v>
   <v>       0.54886247       0.65175243       0.32330153 </v>
   <v>       0.55658227       0.67572787       0.29538483 </v>
  </varray>
  <varray name="selective"  type="logical" >
   <v type="logical" >  F  F  F </v>
   <v type="logical" >  F  F  F </v>
   <v type="logical" >  F  F  F </v>
   <v type="logical" >  F  F  F </v>
   <v type="logical" >  F  F  F </v>
   <v type="logical" >  F  F  F </v>
   <v type="logical" >  F  F  F </v>
   <v type="logical" >  F  F  F </v>
   <v type="logical" >  F  F  F </v>
   <v type="logical" >  F  F  F </v>
   <v type="logical" >  F  F  F </v>
   <v type="logical" >  F  F  F </v>
   <v type="logical" >  F  F  F </v>
   <v type="logical" >  F  F  F </v>
   <v type="logical" >  F  F  F </v>
   <v type="logical" >  F  F  F </v>
   <v type="logical" >  F  F  F </v>
   <v type="logical" >  F  F  F </v>
   <v type="logical" >  F  F  F </v>
   <v type="logical" >  F  F  F </v>
   <v type="logical" >  F  F  F </v>
   <v type="logical" >  F  F  F </v>
   <v type="logical" >  F  F  F </v>
   <v type="logical" >  F  F  F </v>
   <v type="logical" >  F  F  F </v>
   <v type="logical" >  F  F  F </v>
   <v type="logical" >  F  F  F </v>
   <v type="logical" >  F  F  F </v>
   <v type="logical" >  F  F  F </v>
   <v type="logical" >  F  F  F </v>
   <v type="logical" >  F  F  F </v>
   <v type="logical" >  F  F  F </v>
   <v type="logical" >  F  F  F </v>
   <v type="logical" >  F  F  F </v>
   <v type="logical" >  F  F  F </v>
   <v type="logical" >  F  F  F </v>
   <v type="logical" >  F  F  F </v>
   <v type="logical" >  F  F  F </v>
   <v type="logical" >  F  F  F </v>
   <v type="logical" >  F  F  F </v>
   <v type="logical" >  F  F  F </v>
   <v type="logical" >  F  F  F </v>
   <v type="logical" >  F  F  F </v>
   <v type="logical" >  F  F  F </v>
   <v type="logical" >  F  F  F </v>
   <v type="logical" >  F  F  F </v>
   <v type="logical" >  F  F  F </v>
   <v type="logical" >  F  F  F </v>
   <v type="logical" >  F  F  F </v>
   <v type="logical" >  F  F  F </v>
   <v type="logical" >  F  F  F </v>
   <v type="logical" >  F  F  F </v>
   <v type="logical" >  F  F  F </v>
   <v type="logical" >  F  F  F </v>
   <v type="logical" >  F  F  F </v>
   <v type="logical" >  F  F  F </v>
   <v type="logical" >  F  F  F </v>
  </varray>
  <nose>
   <v>      -3.00000000       0.00000000       0.00010000       0.00010000 </v>
  </nose>
 </structure>
</modeling>
