<?xml version="1.0" encoding="ISO-8859-1"?>
<modeling>
 <generator>
  <i name="program" type="string">vasp </i>
  <i name="version" type="string">5.4.4.18Apr17-6-g9f103f2a35  </i>
  <i name="subversion" type="string">(build Sep 03 2018 23:53:05) complex            parallel </i>
  <i name="platform" type="string">LinuxIFC </i>
  <i name="date" type="string">2021 11 26 </i>
  <i name="time" type="string">18:22:20 </i>
 </generator>
 <incar>
  <i type="string" name="SYSTEM"> 6_Pd100_top_free_z(O)</i>
  <i type="int" name="ISTART">     0</i>
  <i type="string" name="PREC">normal   			! encut=max(enmax), ngx,y,z</i>
  <i type="string" name="ALGO"> Fast     			! Mix RMM-DIIS and Dav</i>
  <i type="logical" name="ADDGRID"> F  </i>
  <i type="int" name="ISPIN">     1</i>
  <i type="int" name="ICHARG">     2</i>
  <i type="int" name="NELM">   100</i>
  <i type="int" name="NELMIN">     6</i>
  <i type="int" name="IBRION">     2</i>
  <i name="EDIFF">      0.00010000</i>
  <i name="EDIFFG">     -0.05000000</i>
  <i type="int" name="NSW">     0</i>
  <i type="int" name="ISIF">     2</i>
  <i type="int" name="ISYM">     2</i>
  <i name="ENCUT">    400.00000000</i>
  <i type="string" name="LREAL"> Auto     			! Auto or A projection done</i>
  <i type="int" name="ISMEAR">     2</i>
  <i name="SIGMA">      0.20000000</i>
  <i type="logical" name="LWAVE"> F  </i>
  <i type="logical" name="LCHARG"> F  </i>
  <v type="int" name="KPOINT_BSE">    -1     0     0     0</v>
  <i type="int" name="MAXMEM"> 10000</i>
  <i type="int" name="NELM">   100</i>
  <i type="string" name="GGA"> RP         			! Revised PBE</i>
 </incar>
 <structure name="primitive_cell" >
  <crystal>
   <varray name="basis" >
    <v>      30.00000000       0.00000000       0.00000000 </v>
    <v>       0.00000000      30.00000000       0.00000000 </v>
    <v>       0.00000000       0.00000000      30.00000000 </v>
   </varray>
   <i name="volume">  27000.00000000 </i>
   <varray name="rec_basis" >
    <v>       0.03333333       0.00000000       0.00000000 </v>
    <v>       0.00000000       0.03333333       0.00000000 </v>
    <v>       0.00000000       0.00000000       0.03333333 </v>
   </varray>
  </crystal>
  <varray name="positions" >
   <v>       0.44576020       0.32826710       0.41691983 </v>
   <v>      -0.44576020       0.32826710       0.41691983 </v>
   <v>      -0.50000000       0.38250690       0.34021317 </v>
   <v>      -0.50000000       0.27609440      -0.50000000 </v>
   <v>       0.38804720       0.38804720       0.34167483 </v>
   <v>      -0.50000000       0.38416601      -0.50000000 </v>
   <v>       0.44208300       0.44208300       0.41809300 </v>
   <v>       0.38317830       0.38317830      -0.50000000 </v>
   <v>      -0.44208300       0.44208300       0.41809300 </v>
   <v>       0.44576020       0.32826710      -0.41691977 </v>
   <v>       0.32826705       0.44576024       0.41691983 </v>
   <v>      -0.38804720       0.38804720       0.34167483 </v>
   <v>      -0.38317830       0.38317830      -0.50000000 </v>
   <v>      -0.50000000      -0.50000000       0.33478917 </v>
   <v>      -0.50000000      -0.50000000      -0.50000000 </v>
   <v>      -0.44576020       0.32826710      -0.41691977 </v>
   <v>       0.38250685      -0.49999995       0.34021317 </v>
   <v>       0.44208300       0.44208300      -0.41809297 </v>
   <v>       0.38416599      -0.49999998      -0.50000000 </v>
   <v>       0.46154470      -0.45777117       0.33829887 </v>
   <v>      -0.44208300       0.44208300      -0.41809297 </v>
   <v>       0.44208298      -0.44208298       0.41809300 </v>
   <v>       0.32826705       0.44576024      -0.41691977 </v>
   <v>       0.45311327      -0.44851237       0.30284543 </v>
   <v>      -0.50000000       0.38250690      -0.34021320 </v>
   <v>       0.32826712      -0.44576022       0.41691983 </v>
   <v>      -0.38250685      -0.49999995       0.34021317 </v>
   <v>      -0.32826705       0.44576024       0.41691983 </v>
   <v>       0.27609443       0.49999998      -0.50000000 </v>
   <v>       0.38804720       0.38804720      -0.34167487 </v>
   <v>      -0.38416599      -0.49999998      -0.50000000 </v>
   <v>      -0.44208298      -0.44208298       0.41809300 </v>
   <v>       0.44208298      -0.44208298      -0.41809297 </v>
   <v>      -0.38804720       0.38804720      -0.34167487 </v>
   <v>       0.38804722      -0.38804722       0.34167483 </v>
   <v>       0.38250685      -0.49999995      -0.34021320 </v>
   <v>       0.32826712      -0.44576022      -0.41691977 </v>
   <v>      -0.32826705       0.44576024      -0.41691977 </v>
   <v>       0.50000000      -0.38250681       0.34021317 </v>
   <v>      -0.50000000      -0.38416596      -0.50000000 </v>
   <v>      -0.44208298      -0.44208298      -0.41809297 </v>
   <v>      -0.50000000      -0.50000000      -0.33478913 </v>
   <v>       0.38317828      -0.38317828      -0.50000000 </v>
   <v>      -0.32826712      -0.44576022       0.41691983 </v>
   <v>      -0.27609443       0.49999998      -0.50000000 </v>
   <v>      -0.38804722      -0.38804722       0.34167483 </v>
   <v>      -0.38250685      -0.49999995      -0.34021320 </v>
   <v>       0.44576027      -0.32826707       0.41691983 </v>
   <v>      -0.38317828      -0.38317828      -0.50000000 </v>
   <v>      -0.32826712      -0.44576022      -0.41691977 </v>
   <v>      -0.44576027      -0.32826707       0.41691983 </v>
   <v>       0.38804722      -0.38804722      -0.34167487 </v>
   <v>      -0.50000000      -0.38250681      -0.34021320 </v>
   <v>       0.44576027      -0.32826707      -0.41691977 </v>
   <v>      -0.44576027      -0.32826707      -0.41691977 </v>
   <v>      -0.50000000      -0.27609445       0.50000000 </v>
   <v>      -0.38804722      -0.38804722      -0.34167487 </v>
  </varray>
 </structure>
 <varray name="primitive_index" >
  <v type="int" >        1 </v>
  <v type="int" >        3 </v>
  <v type="int" >        5 </v>
  <v type="int" >        7 </v>
  <v type="int" >       15 </v>
  <v type="int" >       29 </v>
  <v type="int" >       28 </v>
  <v type="int" >       34 </v>
  <v type="int" >       21 </v>
  <v type="int" >       19 </v>
  <v type="int" >       22 </v>
  <v type="int" >       11 </v>
  <v type="int" >       36 </v>
  <v type="int" >       38 </v>
  <v type="int" >       52 </v>
  <v type="int" >       24 </v>
  <v type="int" >       32 </v>
  <v type="int" >       44 </v>
  <v type="int" >       48 </v>
  <v type="int" >       56 </v>
  <v type="int" >       42 </v>
  <v type="int" >       43 </v>
  <v type="int" >       40 </v>
  <v type="int" >       57 </v>
  <v type="int" >        6 </v>
  <v type="int" >        4 </v>
  <v type="int" >       30 </v>
  <v type="int" >       26 </v>
  <v type="int" >        8 </v>
  <v type="int" >       16 </v>
  <v type="int" >       49 </v>
  <v type="int" >       47 </v>
  <v type="int" >       53 </v>
  <v type="int" >       12 </v>
  <v type="int" >       13 </v>
  <v type="int" >       33 </v>
  <v type="int" >       25 </v>
  <v type="int" >       45 </v>
  <v type="int" >       50 </v>
  <v type="int" >       55 </v>
  <v type="int" >       54 </v>
  <v type="int" >       39 </v>
  <v type="int" >       37 </v>
  <v type="int" >        2 </v>
  <v type="int" >        9 </v>
  <v type="int" >       17 </v>
  <v type="int" >       31 </v>
  <v type="int" >       27 </v>
  <v type="int" >       35 </v>
  <v type="int" >       20 </v>
  <v type="int" >       23 </v>
  <v type="int" >       14 </v>
  <v type="int" >       51 </v>
  <v type="int" >       46 </v>
  <v type="int" >       41 </v>
  <v type="int" >       10 </v>
  <v type="int" >       18 </v>
 </varray>
 <kpoints>
  <generation param="Monkhorst-Pack">
   <v type="int" name="divisions">       1        1        1 </v>
   <v name="usershift">      0.00000000       0.00000000       0.00000000 </v>
   <v name="genvec1">      1.00000000       0.00000000       0.00000000 </v>
   <v name="genvec2">      0.00000000       1.00000000       0.00000000 </v>
   <v name="genvec3">      0.00000000       0.00000000       1.00000000 </v>
   <v name="shift">      0.00000000       0.00000000       0.00000000 </v>
  </generation>
  <varray name="kpointlist" >
   <v>       0.00000000       0.00000000       0.00000000 </v>
  </varray>
  <varray name="weights" >
   <v>       1.00000000 </v>
  </varray>
 </kpoints>
 <parameters>
  <separator name="general" >
   <i type="string" name="SYSTEM">6_Pd100_top_free_z(O)</i>
   <i type="logical" name="LCOMPAT"> F  </i>
  </separator>
  <separator name="electronic" >
   <i type="string" name="PREC">normal</i>
   <i name="ENMAX">    400.00000000</i>
   <i name="ENAUG">    644.87300000</i>
   <i name="EDIFF">      0.00010000</i>
   <i type="int" name="IALGO">    68</i>
   <i type="int" name="IWAVPR">    10</i>
   <i type="int" name="NBANDS">   336</i>
   <i name="NELECT">    560.00000000</i>
   <i type="int" name="TURBO">     0</i>
   <i type="int" name="IRESTART">     0</i>
   <i type="int" name="NREBOOT">     0</i>
   <i type="int" name="NMIN">     0</i>
   <i name="EREF">      0.00000000</i>
   <separator name="electronic smearing" >
    <i type="int" name="ISMEAR">     2</i>
    <i name="SIGMA">      0.20000000</i>
    <i name="KSPACING">      0.50000000</i>
    <i type="logical" name="KGAMMA"> T  </i>
   </separator>
   <separator name="electronic projectors" >
    <i type="logical" name="LREAL"> T  </i>
    <v name="ROPT">     -0.00050000     -0.00050000     -0.00050000</v>
    <i type="int" name="LMAXPAW">  -100</i>
    <i type="int" name="LMAXMIX">     2</i>
    <i type="logical" name="NLSPLINE"> F  </i>
   </separator>
   <separator name="electronic startup" >
    <i type="int" name="ISTART">     0</i>
    <i type="int" name="ICHARG">     2</i>
    <i type="int" name="INIWAV">     1</i>
   </separator>
   <separator name="electronic spin" >
    <i type="int" name="ISPIN">     1</i>
    <i type="logical" name="LNONCOLLINEAR"> F  </i>
    <v name="MAGMOM">      1.00000000      1.00000000      1.00000000      1.00000000      1.00000000      1.00000000      1.00000000      1.00000000      1.00000000      1.00000000      1.00000000      1.00000000      1.00000000      1.00000000      1.00000000      1.00000000      1.00000000      1.00000000      1.00000000      1.00000000
      1.00000000      1.00000000      1.00000000      1.00000000      1.00000000      1.00000000      1.00000000      1.00000000      1.00000000      1.00000000      1.00000000      1.00000000      1.00000000      1.00000000      1.00000000      1.00000000      1.00000000      1.00000000      1.00000000      1.00000000
      1.00000000      1.00000000      1.00000000      1.00000000      1.00000000      1.00000000      1.00000000      1.00000000      1.00000000      1.00000000      1.00000000      1.00000000      1.00000000      1.00000000      1.00000000      1.00000000      1.00000000</v>
    <i name="NUPDOWN">     -1.00000000</i>
    <i type="logical" name="LSORBIT"> F  </i>
    <v name="SAXIS">      0.00000000      0.00000000      1.00000000</v>
    <i type="logical" name="LSPIRAL"> F  </i>
    <v name="QSPIRAL">      0.00000000      0.00000000      0.00000000</v>
    <i type="logical" name="LZEROZ"> F  </i>
   </separator>
   <separator name="electronic exchange-correlation" >
    <i type="logical" name="LASPH"> F  </i>
    <i type="logical" name="LMETAGGA"> F  </i>
   </separator>
   <separator name="electronic convergence" >
    <i type="int" name="NELM">   100</i>
    <i type="int" name="NELMDL">    -5</i>
    <i type="int" name="NELMIN">     6</i>
    <i name="ENINI">    400.00000000</i>
    <separator name="electronic convergence detail" >
     <i type="logical" name="LDIAG"> T  </i>
     <i type="logical" name="LSUBROT"> F  </i>
     <i name="WEIMIN">      0.00000000</i>
     <i name="EBREAK">      0.00000007</i>
     <i name="DEPER">      0.30000000</i>
     <i type="int" name="NRMM">     4</i>
     <i name="TIME">      0.40000000</i>
    </separator>
   </separator>
   <separator name="electronic mixer" >
    <i name="AMIX">      0.40000000</i>
    <i name="BMIX">      1.00000000</i>
    <i name="AMIN">      0.10000000</i>
    <i name="AMIX_MAG">      1.60000000</i>
    <i name="BMIX_MAG">      1.00000000</i>
    <separator name="electronic mixer details" >
     <i type="int" name="IMIX">     4</i>
     <i type="logical" name="MIXFIRST"> F  </i>
     <i type="int" name="MAXMIX">   -45</i>
     <i name="WC">    100.00000000</i>
     <i type="int" name="INIMIX">     1</i>
     <i type="int" name="MIXPRE">     1</i>
     <i type="int" name="MREMOVE">     5</i>
    </separator>
   </separator>
   <separator name="electronic dipolcorrection" >
    <i type="logical" name="LDIPOL"> F  </i>
    <i type="logical" name="LMONO"> F  </i>
    <i type="int" name="IDIPOL">     0</i>
    <i name="EPSILON">      1.00000000</i>
    <v name="DIPOL">   -100.00000000   -100.00000000   -100.00000000</v>
    <i name="EFIELD">      0.00000000</i>
   </separator>
  </separator>
  <separator name="grids" >
   <i type="int" name="NGX">   150</i>
   <i type="int" name="NGY">   150</i>
   <i type="int" name="NGZ">   150</i>
   <i type="int" name="NGXF">   300</i>
   <i type="int" name="NGYF">   300</i>
   <i type="int" name="NGZF">   300</i>
   <i type="logical" name="ADDGRID"> F  </i>
  </separator>
  <separator name="ionic" >
   <i type="int" name="NSW">     0</i>
   <i type="int" name="IBRION">    -1</i>
   <i type="int" name="MDALGO">     0</i>
   <i type="int" name="ISIF">     2</i>
   <i name="PSTRESS">      0.00000000</i>
   <i name="EDIFFG">     -0.05000000</i>
   <i type="int" name="NFREE">     1</i>
   <i name="POTIM">      0.50000000</i>
   <i name="SMASS">     -3.00000000</i>
   <i name="SCALEE">      1.00000000</i>
  </separator>
  <separator name="ionic md" >
   <i name="TEBEG">      0.00010000</i>
   <i name="TEEND">      0.00010000</i>
   <i type="int" name="NBLOCK">     1</i>
   <i type="int" name="KBLOCK">     1</i>
   <i type="int" name="NPACO">   256</i>
   <i name="APACO">     16.00000000</i>
  </separator>
  <separator name="symmetry" >
   <i type="int" name="ISYM">     2</i>
   <i name="SYMPREC">      0.00001000</i>
  </separator>
  <separator name="dos" >
   <i type="int" name="LORBIT">     0</i>
   <v name="RWIGS">     -1.00000000     -1.00000000     -1.00000000</v>
   <i type="int" name="NEDOS">   301</i>
   <i name="EMIN">     10.00000000</i>
   <i name="EMAX">    -10.00000000</i>
   <i name="EFERMI">      0.00000000</i>
  </separator>
  <separator name="writing" >
   <i type="int" name="NWRITE">     2</i>
   <i type="logical" name="LWAVE"> F  </i>
   <i type="logical" name="LDOWNSAMPLE"> F  </i>
   <i type="logical" name="LCHARG"> F  </i>
   <i type="logical" name="LPARD"> F  </i>
   <i type="logical" name="LVTOT"> F  </i>
   <i type="logical" name="LVHAR"> F  </i>
   <i type="logical" name="LELF"> F  </i>
   <i type="logical" name="LOPTICS"> F  </i>
   <v name="STM">      0.00000000      0.00000000      0.00000000      0.00000000      0.00000000      0.00000000      0.00000000</v>
  </separator>
  <separator name="performance" >
   <i type="int" name="NPAR">     1</i>
   <i type="int" name="NSIM">     4</i>
   <i type="int" name="NBLK">    -1</i>
   <i type="logical" name="LPLANE"> T  </i>
   <i type="logical" name="LSCALAPACK"> T  </i>
   <i type="logical" name="LSCAAWARE"> F  </i>
   <i type="logical" name="LSCALU"> F  </i>
   <i type="logical" name="LASYNC"> F  </i>
   <i type="logical" name="LORBITALREAL"> F  </i>
  </separator>
  <separator name="miscellaneous" >
   <i type="int" name="IDIOT">     3</i>
   <i type="int" name="ISPECIAL">     0</i>
   <i type="logical" name="LMUSIC"> F  </i>
   <v name="POMASS">    106.42000000     12.01100000     16.00000000</v>
   <v name="DARWINR">      0.00000000      0.00000000      0.00000000</v>
   <v name="DARWINV">      1.00000000      1.00000000      1.00000000</v>
   <i type="logical" name="LCORR"> T  </i>
  </separator>
  <i type="logical" name="GGA_COMPAT"> T  </i>
  <i type="logical" name="LBERRY"> F  </i>
  <i type="int" name="ICORELEVEL">     0</i>
  <i type="logical" name="LDAU"> F  </i>
  <i type="int" name="I_CONSTRAINED_M">     0</i>
  <separator name="electronic exchange-correlation" >
   <i type="string" name="GGA">RP</i>
   <i type="int" name="VOSKOWN">     0</i>
   <i type="logical" name="LHFCALC"> F  </i>
   <i type="string" name="PRECFOCK"></i>
   <i type="logical" name="LSYMGRAD"> F  </i>
   <i type="logical" name="LHFONE"> F  </i>
   <i type="logical" name="LRHFCALC"> F  </i>
   <i type="logical" name="LTHOMAS"> F  </i>
   <i type="logical" name="LMODELHF"> F  </i>
   <i name="ENCUT4O">     -1.00000000</i>
   <i type="int" name="EXXOEP">     0</i>
   <i type="int" name="FOURORBIT">     0</i>
   <i name="AEXX">      0.00000000</i>
   <i name="HFALPHA">      0.00000000</i>
   <i name="MCALPHA">      0.00000000</i>
   <i name="ALDAX">      1.00000000</i>
   <i name="AGGAX">      1.00000000</i>
   <i name="ALDAC">      1.00000000</i>
   <i name="AGGAC">      1.00000000</i>
   <i type="int" name="NKREDX">     1</i>
   <i type="int" name="NKREDY">     1</i>
   <i type="int" name="NKREDZ">     1</i>
   <i type="logical" name="SHIFTRED"> F  </i>
   <i type="logical" name="ODDONLY"> F  </i>
   <i type="logical" name="EVENONLY"> F  </i>
   <i type="int" name="LMAXFOCK">     0</i>
   <i type="int" name="NMAXFOCKAE">     0</i>
   <i type="logical" name="LFOCKAEDFT"> F  </i>
   <i name="HFSCREEN">      0.00000000</i>
   <i name="HFSCREENC">      0.00000000</i>
   <i type="int" name="NBANDSGWLOW">     0</i>
  </separator>
  <separator name="vdW DFT" >
   <i type="logical" name="LUSE_VDW"> F  </i>
   <i name="Zab_VDW">     -0.84910000</i>
   <i name="PARAM1">      0.12340000</i>
   <i name="PARAM2">      1.00000000</i>
   <i name="PARAM3">      0.00000000</i>
  </separator>
  <separator name="model GW" >
   <i type="int" name="MODEL_GW">     0</i>
   <i name="MODEL_EPS0">    284.21052632</i>
   <i name="MODEL_ALPHA">      1.00000000</i>
  </separator>
  <separator name="linear response parameters" >
   <i type="logical" name="LEPSILON"> F  </i>
   <i type="logical" name="LRPA"> F  </i>
   <i type="logical" name="LNABLA"> F  </i>
   <i type="logical" name="LVEL"> F  </i>
   <i type="int" name="KINTER">     0</i>
   <i name="CSHIFT">      0.10000000</i>
   <i name="OMEGAMAX">     -1.00000000</i>
   <i name="DEG_THRESHOLD">      0.00200000</i>
   <i name="RTIME">     -0.10000000</i>
   <i name="WPLASMAI">      0.00000000</i>
   <v name="DFIELD">      0.00000000      0.00000000      0.00000000</v>
   <v name="WPLASMA">      0.00000000      0.00000000      0.00000000      0.00000000      0.00000000      0.00000000      0.00000000      0.00000000      0.00000000</v>
  </separator>
  <separator name="orbital magnetization" >
   <i type="logical" name="NUCIND"> F  </i>
   <v name="MAGPOS">      0.00000000      0.00000000      0.00000000</v>
   <i type="logical" name="LNICSALL"> T  </i>
   <i type="logical" name="ORBITALMAG"> F  </i>
   <i type="logical" name="LMAGBLOCH"> F  </i>
   <i type="logical" name="LCHIMAG"> F  </i>
   <i type="logical" name="LGAUGE"> T  </i>
   <i type="int" name="MAGATOM">     0</i>
   <v name="MAGDIPOL">      0.00000000      0.00000000      0.00000000</v>
   <v name="AVECCONST">      0.00000000      0.00000000      0.00000000</v>
  </separator>
  <separator name="response functions" >
   <i type="logical" name="LADDER"> F  </i>
   <i type="logical" name="LRPAFORCE"> F  </i>
   <i type="logical" name="LFXC"> F  </i>
   <i type="logical" name="LHARTREE"> T  </i>
   <i type="int" name="IBSE">     0</i>
   <v type="int" name="KPOINT">    -1     0     0     0</v>
   <i type="logical" name="LTCTE"> F  </i>
   <i type="logical" name="LTETE"> F  </i>
   <i type="logical" name="LTRIPLET"> F  </i>
   <i type="logical" name="LFXCEPS"> F  </i>
   <i type="logical" name="LFXHEG"> F  </i>
   <i type="int" name="NATURALO">     2</i>
   <i type="logical" name="L2ORDER"> F  </i>
   <i type="logical" name="LMP2LT"> F  </i>
   <i type="logical" name="LUSEW"> F  </i>
   <i name="ENCUTGW">     -2.00000000</i>
   <i name="ENCUTGWSOFT">     -2.00000000</i>
   <i name="ENCUTLF">     -1.00000000</i>
   <i type="int" name="LMAXMP2">    -1</i>
   <i name="SCISSOR">      0.00000000</i>
   <i type="int" name="NOMEGA">     0</i>
   <i type="int" name="NOMEGAR">     0</i>
   <i type="int" name="NBANDSGW">    -1</i>
   <i type="int" name="NBANDSO">    -1</i>
   <i type="int" name="NBANDSV">    -1</i>
   <i type="int" name="NELM">   100</i>
   <i type="int" name="NELMHF">     1</i>
   <i type="int" name="DIM">     3</i>
   <i type="int" name="ANTIRES">     0</i>
   <i name="OMEGAMAX">    -30.00000000</i>
   <i name="OMEGAMIN">    -30.00000000</i>
   <i name="OMEGATL">   -200.00000000</i>
   <i type="int" name="OMEGAGRID">   140</i>
   <i name="CSHIFT">     -0.10000000</i>
   <i type="logical" name="SELFENERGY"> F  </i>
   <i type="logical" name="LSPECTRAL"> F  </i>
   <i type="logical" name="LSPECTRALGW"> F  </i>
   <i type="logical" name="LSINGLES"> F  </i>
   <i type="logical" name="LFERMIGW"> F  </i>
   <i type="logical" name="ODDONLYGW"> F  </i>
   <i type="logical" name="EVENONLYGW"> F  </i>
   <i type="int" name="NKREDLFX">     1</i>
   <i type="int" name="NKREDLFY">     1</i>
   <i type="int" name="NKREDLFZ">     1</i>
   <i type="int" name="MAXMEM"> 10000</i>
   <i type="int" name="TELESCOPE">     0</i>
   <i type="int" name="TAUPAR">     1</i>
   <i type="int" name="OMEGAPAR">    -1</i>
   <i name="LAMBDA">      1.00000000</i>
  </separator>
  <separator name="External order field" >
   <i name="OFIELD_KAPPA">      0.00000000</i>
   <v name="OFIELD_K">      0.00000000      0.00000000      0.00000000</v>
   <i name="OFIELD_Q6_NEAR">      0.00000000</i>
   <i name="OFIELD_Q6_FAR">      0.00000000</i>
   <i name="OFIELD_A">      0.00000000</i>
  </separator>
 </parameters>
 <atominfo>
  <atoms>      57 </atoms>
  <types>       3 </types>
  <array name="atoms" >
   <dimension dim="1">ion</dimension>
   <field type="string">element</field>
   <field type="int">atomtype</field>
   <set>
    <rc><c>Pd</c><c>   1</c></rc>
    <rc><c>Pd</c><c>   1</c></rc>
    <rc><c>Pd</c><c>   1</c></rc>
    <rc><c>Pd</c><c>   1</c></rc>
    <rc><c>Pd</c><c>   1</c></rc>
    <rc><c>Pd</c><c>   1</c></rc>
    <rc><c>Pd</c><c>   1</c></rc>
    <rc><c>Pd</c><c>   1</c></rc>
    <rc><c>Pd</c><c>   1</c></rc>
    <rc><c>Pd</c><c>   1</c></rc>
    <rc><c>Pd</c><c>   1</c></rc>
    <rc><c>Pd</c><c>   1</c></rc>
    <rc><c>Pd</c><c>   1</c></rc>
    <rc><c>Pd</c><c>   1</c></rc>
    <rc><c>Pd</c><c>   1</c></rc>
    <rc><c>Pd</c><c>   1</c></rc>
    <rc><c>Pd</c><c>   1</c></rc>
    <rc><c>Pd</c><c>   1</c></rc>
    <rc><c>Pd</c><c>   1</c></rc>
    <rc><c>Pd</c><c>   1</c></rc>
    <rc><c>Pd</c><c>   1</c></rc>
    <rc><c>Pd</c><c>   1</c></rc>
    <rc><c>Pd</c><c>   1</c></rc>
    <rc><c>Pd</c><c>   1</c></rc>
    <rc><c>Pd</c><c>   1</c></rc>
    <rc><c>Pd</c><c>   1</c></rc>
    <rc><c>Pd</c><c>   1</c></rc>
    <rc><c>Pd</c><c>   1</c></rc>
    <rc><c>Pd</c><c>   1</c></rc>
    <rc><c>Pd</c><c>   1</c></rc>
    <rc><c>Pd</c><c>   1</c></rc>
    <rc><c>Pd</c><c>   1</c></rc>
    <rc><c>Pd</c><c>   1</c></rc>
    <rc><c>Pd</c><c>   1</c></rc>
    <rc><c>Pd</c><c>   1</c></rc>
    <rc><c>Pd</c><c>   1</c></rc>
    <rc><c>Pd</c><c>   1</c></rc>
    <rc><c>Pd</c><c>   1</c></rc>
    <rc><c>Pd</c><c>   1</c></rc>
    <rc><c>Pd</c><c>   1</c></rc>
    <rc><c>Pd</c><c>   1</c></rc>
    <rc><c>Pd</c><c>   1</c></rc>
    <rc><c>Pd</c><c>   1</c></rc>
    <rc><c>Pd</c><c>   1</c></rc>
    <rc><c>Pd</c><c>   1</c></rc>
    <rc><c>Pd</c><c>   1</c></rc>
    <rc><c>Pd</c><c>   1</c></rc>
    <rc><c>Pd</c><c>   1</c></rc>
    <rc><c>Pd</c><c>   1</c></rc>
    <rc><c>Pd</c><c>   1</c></rc>
    <rc><c>Pd</c><c>   1</c></rc>
    <rc><c>Pd</c><c>   1</c></rc>
    <rc><c>Pd</c><c>   1</c></rc>
    <rc><c>Pd</c><c>   1</c></rc>
    <rc><c>Pd</c><c>   1</c></rc>
    <rc><c>C </c><c>   2</c></rc>
    <rc><c>O </c><c>   3</c></rc>
   </set>
  </array>
  <array name="atomtypes" >
   <dimension dim="1">type</dimension>
   <field type="int">atomspertype</field>
   <field type="string">element</field>
   <field>mass</field>
   <field>valence</field>
   <field type="string">pseudopotential</field>
   <set>
    <rc><c>  55</c><c>Pd</c><c>    106.42000000</c><c>     10.00000000</c><c>  PAW_PBE Pd 04Jan2005                  </c></rc>
    <rc><c>   1</c><c>C </c><c>     12.01100000</c><c>      4.00000000</c><c>  PAW_PBE C 08Apr2002                   </c></rc>
    <rc><c>   1</c><c>O </c><c>     16.00000000</c><c>      6.00000000</c><c>  PAW_PBE O 08Apr2002                   </c></rc>
   </set>
  </array>
 </atominfo>
 <structure name="initialpos" >
  <crystal>
   <varray name="basis" >
    <v>      30.00000000       0.00000000       0.00000000 </v>
    <v>       0.00000000      30.00000000       0.00000000 </v>
    <v>       0.00000000       0.00000000      30.00000000 </v>
   </varray>
   <i name="volume">  27000.00000000 </i>
   <varray name="rec_basis" >
    <v>       0.03333333       0.00000000       0.00000000 </v>
    <v>       0.00000000       0.03333333       0.00000000 </v>
    <v>       0.00000000       0.00000000       0.03333333 </v>
   </varray>
  </crystal>
  <varray name="positions" >
   <v>       0.44576020       0.32826710       0.41691983 </v>
   <v>       0.67173288       0.55423978       0.41691983 </v>
   <v>       0.55423980       0.32826710       0.41691983 </v>
   <v>       0.32826712       0.55423978       0.41691983 </v>
   <v>       0.50000000       0.38250690       0.34021317 </v>
   <v>       0.50000000       0.38250690       0.65978680 </v>
   <v>       0.50000000       0.27609440       0.50000000 </v>
   <v>       0.27609443       0.49999998       0.50000000 </v>
   <v>       0.72390557       0.49999998       0.50000000 </v>
   <v>       0.50000000       0.72390555       0.50000000 </v>
   <v>       0.61195280       0.38804720       0.34167483 </v>
   <v>       0.61195280       0.38804720       0.65832513 </v>
   <v>       0.38804722       0.61195278       0.34167483 </v>
   <v>       0.38804722       0.61195278       0.65832513 </v>
   <v>       0.38804720       0.38804720       0.34167483 </v>
   <v>       0.38804720       0.38804720       0.65832513 </v>
   <v>       0.61195278       0.61195278       0.34167483 </v>
   <v>       0.61195278       0.61195278       0.65832513 </v>
   <v>       0.44576020       0.32826710       0.58308023 </v>
   <v>       0.67173288       0.55423978       0.58308023 </v>
   <v>       0.55791699       0.44208301       0.41809300 </v>
   <v>       0.32826705       0.44576024       0.41691983 </v>
   <v>       0.55423973       0.67173293       0.41691983 </v>
   <v>       0.55423980       0.32826710       0.58308023 </v>
   <v>       0.32826712       0.55423978       0.58308023 </v>
   <v>       0.67173295       0.44576024       0.41691983 </v>
   <v>       0.44576027       0.67173293       0.41691983 </v>
   <v>       0.44208301       0.44208301       0.41809300 </v>
   <v>       0.50000000       0.38416601       0.50000000 </v>
   <v>       0.61749315       0.50000005       0.34021317 </v>
   <v>       0.61749315       0.50000005       0.65978680 </v>
   <v>       0.38250685       0.50000005       0.34021317 </v>
   <v>       0.38250685       0.50000005       0.65978680 </v>
   <v>       0.38317830       0.38317830       0.50000000 </v>
   <v>       0.61682172       0.61682172       0.50000000 </v>
   <v>       0.61682170       0.38317830       0.50000000 </v>
   <v>       0.38317828       0.61682172       0.50000000 </v>
   <v>       0.50000000       0.50000000       0.33478917 </v>
   <v>       0.50000000       0.50000000       0.66521087 </v>
   <v>       0.32826705       0.44576024       0.58308023 </v>
   <v>       0.55423973       0.67173293       0.58308023 </v>
   <v>       0.55791699       0.44208301       0.58190703 </v>
   <v>       0.44208298       0.55791702       0.41809300 </v>
   <v>       0.44208301       0.44208301       0.58190703 </v>
   <v>       0.67173295       0.44576024       0.58308023 </v>
   <v>       0.44576027       0.67173293       0.58308023 </v>
   <v>       0.55791702       0.55791702       0.41809300 </v>
   <v>       0.38416599       0.50000002       0.50000000 </v>
   <v>       0.61583401       0.50000002       0.50000000 </v>
   <v>       0.50000000       0.61749319       0.34021317 </v>
   <v>       0.50000000       0.61749319       0.65978680 </v>
   <v>       0.50000000       0.50000000       0.50000000 </v>
   <v>       0.44208298       0.55791702       0.58190703 </v>
   <v>       0.55791702       0.55791702       0.58190703 </v>
   <v>       0.50000000       0.61583404       0.50000000 </v>
   <v>       0.46154470       0.54222883       0.33829887 </v>
   <v>       0.45311327       0.55148763       0.30284543 </v>
  </varray>
  <varray name="selective"  type="logical" >
   <v type="logical" >  F  F  F </v>
   <v type="logical" >  F  F  F </v>
   <v type="logical" >  F  F  F </v>
   <v type="logical" >  F  F  F </v>
   <v type="logical" >  F  F  F </v>
   <v type="logical" >  F  F  F </v>
   <v type="logical" >  F  F  F </v>
   <v type="logical" >  F  F  F </v>
   <v type="logical" >  F  F  F </v>
   <v type="logical" >  F  F  F </v>
   <v type="logical" >  F  F  F </v>
   <v type="logical" >  F  F  F </v>
   <v type="logical" >  F  F  F </v>
   <v type="logical" >  F  F  F </v>
   <v type="logical" >  F  F  F </v>
   <v type="logical" >  F  F  F </v>
   <v type="logical" >  F  F  F </v>
   <v type="logical" >  F  F  F </v>
   <v type="logical" >  F  F  F </v>
   <v type="logical" >  F  F  F </v>
   <v type="logical" >  F  F  F </v>
   <v type="logical" >  F  F  F </v>
   <v type="logical" >  F  F  F </v>
   <v type="logical" >  F  F  F </v>
   <v type="logical" >  F  F  F </v>
   <v type="logical" >  F  F  F </v>
   <v type="logical" >  F  F  F </v>
   <v type="logical" >  F  F  F </v>
   <v type="logical" >  F  F  F </v>
   <v type="logical" >  F  F  F </v>
   <v type="logical" >  F  F  F </v>
   <v type="logical" >  F  F  F </v>
   <v type="logical" >  F  F  F </v>
   <v type="logical" >  F  F  F </v>
   <v type="logical" >  F  F  F </v>
   <v type="logical" >  F  F  F </v>
   <v type="logical" >  F  F  F </v>
   <v type="logical" >  F  F  F </v>
   <v type="logical" >  F  F  F </v>
   <v type="logical" >  F  F  F </v>
   <v type="logical" >  F  F  F </v>
   <v type="logical" >  F  F  F </v>
   <v type="logical" >  F  F  F </v>
   <v type="logical" >  F  F  F </v>
   <v type="logical" >  F  F  F </v>
   <v type="logical" >  F  F  F </v>
   <v type="logical" >  F  F  F </v>
   <v type="logical" >  F  F  F </v>
   <v type="logical" >  F  F  F </v>
   <v type="logical" >  F  F  F </v>
   <v type="logical" >  F  F  F </v>
   <v type="logical" >  F  F  F </v>
   <v type="logical" >  F  F  F </v>
   <v type="logical" >  F  F  F </v>
   <v type="logical" >  F  F  F </v>
   <v type="logical" >  F  F  F </v>
   <v type="logical" >  F  F  F </v>
  </varray>
  <nose>
   <v>      -3.00000000       0.00000000       0.00010000       0.00010000 </v>
  </nose>
 </structure>
 <calculation>
  <scstep>
   <time name="dav">  572.50  572.66</time>
   <time name="total">  592.12  592.29</time>
   <energy>
    <i name="alphaZ">     75.25431677 </i>
    <i name="ewald"> 140726.92618489 </i>
    <i name="hartreedc">-184072.03163614 </i>
    <i name="XCdc">  -1701.15140020 </i>
    <i name="pawpsdc">  44873.02882129 </i>
    <i name="pawaedc"> -41398.84523641 </i>
    <i name="eentropy">     -0.02667926 </i>
    <i name="bandstr">    814.20698789 </i>
    <i name="atom">  45086.50549395 </i>
    <i name="e_fr_energy">   4403.86685279 </i>
    <i name="e_wo_entrp">   4403.89353205 </i>
    <i name="e_0_energy">   4403.87352261 </i>
   </energy>
  </scstep>
  <scstep>
   <time name="dav">  898.90  898.91</time>
   <time name="total">  898.90  898.91</time>
   <energy>
    <i name="e_fr_energy">   2013.81087908 </i>
    <i name="e_wo_entrp">   2013.85372138 </i>
    <i name="e_0_energy">   2013.82158965 </i>
   </energy>
  </scstep>
  <scstep>
   <time name="dav">  758.71  758.72</time>
   <time name="total">  758.71  758.72</time>
   <energy>
    <i name="e_fr_energy">    234.72588066 </i>
    <i name="e_wo_entrp">    234.71598975 </i>
    <i name="e_0_energy">    234.72340794 </i>
   </energy>
  </scstep>
  <scstep>
   <time name="dav">  644.40  644.42</time>
   <time name="total">  644.41  644.42</time>
   <energy>
    <i name="e_fr_energy">   -134.05510125 </i>
    <i name="e_wo_entrp">   -134.04464234 </i>
    <i name="e_0_energy">   -134.05248652 </i>
   </energy>
  </scstep>
  <scstep>
   <time name="dav">  738.10  738.12</time>
   <time name="total">  777.51  777.53</time>
   <energy>
    <i name="e_fr_energy">   -179.45580849 </i>
    <i name="e_wo_entrp">   -179.91297905 </i>
    <i name="e_0_energy">   -179.57010113 </i>
   </energy>
  </scstep>
  <scstep>
   <time name="diag">   97.00   97.01</time>
   <time name="diis">  290.33  290.33</time>
   <time name="orth">   20.38   20.38</time>
   <time name="total">  463.95  463.96</time>
   <energy>
    <i name="e_fr_energy">   -179.33098120 </i>
    <i name="e_wo_entrp">   -179.06231215 </i>
    <i name="e_0_energy">   -179.26381394 </i>
   </energy>
  </scstep>
  <scstep>
   <time name="diag">   98.20   98.21</time>
   <time name="diis">  333.29  333.30</time>
   <time name="orth">   19.39   19.39</time>
   <time name="total">  504.89  504.90</time>
   <energy>
    <i name="e_fr_energy">   -181.68123607 </i>
    <i name="e_wo_entrp">   -181.61393418 </i>
    <i name="e_0_energy">   -181.66441060 </i>
   </energy>
  </scstep>
  <scstep>
   <time name="diag">  103.38  103.38</time>
   <time name="diis">  299.30  299.31</time>
   <time name="orth">   19.30   19.30</time>
   <time name="total">  475.80  475.81</time>
   <energy>
    <i name="e_fr_energy">   -186.54681481 </i>
    <i name="e_wo_entrp">   -186.30496316 </i>
    <i name="e_0_energy">   -186.48635189 </i>
   </energy>
  </scstep>
  <scstep>
   <time name="diag">  104.78  104.78</time>
   <time name="diis">  288.70  288.71</time>
   <time name="orth">   19.39   19.39</time>
   <time name="total">  468.09  468.10</time>
   <energy>
    <i name="e_fr_energy">   -184.06288453 </i>
    <i name="e_wo_entrp">   -183.86103281 </i>
    <i name="e_0_energy">   -184.01242160 </i>
   </energy>
  </scstep>
  <scstep>
   <time name="diag">  103.51  103.52</time>
   <time name="diis">  281.56  281.57</time>
   <time name="orth">   20.35   20.35</time>
   <time name="total">  463.32  463.33</time>
   <energy>
    <i name="e_fr_energy">   -179.17918804 </i>
    <i name="e_wo_entrp">   -179.08870403 </i>
    <i name="e_0_energy">   -179.15656704 </i>
   </energy>
  </scstep>
  <scstep>
   <time name="diag">  102.34  102.34</time>
   <time name="diis">  274.03  274.04</time>
   <time name="orth">   19.41   19.41</time>
   <time name="total">  454.96  454.98</time>
   <energy>
    <i name="e_fr_energy">   -177.66340464 </i>
    <i name="e_wo_entrp">   -177.54740669 </i>
    <i name="e_0_energy">   -177.63440515 </i>
   </energy>
  </scstep>
  <scstep>
   <time name="diag">  100.59  100.59</time>
   <time name="diis">  279.74  279.75</time>
   <time name="orth">   20.15   20.15</time>
   <time name="total">  458.74  458.75</time>
   <energy>
    <i name="e_fr_energy">   -176.77291974 </i>
    <i name="e_wo_entrp">   -176.74108262 </i>
    <i name="e_0_energy">   -176.76496046 </i>
   </energy>
  </scstep>
  <scstep>
   <time name="diag">  101.05  101.05</time>
   <time name="diis">  280.99  281.00</time>
   <time name="orth">   20.30   20.30</time>
   <time name="total">  460.91  460.93</time>
   <energy>
    <i name="e_fr_energy">   -176.24793967 </i>
    <i name="e_wo_entrp">   -176.15353112 </i>
    <i name="e_0_energy">   -176.22433753 </i>
   </energy>
  </scstep>
  <scstep>
   <time name="diag">   97.73   97.73</time>
   <time name="diis">  278.33  278.34</time>
   <time name="orth">   20.29   20.29</time>
   <time name="total">  454.23  454.25</time>
   <energy>
    <i name="e_fr_energy">   -176.93051478 </i>
    <i name="e_wo_entrp">   -177.01286483 </i>
    <i name="e_0_energy">   -176.95110229 </i>
   </energy>
  </scstep>
  <scstep>
   <time name="diag">   97.76   97.77</time>
   <time name="diis">  273.57  273.58</time>
   <time name="orth">   20.23   20.23</time>
   <time name="total">  449.81  449.83</time>
   <energy>
    <i name="e_fr_energy">   -175.22543170 </i>
    <i name="e_wo_entrp">   -175.17693746 </i>
    <i name="e_0_energy">   -175.21330814 </i>
   </energy>
  </scstep>
  <scstep>
   <time name="diag">   97.33   97.34</time>
   <time name="diis">  272.47  272.47</time>
   <time name="orth">   20.40   20.40</time>
   <time name="total">  448.86  448.88</time>
   <energy>
    <i name="e_fr_energy">   -174.68980634 </i>
    <i name="e_wo_entrp">   -174.69870956 </i>
    <i name="e_0_energy">   -174.69203214 </i>
   </energy>
  </scstep>
  <scstep>
   <time name="diag">   92.33   92.33</time>
   <time name="diis">  258.51  258.52</time>
   <time name="orth">   19.30   19.30</time>
   <time name="total">  424.48  424.49</time>
   <energy>
    <i name="e_fr_energy">   -174.86421825 </i>
    <i name="e_wo_entrp">   -174.95534204 </i>
    <i name="e_0_energy">   -174.88699920 </i>
   </energy>
  </scstep>
  <scstep>
   <time name="diag">   93.08   93.08</time>
   <time name="diis">  248.94  248.96</time>
   <time name="orth">   18.05   18.05</time>
   <time name="total">  410.56  410.58</time>
   <energy>
    <i name="e_fr_energy">   -174.87053384 </i>
    <i name="e_wo_entrp">   -174.88395564 </i>
    <i name="e_0_energy">   -174.87388929 </i>
   </energy>
  </scstep>
  <scstep>
   <time name="diag">   89.45   89.46</time>
   <time name="diis">  242.99  243.01</time>
   <time name="orth">   18.10   18.10</time>
   <time name="total">  399.72  399.74</time>
   <energy>
    <i name="e_fr_energy">   -174.71106243 </i>
    <i name="e_wo_entrp">   -174.70116141 </i>
    <i name="e_0_energy">   -174.70858718 </i>
   </energy>
  </scstep>
  <scstep>
   <time name="diag">   89.74   89.75</time>
   <time name="diis">  241.62  241.63</time>
   <time name="orth">   17.85   17.85</time>
   <time name="total">  397.50  397.52</time>
   <energy>
    <i name="e_fr_energy">   -174.41793081 </i>
    <i name="e_wo_entrp">   -174.39924625 </i>
    <i name="e_0_energy">   -174.41325967 </i>
   </energy>
  </scstep>
  <scstep>
   <time name="diag">   88.67   88.68</time>
   <time name="diis">  239.90  239.91</time>
   <time name="orth">   18.09   18.09</time>
   <time name="total">  395.41  395.42</time>
   <energy>
    <i name="e_fr_energy">   -174.24542282 </i>
    <i name="e_wo_entrp">   -174.19443668 </i>
    <i name="e_0_energy">   -174.23267629 </i>
   </energy>
  </scstep>
  <scstep>
   <time name="diag">   89.68   89.68</time>
   <time name="diis">  239.98  239.98</time>
   <time name="orth">   18.08   18.08</time>
   <time name="total">  396.58  396.60</time>
   <energy>
    <i name="e_fr_energy">   -174.16608911 </i>
    <i name="e_wo_entrp">   -174.13742391 </i>
    <i name="e_0_energy">   -174.15892281 </i>
   </energy>
  </scstep>
  <scstep>
   <time name="diag">   89.93   89.93</time>
   <time name="diis">  239.47  239.47</time>
   <time name="orth">   17.83   17.83</time>
   <time name="total">  395.90  395.91</time>
   <energy>
    <i name="e_fr_energy">   -174.02837790 </i>
    <i name="e_wo_entrp">   -174.00025125 </i>
    <i name="e_0_energy">   -174.02134624 </i>
   </energy>
  </scstep>
  <scstep>
   <time name="diag">   90.22   90.22</time>
   <time name="diis">  239.90  239.90</time>
   <time name="orth">   17.73   17.73</time>
   <time name="total">  395.87  395.88</time>
   <energy>
    <i name="e_fr_energy">   -173.99014798 </i>
    <i name="e_wo_entrp">   -173.94552273 </i>
    <i name="e_0_energy">   -173.97899167 </i>
   </energy>
  </scstep>
  <scstep>
   <time name="diag">   89.29   89.30</time>
   <time name="diis">  239.37  239.38</time>
   <time name="orth">   17.77   17.77</time>
   <time name="total">  395.05  395.06</time>
   <energy>
    <i name="e_fr_energy">   -173.93898107 </i>
    <i name="e_wo_entrp">   -173.90115171 </i>
    <i name="e_0_energy">   -173.92952373 </i>
   </energy>
  </scstep>
  <scstep>
   <time name="diag">   90.69   90.69</time>
   <time name="diis">  238.64  238.65</time>
   <time name="orth">   17.55   17.55</time>
   <time name="total">  395.30  395.32</time>
   <energy>
    <i name="e_fr_energy">   -173.89992714 </i>
    <i name="e_wo_entrp">   -173.86115363 </i>
    <i name="e_0_energy">   -173.89023376 </i>
   </energy>
  </scstep>
  <scstep>
   <time name="diag">   90.42   90.42</time>
   <time name="diis">  237.91  237.92</time>
   <time name="orth">   17.57   17.57</time>
   <time name="total">  394.45  394.47</time>
   <energy>
    <i name="e_fr_energy">   -173.89251882 </i>
    <i name="e_wo_entrp">   -173.85547084 </i>
    <i name="e_0_energy">   -173.88325683 </i>
   </energy>
  </scstep>
  <scstep>
   <time name="diag">   89.84   89.85</time>
   <time name="diis">  237.13  237.14</time>
   <time name="orth">   17.41   17.41</time>
   <time name="total">  393.13  393.15</time>
   <energy>
    <i name="e_fr_energy">   -173.86381157 </i>
    <i name="e_wo_entrp">   -173.81957200 </i>
    <i name="e_0_energy">   -173.85275168 </i>
   </energy>
  </scstep>
  <scstep>
   <time name="diag">   90.26   90.27</time>
   <time name="diis">  239.87  239.88</time>
   <time name="orth">   17.49   17.49</time>
   <time name="total">  396.21  396.24</time>
   <energy>
    <i name="e_fr_energy">   -173.85655939 </i>
    <i name="e_wo_entrp">   -173.80530193 </i>
    <i name="e_0_energy">   -173.84374503 </i>
   </energy>
  </scstep>
  <scstep>
   <time name="diag">   90.83   90.83</time>
   <time name="diis">  238.47  238.48</time>
   <time name="orth">   17.21   17.21</time>
   <time name="total">  394.98  395.00</time>
   <energy>
    <i name="e_fr_energy">   -173.85272829 </i>
    <i name="e_wo_entrp">   -173.80390161 </i>
    <i name="e_0_energy">   -173.84052162 </i>
   </energy>
  </scstep>
  <scstep>
   <time name="diag">   90.27   90.27</time>
   <time name="diis">  237.68  237.69</time>
   <time name="orth">   17.46   17.46</time>
   <time name="total">  394.62  394.64</time>
   <energy>
    <i name="e_fr_energy">   -173.84314899 </i>
    <i name="e_wo_entrp">   -173.79652762 </i>
    <i name="e_0_energy">   -173.83149365 </i>
   </energy>
  </scstep>
  <scstep>
   <time name="diag">   91.40   91.44</time>
   <time name="diis">  239.11  239.23</time>
   <time name="orth">   17.48   17.49</time>
   <time name="total">  397.41  397.60</time>
   <energy>
    <i name="e_fr_energy">   -173.84080783 </i>
    <i name="e_wo_entrp">   -173.79875833 </i>
    <i name="e_0_energy">   -173.83029546 </i>
   </energy>
  </scstep>
  <scstep>
   <time name="diag">  112.63  112.64</time>
   <time name="diis">  288.98  289.00</time>
   <time name="orth">   20.38   20.38</time>
   <time name="total">  477.33  477.36</time>
   <energy>
    <i name="e_fr_energy">   -173.83905397 </i>
    <i name="e_wo_entrp">   -173.79677103 </i>
    <i name="e_0_energy">   -173.82848324 </i>
   </energy>
  </scstep>
  <scstep>
   <time name="diag">  104.06  104.07</time>
   <time name="diis">  267.91  267.93</time>
   <time name="orth">   21.28   21.28</time>
   <time name="total">  451.47  451.50</time>
   <energy>
    <i name="e_fr_energy">   -173.83640071 </i>
    <i name="e_wo_entrp">   -173.78776294 </i>
    <i name="e_0_energy">   -173.82424127 </i>
   </energy>
  </scstep>
  <scstep>
   <time name="diag">   97.43   97.43</time>
   <time name="diis">  273.88  273.89</time>
   <time name="orth">   19.81   19.81</time>
   <time name="total">  445.90  445.93</time>
   <energy>
    <i name="e_fr_energy">   -173.83652572 </i>
    <i name="e_wo_entrp">   -173.78871466 </i>
    <i name="e_0_energy">   -173.82457296 </i>
   </energy>
  </scstep>
  <scstep>
   <time name="diag">   97.76   97.77</time>
   <time name="diis">  271.94  271.94</time>
   <time name="orth">   19.68   19.68</time>
   <time name="total">  445.17  445.18</time>
   <energy>
    <i name="e_fr_energy">   -173.83764160 </i>
    <i name="e_wo_entrp">   -173.79250732 </i>
    <i name="e_0_energy">   -173.82635803 </i>
   </energy>
  </scstep>
  <scstep>
   <time name="diag">   97.06   97.06</time>
   <time name="diis">  268.64  268.65</time>
   <time name="orth">   21.22   21.22</time>
   <time name="total">  445.54  445.55</time>
   <energy>
    <i name="e_fr_energy">   -173.83895722 </i>
    <i name="e_wo_entrp">   -173.79208340 </i>
    <i name="e_0_energy">   -173.82723877 </i>
   </energy>
  </scstep>
  <scstep>
   <time name="diag">  100.36  100.36</time>
   <time name="diis">  250.59  250.59</time>
   <time name="orth">   19.96   19.96</time>
   <time name="total">  428.48  428.49</time>
   <energy>
    <i name="e_fr_energy">   -173.84111029 </i>
    <i name="e_wo_entrp">   -173.79511269 </i>
    <i name="e_0_energy">   -173.82961089 </i>
   </energy>
  </scstep>
  <scstep>
   <time name="diag">   97.11   97.11</time>
   <time name="diis">  243.46  243.47</time>
   <time name="orth">   21.20   21.20</time>
   <time name="total">  423.13  423.14</time>
   <energy>
    <i name="e_fr_energy">   -173.84303844 </i>
    <i name="e_wo_entrp">   -173.79575796 </i>
    <i name="e_0_energy">   -173.83121832 </i>
   </energy>
  </scstep>
  <scstep>
   <time name="diag">  100.19  100.20</time>
   <time name="diis">  213.01  213.02</time>
   <time name="orth">   19.43   19.43</time>
   <time name="total">  392.92  392.93</time>
   <energy>
    <i name="e_fr_energy">   -173.84566925 </i>
    <i name="e_wo_entrp">   -173.79940191 </i>
    <i name="e_0_energy">   -173.83410242 </i>
   </energy>
  </scstep>
  <scstep>
   <time name="diag">   98.58   98.58</time>
   <time name="diis">  239.56  239.57</time>
   <time name="orth">   19.76   19.76</time>
   <time name="total">  419.59  419.61</time>
   <energy>
    <i name="e_fr_energy">   -173.84967261 </i>
    <i name="e_wo_entrp">   -173.80295318 </i>
    <i name="e_0_energy">   -173.83799275 </i>
   </energy>
  </scstep>
  <scstep>
   <time name="diag">  106.28  106.29</time>
   <time name="diis">  208.31  208.32</time>
   <time name="orth">   20.15   20.15</time>
   <time name="total">  394.72  394.73</time>
   <energy>
    <i name="e_fr_energy">   -173.85187149 </i>
    <i name="e_wo_entrp">   -173.80632591 </i>
    <i name="e_0_energy">   -173.84048510 </i>
   </energy>
  </scstep>
  <scstep>
   <time name="diag">  100.04  100.04</time>
   <time name="diis">  206.86  206.87</time>
   <time name="orth">   19.92   19.92</time>
   <time name="total">  384.02  384.03</time>
   <energy>
    <i name="e_fr_energy">   -173.85494236 </i>
    <i name="e_wo_entrp">   -173.80911139 </i>
    <i name="e_0_energy">   -173.84348462 </i>
   </energy>
  </scstep>
  <scstep>
   <time name="diag">   97.27   97.27</time>
   <time name="diis">  169.77  169.77</time>
   <time name="orth">   19.26   19.26</time>
   <time name="total">  344.61  344.61</time>
   <energy>
    <i name="e_fr_energy">   -173.85602823 </i>
    <i name="e_wo_entrp">   -173.80972027 </i>
    <i name="e_0_energy">   -173.84445124 </i>
   </energy>
  </scstep>
  <scstep>
   <time name="diag">   98.38   98.38</time>
   <time name="diis">  175.73  175.73</time>
   <time name="orth">   20.19   20.19</time>
   <time name="total">  354.77  354.78</time>
   <energy>
    <i name="e_fr_energy">   -173.85743428 </i>
    <i name="e_wo_entrp">   -173.81112290 </i>
    <i name="e_0_energy">   -173.84585644 </i>
   </energy>
  </scstep>
  <scstep>
   <time name="diag">  104.59  104.59</time>
   <time name="diis">  173.29  173.30</time>
   <time name="orth">   20.66   20.66</time>
   <time name="total">  361.52  361.53</time>
   <energy>
    <i name="e_fr_energy">   -173.85851356 </i>
    <i name="e_wo_entrp">   -173.81220627 </i>
    <i name="e_0_energy">   -173.84693674 </i>
   </energy>
  </scstep>
  <scstep>
   <time name="diag">   97.68   97.68</time>
   <time name="diis">  160.91  160.91</time>
   <time name="orth">   18.95   18.95</time>
   <time name="total">  335.76  335.77</time>
   <energy>
    <i name="e_fr_energy">   -173.85928258 </i>
    <i name="e_wo_entrp">   -173.81295107 </i>
    <i name="e_0_energy">   -173.84769971 </i>
   </energy>
  </scstep>
  <scstep>
   <time name="diag">   97.88   97.88</time>
   <time name="diis">  156.94  156.94</time>
   <time name="orth">   19.83   19.83</time>
   <time name="total">  333.86  333.87</time>
   <energy>
    <i name="e_fr_energy">   -173.86071259 </i>
    <i name="e_wo_entrp">   -173.81493867 </i>
    <i name="e_0_energy">   -173.84926911 </i>
   </energy>
  </scstep>
  <scstep>
   <time name="diag">   95.51   95.51</time>
   <time name="diis">  162.80  162.81</time>
   <time name="orth">   19.17   19.17</time>
   <time name="total">  335.50  335.51</time>
   <energy>
    <i name="e_fr_energy">   -173.86110372 </i>
    <i name="e_wo_entrp">   -173.81510539 </i>
    <i name="e_0_energy">   -173.84960414 </i>
   </energy>
  </scstep>
  <scstep>
   <time name="diag">   99.61   99.62</time>
   <time name="diis">  156.35  156.35</time>
   <time name="orth">   19.69   19.69</time>
   <time name="total">  335.13  335.14</time>
   <energy>
    <i name="e_fr_energy">   -173.86216143 </i>
    <i name="e_wo_entrp">   -173.81631317 </i>
    <i name="e_0_energy">   -173.85069937 </i>
   </energy>
  </scstep>
  <scstep>
   <time name="diag">  100.87  100.87</time>
   <time name="diis">  170.96  170.96</time>
   <time name="orth">   19.86   19.86</time>
   <time name="total">  352.24  352.25</time>
   <energy>
    <i name="e_fr_energy">   -173.86260498 </i>
    <i name="e_wo_entrp">   -173.81664517 </i>
    <i name="e_0_energy">   -173.85111503 </i>
   </energy>
  </scstep>
  <scstep>
   <time name="diag">  106.84  106.84</time>
   <time name="diis">  141.64  141.64</time>
   <time name="orth">   21.56   21.56</time>
   <time name="total">  336.46  336.47</time>
   <energy>
    <i name="e_fr_energy">   -173.86284235 </i>
    <i name="e_wo_entrp">   -173.81690840 </i>
    <i name="e_0_energy">   -173.85135886 </i>
   </energy>
  </scstep>
  <scstep>
   <time name="diag">   96.04   96.04</time>
   <time name="diis">  134.81  134.81</time>
   <time name="orth">   18.72   18.72</time>
   <time name="total">  308.13  308.13</time>
   <energy>
    <i name="e_fr_energy">   -173.86331956 </i>
    <i name="e_wo_entrp">   -173.81744260 </i>
    <i name="e_0_energy">   -173.85185032 </i>
   </energy>
  </scstep>
  <scstep>
   <time name="diag">   98.27   98.27</time>
   <time name="diis">  113.85  113.86</time>
   <time name="orth">   19.10   19.10</time>
   <time name="total">  289.14  289.15</time>
   <energy>
    <i name="e_fr_energy">   -173.86350713 </i>
    <i name="e_wo_entrp">   -173.81746683 </i>
    <i name="e_0_energy">   -173.85199706 </i>
   </energy>
  </scstep>
  <scstep>
   <time name="diag">   98.09   98.10</time>
   <time name="diis">  129.58  129.58</time>
   <time name="orth">   19.72   19.72</time>
   <time name="total">  306.15  306.15</time>
   <energy>
    <i name="e_fr_energy">   -173.86386203 </i>
    <i name="e_wo_entrp">   -173.81777062 </i>
    <i name="e_0_energy">   -173.85233918 </i>
   </energy>
  </scstep>
  <scstep>
   <time name="diag">   96.02   96.02</time>
   <time name="diis">  112.02  112.02</time>
   <time name="orth">   19.10   19.10</time>
   <time name="total">  283.10  283.11</time>
   <energy>
    <i name="e_fr_energy">   -173.86398466 </i>
    <i name="e_wo_entrp">   -173.81803995 </i>
    <i name="e_0_energy">   -173.85249848 </i>
   </energy>
  </scstep>
  <scstep>
   <time name="diag">   98.05   98.06</time>
   <time name="diis">  125.21  125.21</time>
   <time name="orth">   19.47   19.47</time>
   <time name="total">  301.16  301.17</time>
   <energy>
    <i name="e_fr_energy">   -173.86430375 </i>
    <i name="e_wo_entrp">   -173.81826778 </i>
    <i name="e_0_energy">   -173.85279476 </i>
   </energy>
  </scstep>
  <scstep>
   <time name="diag">   96.74   96.74</time>
   <time name="diis">  116.63  116.63</time>
   <time name="orth">   20.73   20.73</time>
   <time name="total">  296.16  296.17</time>
   <energy>
    <i name="e_fr_energy">   -173.86445128 </i>
    <i name="e_wo_entrp">   -173.81842467 </i>
    <i name="e_0_energy">   -173.85294462 </i>
   </energy>
  </scstep>
  <scstep>
   <time name="diag">  101.27  101.28</time>
   <time name="diis">  128.81  128.81</time>
   <time name="orth">   19.83   19.83</time>
   <time name="total">  310.65  310.66</time>
   <energy>
    <i name="e_fr_energy">   -173.86458987 </i>
    <i name="e_wo_entrp">   -173.81860934 </i>
    <i name="e_0_energy">   -173.85309474 </i>
   </energy>
  </scstep>
  <scstep>
   <time name="diag">  105.98  105.98</time>
   <time name="diis">  120.78  120.78</time>
   <time name="orth">   20.70   20.70</time>
   <time name="total">  310.36  310.37</time>
   <energy>
    <i name="e_fr_energy">   -173.86469186 </i>
    <i name="e_wo_entrp">   -173.81869985 </i>
    <i name="e_0_energy">   -173.85319386 </i>
   </energy>
  </scstep>
  <scstep>
   <time name="diag">  100.31  100.32</time>
   <time name="diis">  110.14  110.14</time>
   <time name="orth">   19.50   19.50</time>
   <time name="total">  249.52  249.53</time>
   <energy>
    <i name="alphaZ">     75.25431677 </i>
    <i name="ewald"> 140726.92618489 </i>
    <i name="hartreedc">-185087.09406986 </i>
    <i name="XCdc">  -1690.38431911 </i>
    <i name="pawpsdc">  46349.61630197 </i>
    <i name="pawaedc"> -42820.37534443 </i>
    <i name="eentropy">     -0.04603008 </i>
    <i name="bandstr">  -2814.26727642 </i>
    <i name="atom">  45086.50549395 </i>
    <i name="e_fr_energy">   -173.86474233 </i>
    <i name="e_wo_entrp">   -173.81871224 </i>
    <i name="e_0_energy">   -173.85323481 </i>
   </energy>
  </scstep>
  <structure>
   <crystal>
    <varray name="basis" >
     <v>      30.00000000       0.00000000       0.00000000 </v>
     <v>       0.00000000      30.00000000       0.00000000 </v>
     <v>       0.00000000       0.00000000      30.00000000 </v>
    </varray>
    <i name="volume">  27000.00000000 </i>
    <varray name="rec_basis" >
     <v>       0.03333333       0.00000000       0.00000000 </v>
     <v>       0.00000000       0.03333333       0.00000000 </v>
     <v>       0.00000000       0.00000000       0.03333333 </v>
    </varray>
   </crystal>
   <varray name="positions" >
    <v>       0.44576020       0.32826710       0.41691983 </v>
    <v>       0.67173288       0.55423978       0.41691983 </v>
    <v>       0.55423980       0.32826710       0.41691983 </v>
    <v>       0.32826712       0.55423978       0.41691983 </v>
    <v>       0.50000000       0.38250690       0.34021317 </v>
    <v>       0.50000000       0.38250690       0.65978680 </v>
    <v>       0.50000000       0.27609440       0.50000000 </v>
    <v>       0.27609443       0.49999998       0.50000000 </v>
    <v>       0.72390557       0.49999998       0.50000000 </v>
    <v>       0.50000000       0.72390555       0.50000000 </v>
    <v>       0.61195280       0.38804720       0.34167483 </v>
    <v>       0.61195280       0.38804720       0.65832513 </v>
    <v>       0.38804722       0.61195278       0.34167483 </v>
    <v>       0.38804722       0.61195278       0.65832513 </v>
    <v>       0.38804720       0.38804720       0.34167483 </v>
    <v>       0.38804720       0.38804720       0.65832513 </v>
    <v>       0.61195278       0.61195278       0.34167483 </v>
    <v>       0.61195278       0.61195278       0.65832513 </v>
    <v>       0.44576020       0.32826710       0.58308023 </v>
    <v>       0.67173288       0.55423978       0.58308023 </v>
    <v>       0.55791699       0.44208301       0.41809300 </v>
    <v>       0.32826705       0.44576024       0.41691983 </v>
    <v>       0.55423973       0.67173293       0.41691983 </v>
    <v>       0.55423980       0.32826710       0.58308023 </v>
    <v>       0.32826712       0.55423978       0.58308023 </v>
    <v>       0.67173295       0.44576024       0.41691983 </v>
    <v>       0.44576027       0.67173293       0.41691983 </v>
    <v>       0.44208301       0.44208301       0.41809300 </v>
    <v>       0.50000000       0.38416601       0.50000000 </v>
    <v>       0.61749315       0.50000005       0.34021317 </v>
    <v>       0.61749315       0.50000005       0.65978680 </v>
    <v>       0.38250685       0.50000005       0.34021317 </v>
    <v>       0.38250685       0.50000005       0.65978680 </v>
    <v>       0.38317830       0.38317830       0.50000000 </v>
    <v>       0.61682172       0.61682172       0.50000000 </v>
    <v>       0.61682170       0.38317830       0.50000000 </v>
    <v>       0.38317828       0.61682172       0.50000000 </v>
    <v>       0.50000000       0.50000000       0.33478917 </v>
    <v>       0.50000000       0.50000000       0.66521087 </v>
    <v>       0.32826705       0.44576024       0.58308023 </v>
    <v>       0.55423973       0.67173293       0.58308023 </v>
    <v>       0.55791699       0.44208301       0.58190703 </v>
    <v>       0.44208298       0.55791702       0.41809300 </v>
    <v>       0.44208301       0.44208301       0.58190703 </v>
    <v>       0.67173295       0.44576024       0.58308023 </v>
    <v>       0.44576027       0.67173293       0.58308023 </v>
    <v>       0.55791702       0.55791702       0.41809300 </v>
    <v>       0.38416599       0.50000002       0.50000000 </v>
    <v>       0.61583401       0.50000002       0.50000000 </v>
    <v>       0.50000000       0.61749319       0.34021317 </v>
    <v>       0.50000000       0.61749319       0.65978680 </v>
    <v>       0.50000000       0.50000000       0.50000000 </v>
    <v>       0.44208298       0.55791702       0.58190703 </v>
    <v>       0.55791702       0.55791702       0.58190703 </v>
    <v>       0.50000000       0.61583404       0.50000000 </v>
    <v>       0.46154470       0.54222883       0.33829887 </v>
    <v>       0.45311327       0.55148763       0.30284543 </v>
   </varray>
  </structure>
  <varray name="forces" >
   <v>       0.69149389       1.11014512       0.30115432 </v>
   <v>      -1.11088590      -0.69091662       0.30124061 </v>
   <v>      -0.70281167       1.11694110       0.29047030 </v>
   <v>       1.06612149      -0.72374644       0.34675276 </v>
   <v>       0.01450310       0.31144615       1.29576686 </v>
   <v>      -0.00859167       0.41025947      -1.27948677 </v>
   <v>      -0.00217712       1.51328639      -0.00312879 </v>
   <v>       1.50710810       0.01093541      -0.01792494 </v>
   <v>      -1.51328063       0.00197537      -0.00377915 </v>
   <v>      -0.01296750      -1.50886100      -0.01899455 </v>
   <v>      -0.76388152       0.76362740       1.05621535 </v>
   <v>      -0.75088875       0.75111814      -1.07782000 </v>
   <v>       0.46759943      -0.48991016       1.07345856 </v>
   <v>       0.75459311      -0.75468536      -1.07136966 </v>
   <v>       0.74266304       0.72419170       1.07084742 </v>
   <v>       0.75115646       0.75628908      -1.07158084 </v>
   <v>      -0.71443268      -0.74096298       1.07208904 </v>
   <v>      -0.75608397      -0.75200577      -1.07150486 </v>
   <v>       0.69820571       1.10928151      -0.28993172 </v>
   <v>      -1.10978045      -0.69843650      -0.28967777 </v>
   <v>       0.12207661      -0.12447190      -0.15778335 </v>
   <v>       1.09436906       0.69637792       0.29629263 </v>
   <v>      -0.69776419      -1.09458713       0.29127124 </v>
   <v>      -0.69598091       1.10711296      -0.29233289 </v>
   <v>       1.11264490      -0.70156363      -0.29418272 </v>
   <v>      -1.11652101       0.70313657       0.28989995 </v>
   <v>       0.72203728      -1.05939244       0.35589520 </v>
   <v>      -0.12676123      -0.22527248      -0.07589203 </v>
   <v>       0.00164519      -0.22547306       0.00019193 </v>
   <v>      -0.31357388      -0.01576718       1.29727012 </v>
   <v>      -0.41074441       0.00859495      -1.27895365 </v>
   <v>       0.33414649      -0.07409004       1.38696301 </v>
   <v>       0.41981070      -0.00241551      -1.27689889 </v>
   <v>       0.83171014       0.82817609      -0.00319676 </v>
   <v>      -0.82833189      -0.83236814      -0.00377943 </v>
   <v>      -0.82522824       0.82487182       0.01225529 </v>
   <v>       0.84939402      -0.85248765      -0.01508430 </v>
   <v>       4.29988226      -4.75808190       1.79136612 </v>
   <v>      -0.00887588       0.00926538      -1.17883678 </v>
   <v>       1.10868265       0.69216447      -0.28013721 </v>
   <v>      -0.69351249      -1.10924520      -0.28205270 </v>
   <v>       0.11498287      -0.11491872       0.15020267 </v>
   <v>       0.03859787      -0.01071377      -1.04271970 </v>
   <v>      -0.10850076      -0.10818695       0.15631084 </v>
   <v>      -1.10768662       0.69616994      -0.29270070 </v>
   <v>       0.70150546      -1.11216027      -0.29410847 </v>
   <v>       0.24031475       0.12425487      -0.06131112 </v>
   <v>      -0.23935813       0.00048571       0.00245316 </v>
   <v>       0.22500512      -0.00201088       0.00103944 </v>
   <v>       0.06373844      -0.37366211       1.43856707 </v>
   <v>       0.00199434      -0.42025099      -1.27752258 </v>
   <v>       0.00649836      -0.00637064       0.03115533 </v>
   <v>      -0.11064873       0.11044854       0.15469139 </v>
   <v>       0.10878011       0.10766677       0.15730503 </v>
   <v>       0.00262091       0.24026391       0.00527940 </v>
   <v>      -0.97381108       1.29727071       9.39783662 </v>
   <v>      -3.39080057       3.55725798      -9.72154931 </v>
  </varray>
  <varray name="stress" >
   <v>      -6.28815290      -0.37919171       0.22389993 </v>
   <v>      -0.37919170      -6.22689759      -0.22668552 </v>
   <v>       0.22389992      -0.22668554      -6.22667240 </v>
  </varray>
  <energy>
   <i name="e_fr_energy">   -173.86474233 </i>
   <i name="e_wo_entrp">   -173.85323481 </i>
   <i name="e_0_energy">     -0.04603008 </i>
  </energy>
  <time name="totalsc">26077.1326078.27</time>
  <eigenvalues>
   <array>
    <dimension dim="1">band</dimension>
    <dimension dim="2">kpoint</dimension>
    <dimension dim="3">spin</dimension>
    <field>eigene</field>
    <field>occ</field>
    <set>
     <set comment="spin 1">
      <set comment="kpoint 1">
       <r>  -28.6750    1.0000 </r>
       <r>  -13.8387    1.0000 </r>
       <r>  -11.9423    1.0000 </r>
       <r>  -11.7082    1.0000 </r>
       <r>  -10.7002    1.0000 </r>
       <r>   -6.8235    1.0000 </r>
       <r>   -6.6155    1.0000 </r>
       <r>   -6.5267    1.0000 </r>
       <r>   -6.1251    1.0000 </r>
       <r>   -6.1175    1.0000 </r>
       <r>   -6.0775    1.0000 </r>
       <r>   -5.9520    1.0000 </r>
       <r>   -5.8672    1.0000 </r>
       <r>   -5.8167    1.0000 </r>
       <r>   -5.7952    1.0000 </r>
       <r>   -5.7827    1.0000 </r>
       <r>   -5.7351    1.0000 </r>
       <r>   -5.7209    1.0000 </r>
       <r>   -5.6841    1.0000 </r>
       <r>   -5.6644    1.0000 </r>
       <r>   -5.6610    1.0000 </r>
       <r>   -5.6574    1.0000 </r>
       <r>   -5.6199    1.0000 </r>
       <r>   -5.5935    1.0000 </r>
       <r>   -5.5893    1.0000 </r>
       <r>   -5.5742    1.0000 </r>
       <r>   -5.5680    1.0000 </r>
       <r>   -5.5542    1.0000 </r>
       <r>   -5.5293    1.0000 </r>
       <r>   -5.5245    1.0000 </r>
       <r>   -5.5231    1.0000 </r>
       <r>   -5.5086    1.0000 </r>
       <r>   -5.5071    1.0000 </r>
       <r>   -5.5000    1.0000 </r>
       <r>   -5.4990    1.0000 </r>
       <r>   -5.4935    1.0000 </r>
       <r>   -5.4854    1.0000 </r>
       <r>   -5.4804    1.0000 </r>
       <r>   -5.4783    1.0000 </r>
       <r>   -5.4712    1.0000 </r>
       <r>   -5.4644    1.0000 </r>
       <r>   -5.4591    1.0000 </r>
       <r>   -5.4530    1.0000 </r>
       <r>   -5.4483    1.0000 </r>
       <r>   -5.4422    1.0000 </r>
       <r>   -5.4400    1.0000 </r>
       <r>   -5.4308    1.0000 </r>
       <r>   -5.4229    1.0000 </r>
       <r>   -5.4141    1.0000 </r>
       <r>   -5.4055    1.0000 </r>
       <r>   -5.3978    1.0000 </r>
       <r>   -5.3958    1.0000 </r>
       <r>   -5.3894    1.0000 </r>
       <r>   -5.3835    1.0000 </r>
       <r>   -5.3730    1.0000 </r>
       <r>   -5.3690    1.0000 </r>
       <r>   -5.3545    1.0000 </r>
       <r>   -5.3538    1.0000 </r>
       <r>   -5.3382    1.0000 </r>
       <r>   -5.3254    1.0000 </r>
       <r>   -5.3120    1.0000 </r>
       <r>   -5.2988    1.0000 </r>
       <r>   -5.2935    1.0000 </r>
       <r>   -5.2930    1.0000 </r>
       <r>   -5.2918    1.0000 </r>
       <r>   -5.2863    1.0000 </r>
       <r>   -5.2843    1.0000 </r>
       <r>   -5.2804    1.0000 </r>
       <r>   -5.2638    1.0000 </r>
       <r>   -5.2581    1.0000 </r>
       <r>   -5.2350    1.0000 </r>
       <r>   -5.2147    1.0000 </r>
       <r>   -5.1868    1.0000 </r>
       <r>   -5.1765    1.0000 </r>
       <r>   -5.1719    1.0000 </r>
       <r>   -5.1596    1.0000 </r>
       <r>   -5.1590    1.0000 </r>
       <r>   -5.1557    1.0000 </r>
       <r>   -5.1548    1.0000 </r>
       <r>   -5.1488    1.0000 </r>
       <r>   -5.1377    1.0000 </r>
       <r>   -5.1322    1.0000 </r>
       <r>   -5.1248    1.0000 </r>
       <r>   -5.1209    1.0000 </r>
       <r>   -5.1138    1.0000 </r>
       <r>   -5.0981    1.0000 </r>
       <r>   -5.0951    1.0000 </r>
       <r>   -5.0851    1.0000 </r>
       <r>   -5.0807    1.0000 </r>
       <r>   -5.0747    1.0000 </r>
       <r>   -5.0723    1.0000 </r>
       <r>   -5.0480    1.0000 </r>
       <r>   -5.0424    1.0000 </r>
       <r>   -5.0364    1.0000 </r>
       <r>   -5.0338    1.0000 </r>
       <r>   -5.0305    1.0000 </r>
       <r>   -5.0266    1.0000 </r>
       <r>   -5.0227    1.0000 </r>
       <r>   -5.0112    1.0000 </r>
       <r>   -5.0033    1.0000 </r>
       <r>   -4.9998    1.0000 </r>
       <r>   -4.9945    1.0000 </r>
       <r>   -4.9930    1.0000 </r>
       <r>   -4.9893    1.0000 </r>
       <r>   -4.9866    1.0000 </r>
       <r>   -4.9827    1.0000 </r>
       <r>   -4.9813    1.0000 </r>
       <r>   -4.9728    1.0000 </r>
       <r>   -4.9657    1.0000 </r>
       <r>   -4.9619    1.0000 </r>
       <r>   -4.9563    1.0000 </r>
       <r>   -4.9549    1.0000 </r>
       <r>   -4.9496    1.0000 </r>
       <r>   -4.9453    1.0000 </r>
       <r>   -4.9355    1.0000 </r>
       <r>   -4.9328    1.0000 </r>
       <r>   -4.9308    1.0000 </r>
       <r>   -4.9264    1.0000 </r>
       <r>   -4.9073    1.0000 </r>
       <r>   -4.9042    1.0000 </r>
       <r>   -4.9007    1.0000 </r>
       <r>   -4.8954    1.0000 </r>
       <r>   -4.8918    1.0000 </r>
       <r>   -4.8907    1.0000 </r>
       <r>   -4.8858    1.0000 </r>
       <r>   -4.8779    1.0000 </r>
       <r>   -4.8775    1.0000 </r>
       <r>   -4.8552    1.0000 </r>
       <r>   -4.8500    1.0000 </r>
       <r>   -4.8472    1.0000 </r>
       <r>   -4.8319    1.0000 </r>
       <r>   -4.8280    1.0000 </r>
       <r>   -4.8233    1.0000 </r>
       <r>   -4.8189    1.0000 </r>
       <r>   -4.8126    1.0000 </r>
       <r>   -4.8065    1.0000 </r>
       <r>   -4.8012    1.0000 </r>
       <r>   -4.7961    1.0000 </r>
       <r>   -4.7883    0.9999 </r>
       <r>   -4.7816    0.9999 </r>
       <r>   -4.7767    0.9999 </r>
       <r>   -4.7542    0.9999 </r>
       <r>   -4.7418    0.9998 </r>
       <r>   -4.7305    0.9998 </r>
       <r>   -4.7210    0.9997 </r>
       <r>   -4.7149    0.9996 </r>
       <r>   -4.7134    0.9996 </r>
       <r>   -4.7125    0.9996 </r>
       <r>   -4.7001    0.9995 </r>
       <r>   -4.6952    0.9995 </r>
       <r>   -4.6934    0.9994 </r>
       <r>   -4.6803    0.9993 </r>
       <r>   -4.6726    0.9991 </r>
       <r>   -4.6652    0.9990 </r>
       <r>   -4.6597    0.9989 </r>
       <r>   -4.6563    0.9988 </r>
       <r>   -4.6495    0.9987 </r>
       <r>   -4.6492    0.9987 </r>
       <r>   -4.6444    0.9986 </r>
       <r>   -4.6390    0.9984 </r>
       <r>   -4.6346    0.9983 </r>
       <r>   -4.6293    0.9981 </r>
       <r>   -4.6283    0.9981 </r>
       <r>   -4.6262    0.9980 </r>
       <r>   -4.6233    0.9980 </r>
       <r>   -4.6218    0.9979 </r>
       <r>   -4.6190    0.9978 </r>
       <r>   -4.6188    0.9978 </r>
       <r>   -4.6126    0.9976 </r>
       <r>   -4.6059    0.9974 </r>
       <r>   -4.6045    0.9973 </r>
       <r>   -4.6023    0.9972 </r>
       <r>   -4.5813    0.9965 </r>
       <r>   -4.5759    0.9963 </r>
       <r>   -4.5733    0.9962 </r>
       <r>   -4.5707    0.9961 </r>
       <r>   -4.5690    0.9960 </r>
       <r>   -4.5635    0.9958 </r>
       <r>   -4.5610    0.9957 </r>
       <r>   -4.5583    0.9957 </r>
       <r>   -4.5505    0.9954 </r>
       <r>   -4.5483    0.9954 </r>
       <r>   -4.5349    0.9951 </r>
       <r>   -4.5331    0.9951 </r>
       <r>   -4.5297    0.9951 </r>
       <r>   -4.5272    0.9951 </r>
       <r>   -4.5261    0.9951 </r>
       <r>   -4.5249    0.9951 </r>
       <r>   -4.5226    0.9951 </r>
       <r>   -4.5124    0.9952 </r>
       <r>   -4.4999    0.9957 </r>
       <r>   -4.4939    0.9961 </r>
       <r>   -4.4914    0.9963 </r>
       <r>   -4.4860    0.9967 </r>
       <r>   -4.4828    0.9971 </r>
       <r>   -4.4725    0.9983 </r>
       <r>   -4.4686    0.9989 </r>
       <r>   -4.4612    1.0002 </r>
       <r>   -4.4597    1.0005 </r>
       <r>   -4.4576    1.0009 </r>
       <r>   -4.4558    1.0013 </r>
       <r>   -4.4527    1.0020 </r>
       <r>   -4.4464    1.0035 </r>
       <r>   -4.4422    1.0046 </r>
       <r>   -4.4371    1.0060 </r>
       <r>   -4.4348    1.0067 </r>
       <r>   -4.4301    1.0082 </r>
       <r>   -4.4274    1.0091 </r>
       <r>   -4.4198    1.0118 </r>
       <r>   -4.4177    1.0126 </r>
       <r>   -4.4138    1.0141 </r>
       <r>   -4.4018    1.0192 </r>
       <r>   -4.3932    1.0231 </r>
       <r>   -4.3923    1.0235 </r>
       <r>   -4.3858    1.0266 </r>
       <r>   -4.3854    1.0267 </r>
       <r>   -4.3804    1.0291 </r>
       <r>   -4.3772    1.0307 </r>
       <r>   -4.3765    1.0310 </r>
       <r>   -4.3726    1.0329 </r>
       <r>   -4.3661    1.0360 </r>
       <r>   -4.3647    1.0366 </r>
       <r>   -4.3485    1.0437 </r>
       <r>   -4.3316    1.0493 </r>
       <r>   -4.3266    1.0504 </r>
       <r>   -4.3255    1.0506 </r>
       <r>   -4.3167    1.0516 </r>
       <r>   -4.3127    1.0516 </r>
       <r>   -4.3111    1.0516 </r>
       <r>   -4.3109    1.0515 </r>
       <r>   -4.3082    1.0513 </r>
       <r>   -4.3040    1.0507 </r>
       <r>   -4.3024    1.0504 </r>
       <r>   -4.3020    1.0503 </r>
       <r>   -4.3010    1.0501 </r>
       <r>   -4.2983    1.0493 </r>
       <r>   -4.2970    1.0489 </r>
       <r>   -4.2917    1.0468 </r>
       <r>   -4.2905    1.0462 </r>
       <r>   -4.2862    1.0439 </r>
       <r>   -4.2819    1.0410 </r>
       <r>   -4.2774    1.0375 </r>
       <r>   -4.2766    1.0368 </r>
       <r>   -4.2708    1.0312 </r>
       <r>   -4.2703    1.0306 </r>
       <r>   -4.2628    1.0217 </r>
       <r>   -4.2591    1.0167 </r>
       <r>   -4.2584    1.0157 </r>
       <r>   -4.2535    1.0080 </r>
       <r>   -4.2470    0.9967 </r>
       <r>   -4.2432    0.9892 </r>
       <r>   -4.2399    0.9824 </r>
       <r>   -4.2369    0.9758 </r>
       <r>   -4.2323    0.9651 </r>
       <r>   -4.2270    0.9518 </r>
       <r>   -4.2265    0.9504 </r>
       <r>   -4.2235    0.9422 </r>
       <r>   -4.2213    0.9362 </r>
       <r>   -4.2171    0.9237 </r>
       <r>   -4.2163    0.9215 </r>
       <r>   -4.2140    0.9143 </r>
       <r>   -4.2126    0.9100 </r>
       <r>   -4.2115    0.9065 </r>
       <r>   -4.2099    0.9010 </r>
       <r>   -4.2080    0.8947 </r>
       <r>   -4.2010    0.8704 </r>
       <r>   -4.1971    0.8560 </r>
       <r>   -4.1933    0.8415 </r>
       <r>   -4.1920    0.8361 </r>
       <r>   -4.1890    0.8243 </r>
       <r>   -4.1876    0.8186 </r>
       <r>   -4.1770    0.7735 </r>
       <r>   -4.1736    0.7584 </r>
       <r>   -4.1646    0.7165 </r>
       <r>   -4.1623    0.7053 </r>
       <r>   -4.1592    0.6906 </r>
       <r>   -4.1549    0.6694 </r>
       <r>   -4.1479    0.6338 </r>
       <r>   -4.1433    0.6103 </r>
       <r>   -4.1420    0.6038 </r>
       <r>   -4.1332    0.5580 </r>
       <r>   -4.1303    0.5424 </r>
       <r>   -4.1231    0.5046 </r>
       <r>   -4.1102    0.4366 </r>
       <r>   -4.1038    0.4034 </r>
       <r>   -4.1002    0.3844 </r>
       <r>   -4.0923    0.3443 </r>
       <r>   -4.0838    0.3026 </r>
       <r>   -3.9662   -0.0382 </r>
       <r>   -3.9082   -0.0480 </r>
       <r>   -3.8869   -0.0399 </r>
       <r>   -3.8018   -0.0045 </r>
       <r>   -3.7916   -0.0019 </r>
       <r>   -3.6810    0.0042 </r>
       <r>   -3.4803    0.0001 </r>
       <r>   -3.4592    0.0001 </r>
       <r>   -3.1992    0.0000 </r>
       <r>   -3.0429    0.0000 </r>
       <r>   -3.0422    0.0000 </r>
       <r>   -3.0313    0.0000 </r>
       <r>   -3.0024    0.0000 </r>
       <r>   -2.9897    0.0000 </r>
       <r>   -2.9720    0.0000 </r>
       <r>   -2.9099    0.0000 </r>
       <r>   -2.7791    0.0000 </r>
       <r>   -2.5042    0.0000 </r>
       <r>   -2.4949    0.0000 </r>
       <r>   -2.4068    0.0000 </r>
       <r>   -2.2936    0.0000 </r>
       <r>   -2.1471    0.0000 </r>
       <r>   -2.0950    0.0000 </r>
       <r>   -2.0158    0.0000 </r>
       <r>   -1.9364    0.0000 </r>
       <r>   -1.9274    0.0000 </r>
       <r>   -1.8449    0.0000 </r>
       <r>   -1.8315    0.0000 </r>
       <r>   -1.8223    0.0000 </r>
       <r>   -1.7488    0.0000 </r>
       <r>   -1.6694    0.0000 </r>
       <r>   -1.6132    0.0000 </r>
       <r>   -1.5609    0.0000 </r>
       <r>   -1.5308    0.0000 </r>
       <r>   -1.4190    0.0000 </r>
       <r>   -1.3454    0.0000 </r>
       <r>   -1.2618    0.0000 </r>
       <r>   -1.1955    0.0000 </r>
       <r>   -1.0756    0.0000 </r>
       <r>   -1.0205    0.0000 </r>
       <r>   -0.9558    0.0000 </r>
       <r>   -0.9529    0.0000 </r>
       <r>   -0.9115    0.0000 </r>
       <r>   -0.9006    0.0000 </r>
       <r>   -0.8224    0.0000 </r>
       <r>   -0.7948    0.0000 </r>
       <r>   -0.7805    0.0000 </r>
       <r>   -0.7335    0.0000 </r>
      </set>
     </set>
    </set>
   </array>
  </eigenvalues>
  <separator name="orbital magnetization" >
   <v name="MAGDIPOLOUT">      0.00000000      0.00000000      0.00000000</v>
  </separator>
  <dos>
   <i name="efermi">     -4.12223354 </i>
   <total>
    <array>
     <dimension dim="1">gridpoints</dimension>
     <dimension dim="2">spin</dimension>
     <field>energy</field>
     <field>total</field>
     <field>integrated</field>
     <set>
      <set comment="spin 1">
       <r>   -30.6750     0.0000     0.0000 </r>
       <r>   -30.5685     0.0000     0.0000 </r>
       <r>   -30.4620     0.0000     0.0000 </r>
       <r>   -30.3556     0.0000     0.0000 </r>
       <r>   -30.2491     0.0000     0.0000 </r>
       <r>   -30.1426     0.0000     0.0000 </r>
       <r>   -30.0361     0.0000     0.0000 </r>
       <r>   -29.9297     0.0000     0.0000 </r>
       <r>   -29.8232     0.0000     0.0000 </r>
       <r>   -29.7167     0.0000     0.0000 </r>
       <r>   -29.6103     0.0000     0.0000 </r>
       <r>   -29.5038     0.0000     0.0000 </r>
       <r>   -29.3973     0.0002     0.0000 </r>
       <r>   -29.2908     0.0036     0.0004 </r>
       <r>   -29.1844     0.0298     0.0036 </r>
       <r>   -29.0779     0.0590     0.0099 </r>
       <r>   -28.9714    -0.3226    -0.0245 </r>
       <r>   -28.8650    -0.7394    -0.1032 </r>
       <r>   -28.7585     3.0898     0.2258 </r>
       <r>   -28.6520     9.5294     1.2404 </r>
       <r>   -28.5455     7.2278     2.0099 </r>
       <r>   -28.4391     0.6509     2.0792 </r>
       <r>   -28.3326    -0.7518     1.9992 </r>
       <r>   -28.2261    -0.0660     1.9922 </r>
       <r>   -28.1197     0.0588     1.9984 </r>
       <r>   -28.0132     0.0135     1.9999 </r>
       <r>   -27.9067     0.0011     2.0000 </r>
       <r>   -27.8002     0.0000     2.0000 </r>
       <r>   -27.6938     0.0000     2.0000 </r>
       <r>   -27.5873     0.0000     2.0000 </r>
       <r>   -27.4808     0.0000     2.0000 </r>
       <r>   -27.3744     0.0000     2.0000 </r>
       <r>   -27.2679     0.0000     2.0000 </r>
       <r>   -27.1614     0.0000     2.0000 </r>
       <r>   -27.0549     0.0000     2.0000 </r>
       <r>   -26.9485     0.0000     2.0000 </r>
       <r>   -26.8420     0.0000     2.0000 </r>
       <r>   -26.7355     0.0000     2.0000 </r>
       <r>   -26.6291     0.0000     2.0000 </r>
       <r>   -26.5226     0.0000     2.0000 </r>
       <r>   -26.4161     0.0000     2.0000 </r>
       <r>   -26.3096     0.0000     2.0000 </r>
       <r>   -26.2032     0.0000     2.0000 </r>
       <r>   -26.0967     0.0000     2.0000 </r>
       <r>   -25.9902     0.0000     2.0000 </r>
       <r>   -25.8838     0.0000     2.0000 </r>
       <r>   -25.7773     0.0000     2.0000 </r>
       <r>   -25.6708     0.0000     2.0000 </r>
       <r>   -25.5643     0.0000     2.0000 </r>
       <r>   -25.4579     0.0000     2.0000 </r>
       <r>   -25.3514     0.0000     2.0000 </r>
       <r>   -25.2449     0.0000     2.0000 </r>
       <r>   -25.1385     0.0000     2.0000 </r>
       <r>   -25.0320     0.0000     2.0000 </r>
       <r>   -24.9255     0.0000     2.0000 </r>
       <r>   -24.8190     0.0000     2.0000 </r>
       <r>   -24.7126     0.0000     2.0000 </r>
       <r>   -24.6061     0.0000     2.0000 </r>
       <r>   -24.4996     0.0000     2.0000 </r>
       <r>   -24.3932     0.0000     2.0000 </r>
       <r>   -24.2867     0.0000     2.0000 </r>
       <r>   -24.1802     0.0000     2.0000 </r>
       <r>   -24.0737     0.0000     2.0000 </r>
       <r>   -23.9673     0.0000     2.0000 </r>
       <r>   -23.8608     0.0000     2.0000 </r>
       <r>   -23.7543     0.0000     2.0000 </r>
       <r>   -23.6479     0.0000     2.0000 </r>
       <r>   -23.5414     0.0000     2.0000 </r>
       <r>   -23.4349     0.0000     2.0000 </r>
       <r>   -23.3284     0.0000     2.0000 </r>
       <r>   -23.2220     0.0000     2.0000 </r>
       <r>   -23.1155     0.0000     2.0000 </r>
       <r>   -23.0090     0.0000     2.0000 </r>
       <r>   -22.9026     0.0000     2.0000 </r>
       <r>   -22.7961     0.0000     2.0000 </r>
       <r>   -22.6896     0.0000     2.0000 </r>
       <r>   -22.5831     0.0000     2.0000 </r>
       <r>   -22.4767     0.0000     2.0000 </r>
       <r>   -22.3702     0.0000     2.0000 </r>
       <r>   -22.2637     0.0000     2.0000 </r>
       <r>   -22.1573     0.0000     2.0000 </r>
       <r>   -22.0508     0.0000     2.0000 </r>
       <r>   -21.9443     0.0000     2.0000 </r>
       <r>   -21.8378     0.0000     2.0000 </r>
       <r>   -21.7314     0.0000     2.0000 </r>
       <r>   -21.6249     0.0000     2.0000 </r>
       <r>   -21.5184     0.0000     2.0000 </r>
       <r>   -21.4120     0.0000     2.0000 </r>
       <r>   -21.3055     0.0000     2.0000 </r>
       <r>   -21.1990     0.0000     2.0000 </r>
       <r>   -21.0925     0.0000     2.0000 </r>
       <r>   -20.9861     0.0000     2.0000 </r>
       <r>   -20.8796     0.0000     2.0000 </r>
       <r>   -20.7731     0.0000     2.0000 </r>
       <r>   -20.6667     0.0000     2.0000 </r>
       <r>   -20.5602     0.0000     2.0000 </r>
       <r>   -20.4537     0.0000     2.0000 </r>
       <r>   -20.3472     0.0000     2.0000 </r>
       <r>   -20.2408     0.0000     2.0000 </r>
       <r>   -20.1343     0.0000     2.0000 </r>
       <r>   -20.0278     0.0000     2.0000 </r>
       <r>   -19.9214     0.0000     2.0000 </r>
       <r>   -19.8149     0.0000     2.0000 </r>
       <r>   -19.7084     0.0000     2.0000 </r>
       <r>   -19.6019     0.0000     2.0000 </r>
       <r>   -19.4955     0.0000     2.0000 </r>
       <r>   -19.3890     0.0000     2.0000 </r>
       <r>   -19.2825     0.0000     2.0000 </r>
       <r>   -19.1761     0.0000     2.0000 </r>
       <r>   -19.0696     0.0000     2.0000 </r>
       <r>   -18.9631     0.0000     2.0000 </r>
       <r>   -18.8566     0.0000     2.0000 </r>
       <r>   -18.7502     0.0000     2.0000 </r>
       <r>   -18.6437     0.0000     2.0000 </r>
       <r>   -18.5372     0.0000     2.0000 </r>
       <r>   -18.4308     0.0000     2.0000 </r>
       <r>   -18.3243     0.0000     2.0000 </r>
       <r>   -18.2178     0.0000     2.0000 </r>
       <r>   -18.1113     0.0000     2.0000 </r>
       <r>   -18.0049     0.0000     2.0000 </r>
       <r>   -17.8984     0.0000     2.0000 </r>
       <r>   -17.7919     0.0000     2.0000 </r>
       <r>   -17.6855     0.0000     2.0000 </r>
       <r>   -17.5790     0.0000     2.0000 </r>
       <r>   -17.4725     0.0000     2.0000 </r>
       <r>   -17.3660     0.0000     2.0000 </r>
       <r>   -17.2596     0.0000     2.0000 </r>
       <r>   -17.1531     0.0000     2.0000 </r>
       <r>   -17.0466     0.0000     2.0000 </r>
       <r>   -16.9402     0.0000     2.0000 </r>
       <r>   -16.8337     0.0000     2.0000 </r>
       <r>   -16.7272     0.0000     2.0000 </r>
       <r>   -16.6207     0.0000     2.0000 </r>
       <r>   -16.5143     0.0000     2.0000 </r>
       <r>   -16.4078     0.0000     2.0000 </r>
       <r>   -16.3013     0.0000     2.0000 </r>
       <r>   -16.1949     0.0000     2.0000 </r>
       <r>   -16.0884     0.0000     2.0000 </r>
       <r>   -15.9819     0.0000     2.0000 </r>
       <r>   -15.8754     0.0000     2.0000 </r>
       <r>   -15.7690     0.0000     2.0000 </r>
       <r>   -15.6625     0.0000     2.0000 </r>
       <r>   -15.5560     0.0000     2.0000 </r>
       <r>   -15.4496     0.0000     2.0000 </r>
       <r>   -15.3431     0.0000     2.0000 </r>
       <r>   -15.2366     0.0000     2.0000 </r>
       <r>   -15.1301     0.0000     2.0000 </r>
       <r>   -15.0237     0.0000     2.0000 </r>
       <r>   -14.9172     0.0000     2.0000 </r>
       <r>   -14.8107     0.0000     2.0000 </r>
       <r>   -14.7043     0.0000     2.0000 </r>
       <r>   -14.5978     0.0001     2.0000 </r>
       <r>   -14.4913     0.0014     2.0002 </r>
       <r>   -14.3848     0.0161     2.0019 </r>
       <r>   -14.2784     0.0619     2.0085 </r>
       <r>   -14.1719    -0.1054     1.9972 </r>
       <r>   -14.0654    -0.7917     1.9129 </r>
       <r>   -13.9590     1.0466     2.0244 </r>
       <r>   -13.8525     7.8005     2.8549 </r>
       <r>   -13.7460     9.1993     3.8344 </r>
       <r>   -13.6395     2.5168     4.1023 </r>
       <r>   -13.5331    -0.7931     4.0179 </r>
       <r>   -13.4266    -0.2599     3.9902 </r>
       <r>   -13.3201     0.0629     3.9969 </r>
       <r>   -13.2137     0.0259     3.9997 </r>
       <r>   -13.1072     0.0029     4.0000 </r>
       <r>   -13.0007     0.0001     4.0000 </r>
       <r>   -12.8942     0.0000     4.0000 </r>
       <r>   -12.7878     0.0000     4.0000 </r>
       <r>   -12.6813     0.0001     4.0000 </r>
       <r>   -12.5748     0.0024     4.0003 </r>
       <r>   -12.4684     0.0229     4.0027 </r>
       <r>   -12.3619     0.0656     4.0097 </r>
       <r>   -12.2554    -0.1969     3.9887 </r>
       <r>   -12.1489    -0.7529     3.9086 </r>
       <r>   -12.0425     1.9769     4.1191 </r>
       <r>   -11.9360     8.0870     4.9801 </r>
       <r>   -11.8295     9.2293     5.9628 </r>
       <r>   -11.7231     9.1387     6.9358 </r>
       <r>   -11.6166     8.4320     7.8335 </r>
       <r>   -11.5101     2.4431     8.0937 </r>
       <r>   -11.4036    -0.7243     8.0165 </r>
       <r>   -11.2972    -0.2433     7.9906 </r>
       <r>   -11.1907     0.1031     8.0016 </r>
       <r>   -11.0842     0.0676     8.0088 </r>
       <r>   -10.9778    -0.4596     7.9599 </r>
       <r>   -10.8713    -0.5155     7.9050 </r>
       <r>   -10.7648     4.3558     8.3688 </r>
       <r>   -10.6583     9.9470     9.4278 </r>
       <r>   -10.5519     5.9540    10.0618 </r>
       <r>   -10.4454    -0.0024    10.0615 </r>
       <r>   -10.3389    -0.6341     9.9940 </r>
       <r>   -10.2325    -0.0039     9.9936 </r>
       <r>   -10.1260     0.0503     9.9989 </r>
       <r>   -10.0195     0.0093     9.9999 </r>
       <r>    -9.9130     0.0007    10.0000 </r>
       <r>    -9.8066     0.0000    10.0000 </r>
       <r>    -9.7001     0.0000    10.0000 </r>
       <r>    -9.5936     0.0000    10.0000 </r>
       <r>    -9.4872     0.0000    10.0000 </r>
       <r>    -9.3807     0.0000    10.0000 </r>
       <r>    -9.2742     0.0000    10.0000 </r>
       <r>    -9.1677     0.0000    10.0000 </r>
       <r>    -9.0613     0.0000    10.0000 </r>
       <r>    -8.9548     0.0000    10.0000 </r>
       <r>    -8.8483     0.0000    10.0000 </r>
       <r>    -8.7419     0.0000    10.0000 </r>
       <r>    -8.6354     0.0000    10.0000 </r>
       <r>    -8.5289     0.0000    10.0000 </r>
       <r>    -8.4224     0.0000    10.0000 </r>
       <r>    -8.3160     0.0000    10.0000 </r>
       <r>    -8.2095     0.0000    10.0000 </r>
       <r>    -8.1030     0.0000    10.0000 </r>
       <r>    -7.9966     0.0000    10.0000 </r>
       <r>    -7.8901     0.0000    10.0000 </r>
       <r>    -7.7836     0.0000    10.0000 </r>
       <r>    -7.6771     0.0000    10.0000 </r>
       <r>    -7.5707     0.0001    10.0000 </r>
       <r>    -7.4642     0.0020    10.0002 </r>
       <r>    -7.3577     0.0200    10.0024 </r>
       <r>    -7.2513     0.0666    10.0094 </r>
       <r>    -7.1448    -0.1402     9.9945 </r>
       <r>    -7.0383    -0.7245     9.9174 </r>
       <r>    -6.9318     1.4970    10.0768 </r>
       <r>    -6.8254     7.3456    10.8589 </r>
       <r>    -6.7189     9.8185    11.9042 </r>
       <r>    -6.6124    13.5997    13.3522 </r>
       <r>    -6.5060    17.2121    15.1848 </r>
       <r>    -6.3995     7.7758    16.0127 </r>
       <r>    -6.2930    -1.7303    15.8285 </r>
       <r>    -6.1865     8.7698    16.7622 </r>
       <r>    -6.0801    27.4099    19.6806 </r>
       <r>    -5.9736    26.8666    22.5411 </r>
       <r>    -5.8671    28.2663    25.5507 </r>
       <r>    -5.7607    51.0899    30.9903 </r>
       <r>    -5.6542    87.2901    40.2842 </r>
       <r>    -5.5477   169.1311    58.2918 </r>
       <r>    -5.4412   272.4253    87.2973 </r>
       <r>    -5.3348   281.5417   117.2735 </r>
       <r>    -5.2283   221.4512   140.8517 </r>
       <r>    -5.1218   228.3961   165.1694 </r>
       <r>    -5.0154   315.3756   198.7479 </r>
       <r>    -4.9089   360.5091   237.1318 </r>
       <r>    -4.8024   309.9346   270.1310 </r>
       <r>    -4.6959   298.0103   301.8606 </r>
       <r>    -4.5895   381.3249   342.4608 </r>
       <r>    -4.4830   425.2060   387.7331 </r>
       <r>    -4.3765   438.1153   434.3798 </r>
       <r>    -4.2701   520.8898   489.8397 </r>
       <r>    -4.1636   515.4782   544.7234 </r>
       <r>    -4.0571   278.4966   574.3754 </r>
       <r>    -3.9506    56.1337   580.3520 </r>
       <r>    -3.8442    16.9154   582.1530 </r>
       <r>    -3.7377    30.8383   585.4364 </r>
       <r>    -3.6312    19.7376   587.5379 </r>
       <r>    -3.5248    14.2721   589.0575 </r>
       <r>    -3.4183    18.3926   591.0158 </r>
       <r>    -3.3118     9.6772   592.0461 </r>
       <r>    -3.2053     3.9713   592.4689 </r>
       <r>    -3.0989    25.5781   595.1923 </r>
       <r>    -2.9924    59.3217   601.5083 </r>
       <r>    -2.8859    53.7574   607.2320 </r>
       <r>    -2.7795    20.3586   609.3996 </r>
       <r>    -2.6730     3.5072   609.7730 </r>
       <r>    -2.5665     8.1601   610.6418 </r>
       <r>    -2.4600    23.8848   613.1849 </r>
       <r>    -2.3536    25.6036   615.9109 </r>
       <r>    -2.2471    16.4202   617.6592 </r>
       <r>    -2.1406    17.2311   619.4938 </r>
       <r>    -2.0342    26.3548   622.2998 </r>
       <r>    -1.9277    38.3522   626.3833 </r>
       <r>    -1.8212    47.5814   631.4493 </r>
       <r>    -1.7147    41.8500   635.9051 </r>
       <r>    -1.6083    34.7757   639.6078 </r>
       <r>    -1.5018    32.3798   643.0553 </r>
       <r>    -1.3953    26.4161   645.8679 </r>
       <r>    -1.2889    24.1843   648.4428 </r>
       <r>    -1.1824    22.1423   650.8003 </r>
       <r>    -1.0759    23.2636   653.2772 </r>
       <r>    -0.9694    40.8234   657.6238 </r>
       <r>    -0.8630    58.3820   663.8398 </r>
       <r>    -0.7565    52.4849   669.4279 </r>
       <r>    -0.6500    24.8767   672.0766 </r>
       <r>    -0.5436     1.5824   672.2451 </r>
       <r>    -0.4371    -2.4071   671.9888 </r>
       <r>    -0.3306    -0.1932   671.9682 </r>
       <r>    -0.2241     0.2324   671.9929 </r>
       <r>    -0.1177     0.0602   671.9993 </r>
       <r>    -0.0112     0.0059   672.0000 </r>
       <r>     0.0953     0.0003   672.0000 </r>
       <r>     0.2017     0.0000   672.0000 </r>
       <r>     0.3082     0.0000   672.0000 </r>
       <r>     0.4147     0.0000   672.0000 </r>
       <r>     0.5212     0.0000   672.0000 </r>
       <r>     0.6276     0.0000   672.0000 </r>
       <r>     0.7341     0.0000   672.0000 </r>
       <r>     0.8406     0.0000   672.0000 </r>
       <r>     0.9470     0.0000   672.0000 </r>
       <r>     1.0535     0.0000   672.0000 </r>
       <r>     1.1600     0.0000   672.0000 </r>
       <r>     1.2665     0.0000   672.0000 </r>
      </set>
     </set>
    </array>
   </total>
  </dos>
 </calculation>
 <structure name="finalpos" >
  <crystal>
   <varray name="basis" >
    <v>      30.00000000       0.00000000       0.00000000 </v>
    <v>       0.00000000      30.00000000       0.00000000 </v>
    <v>       0.00000000       0.00000000      30.00000000 </v>
   </varray>
   <i name="volume">  27000.00000000 </i>
   <varray name="rec_basis" >
    <v>       0.03333333       0.00000000       0.00000000 </v>
    <v>       0.00000000       0.03333333       0.00000000 </v>
    <v>       0.00000000       0.00000000       0.03333333 </v>
   </varray>
  </crystal>
  <varray name="positions" >
   <v>       0.44576020       0.32826710       0.41691983 </v>
   <v>       0.67173288       0.55423978       0.41691983 </v>
   <v>       0.55423980       0.32826710       0.41691983 </v>
   <v>       0.32826712       0.55423978       0.41691983 </v>
   <v>       0.50000000       0.38250690       0.34021317 </v>
   <v>       0.50000000       0.38250690       0.65978680 </v>
   <v>       0.50000000       0.27609440       0.50000000 </v>
   <v>       0.27609443       0.49999998       0.50000000 </v>
   <v>       0.72390557       0.49999998       0.50000000 </v>
   <v>       0.50000000       0.72390555       0.50000000 </v>
   <v>       0.61195280       0.38804720       0.34167483 </v>
   <v>       0.61195280       0.38804720       0.65832513 </v>
   <v>       0.38804722       0.61195278       0.34167483 </v>
   <v>       0.38804722       0.61195278       0.65832513 </v>
   <v>       0.38804720       0.38804720       0.34167483 </v>
   <v>       0.38804720       0.38804720       0.65832513 </v>
   <v>       0.61195278       0.61195278       0.34167483 </v>
   <v>       0.61195278       0.61195278       0.65832513 </v>
   <v>       0.44576020       0.32826710       0.58308023 </v>
   <v>       0.67173288       0.55423978       0.58308023 </v>
   <v>       0.55791699       0.44208301       0.41809300 </v>
   <v>       0.32826705       0.44576024       0.41691983 </v>
   <v>       0.55423973       0.67173293       0.41691983 </v>
   <v>       0.55423980       0.32826710       0.58308023 </v>
   <v>       0.32826712       0.55423978       0.58308023 </v>
   <v>       0.67173295       0.44576024       0.41691983 </v>
   <v>       0.44576027       0.67173293       0.41691983 </v>
   <v>       0.44208301       0.44208301       0.41809300 </v>
   <v>       0.50000000       0.38416601       0.50000000 </v>
   <v>       0.61749315       0.50000005       0.34021317 </v>
   <v>       0.61749315       0.50000005       0.65978680 </v>
   <v>       0.38250685       0.50000005       0.34021317 </v>
   <v>       0.38250685       0.50000005       0.65978680 </v>
   <v>       0.38317830       0.38317830       0.50000000 </v>
   <v>       0.61682172       0.61682172       0.50000000 </v>
   <v>       0.61682170       0.38317830       0.50000000 </v>
   <v>       0.38317828       0.61682172       0.50000000 </v>
   <v>       0.50000000       0.50000000       0.33478917 </v>
   <v>       0.50000000       0.50000000       0.66521087 </v>
   <v>       0.32826705       0.44576024       0.58308023 </v>
   <v>       0.55423973       0.67173293       0.58308023 </v>
   <v>       0.55791699       0.44208301       0.58190703 </v>
   <v>       0.44208298       0.55791702       0.41809300 </v>
   <v>       0.44208301       0.44208301       0.58190703 </v>
   <v>       0.67173295       0.44576024       0.58308023 </v>
   <v>       0.44576027       0.67173293       0.58308023 </v>
   <v>       0.55791702       0.55791702       0.41809300 </v>
   <v>       0.38416599       0.50000002       0.50000000 </v>
   <v>       0.61583401       0.50000002       0.50000000 </v>
   <v>       0.50000000       0.61749319       0.34021317 </v>
   <v>       0.50000000       0.61749319       0.65978680 </v>
   <v>       0.50000000       0.50000000       0.50000000 </v>
   <v>       0.44208298       0.55791702       0.58190703 </v>
   <v>       0.55791702       0.55791702       0.58190703 </v>
   <v>       0.50000000       0.61583404       0.50000000 </v>
   <v>       0.46154470       0.54222883       0.33829887 </v>
   <v>       0.45311327       0.55148763       0.30284543 </v>
  </varray>
  <varray name="selective"  type="logical" >
   <v type="logical" >  F  F  F </v>
   <v type="logical" >  F  F  F </v>
   <v type="logical" >  F  F  F </v>
   <v type="logical" >  F  F  F </v>
   <v type="logical" >  F  F  F </v>
   <v type="logical" >  F  F  F </v>
   <v type="logical" >  F  F  F </v>
   <v type="logical" >  F  F  F </v>
   <v type="logical" >  F  F  F </v>
   <v type="logical" >  F  F  F </v>
   <v type="logical" >  F  F  F </v>
   <v type="logical" >  F  F  F </v>
   <v type="logical" >  F  F  F </v>
   <v type="logical" >  F  F  F </v>
   <v type="logical" >  F  F  F </v>
   <v type="logical" >  F  F  F </v>
   <v type="logical" >  F  F  F </v>
   <v type="logical" >  F  F  F </v>
   <v type="logical" >  F  F  F </v>
   <v type="logical" >  F  F  F </v>
   <v type="logical" >  F  F  F </v>
   <v type="logical" >  F  F  F </v>
   <v type="logical" >  F  F  F </v>
   <v type="logical" >  F  F  F </v>
   <v type="logical" >  F  F  F </v>
   <v type="logical" >  F  F  F </v>
   <v type="logical" >  F  F  F </v>
   <v type="logical" >  F  F  F </v>
   <v type="logical" >  F  F  F </v>
   <v type="logical" >  F  F  F </v>
   <v type="logical" >  F  F  F </v>
   <v type="logical" >  F  F  F </v>
   <v type="logical" >  F  F  F </v>
   <v type="logical" >  F  F  F </v>
   <v type="logical" >  F  F  F </v>
   <v type="logical" >  F  F  F </v>
   <v type="logical" >  F  F  F </v>
   <v type="logical" >  F  F  F </v>
   <v type="logical" >  F  F  F </v>
   <v type="logical" >  F  F  F </v>
   <v type="logical" >  F  F  F </v>
   <v type="logical" >  F  F  F </v>
   <v type="logical" >  F  F  F </v>
   <v type="logical" >  F  F  F </v>
   <v type="logical" >  F  F  F </v>
   <v type="logical" >  F  F  F </v>
   <v type="logical" >  F  F  F </v>
   <v type="logical" >  F  F  F </v>
   <v type="logical" >  F  F  F </v>
   <v type="logical" >  F  F  F </v>
   <v type="logical" >  F  F  F </v>
   <v type="logical" >  F  F  F </v>
   <v type="logical" >  F  F  F </v>
   <v type="logical" >  F  F  F </v>
   <v type="logical" >  F  F  F </v>
   <v type="logical" >  F  F  F </v>
   <v type="logical" >  F  F  F </v>
  </varray>
  <nose>
   <v>      -3.00000000       0.00000000       0.00010000       0.00010000 </v>
  </nose>
 </structure>
</modeling>
