<?xml version="1.0" encoding="ISO-8859-1"?>
<modeling>
 <generator>
  <i name="program" type="string">vasp </i>
  <i name="version" type="string">5.4.4.18Apr17-6-g9f103f2a35  </i>
  <i name="subversion" type="string">(build Sep 03 2018 23:53:05) complex            parallel </i>
  <i name="platform" type="string">LinuxIFC </i>
  <i name="date" type="string">2021 12 01 </i>
  <i name="time" type="string">10:26:16 </i>
 </generator>
 <incar>
  <i type="string" name="SYSTEM"> 6_Pd100_top_free_z(O)</i>
  <i type="int" name="ISTART">     0</i>
  <i type="string" name="PREC">normal   			! encut=max(enmax), ngx,y,z</i>
  <i type="string" name="ALGO"> Fast     			! Mix RMM-DIIS and Dav</i>
  <i type="logical" name="ADDGRID"> F  </i>
  <i type="int" name="ISPIN">     1</i>
  <i type="int" name="ICHARG">     2</i>
  <i type="int" name="NELM">   100</i>
  <i type="int" name="NELMIN">     6</i>
  <i type="int" name="IBRION">     2</i>
  <i name="EDIFF">      0.00010000</i>
  <i name="EDIFFG">     -0.05000000</i>
  <i type="int" name="NSW">     0</i>
  <i type="int" name="ISIF">     2</i>
  <i type="int" name="ISYM">     2</i>
  <i name="ENCUT">    400.00000000</i>
  <i type="string" name="LREAL"> Auto     			! Auto or A projection done</i>
  <i type="int" name="ISMEAR">     2</i>
  <i name="SIGMA">      0.20000000</i>
  <i type="logical" name="LWAVE"> F  </i>
  <i type="logical" name="LCHARG"> F  </i>
  <v type="int" name="KPOINT_BSE">    -1     0     0     0</v>
  <i type="int" name="MAXMEM"> 10000</i>
  <i type="int" name="NELM">   100</i>
  <i type="string" name="GGA"> RP         			! Revised PBE</i>
 </incar>
 <structure name="primitive_cell" >
  <crystal>
   <varray name="basis" >
    <v>      30.00000000       0.00000000       0.00000000 </v>
    <v>       0.00000000      30.00000000       0.00000000 </v>
    <v>       0.00000000       0.00000000      30.00000000 </v>
   </varray>
   <i name="volume">  27000.00000000 </i>
   <varray name="rec_basis" >
    <v>       0.03333333       0.00000000       0.00000000 </v>
    <v>       0.00000000       0.03333333       0.00000000 </v>
    <v>       0.00000000       0.00000000       0.03333333 </v>
   </varray>
  </crystal>
  <varray name="positions" >
   <v>       0.44576020       0.32826710       0.41691983 </v>
   <v>      -0.48485820       0.25976523       0.41632287 </v>
   <v>      -0.44576020       0.32826710       0.41691983 </v>
   <v>      -0.50000000       0.38250690       0.34021317 </v>
   <v>      -0.50000000       0.27609440      -0.50000000 </v>
   <v>       0.38804720       0.38804720       0.34167483 </v>
   <v>      -0.50000000       0.38416601      -0.50000000 </v>
   <v>       0.44208300       0.44208300       0.41809300 </v>
   <v>       0.38317830       0.38317830      -0.50000000 </v>
   <v>      -0.48262413       0.22432027       0.40397690 </v>
   <v>      -0.44208300       0.44208300       0.41809300 </v>
   <v>       0.44576020       0.32826710      -0.41691977 </v>
   <v>       0.32826705       0.44576024       0.41691983 </v>
   <v>      -0.38804720       0.38804720       0.34167483 </v>
   <v>      -0.38317830       0.38317830      -0.50000000 </v>
   <v>      -0.50000000      -0.50000000       0.33478917 </v>
   <v>      -0.50000000      -0.50000000      -0.50000000 </v>
   <v>      -0.44576020       0.32826710      -0.41691977 </v>
   <v>       0.38250685      -0.49999995       0.34021317 </v>
   <v>       0.44208300       0.44208300      -0.41809297 </v>
   <v>       0.38416599      -0.49999998      -0.50000000 </v>
   <v>      -0.44208300       0.44208300      -0.41809297 </v>
   <v>       0.44208298      -0.44208298       0.41809300 </v>
   <v>       0.32826705       0.44576024      -0.41691977 </v>
   <v>      -0.50000000       0.38250690      -0.34021320 </v>
   <v>       0.32826712      -0.44576022       0.41691983 </v>
   <v>      -0.38250685      -0.49999995       0.34021317 </v>
   <v>      -0.32826705       0.44576024       0.41691983 </v>
   <v>       0.27609443       0.49999998      -0.50000000 </v>
   <v>       0.38804720       0.38804720      -0.34167487 </v>
   <v>      -0.38416599      -0.49999998      -0.50000000 </v>
   <v>      -0.44208298      -0.44208298       0.41809300 </v>
   <v>       0.44208298      -0.44208298      -0.41809297 </v>
   <v>      -0.38804720       0.38804720      -0.34167487 </v>
   <v>       0.38804722      -0.38804722       0.34167483 </v>
   <v>       0.38250685      -0.49999995      -0.34021320 </v>
   <v>       0.32826712      -0.44576022      -0.41691977 </v>
   <v>      -0.32826705       0.44576024      -0.41691977 </v>
   <v>       0.50000000      -0.38250681       0.34021317 </v>
   <v>      -0.50000000      -0.38416596      -0.50000000 </v>
   <v>      -0.44208298      -0.44208298      -0.41809297 </v>
   <v>      -0.50000000      -0.50000000      -0.33478913 </v>
   <v>       0.38317828      -0.38317828      -0.50000000 </v>
   <v>      -0.32826712      -0.44576022       0.41691983 </v>
   <v>      -0.27609443       0.49999998      -0.50000000 </v>
   <v>      -0.38804722      -0.38804722       0.34167483 </v>
   <v>      -0.38250685      -0.49999995      -0.34021320 </v>
   <v>       0.44576027      -0.32826707       0.41691983 </v>
   <v>      -0.38317828      -0.38317828      -0.50000000 </v>
   <v>      -0.32826712      -0.44576022      -0.41691977 </v>
   <v>      -0.44576027      -0.32826707       0.41691983 </v>
   <v>       0.38804722      -0.38804722      -0.34167487 </v>
   <v>      -0.50000000      -0.38250681      -0.34021320 </v>
   <v>       0.44576027      -0.32826707      -0.41691977 </v>
   <v>      -0.44576027      -0.32826707      -0.41691977 </v>
   <v>      -0.50000000      -0.27609445       0.50000000 </v>
   <v>      -0.38804722      -0.38804722      -0.34167487 </v>
  </varray>
 </structure>
 <varray name="primitive_index" >
  <v type="int" >        1 </v>
  <v type="int" >       56 </v>
  <v type="int" >        3 </v>
  <v type="int" >        5 </v>
  <v type="int" >        7 </v>
  <v type="int" >       15 </v>
  <v type="int" >       29 </v>
  <v type="int" >       28 </v>
  <v type="int" >       34 </v>
  <v type="int" >       57 </v>
  <v type="int" >       21 </v>
  <v type="int" >       19 </v>
  <v type="int" >       22 </v>
  <v type="int" >       11 </v>
  <v type="int" >       36 </v>
  <v type="int" >       38 </v>
  <v type="int" >       52 </v>
  <v type="int" >       24 </v>
  <v type="int" >       32 </v>
  <v type="int" >       44 </v>
  <v type="int" >       48 </v>
  <v type="int" >       42 </v>
  <v type="int" >       43 </v>
  <v type="int" >       40 </v>
  <v type="int" >        6 </v>
  <v type="int" >        4 </v>
  <v type="int" >       30 </v>
  <v type="int" >       26 </v>
  <v type="int" >        8 </v>
  <v type="int" >       16 </v>
  <v type="int" >       49 </v>
  <v type="int" >       47 </v>
  <v type="int" >       53 </v>
  <v type="int" >       12 </v>
  <v type="int" >       13 </v>
  <v type="int" >       33 </v>
  <v type="int" >       25 </v>
  <v type="int" >       45 </v>
  <v type="int" >       50 </v>
  <v type="int" >       55 </v>
  <v type="int" >       54 </v>
  <v type="int" >       39 </v>
  <v type="int" >       37 </v>
  <v type="int" >        2 </v>
  <v type="int" >        9 </v>
  <v type="int" >       17 </v>
  <v type="int" >       31 </v>
  <v type="int" >       27 </v>
  <v type="int" >       35 </v>
  <v type="int" >       20 </v>
  <v type="int" >       23 </v>
  <v type="int" >       14 </v>
  <v type="int" >       51 </v>
  <v type="int" >       46 </v>
  <v type="int" >       41 </v>
  <v type="int" >       10 </v>
  <v type="int" >       18 </v>
 </varray>
 <kpoints>
  <generation param="Monkhorst-Pack">
   <v type="int" name="divisions">       1        1        1 </v>
   <v name="usershift">      0.00000000       0.00000000       0.00000000 </v>
   <v name="genvec1">      1.00000000       0.00000000       0.00000000 </v>
   <v name="genvec2">      0.00000000       1.00000000       0.00000000 </v>
   <v name="genvec3">      0.00000000       0.00000000       1.00000000 </v>
   <v name="shift">      0.00000000       0.00000000       0.00000000 </v>
  </generation>
  <varray name="kpointlist" >
   <v>       0.00000000       0.00000000       0.00000000 </v>
  </varray>
  <varray name="weights" >
   <v>       1.00000000 </v>
  </varray>
 </kpoints>
 <parameters>
  <separator name="general" >
   <i type="string" name="SYSTEM">6_Pd100_top_free_z(O)</i>
   <i type="logical" name="LCOMPAT"> F  </i>
  </separator>
  <separator name="electronic" >
   <i type="string" name="PREC">normal</i>
   <i name="ENMAX">    400.00000000</i>
   <i name="ENAUG">    644.87300000</i>
   <i name="EDIFF">      0.00010000</i>
   <i type="int" name="IALGO">    68</i>
   <i type="int" name="IWAVPR">    10</i>
   <i type="int" name="NBANDS">   336</i>
   <i name="NELECT">    560.00000000</i>
   <i type="int" name="TURBO">     0</i>
   <i type="int" name="IRESTART">     0</i>
   <i type="int" name="NREBOOT">     0</i>
   <i type="int" name="NMIN">     0</i>
   <i name="EREF">      0.00000000</i>
   <separator name="electronic smearing" >
    <i type="int" name="ISMEAR">     2</i>
    <i name="SIGMA">      0.20000000</i>
    <i name="KSPACING">      0.50000000</i>
    <i type="logical" name="KGAMMA"> T  </i>
   </separator>
   <separator name="electronic projectors" >
    <i type="logical" name="LREAL"> T  </i>
    <v name="ROPT">     -0.00050000     -0.00050000     -0.00050000</v>
    <i type="int" name="LMAXPAW">  -100</i>
    <i type="int" name="LMAXMIX">     2</i>
    <i type="logical" name="NLSPLINE"> F  </i>
   </separator>
   <separator name="electronic startup" >
    <i type="int" name="ISTART">     0</i>
    <i type="int" name="ICHARG">     2</i>
    <i type="int" name="INIWAV">     1</i>
   </separator>
   <separator name="electronic spin" >
    <i type="int" name="ISPIN">     1</i>
    <i type="logical" name="LNONCOLLINEAR"> F  </i>
    <v name="MAGMOM">      1.00000000      1.00000000      1.00000000      1.00000000      1.00000000      1.00000000      1.00000000      1.00000000      1.00000000      1.00000000      1.00000000      1.00000000      1.00000000      1.00000000      1.00000000      1.00000000      1.00000000      1.00000000      1.00000000      1.00000000
      1.00000000      1.00000000      1.00000000      1.00000000      1.00000000      1.00000000      1.00000000      1.00000000      1.00000000      1.00000000      1.00000000      1.00000000      1.00000000      1.00000000      1.00000000      1.00000000      1.00000000      1.00000000      1.00000000      1.00000000
      1.00000000      1.00000000      1.00000000      1.00000000      1.00000000      1.00000000      1.00000000      1.00000000      1.00000000      1.00000000      1.00000000      1.00000000      1.00000000      1.00000000      1.00000000      1.00000000      1.00000000</v>
    <i name="NUPDOWN">     -1.00000000</i>
    <i type="logical" name="LSORBIT"> F  </i>
    <v name="SAXIS">      0.00000000      0.00000000      1.00000000</v>
    <i type="logical" name="LSPIRAL"> F  </i>
    <v name="QSPIRAL">      0.00000000      0.00000000      0.00000000</v>
    <i type="logical" name="LZEROZ"> F  </i>
   </separator>
   <separator name="electronic exchange-correlation" >
    <i type="logical" name="LASPH"> F  </i>
    <i type="logical" name="LMETAGGA"> F  </i>
   </separator>
   <separator name="electronic convergence" >
    <i type="int" name="NELM">   100</i>
    <i type="int" name="NELMDL">    -5</i>
    <i type="int" name="NELMIN">     6</i>
    <i name="ENINI">    400.00000000</i>
    <separator name="electronic convergence detail" >
     <i type="logical" name="LDIAG"> T  </i>
     <i type="logical" name="LSUBROT"> F  </i>
     <i name="WEIMIN">      0.00000000</i>
     <i name="EBREAK">      0.00000007</i>
     <i name="DEPER">      0.30000000</i>
     <i type="int" name="NRMM">     4</i>
     <i name="TIME">      0.40000000</i>
    </separator>
   </separator>
   <separator name="electronic mixer" >
    <i name="AMIX">      0.40000000</i>
    <i name="BMIX">      1.00000000</i>
    <i name="AMIN">      0.10000000</i>
    <i name="AMIX_MAG">      1.60000000</i>
    <i name="BMIX_MAG">      1.00000000</i>
    <separator name="electronic mixer details" >
     <i type="int" name="IMIX">     4</i>
     <i type="logical" name="MIXFIRST"> F  </i>
     <i type="int" name="MAXMIX">   -45</i>
     <i name="WC">    100.00000000</i>
     <i type="int" name="INIMIX">     1</i>
     <i type="int" name="MIXPRE">     1</i>
     <i type="int" name="MREMOVE">     5</i>
    </separator>
   </separator>
   <separator name="electronic dipolcorrection" >
    <i type="logical" name="LDIPOL"> F  </i>
    <i type="logical" name="LMONO"> F  </i>
    <i type="int" name="IDIPOL">     0</i>
    <i name="EPSILON">      1.00000000</i>
    <v name="DIPOL">   -100.00000000   -100.00000000   -100.00000000</v>
    <i name="EFIELD">      0.00000000</i>
   </separator>
  </separator>
  <separator name="grids" >
   <i type="int" name="NGX">   150</i>
   <i type="int" name="NGY">   150</i>
   <i type="int" name="NGZ">   150</i>
   <i type="int" name="NGXF">   300</i>
   <i type="int" name="NGYF">   300</i>
   <i type="int" name="NGZF">   300</i>
   <i type="logical" name="ADDGRID"> F  </i>
  </separator>
  <separator name="ionic" >
   <i type="int" name="NSW">     0</i>
   <i type="int" name="IBRION">    -1</i>
   <i type="int" name="MDALGO">     0</i>
   <i type="int" name="ISIF">     2</i>
   <i name="PSTRESS">      0.00000000</i>
   <i name="EDIFFG">     -0.05000000</i>
   <i type="int" name="NFREE">     1</i>
   <i name="POTIM">      0.50000000</i>
   <i name="SMASS">     -3.00000000</i>
   <i name="SCALEE">      1.00000000</i>
  </separator>
  <separator name="ionic md" >
   <i name="TEBEG">      0.00010000</i>
   <i name="TEEND">      0.00010000</i>
   <i type="int" name="NBLOCK">     1</i>
   <i type="int" name="KBLOCK">     1</i>
   <i type="int" name="NPACO">   256</i>
   <i name="APACO">     16.00000000</i>
  </separator>
  <separator name="symmetry" >
   <i type="int" name="ISYM">     2</i>
   <i name="SYMPREC">      0.00001000</i>
  </separator>
  <separator name="dos" >
   <i type="int" name="LORBIT">     0</i>
   <v name="RWIGS">     -1.00000000     -1.00000000     -1.00000000</v>
   <i type="int" name="NEDOS">   301</i>
   <i name="EMIN">     10.00000000</i>
   <i name="EMAX">    -10.00000000</i>
   <i name="EFERMI">      0.00000000</i>
  </separator>
  <separator name="writing" >
   <i type="int" name="NWRITE">     2</i>
   <i type="logical" name="LWAVE"> F  </i>
   <i type="logical" name="LDOWNSAMPLE"> F  </i>
   <i type="logical" name="LCHARG"> F  </i>
   <i type="logical" name="LPARD"> F  </i>
   <i type="logical" name="LVTOT"> F  </i>
   <i type="logical" name="LVHAR"> F  </i>
   <i type="logical" name="LELF"> F  </i>
   <i type="logical" name="LOPTICS"> F  </i>
   <v name="STM">      0.00000000      0.00000000      0.00000000      0.00000000      0.00000000      0.00000000      0.00000000</v>
  </separator>
  <separator name="performance" >
   <i type="int" name="NPAR">     1</i>
   <i type="int" name="NSIM">     4</i>
   <i type="int" name="NBLK">    -1</i>
   <i type="logical" name="LPLANE"> T  </i>
   <i type="logical" name="LSCALAPACK"> T  </i>
   <i type="logical" name="LSCAAWARE"> F  </i>
   <i type="logical" name="LSCALU"> F  </i>
   <i type="logical" name="LASYNC"> F  </i>
   <i type="logical" name="LORBITALREAL"> F  </i>
  </separator>
  <separator name="miscellaneous" >
   <i type="int" name="IDIOT">     3</i>
   <i type="int" name="ISPECIAL">     0</i>
   <i type="logical" name="LMUSIC"> F  </i>
   <v name="POMASS">    106.42000000     12.01100000     16.00000000</v>
   <v name="DARWINR">      0.00000000      0.00000000      0.00000000</v>
   <v name="DARWINV">      1.00000000      1.00000000      1.00000000</v>
   <i type="logical" name="LCORR"> T  </i>
  </separator>
  <i type="logical" name="GGA_COMPAT"> T  </i>
  <i type="logical" name="LBERRY"> F  </i>
  <i type="int" name="ICORELEVEL">     0</i>
  <i type="logical" name="LDAU"> F  </i>
  <i type="int" name="I_CONSTRAINED_M">     0</i>
  <separator name="electronic exchange-correlation" >
   <i type="string" name="GGA">RP</i>
   <i type="int" name="VOSKOWN">     0</i>
   <i type="logical" name="LHFCALC"> F  </i>
   <i type="string" name="PRECFOCK"></i>
   <i type="logical" name="LSYMGRAD"> F  </i>
   <i type="logical" name="LHFONE"> F  </i>
   <i type="logical" name="LRHFCALC"> F  </i>
   <i type="logical" name="LTHOMAS"> F  </i>
   <i type="logical" name="LMODELHF"> F  </i>
   <i name="ENCUT4O">     -1.00000000</i>
   <i type="int" name="EXXOEP">     0</i>
   <i type="int" name="FOURORBIT">     0</i>
   <i name="AEXX">      0.00000000</i>
   <i name="HFALPHA">      0.00000000</i>
   <i name="MCALPHA">      0.00000000</i>
   <i name="ALDAX">      1.00000000</i>
   <i name="AGGAX">      1.00000000</i>
   <i name="ALDAC">      1.00000000</i>
   <i name="AGGAC">      1.00000000</i>
   <i type="int" name="NKREDX">     1</i>
   <i type="int" name="NKREDY">     1</i>
   <i type="int" name="NKREDZ">     1</i>
   <i type="logical" name="SHIFTRED"> F  </i>
   <i type="logical" name="ODDONLY"> F  </i>
   <i type="logical" name="EVENONLY"> F  </i>
   <i type="int" name="LMAXFOCK">     0</i>
   <i type="int" name="NMAXFOCKAE">     0</i>
   <i type="logical" name="LFOCKAEDFT"> F  </i>
   <i name="HFSCREEN">      0.00000000</i>
   <i name="HFSCREENC">      0.00000000</i>
   <i type="int" name="NBANDSGWLOW">     0</i>
  </separator>
  <separator name="vdW DFT" >
   <i type="logical" name="LUSE_VDW"> F  </i>
   <i name="Zab_VDW">     -0.84910000</i>
   <i name="PARAM1">      0.12340000</i>
   <i name="PARAM2">      1.00000000</i>
   <i name="PARAM3">      0.00000000</i>
  </separator>
  <separator name="model GW" >
   <i type="int" name="MODEL_GW">     0</i>
   <i name="MODEL_EPS0">    284.21052632</i>
   <i name="MODEL_ALPHA">      1.00000000</i>
  </separator>
  <separator name="linear response parameters" >
   <i type="logical" name="LEPSILON"> F  </i>
   <i type="logical" name="LRPA"> F  </i>
   <i type="logical" name="LNABLA"> F  </i>
   <i type="logical" name="LVEL"> F  </i>
   <i type="int" name="KINTER">     0</i>
   <i name="CSHIFT">      0.10000000</i>
   <i name="OMEGAMAX">     -1.00000000</i>
   <i name="DEG_THRESHOLD">      0.00200000</i>
   <i name="RTIME">     -0.10000000</i>
   <i name="WPLASMAI">      0.00000000</i>
   <v name="DFIELD">      0.00000000      0.00000000      0.00000000</v>
   <v name="WPLASMA">      0.00000000      0.00000000      0.00000000      0.00000000      0.00000000      0.00000000      0.00000000      0.00000000      0.00000000</v>
  </separator>
  <separator name="orbital magnetization" >
   <i type="logical" name="NUCIND"> F  </i>
   <v name="MAGPOS">      0.00000000      0.00000000      0.00000000</v>
   <i type="logical" name="LNICSALL"> T  </i>
   <i type="logical" name="ORBITALMAG"> F  </i>
   <i type="logical" name="LMAGBLOCH"> F  </i>
   <i type="logical" name="LCHIMAG"> F  </i>
   <i type="logical" name="LGAUGE"> T  </i>
   <i type="int" name="MAGATOM">     0</i>
   <v name="MAGDIPOL">      0.00000000      0.00000000      0.00000000</v>
   <v name="AVECCONST">      0.00000000      0.00000000      0.00000000</v>
  </separator>
  <separator name="response functions" >
   <i type="logical" name="LADDER"> F  </i>
   <i type="logical" name="LRPAFORCE"> F  </i>
   <i type="logical" name="LFXC"> F  </i>
   <i type="logical" name="LHARTREE"> T  </i>
   <i type="int" name="IBSE">     0</i>
   <v type="int" name="KPOINT">    -1     0     0     0</v>
   <i type="logical" name="LTCTE"> F  </i>
   <i type="logical" name="LTETE"> F  </i>
   <i type="logical" name="LTRIPLET"> F  </i>
   <i type="logical" name="LFXCEPS"> F  </i>
   <i type="logical" name="LFXHEG"> F  </i>
   <i type="int" name="NATURALO">     2</i>
   <i type="logical" name="L2ORDER"> F  </i>
   <i type="logical" name="LMP2LT"> F  </i>
   <i type="logical" name="LUSEW"> F  </i>
   <i name="ENCUTGW">     -2.00000000</i>
   <i name="ENCUTGWSOFT">     -2.00000000</i>
   <i name="ENCUTLF">     -1.00000000</i>
   <i type="int" name="LMAXMP2">    -1</i>
   <i name="SCISSOR">      0.00000000</i>
   <i type="int" name="NOMEGA">     0</i>
   <i type="int" name="NOMEGAR">     0</i>
   <i type="int" name="NBANDSGW">    -1</i>
   <i type="int" name="NBANDSO">    -1</i>
   <i type="int" name="NBANDSV">    -1</i>
   <i type="int" name="NELM">   100</i>
   <i type="int" name="NELMHF">     1</i>
   <i type="int" name="DIM">     3</i>
   <i type="int" name="ANTIRES">     0</i>
   <i name="OMEGAMAX">    -30.00000000</i>
   <i name="OMEGAMIN">    -30.00000000</i>
   <i name="OMEGATL">   -200.00000000</i>
   <i type="int" name="OMEGAGRID">   140</i>
   <i name="CSHIFT">     -0.10000000</i>
   <i type="logical" name="SELFENERGY"> F  </i>
   <i type="logical" name="LSPECTRAL"> F  </i>
   <i type="logical" name="LSPECTRALGW"> F  </i>
   <i type="logical" name="LSINGLES"> F  </i>
   <i type="logical" name="LFERMIGW"> F  </i>
   <i type="logical" name="ODDONLYGW"> F  </i>
   <i type="logical" name="EVENONLYGW"> F  </i>
   <i type="int" name="NKREDLFX">     1</i>
   <i type="int" name="NKREDLFY">     1</i>
   <i type="int" name="NKREDLFZ">     1</i>
   <i type="int" name="MAXMEM"> 10000</i>
   <i type="int" name="TELESCOPE">     0</i>
   <i type="int" name="TAUPAR">     1</i>
   <i type="int" name="OMEGAPAR">    -1</i>
   <i name="LAMBDA">      1.00000000</i>
  </separator>
  <separator name="External order field" >
   <i name="OFIELD_KAPPA">      0.00000000</i>
   <v name="OFIELD_K">      0.00000000      0.00000000      0.00000000</v>
   <i name="OFIELD_Q6_NEAR">      0.00000000</i>
   <i name="OFIELD_Q6_FAR">      0.00000000</i>
   <i name="OFIELD_A">      0.00000000</i>
  </separator>
 </parameters>
 <atominfo>
  <atoms>      57 </atoms>
  <types>       3 </types>
  <array name="atoms" >
   <dimension dim="1">ion</dimension>
   <field type="string">element</field>
   <field type="int">atomtype</field>
   <set>
    <rc><c>Pd</c><c>   1</c></rc>
    <rc><c>Pd</c><c>   1</c></rc>
    <rc><c>Pd</c><c>   1</c></rc>
    <rc><c>Pd</c><c>   1</c></rc>
    <rc><c>Pd</c><c>   1</c></rc>
    <rc><c>Pd</c><c>   1</c></rc>
    <rc><c>Pd</c><c>   1</c></rc>
    <rc><c>Pd</c><c>   1</c></rc>
    <rc><c>Pd</c><c>   1</c></rc>
    <rc><c>Pd</c><c>   1</c></rc>
    <rc><c>Pd</c><c>   1</c></rc>
    <rc><c>Pd</c><c>   1</c></rc>
    <rc><c>Pd</c><c>   1</c></rc>
    <rc><c>Pd</c><c>   1</c></rc>
    <rc><c>Pd</c><c>   1</c></rc>
    <rc><c>Pd</c><c>   1</c></rc>
    <rc><c>Pd</c><c>   1</c></rc>
    <rc><c>Pd</c><c>   1</c></rc>
    <rc><c>Pd</c><c>   1</c></rc>
    <rc><c>Pd</c><c>   1</c></rc>
    <rc><c>Pd</c><c>   1</c></rc>
    <rc><c>Pd</c><c>   1</c></rc>
    <rc><c>Pd</c><c>   1</c></rc>
    <rc><c>Pd</c><c>   1</c></rc>
    <rc><c>Pd</c><c>   1</c></rc>
    <rc><c>Pd</c><c>   1</c></rc>
    <rc><c>Pd</c><c>   1</c></rc>
    <rc><c>Pd</c><c>   1</c></rc>
    <rc><c>Pd</c><c>   1</c></rc>
    <rc><c>Pd</c><c>   1</c></rc>
    <rc><c>Pd</c><c>   1</c></rc>
    <rc><c>Pd</c><c>   1</c></rc>
    <rc><c>Pd</c><c>   1</c></rc>
    <rc><c>Pd</c><c>   1</c></rc>
    <rc><c>Pd</c><c>   1</c></rc>
    <rc><c>Pd</c><c>   1</c></rc>
    <rc><c>Pd</c><c>   1</c></rc>
    <rc><c>Pd</c><c>   1</c></rc>
    <rc><c>Pd</c><c>   1</c></rc>
    <rc><c>Pd</c><c>   1</c></rc>
    <rc><c>Pd</c><c>   1</c></rc>
    <rc><c>Pd</c><c>   1</c></rc>
    <rc><c>Pd</c><c>   1</c></rc>
    <rc><c>Pd</c><c>   1</c></rc>
    <rc><c>Pd</c><c>   1</c></rc>
    <rc><c>Pd</c><c>   1</c></rc>
    <rc><c>Pd</c><c>   1</c></rc>
    <rc><c>Pd</c><c>   1</c></rc>
    <rc><c>Pd</c><c>   1</c></rc>
    <rc><c>Pd</c><c>   1</c></rc>
    <rc><c>Pd</c><c>   1</c></rc>
    <rc><c>Pd</c><c>   1</c></rc>
    <rc><c>Pd</c><c>   1</c></rc>
    <rc><c>Pd</c><c>   1</c></rc>
    <rc><c>Pd</c><c>   1</c></rc>
    <rc><c>C </c><c>   2</c></rc>
    <rc><c>O </c><c>   3</c></rc>
   </set>
  </array>
  <array name="atomtypes" >
   <dimension dim="1">type</dimension>
   <field type="int">atomspertype</field>
   <field type="string">element</field>
   <field>mass</field>
   <field>valence</field>
   <field type="string">pseudopotential</field>
   <set>
    <rc><c>  55</c><c>Pd</c><c>    106.42000000</c><c>     10.00000000</c><c>  PAW_PBE Pd 04Jan2005                  </c></rc>
    <rc><c>   1</c><c>C </c><c>     12.01100000</c><c>      4.00000000</c><c>  PAW_PBE C 08Apr2002                   </c></rc>
    <rc><c>   1</c><c>O </c><c>     16.00000000</c><c>      6.00000000</c><c>  PAW_PBE O 08Apr2002                   </c></rc>
   </set>
  </array>
 </atominfo>
 <structure name="initialpos" >
  <crystal>
   <varray name="basis" >
    <v>      30.00000000       0.00000000       0.00000000 </v>
    <v>       0.00000000      30.00000000       0.00000000 </v>
    <v>       0.00000000       0.00000000      30.00000000 </v>
   </varray>
   <i name="volume">  27000.00000000 </i>
   <varray name="rec_basis" >
    <v>       0.03333333       0.00000000       0.00000000 </v>
    <v>       0.00000000       0.03333333       0.00000000 </v>
    <v>       0.00000000       0.00000000       0.03333333 </v>
   </varray>
  </crystal>
  <varray name="positions" >
   <v>       0.44576020       0.32826710       0.41691983 </v>
   <v>       0.67173288       0.55423978       0.41691983 </v>
   <v>       0.55423980       0.32826710       0.41691983 </v>
   <v>       0.32826712       0.55423978       0.41691983 </v>
   <v>       0.50000000       0.38250690       0.34021317 </v>
   <v>       0.50000000       0.38250690       0.65978680 </v>
   <v>       0.50000000       0.27609440       0.50000000 </v>
   <v>       0.27609443       0.49999998       0.50000000 </v>
   <v>       0.72390557       0.49999998       0.50000000 </v>
   <v>       0.50000000       0.72390555       0.50000000 </v>
   <v>       0.61195280       0.38804720       0.34167483 </v>
   <v>       0.61195280       0.38804720       0.65832513 </v>
   <v>       0.38804722       0.61195278       0.34167483 </v>
   <v>       0.38804722       0.61195278       0.65832513 </v>
   <v>       0.38804720       0.38804720       0.34167483 </v>
   <v>       0.38804720       0.38804720       0.65832513 </v>
   <v>       0.61195278       0.61195278       0.34167483 </v>
   <v>       0.61195278       0.61195278       0.65832513 </v>
   <v>       0.44576020       0.32826710       0.58308023 </v>
   <v>       0.67173288       0.55423978       0.58308023 </v>
   <v>       0.55791699       0.44208301       0.41809300 </v>
   <v>       0.32826705       0.44576024       0.41691983 </v>
   <v>       0.55423973       0.67173293       0.41691983 </v>
   <v>       0.55423980       0.32826710       0.58308023 </v>
   <v>       0.32826712       0.55423978       0.58308023 </v>
   <v>       0.67173295       0.44576024       0.41691983 </v>
   <v>       0.44576027       0.67173293       0.41691983 </v>
   <v>       0.44208301       0.44208301       0.41809300 </v>
   <v>       0.50000000       0.38416601       0.50000000 </v>
   <v>       0.61749315       0.50000005       0.34021317 </v>
   <v>       0.61749315       0.50000005       0.65978680 </v>
   <v>       0.38250685       0.50000005       0.34021317 </v>
   <v>       0.38250685       0.50000005       0.65978680 </v>
   <v>       0.38317830       0.38317830       0.50000000 </v>
   <v>       0.61682172       0.61682172       0.50000000 </v>
   <v>       0.61682170       0.38317830       0.50000000 </v>
   <v>       0.38317828       0.61682172       0.50000000 </v>
   <v>       0.50000000       0.50000000       0.33478917 </v>
   <v>       0.50000000       0.50000000       0.66521087 </v>
   <v>       0.32826705       0.44576024       0.58308023 </v>
   <v>       0.55423973       0.67173293       0.58308023 </v>
   <v>       0.55791699       0.44208301       0.58190703 </v>
   <v>       0.44208298       0.55791702       0.41809300 </v>
   <v>       0.44208301       0.44208301       0.58190703 </v>
   <v>       0.67173295       0.44576024       0.58308023 </v>
   <v>       0.44576027       0.67173293       0.58308023 </v>
   <v>       0.55791702       0.55791702       0.41809300 </v>
   <v>       0.38416599       0.50000002       0.50000000 </v>
   <v>       0.61583401       0.50000002       0.50000000 </v>
   <v>       0.50000000       0.61749319       0.34021317 </v>
   <v>       0.50000000       0.61749319       0.65978680 </v>
   <v>       0.50000000       0.50000000       0.50000000 </v>
   <v>       0.44208298       0.55791702       0.58190703 </v>
   <v>       0.55791702       0.55791702       0.58190703 </v>
   <v>       0.50000000       0.61583404       0.50000000 </v>
   <v>       0.51514180       0.25976523       0.41632287 </v>
   <v>       0.51737587       0.22432027       0.40397690 </v>
  </varray>
  <varray name="selective"  type="logical" >
   <v type="logical" >  F  F  F </v>
   <v type="logical" >  F  F  F </v>
   <v type="logical" >  F  F  F </v>
   <v type="logical" >  F  F  F </v>
   <v type="logical" >  F  F  F </v>
   <v type="logical" >  F  F  F </v>
   <v type="logical" >  F  F  F </v>
   <v type="logical" >  F  F  F </v>
   <v type="logical" >  F  F  F </v>
   <v type="logical" >  F  F  F </v>
   <v type="logical" >  F  F  F </v>
   <v type="logical" >  F  F  F </v>
   <v type="logical" >  F  F  F </v>
   <v type="logical" >  F  F  F </v>
   <v type="logical" >  F  F  F </v>
   <v type="logical" >  F  F  F </v>
   <v type="logical" >  F  F  F </v>
   <v type="logical" >  F  F  F </v>
   <v type="logical" >  F  F  F </v>
   <v type="logical" >  F  F  F </v>
   <v type="logical" >  F  F  F </v>
   <v type="logical" >  F  F  F </v>
   <v type="logical" >  F  F  F </v>
   <v type="logical" >  F  F  F </v>
   <v type="logical" >  F  F  F </v>
   <v type="logical" >  F  F  F </v>
   <v type="logical" >  F  F  F </v>
   <v type="logical" >  F  F  F </v>
   <v type="logical" >  F  F  F </v>
   <v type="logical" >  F  F  F </v>
   <v type="logical" >  F  F  F </v>
   <v type="logical" >  F  F  F </v>
   <v type="logical" >  F  F  F </v>
   <v type="logical" >  F  F  F </v>
   <v type="logical" >  F  F  F </v>
   <v type="logical" >  F  F  F </v>
   <v type="logical" >  F  F  F </v>
   <v type="logical" >  F  F  F </v>
   <v type="logical" >  F  F  F </v>
   <v type="logical" >  F  F  F </v>
   <v type="logical" >  F  F  F </v>
   <v type="logical" >  F  F  F </v>
   <v type="logical" >  F  F  F </v>
   <v type="logical" >  F  F  F </v>
   <v type="logical" >  F  F  F </v>
   <v type="logical" >  F  F  F </v>
   <v type="logical" >  F  F  F </v>
   <v type="logical" >  F  F  F </v>
   <v type="logical" >  F  F  F </v>
   <v type="logical" >  F  F  F </v>
   <v type="logical" >  F  F  F </v>
   <v type="logical" >  F  F  F </v>
   <v type="logical" >  F  F  F </v>
   <v type="logical" >  F  F  F </v>
   <v type="logical" >  F  F  F </v>
   <v type="logical" >  F  F  F </v>
   <v type="logical" >  F  F  F </v>
  </varray>
  <nose>
   <v>      -3.00000000       0.00000000       0.00010000       0.00010000 </v>
  </nose>
 </structure>
 <calculation>
  <scstep>
   <time name="dav">  366.66  366.77</time>
   <time name="total">  380.84  380.95</time>
   <energy>
    <i name="alphaZ">     75.25431677 </i>
    <i name="ewald"> 138133.53437033 </i>
    <i name="hartreedc">-181497.96864962 </i>
    <i name="XCdc">  -1703.29024465 </i>
    <i name="pawpsdc">  44873.02882129 </i>
    <i name="pawaedc"> -41398.84523641 </i>
    <i name="eentropy">     -0.02610937 </i>
    <i name="bandstr">    817.03704110 </i>
    <i name="atom">  45086.50549395 </i>
    <i name="e_fr_energy">   4385.22980340 </i>
    <i name="e_wo_entrp">   4385.25591276 </i>
    <i name="e_0_energy">   4385.23633074 </i>
   </energy>
  </scstep>
  <scstep>
   <time name="dav">  581.31  581.35</time>
   <time name="total">  581.32  581.35</time>
   <energy>
    <i name="e_fr_energy">   2027.42552794 </i>
    <i name="e_wo_entrp">   2027.43545484 </i>
    <i name="e_0_energy">   2027.42800966 </i>
   </energy>
  </scstep>
  <scstep>
   <time name="dav">  498.58  498.58</time>
   <time name="total">  498.59  498.58</time>
   <energy>
    <i name="e_fr_energy">    240.81623417 </i>
    <i name="e_wo_entrp">    240.84423873 </i>
    <i name="e_0_energy">    240.82323531 </i>
   </energy>
  </scstep>
  <scstep>
   <time name="dav">  423.88  423.87</time>
   <time name="total">  423.88  423.87</time>
   <energy>
    <i name="e_fr_energy">   -131.84145498 </i>
    <i name="e_wo_entrp">   -131.78493740 </i>
    <i name="e_0_energy">   -131.82732559 </i>
   </energy>
  </scstep>
  <scstep>
   <time name="dav">  513.71  513.70</time>
   <time name="total">  539.89  539.89</time>
   <energy>
    <i name="e_fr_energy">   -178.97527696 </i>
    <i name="e_wo_entrp">   -179.42865886 </i>
    <i name="e_0_energy">   -179.08862243 </i>
   </energy>
  </scstep>
  <scstep>
   <time name="diag">   68.08   68.08</time>
   <time name="diis">  205.40  205.40</time>
   <time name="orth">   14.02   14.02</time>
   <time name="total">  328.50  328.50</time>
   <energy>
    <i name="e_fr_energy">   -178.91865557 </i>
    <i name="e_wo_entrp">   -178.83722293 </i>
    <i name="e_0_energy">   -178.89829741 </i>
   </energy>
  </scstep>
  <scstep>
   <time name="diag">   68.33   68.33</time>
   <time name="diis">  242.96  242.96</time>
   <time name="orth">   14.03   14.03</time>
   <time name="total">  366.91  366.90</time>
   <energy>
    <i name="e_fr_energy">   -180.88709495 </i>
    <i name="e_wo_entrp">   -180.78717697 </i>
    <i name="e_0_energy">   -180.86211545 </i>
   </energy>
  </scstep>
  <scstep>
   <time name="diag">   68.66   68.66</time>
   <time name="diis">  217.06  217.06</time>
   <time name="orth">   14.23   14.23</time>
   <time name="total">  341.68  341.68</time>
   <energy>
    <i name="e_fr_energy">   -184.07375571 </i>
    <i name="e_wo_entrp">   -183.89874474 </i>
    <i name="e_0_energy">   -184.03000297 </i>
   </energy>
  </scstep>
  <scstep>
   <time name="diag">   68.77   68.76</time>
   <time name="diis">  211.64  211.64</time>
   <time name="orth">   13.83   13.83</time>
   <time name="total">  335.89  335.89</time>
   <energy>
    <i name="e_fr_energy">   -181.80544483 </i>
    <i name="e_wo_entrp">   -181.76507231 </i>
    <i name="e_0_energy">   -181.79535170 </i>
   </energy>
  </scstep>
  <scstep>
   <time name="diag">   68.68   68.68</time>
   <time name="diis">  208.39  208.39</time>
   <time name="orth">   13.98   13.98</time>
   <time name="total">  332.69  332.69</time>
   <energy>
    <i name="e_fr_energy">   -179.28722677 </i>
    <i name="e_wo_entrp">   -179.25107969 </i>
    <i name="e_0_energy">   -179.27819000 </i>
   </energy>
  </scstep>
  <scstep>
   <time name="diag">   68.71   68.71</time>
   <time name="diis">  204.99  204.99</time>
   <time name="orth">   14.08   14.08</time>
   <time name="total">  329.12  329.12</time>
   <energy>
    <i name="e_fr_energy">   -177.65349847 </i>
    <i name="e_wo_entrp">   -177.48989755 </i>
    <i name="e_0_energy">   -177.61259824 </i>
   </energy>
  </scstep>
  <scstep>
   <time name="diag">   68.78   68.78</time>
   <time name="diis">  207.47  207.47</time>
   <time name="orth">   14.01   14.01</time>
   <time name="total">  331.76  331.76</time>
   <energy>
    <i name="e_fr_energy">   -177.05477332 </i>
    <i name="e_wo_entrp">   -176.92291914 </i>
    <i name="e_0_energy">   -177.02180977 </i>
   </energy>
  </scstep>
  <scstep>
   <time name="diag">   68.78   68.78</time>
   <time name="diis">  203.00  203.00</time>
   <time name="orth">   14.28   14.28</time>
   <time name="total">  327.51  327.51</time>
   <energy>
    <i name="e_fr_energy">   -176.01779180 </i>
    <i name="e_wo_entrp">   -175.90687521 </i>
    <i name="e_0_energy">   -175.99006265 </i>
   </energy>
  </scstep>
  <scstep>
   <time name="diag">   68.73   68.73</time>
   <time name="diis">  203.32  203.32</time>
   <time name="orth">   14.25   14.25</time>
   <time name="total">  327.84  327.84</time>
   <energy>
    <i name="e_fr_energy">   -176.05510282 </i>
    <i name="e_wo_entrp">   -175.87741563 </i>
    <i name="e_0_energy">   -176.01068102 </i>
   </energy>
  </scstep>
  <scstep>
   <time name="diag">   68.69   68.69</time>
   <time name="diis">  199.96  199.96</time>
   <time name="orth">   14.36   14.36</time>
   <time name="total">  324.60  324.60</time>
   <energy>
    <i name="e_fr_energy">   -175.99981141 </i>
    <i name="e_wo_entrp">   -175.90316201 </i>
    <i name="e_0_energy">   -175.97564906 </i>
   </energy>
  </scstep>
  <scstep>
   <time name="diag">   68.51   68.51</time>
   <time name="diis">  201.02  201.02</time>
   <time name="orth">   14.29   14.29</time>
   <time name="total">  325.47  325.47</time>
   <energy>
    <i name="e_fr_energy">   -175.77602054 </i>
    <i name="e_wo_entrp">   -175.74868480 </i>
    <i name="e_0_energy">   -175.76918661 </i>
   </energy>
  </scstep>
  <scstep>
   <time name="diag">   68.53   68.53</time>
   <time name="diis">  195.87  195.87</time>
   <time name="orth">   14.31   14.31</time>
   <time name="total">  320.44  320.44</time>
   <energy>
    <i name="e_fr_energy">   -175.52436632 </i>
    <i name="e_wo_entrp">   -175.57173592 </i>
    <i name="e_0_energy">   -175.53620872 </i>
   </energy>
  </scstep>
  <scstep>
   <time name="diag">   68.84   68.84</time>
   <time name="diis">  196.68  196.68</time>
   <time name="orth">   14.28   14.28</time>
   <time name="total">  321.71  321.72</time>
   <energy>
    <i name="e_fr_energy">   -175.30876329 </i>
    <i name="e_wo_entrp">   -175.29918433 </i>
    <i name="e_0_energy">   -175.30636855 </i>
   </energy>
  </scstep>
  <scstep>
   <time name="diag">   68.70   68.70</time>
   <time name="diis">  196.32  196.33</time>
   <time name="orth">   14.19   14.19</time>
   <time name="total">  321.29  321.30</time>
   <energy>
    <i name="e_fr_energy">   -175.30381802 </i>
    <i name="e_wo_entrp">   -175.22182889 </i>
    <i name="e_0_energy">   -175.28332074 </i>
   </energy>
  </scstep>
  <scstep>
   <time name="diag">   69.03   69.03</time>
   <time name="diis">  198.86  198.87</time>
   <time name="orth">   14.30   14.30</time>
   <time name="total">  324.43  324.44</time>
   <energy>
    <i name="e_fr_energy">   -175.11501894 </i>
    <i name="e_wo_entrp">   -175.00945352 </i>
    <i name="e_0_energy">   -175.08862758 </i>
   </energy>
  </scstep>
  <scstep>
   <time name="diag">   69.21   69.21</time>
   <time name="diis">  194.17  194.17</time>
   <time name="orth">   14.24   14.24</time>
   <time name="total">  320.24  320.25</time>
   <energy>
    <i name="e_fr_energy">   -175.00151306 </i>
    <i name="e_wo_entrp">   -174.88364080 </i>
    <i name="e_0_energy">   -174.97204499 </i>
   </energy>
  </scstep>
  <scstep>
   <time name="diag">   69.14   69.14</time>
   <time name="diis">  194.54  194.54</time>
   <time name="orth">   14.21   14.21</time>
   <time name="total">  320.54  320.55</time>
   <energy>
    <i name="e_fr_energy">   -174.89434301 </i>
    <i name="e_wo_entrp">   -174.76635608 </i>
    <i name="e_0_energy">   -174.86234628 </i>
   </energy>
  </scstep>
  <scstep>
   <time name="diag">   69.20   69.20</time>
   <time name="diis">  194.53  194.53</time>
   <time name="orth">   14.22   14.22</time>
   <time name="total">  320.83  320.83</time>
   <energy>
    <i name="e_fr_energy">   -174.75128361 </i>
    <i name="e_wo_entrp">   -174.64403523 </i>
    <i name="e_0_energy">   -174.72447152 </i>
   </energy>
  </scstep>
  <scstep>
   <time name="diag">   69.34   69.33</time>
   <time name="diis">  194.53  194.53</time>
   <time name="orth">   14.25   14.25</time>
   <time name="total">  321.06  321.06</time>
   <energy>
    <i name="e_fr_energy">   -174.72463361 </i>
    <i name="e_wo_entrp">   -174.60931306 </i>
    <i name="e_0_energy">   -174.69580348 </i>
   </energy>
  </scstep>
  <scstep>
   <time name="diag">   69.48   69.48</time>
   <time name="diis">  194.96  194.96</time>
   <time name="orth">   14.30   14.30</time>
   <time name="total">  321.76  321.76</time>
   <energy>
    <i name="e_fr_energy">   -174.70569992 </i>
    <i name="e_wo_entrp">   -174.60089161 </i>
    <i name="e_0_energy">   -174.67949785 </i>
   </energy>
  </scstep>
  <scstep>
   <time name="diag">   69.38   69.39</time>
   <time name="diis">  193.50  193.50</time>
   <time name="orth">   14.32   14.32</time>
   <time name="total">  320.42  320.43</time>
   <energy>
    <i name="e_fr_energy">   -174.66434365 </i>
    <i name="e_wo_entrp">   -174.56216232 </i>
    <i name="e_0_energy">   -174.63879831 </i>
   </energy>
  </scstep>
  <scstep>
   <time name="diag">   69.45   69.45</time>
   <time name="diis">  192.55  192.55</time>
   <time name="orth">   14.16   14.16</time>
   <time name="total">  319.45  319.45</time>
   <energy>
    <i name="e_fr_energy">   -174.64858016 </i>
    <i name="e_wo_entrp">   -174.53349046 </i>
    <i name="e_0_energy">   -174.61980773 </i>
   </energy>
  </scstep>
  <scstep>
   <time name="diag">   69.97   69.97</time>
   <time name="diis">  192.75  192.75</time>
   <time name="orth">   14.28   14.28</time>
   <time name="total">  320.51  320.52</time>
   <energy>
    <i name="e_fr_energy">   -174.63548298 </i>
    <i name="e_wo_entrp">   -174.52478426 </i>
    <i name="e_0_energy">   -174.60780830 </i>
   </energy>
  </scstep>
  <scstep>
   <time name="diag">   69.82   69.82</time>
   <time name="diis">  193.11  193.11</time>
   <time name="orth">   14.19   14.19</time>
   <time name="total">  320.72  320.72</time>
   <energy>
    <i name="e_fr_energy">   -174.62530843 </i>
    <i name="e_wo_entrp">   -174.50897359 </i>
    <i name="e_0_energy">   -174.59622472 </i>
   </energy>
  </scstep>
  <scstep>
   <time name="diag">   70.18   70.18</time>
   <time name="diis">  192.44  192.45</time>
   <time name="orth">   14.24   14.24</time>
   <time name="total">  320.56  320.56</time>
   <energy>
    <i name="e_fr_energy">   -174.61945758 </i>
    <i name="e_wo_entrp">   -174.49982458 </i>
    <i name="e_0_energy">   -174.58954933 </i>
   </energy>
  </scstep>
  <scstep>
   <time name="diag">   70.03   70.03</time>
   <time name="diis">  191.46  191.46</time>
   <time name="orth">   14.18   14.18</time>
   <time name="total">  319.49  319.50</time>
   <energy>
    <i name="e_fr_energy">   -174.61466476 </i>
    <i name="e_wo_entrp">   -174.50244684 </i>
    <i name="e_0_energy">   -174.58661028 </i>
   </energy>
  </scstep>
  <scstep>
   <time name="diag">   70.42   70.42</time>
   <time name="diis">  192.20  192.20</time>
   <time name="orth">   14.32   14.32</time>
   <time name="total">  321.01  321.01</time>
   <energy>
    <i name="e_fr_energy">   -174.60967702 </i>
    <i name="e_wo_entrp">   -174.49610570 </i>
    <i name="e_0_energy">   -174.58128419 </i>
   </energy>
  </scstep>
  <scstep>
   <time name="diag">   70.67   70.67</time>
   <time name="diis">  190.45  190.46</time>
   <time name="orth">   14.19   14.19</time>
   <time name="total">  319.19  319.21</time>
   <energy>
    <i name="e_fr_energy">   -174.60967927 </i>
    <i name="e_wo_entrp">   -174.49698797 </i>
    <i name="e_0_energy">   -174.58150645 </i>
   </energy>
  </scstep>
  <scstep>
   <time name="diag">   70.86   70.86</time>
   <time name="diis">  190.65  190.65</time>
   <time name="orth">   14.22   14.22</time>
   <time name="total">  319.73  319.74</time>
   <energy>
    <i name="e_fr_energy">   -174.60833589 </i>
    <i name="e_wo_entrp">   -174.50094791 </i>
    <i name="e_0_energy">   -174.58148889 </i>
   </energy>
  </scstep>
  <scstep>
   <time name="diag">   71.18   71.19</time>
   <time name="diis">  191.03  191.03</time>
   <time name="orth">   14.31   14.31</time>
   <time name="total">  320.90  320.90</time>
   <energy>
    <i name="e_fr_energy">   -174.60890821 </i>
    <i name="e_wo_entrp">   -174.50080227 </i>
    <i name="e_0_energy">   -174.58188173 </i>
   </energy>
  </scstep>
  <scstep>
   <time name="diag">   71.36   71.36</time>
   <time name="diis">  190.39  190.39</time>
   <time name="orth">   14.31   14.31</time>
   <time name="total">  320.54  320.55</time>
   <energy>
    <i name="e_fr_energy">   -174.61076328 </i>
    <i name="e_wo_entrp">   -174.50291983 </i>
    <i name="e_0_energy">   -174.58380242 </i>
   </energy>
  </scstep>
  <scstep>
   <time name="diag">   71.24   71.24</time>
   <time name="diis">  189.60  189.60</time>
   <time name="orth">   14.25   14.25</time>
   <time name="total">  319.49  319.49</time>
   <energy>
    <i name="e_fr_energy">   -174.61217750 </i>
    <i name="e_wo_entrp">   -174.50175556 </i>
    <i name="e_0_energy">   -174.58457201 </i>
   </energy>
  </scstep>
  <scstep>
   <time name="diag">   71.37   71.37</time>
   <time name="diis">  190.39  190.40</time>
   <time name="orth">   14.32   14.32</time>
   <time name="total">  320.86  320.87</time>
   <energy>
    <i name="e_fr_energy">   -174.61375843 </i>
    <i name="e_wo_entrp">   -174.50530750 </i>
    <i name="e_0_energy">   -174.58664569 </i>
   </energy>
  </scstep>
  <scstep>
   <time name="diag">   71.64   71.64</time>
   <time name="diis">  167.93  167.93</time>
   <time name="orth">   14.22   14.22</time>
   <time name="total">  298.54  298.55</time>
   <energy>
    <i name="e_fr_energy">   -174.61546928 </i>
    <i name="e_wo_entrp">   -174.50578765 </i>
    <i name="e_0_energy">   -174.58804887 </i>
   </energy>
  </scstep>
  <scstep>
   <time name="diag">   70.87   70.87</time>
   <time name="diis">  121.69  121.69</time>
   <time name="orth">   14.21   14.21</time>
   <time name="total">  251.86  251.86</time>
   <energy>
    <i name="e_fr_energy">   -174.61614463 </i>
    <i name="e_wo_entrp">   -174.50602836 </i>
    <i name="e_0_energy">   -174.58861556 </i>
   </energy>
  </scstep>
  <scstep>
   <time name="diag">   71.35   71.35</time>
   <time name="diis">  136.02  136.02</time>
   <time name="orth">   13.85   13.85</time>
   <time name="total">  265.29  265.29</time>
   <energy>
    <i name="e_fr_energy">   -174.61864073 </i>
    <i name="e_wo_entrp">   -174.50938347 </i>
    <i name="e_0_energy">   -174.59132642 </i>
   </energy>
  </scstep>
  <scstep>
   <time name="diag">   71.25   71.26</time>
   <time name="diis">  157.72  157.72</time>
   <time name="orth">   13.92   13.92</time>
   <time name="total">  286.89  286.89</time>
   <energy>
    <i name="e_fr_energy">   -174.62156561 </i>
    <i name="e_wo_entrp">   -174.51363059 </i>
    <i name="e_0_energy">   -174.59458186 </i>
   </energy>
  </scstep>
  <scstep>
   <time name="diag">   70.76   70.77</time>
   <time name="diis">  125.17  125.17</time>
   <time name="orth">   13.95   13.95</time>
   <time name="total">  254.34  254.34</time>
   <energy>
    <i name="e_fr_energy">   -174.62320266 </i>
    <i name="e_wo_entrp">   -174.51547634 </i>
    <i name="e_0_energy">   -174.59627108 </i>
   </energy>
  </scstep>
  <scstep>
   <time name="diag">   70.82   70.82</time>
   <time name="diis">  128.06  128.06</time>
   <time name="orth">   13.97   13.97</time>
   <time name="total">  256.94  256.94</time>
   <energy>
    <i name="e_fr_energy">   -174.62565972 </i>
    <i name="e_wo_entrp">   -174.51613487 </i>
    <i name="e_0_energy">   -174.59827850 </i>
   </energy>
  </scstep>
  <scstep>
   <time name="diag">   70.46   70.46</time>
   <time name="diis">  123.33  123.33</time>
   <time name="orth">   14.06   14.06</time>
   <time name="total">  252.29  252.29</time>
   <energy>
    <i name="e_fr_energy">   -174.62736019 </i>
    <i name="e_wo_entrp">   -174.51768886 </i>
    <i name="e_0_energy">   -174.59994235 </i>
   </energy>
  </scstep>
  <scstep>
   <time name="diag">   70.46   70.46</time>
   <time name="diis">  122.40  122.41</time>
   <time name="orth">   13.76   13.76</time>
   <time name="total">  251.37  251.38</time>
   <energy>
    <i name="e_fr_energy">   -174.62916191 </i>
    <i name="e_wo_entrp">   -174.51943154 </i>
    <i name="e_0_energy">   -174.60172932 </i>
   </energy>
  </scstep>
  <scstep>
   <time name="diag">   70.26   70.26</time>
   <time name="diis">  122.01  122.01</time>
   <time name="orth">   13.59   13.59</time>
   <time name="total">  250.81  250.81</time>
   <energy>
    <i name="e_fr_energy">   -174.63070666 </i>
    <i name="e_wo_entrp">   -174.52066300 </i>
    <i name="e_0_energy">   -174.60319575 </i>
   </energy>
  </scstep>
  <scstep>
   <time name="diag">   69.95   69.94</time>
   <time name="diis">  121.32  121.32</time>
   <time name="orth">   13.61   13.61</time>
   <time name="total">  249.80  249.80</time>
   <energy>
    <i name="e_fr_energy">   -174.63158445 </i>
    <i name="e_wo_entrp">   -174.52165585 </i>
    <i name="e_0_energy">   -174.60410230 </i>
   </energy>
  </scstep>
  <scstep>
   <time name="diag">   70.04   70.04</time>
   <time name="diis">  119.65  119.65</time>
   <time name="orth">   13.62   13.62</time>
   <time name="total">  248.54  248.54</time>
   <energy>
    <i name="e_fr_energy">   -174.63248669 </i>
    <i name="e_wo_entrp">   -174.52261340 </i>
    <i name="e_0_energy">   -174.60501837 </i>
   </energy>
  </scstep>
  <scstep>
   <time name="diag">   70.05   70.05</time>
   <time name="diis">  120.16  120.16</time>
   <time name="orth">   13.74   13.74</time>
   <time name="total">  248.81  248.81</time>
   <energy>
    <i name="e_fr_energy">   -174.63326484 </i>
    <i name="e_wo_entrp">   -174.52344638 </i>
    <i name="e_0_energy">   -174.60581023 </i>
   </energy>
  </scstep>
  <scstep>
   <time name="diag">   70.13   70.13</time>
   <time name="diis">  117.15  117.15</time>
   <time name="orth">   13.69   13.69</time>
   <time name="total">  245.58  245.58</time>
   <energy>
    <i name="e_fr_energy">   -174.63353739 </i>
    <i name="e_wo_entrp">   -174.52374757 </i>
    <i name="e_0_energy">   -174.60608994 </i>
   </energy>
  </scstep>
  <scstep>
   <time name="diag">   69.90   69.90</time>
   <time name="diis">  114.13  114.13</time>
   <time name="orth">   13.80   13.80</time>
   <time name="total">  242.86  242.86</time>
   <energy>
    <i name="e_fr_energy">   -174.63391681 </i>
    <i name="e_wo_entrp">   -174.52410591 </i>
    <i name="e_0_energy">   -174.60646408 </i>
   </energy>
  </scstep>
  <scstep>
   <time name="diag">   70.15   70.15</time>
   <time name="diis">  103.90  103.90</time>
   <time name="orth">   13.85   13.85</time>
   <time name="total">  232.88  232.88</time>
   <energy>
    <i name="e_fr_energy">   -174.63459545 </i>
    <i name="e_wo_entrp">   -174.52480439 </i>
    <i name="e_0_energy">   -174.60714769 </i>
   </energy>
  </scstep>
  <scstep>
   <time name="diag">   69.44   69.44</time>
   <time name="diis">   90.79   90.79</time>
   <time name="orth">   13.93   13.93</time>
   <time name="total">  219.44  219.44</time>
   <energy>
    <i name="e_fr_energy">   -174.63484923 </i>
    <i name="e_wo_entrp">   -174.52505955 </i>
    <i name="e_0_energy">   -174.60740181 </i>
   </energy>
  </scstep>
  <scstep>
   <time name="diag">   69.12   69.12</time>
   <time name="diis">  103.79  103.79</time>
   <time name="orth">   13.42   13.42</time>
   <time name="total">  231.68  231.68</time>
   <energy>
    <i name="e_fr_energy">   -174.63543650 </i>
    <i name="e_wo_entrp">   -174.52555907 </i>
    <i name="e_0_energy">   -174.60796714 </i>
   </energy>
  </scstep>
  <scstep>
   <time name="diag">   69.08   69.08</time>
   <time name="diis">   79.42   79.42</time>
   <time name="orth">   13.77   13.77</time>
   <time name="total">  206.31  206.32</time>
   <energy>
    <i name="e_fr_energy">   -174.63564893 </i>
    <i name="e_wo_entrp">   -174.52591454 </i>
    <i name="e_0_energy">   -174.60821533 </i>
   </energy>
  </scstep>
  <scstep>
   <time name="diag">   69.25   69.25</time>
   <time name="diis">   90.03   90.03</time>
   <time name="orth">   13.81   13.81</time>
   <time name="total">  217.53  217.54</time>
   <energy>
    <i name="e_fr_energy">   -174.63591860 </i>
    <i name="e_wo_entrp">   -174.52614465 </i>
    <i name="e_0_energy">   -174.60847511 </i>
   </energy>
  </scstep>
  <scstep>
   <time name="diag">   68.84   68.84</time>
   <time name="diis">   82.01   82.02</time>
   <time name="orth">   13.19   13.19</time>
   <time name="total">  207.40  207.42</time>
   <energy>
    <i name="e_fr_energy">   -174.63611493 </i>
    <i name="e_wo_entrp">   -174.52635116 </i>
    <i name="e_0_energy">   -174.60867398 </i>
   </energy>
  </scstep>
  <scstep>
   <time name="diag">   65.59   65.59</time>
   <time name="diis">   79.84   79.84</time>
   <time name="orth">   12.96   12.96</time>
   <time name="total">  199.92  199.92</time>
   <energy>
    <i name="e_fr_energy">   -174.63628338 </i>
    <i name="e_wo_entrp">   -174.52643696 </i>
    <i name="e_0_energy">   -174.60882178 </i>
   </energy>
  </scstep>
  <scstep>
   <time name="diag">   66.13   66.12</time>
   <time name="diis">   82.35   82.36</time>
   <time name="orth">   13.10   13.10</time>
   <time name="total">  203.79  203.80</time>
   <energy>
    <i name="e_fr_energy">   -174.63640926 </i>
    <i name="e_wo_entrp">   -174.52664833 </i>
    <i name="e_0_energy">   -174.60896903 </i>
   </energy>
  </scstep>
  <scstep>
   <time name="diag">   67.74   67.74</time>
   <time name="diis">   70.16   70.17</time>
   <time name="orth">   13.54   13.54</time>
   <time name="total">  165.58  165.60</time>
   <energy>
    <i name="alphaZ">     75.25431677 </i>
    <i name="ewald"> 138133.53437033 </i>
    <i name="hartreedc">-182492.70182836 </i>
    <i name="XCdc">  -1692.73324352 </i>
    <i name="pawpsdc">  46070.22780290 </i>
    <i name="pawaedc"> -42540.15216792 </i>
    <i name="eentropy">     -0.10975170 </i>
    <i name="bandstr">  -2814.46143353 </i>
    <i name="atom">  45086.50549395 </i>
    <i name="e_fr_energy">   -174.63644108 </i>
    <i name="e_wo_entrp">   -174.52668939 </i>
    <i name="e_0_energy">   -174.60900316 </i>
   </energy>
  </scstep>
  <structure>
   <crystal>
    <varray name="basis" >
     <v>      30.00000000       0.00000000       0.00000000 </v>
     <v>       0.00000000      30.00000000       0.00000000 </v>
     <v>       0.00000000       0.00000000      30.00000000 </v>
    </varray>
    <i name="volume">  27000.00000000 </i>
    <varray name="rec_basis" >
     <v>       0.03333333       0.00000000       0.00000000 </v>
     <v>       0.00000000       0.03333333       0.00000000 </v>
     <v>       0.00000000       0.00000000       0.03333333 </v>
    </varray>
   </crystal>
   <varray name="positions" >
    <v>       0.44576020       0.32826710       0.41691983 </v>
    <v>       0.67173288       0.55423978       0.41691983 </v>
    <v>       0.55423980       0.32826710       0.41691983 </v>
    <v>       0.32826712       0.55423978       0.41691983 </v>
    <v>       0.50000000       0.38250690       0.34021317 </v>
    <v>       0.50000000       0.38250690       0.65978680 </v>
    <v>       0.50000000       0.27609440       0.50000000 </v>
    <v>       0.27609443       0.49999998       0.50000000 </v>
    <v>       0.72390557       0.49999998       0.50000000 </v>
    <v>       0.50000000       0.72390555       0.50000000 </v>
    <v>       0.61195280       0.38804720       0.34167483 </v>
    <v>       0.61195280       0.38804720       0.65832513 </v>
    <v>       0.38804722       0.61195278       0.34167483 </v>
    <v>       0.38804722       0.61195278       0.65832513 </v>
    <v>       0.38804720       0.38804720       0.34167483 </v>
    <v>       0.38804720       0.38804720       0.65832513 </v>
    <v>       0.61195278       0.61195278       0.34167483 </v>
    <v>       0.61195278       0.61195278       0.65832513 </v>
    <v>       0.44576020       0.32826710       0.58308023 </v>
    <v>       0.67173288       0.55423978       0.58308023 </v>
    <v>       0.55791699       0.44208301       0.41809300 </v>
    <v>       0.32826705       0.44576024       0.41691983 </v>
    <v>       0.55423973       0.67173293       0.41691983 </v>
    <v>       0.55423980       0.32826710       0.58308023 </v>
    <v>       0.32826712       0.55423978       0.58308023 </v>
    <v>       0.67173295       0.44576024       0.41691983 </v>
    <v>       0.44576027       0.67173293       0.41691983 </v>
    <v>       0.44208301       0.44208301       0.41809300 </v>
    <v>       0.50000000       0.38416601       0.50000000 </v>
    <v>       0.61749315       0.50000005       0.34021317 </v>
    <v>       0.61749315       0.50000005       0.65978680 </v>
    <v>       0.38250685       0.50000005       0.34021317 </v>
    <v>       0.38250685       0.50000005       0.65978680 </v>
    <v>       0.38317830       0.38317830       0.50000000 </v>
    <v>       0.61682172       0.61682172       0.50000000 </v>
    <v>       0.61682170       0.38317830       0.50000000 </v>
    <v>       0.38317828       0.61682172       0.50000000 </v>
    <v>       0.50000000       0.50000000       0.33478917 </v>
    <v>       0.50000000       0.50000000       0.66521087 </v>
    <v>       0.32826705       0.44576024       0.58308023 </v>
    <v>       0.55423973       0.67173293       0.58308023 </v>
    <v>       0.55791699       0.44208301       0.58190703 </v>
    <v>       0.44208298       0.55791702       0.41809300 </v>
    <v>       0.44208301       0.44208301       0.58190703 </v>
    <v>       0.67173295       0.44576024       0.58308023 </v>
    <v>       0.44576027       0.67173293       0.58308023 </v>
    <v>       0.55791702       0.55791702       0.41809300 </v>
    <v>       0.38416599       0.50000002       0.50000000 </v>
    <v>       0.61583401       0.50000002       0.50000000 </v>
    <v>       0.50000000       0.61749319       0.34021317 </v>
    <v>       0.50000000       0.61749319       0.65978680 </v>
    <v>       0.50000000       0.50000000       0.50000000 </v>
    <v>       0.44208298       0.55791702       0.58190703 </v>
    <v>       0.55791702       0.55791702       0.58190703 </v>
    <v>       0.50000000       0.61583404       0.50000000 </v>
    <v>       0.51514180       0.25976523       0.41632287 </v>
    <v>       0.51737587       0.22432027       0.40397690 </v>
   </varray>
  </structure>
  <varray name="forces" >
   <v>       0.85203382       0.81679231       0.18145302 </v>
   <v>      -1.10832652      -0.70359154       0.29363226 </v>
   <v>      -1.39311644      -0.30387037       0.10494111 </v>
   <v>       1.10835285      -0.70237974       0.29288733 </v>
   <v>      -0.00831682       0.50461523       1.23218166 </v>
   <v>       0.00102902       0.38961422      -1.29893331 </v>
   <v>       0.12130305       1.29537943      -0.80459718 </v>
   <v>       1.52200124       0.00092592       0.00677608 </v>
   <v>      -1.52118736       0.00201301       0.00561079 </v>
   <v>       0.00017106      -1.51455243      -0.00169521 </v>
   <v>      -0.75596424       0.77169832       1.09565820 </v>
   <v>      -0.75289626       0.76816698      -1.06873294 </v>
   <v>       0.76165928      -0.75352114       1.07549953 </v>
   <v>       0.75424504      -0.76245434      -1.07391921 </v>
   <v>       0.76336280       0.75335017       1.10336483 </v>
   <v>       0.74462687       0.77398731      -1.06540228 </v>
   <v>      -0.76351791      -0.75163720       1.07752200 </v>
   <v>      -0.75319271      -0.76222254      -1.07356228 </v>
   <v>       0.70618723       1.11694392      -0.23979506 </v>
   <v>      -1.10824444      -0.71137456      -0.28773879 </v>
   <v>       0.12576566      -0.12301065      -0.14393905 </v>
   <v>       1.11047165       0.70263198       0.28561101 </v>
   <v>      -0.69907542      -1.11882688       0.27982006 </v>
   <v>      -0.70623747       1.12343997      -0.23565211 </v>
   <v>       1.10653743      -0.71317110      -0.28887939 </v>
   <v>      -1.11577825       0.70260876       0.28614890 </v>
   <v>       0.70047218      -1.12029582       0.28129528 </v>
   <v>      -0.11646325      -0.10144179      -0.15063126 </v>
   <v>      -0.01392984      -0.14425485       0.06078612 </v>
   <v>      -0.41651578      -0.00924021       1.28211472 </v>
   <v>      -0.40618201       0.00221574      -1.29026495 </v>
   <v>       0.41525625      -0.00551889       1.28042856 </v>
   <v>       0.40710253      -0.00226025      -1.29078082 </v>
   <v>       0.81626354       0.84219361       0.00043284 </v>
   <v>      -0.82585175      -0.82874072       0.00114481 </v>
   <v>      -0.80633875       0.86327490       0.01000039 </v>
   <v>       0.82580816      -0.82790647       0.00074315 </v>
   <v>      -0.00221982      -0.02054008       1.17558912 </v>
   <v>       0.00048909       0.00627972      -1.17544533 </v>
   <v>       1.10898803       0.72025029      -0.28198880 </v>
   <v>      -0.70778281      -1.11159389      -0.28936738 </v>
   <v>       0.11096125      -0.11426424       0.15583212 </v>
   <v>      -0.11189915       0.13039467      -0.15838036 </v>
   <v>      -0.11477331      -0.10815440       0.15670836 </v>
   <v>      -1.10674845       0.72640340      -0.27899324 </v>
   <v>       0.70723504      -1.10991845      -0.28860923 </v>
   <v>       0.11303330       0.14257220      -0.16444027 </v>
   <v>      -0.23158131      -0.00494860      -0.00106752 </v>
   <v>       0.23193322      -0.00924773      -0.00401513 </v>
   <v>       0.00128699      -0.40044398       1.28446384 </v>
   <v>       0.00018669      -0.40976035      -1.28228660 </v>
   <v>      -0.00144264      -0.00861203      -0.00994866 </v>
   <v>      -0.11374951       0.11226254       0.15483054 </v>
   <v>       0.11417916       0.11187272       0.15342513 </v>
   <v>      -0.00060787       0.22570400       0.00914968 </v>
   <v>       0.25669754       5.85493322       2.59742945 </v>
   <v>       0.17430009      -4.20276929      -1.67641452 </v>
  </varray>
  <varray name="stress" >
   <v>      -6.82284907      -0.07250537       0.01251358 </v>
   <v>      -0.07250539      -6.65726915       0.07686318 </v>
   <v>       0.01251359       0.07686320      -6.80703879 </v>
  </varray>
  <energy>
   <i name="e_fr_energy">   -174.63644108 </i>
   <i name="e_wo_entrp">   -174.60900316 </i>
   <i name="e_0_energy">     -0.10975170 </i>
  </energy>
  <time name="totalsc">18989.4518989.78</time>
  <eigenvalues>
   <array>
    <dimension dim="1">band</dimension>
    <dimension dim="2">kpoint</dimension>
    <dimension dim="3">spin</dimension>
    <field>eigene</field>
    <field>occ</field>
    <set>
     <set comment="spin 1">
      <set comment="kpoint 1">
       <r>  -28.6593    1.0000 </r>
       <r>  -13.3237    1.0000 </r>
       <r>  -11.1030    1.0000 </r>
       <r>  -11.0725    1.0000 </r>
       <r>   -9.8814    1.0000 </r>
       <r>   -6.6487    1.0000 </r>
       <r>   -6.1372    1.0000 </r>
       <r>   -6.1338    1.0000 </r>
       <r>   -6.1140    1.0000 </r>
       <r>   -5.8378    1.0000 </r>
       <r>   -5.8217    1.0000 </r>
       <r>   -5.8147    1.0000 </r>
       <r>   -5.7579    1.0000 </r>
       <r>   -5.7193    1.0000 </r>
       <r>   -5.6991    1.0000 </r>
       <r>   -5.6943    1.0000 </r>
       <r>   -5.6910    1.0000 </r>
       <r>   -5.6621    1.0000 </r>
       <r>   -5.6432    1.0000 </r>
       <r>   -5.6321    1.0000 </r>
       <r>   -5.6212    1.0000 </r>
       <r>   -5.6120    1.0000 </r>
       <r>   -5.6076    1.0000 </r>
       <r>   -5.5877    1.0000 </r>
       <r>   -5.5716    1.0000 </r>
       <r>   -5.5579    1.0000 </r>
       <r>   -5.5556    1.0000 </r>
       <r>   -5.5515    1.0000 </r>
       <r>   -5.5406    1.0000 </r>
       <r>   -5.5306    1.0000 </r>
       <r>   -5.5274    1.0000 </r>
       <r>   -5.5266    1.0000 </r>
       <r>   -5.5223    1.0000 </r>
       <r>   -5.5206    1.0000 </r>
       <r>   -5.5150    1.0000 </r>
       <r>   -5.5030    1.0000 </r>
       <r>   -5.4968    1.0000 </r>
       <r>   -5.4892    1.0000 </r>
       <r>   -5.4820    1.0000 </r>
       <r>   -5.4798    1.0000 </r>
       <r>   -5.4775    1.0000 </r>
       <r>   -5.4757    1.0000 </r>
       <r>   -5.4748    1.0000 </r>
       <r>   -5.4575    1.0000 </r>
       <r>   -5.4466    1.0000 </r>
       <r>   -5.4426    1.0000 </r>
       <r>   -5.4380    1.0000 </r>
       <r>   -5.4357    1.0000 </r>
       <r>   -5.4357    1.0000 </r>
       <r>   -5.4329    1.0000 </r>
       <r>   -5.4298    1.0000 </r>
       <r>   -5.4176    1.0000 </r>
       <r>   -5.4125    1.0000 </r>
       <r>   -5.4098    1.0000 </r>
       <r>   -5.4022    1.0000 </r>
       <r>   -5.3658    1.0000 </r>
       <r>   -5.3471    1.0000 </r>
       <r>   -5.3383    1.0000 </r>
       <r>   -5.3360    1.0000 </r>
       <r>   -5.3333    1.0000 </r>
       <r>   -5.3305    1.0000 </r>
       <r>   -5.3238    1.0000 </r>
       <r>   -5.3192    1.0000 </r>
       <r>   -5.3090    1.0000 </r>
       <r>   -5.3077    1.0000 </r>
       <r>   -5.2982    1.0000 </r>
       <r>   -5.2960    1.0000 </r>
       <r>   -5.2457    1.0000 </r>
       <r>   -5.2322    1.0000 </r>
       <r>   -5.2165    1.0000 </r>
       <r>   -5.2132    1.0000 </r>
       <r>   -5.2112    1.0000 </r>
       <r>   -5.1961    1.0000 </r>
       <r>   -5.1916    1.0000 </r>
       <r>   -5.1896    1.0000 </r>
       <r>   -5.1865    1.0000 </r>
       <r>   -5.1785    1.0000 </r>
       <r>   -5.1701    1.0000 </r>
       <r>   -5.1689    1.0000 </r>
       <r>   -5.1625    1.0000 </r>
       <r>   -5.1557    1.0000 </r>
       <r>   -5.1388    1.0000 </r>
       <r>   -5.1351    1.0000 </r>
       <r>   -5.1285    1.0000 </r>
       <r>   -5.1209    1.0000 </r>
       <r>   -5.1156    1.0000 </r>
       <r>   -5.1133    1.0000 </r>
       <r>   -5.1042    1.0000 </r>
       <r>   -5.0823    1.0000 </r>
       <r>   -5.0687    1.0000 </r>
       <r>   -5.0662    1.0000 </r>
       <r>   -5.0638    1.0000 </r>
       <r>   -5.0627    1.0000 </r>
       <r>   -5.0582    1.0000 </r>
       <r>   -5.0578    1.0000 </r>
       <r>   -5.0476    1.0000 </r>
       <r>   -5.0407    1.0000 </r>
       <r>   -5.0356    1.0000 </r>
       <r>   -5.0344    1.0000 </r>
       <r>   -5.0309    1.0000 </r>
       <r>   -5.0256    1.0000 </r>
       <r>   -5.0178    1.0000 </r>
       <r>   -5.0115    1.0000 </r>
       <r>   -5.0077    1.0000 </r>
       <r>   -5.0072    1.0000 </r>
       <r>   -5.0016    1.0000 </r>
       <r>   -4.9987    1.0000 </r>
       <r>   -4.9965    1.0000 </r>
       <r>   -4.9899    1.0000 </r>
       <r>   -4.9826    1.0000 </r>
       <r>   -4.9817    1.0000 </r>
       <r>   -4.9774    1.0000 </r>
       <r>   -4.9693    1.0000 </r>
       <r>   -4.9664    1.0000 </r>
       <r>   -4.9640    1.0000 </r>
       <r>   -4.9549    1.0000 </r>
       <r>   -4.9475    1.0000 </r>
       <r>   -4.9374    1.0000 </r>
       <r>   -4.9319    1.0000 </r>
       <r>   -4.9269    1.0000 </r>
       <r>   -4.9199    1.0000 </r>
       <r>   -4.9177    1.0000 </r>
       <r>   -4.9140    1.0000 </r>
       <r>   -4.9106    1.0000 </r>
       <r>   -4.9090    1.0000 </r>
       <r>   -4.9058    1.0000 </r>
       <r>   -4.8709    1.0000 </r>
       <r>   -4.8612    1.0000 </r>
       <r>   -4.8547    1.0000 </r>
       <r>   -4.8526    1.0000 </r>
       <r>   -4.8489    1.0000 </r>
       <r>   -4.8484    1.0000 </r>
       <r>   -4.8412    1.0000 </r>
       <r>   -4.8374    1.0000 </r>
       <r>   -4.8354    1.0000 </r>
       <r>   -4.8098    0.9999 </r>
       <r>   -4.8081    0.9999 </r>
       <r>   -4.8034    0.9999 </r>
       <r>   -4.8004    0.9999 </r>
       <r>   -4.7883    0.9999 </r>
       <r>   -4.7773    0.9998 </r>
       <r>   -4.7720    0.9998 </r>
       <r>   -4.7658    0.9998 </r>
       <r>   -4.7550    0.9997 </r>
       <r>   -4.7508    0.9997 </r>
       <r>   -4.7455    0.9996 </r>
       <r>   -4.7389    0.9996 </r>
       <r>   -4.7284    0.9994 </r>
       <r>   -4.7210    0.9993 </r>
       <r>   -4.7114    0.9992 </r>
       <r>   -4.6975    0.9990 </r>
       <r>   -4.6961    0.9989 </r>
       <r>   -4.6932    0.9989 </r>
       <r>   -4.6916    0.9988 </r>
       <r>   -4.6896    0.9988 </r>
       <r>   -4.6850    0.9987 </r>
       <r>   -4.6783    0.9985 </r>
       <r>   -4.6777    0.9985 </r>
       <r>   -4.6728    0.9984 </r>
       <r>   -4.6656    0.9982 </r>
       <r>   -4.6610    0.9980 </r>
       <r>   -4.6602    0.9980 </r>
       <r>   -4.6566    0.9979 </r>
       <r>   -4.6543    0.9978 </r>
       <r>   -4.6541    0.9978 </r>
       <r>   -4.6531    0.9978 </r>
       <r>   -4.6513    0.9977 </r>
       <r>   -4.6458    0.9976 </r>
       <r>   -4.6380    0.9973 </r>
       <r>   -4.6276    0.9969 </r>
       <r>   -4.6206    0.9966 </r>
       <r>   -4.6115    0.9963 </r>
       <r>   -4.6079    0.9962 </r>
       <r>   -4.6069    0.9961 </r>
       <r>   -4.6045    0.9960 </r>
       <r>   -4.6017    0.9959 </r>
       <r>   -4.5980    0.9958 </r>
       <r>   -4.5957    0.9957 </r>
       <r>   -4.5896    0.9955 </r>
       <r>   -4.5831    0.9954 </r>
       <r>   -4.5810    0.9953 </r>
       <r>   -4.5774    0.9952 </r>
       <r>   -4.5670    0.9951 </r>
       <r>   -4.5664    0.9951 </r>
       <r>   -4.5633    0.9951 </r>
       <r>   -4.5602    0.9951 </r>
       <r>   -4.5593    0.9951 </r>
       <r>   -4.5571    0.9951 </r>
       <r>   -4.5544    0.9951 </r>
       <r>   -4.5453    0.9953 </r>
       <r>   -4.5427    0.9954 </r>
       <r>   -4.5161    0.9972 </r>
       <r>   -4.5146    0.9974 </r>
       <r>   -4.5131    0.9976 </r>
       <r>   -4.5110    0.9978 </r>
       <r>   -4.5066    0.9984 </r>
       <r>   -4.4949    1.0004 </r>
       <r>   -4.4910    1.0012 </r>
       <r>   -4.4880    1.0019 </r>
       <r>   -4.4841    1.0027 </r>
       <r>   -4.4816    1.0034 </r>
       <r>   -4.4752    1.0051 </r>
       <r>   -4.4704    1.0065 </r>
       <r>   -4.4666    1.0076 </r>
       <r>   -4.4630    1.0088 </r>
       <r>   -4.4571    1.0109 </r>
       <r>   -4.4552    1.0116 </r>
       <r>   -4.4529    1.0125 </r>
       <r>   -4.4498    1.0136 </r>
       <r>   -4.4402    1.0176 </r>
       <r>   -4.4318    1.0213 </r>
       <r>   -4.4288    1.0227 </r>
       <r>   -4.4195    1.0270 </r>
       <r>   -4.4174    1.0281 </r>
       <r>   -4.4151    1.0291 </r>
       <r>   -4.4138    1.0298 </r>
       <r>   -4.4120    1.0306 </r>
       <r>   -4.4098    1.0317 </r>
       <r>   -4.4059    1.0336 </r>
       <r>   -4.3883    1.0416 </r>
       <r>   -4.3748    1.0468 </r>
       <r>   -4.3713    1.0479 </r>
       <r>   -4.3705    1.0481 </r>
       <r>   -4.3619    1.0503 </r>
       <r>   -4.3565    1.0511 </r>
       <r>   -4.3478    1.0516 </r>
       <r>   -4.3452    1.0515 </r>
       <r>   -4.3426    1.0513 </r>
       <r>   -4.3410    1.0511 </r>
       <r>   -4.3400    1.0509 </r>
       <r>   -4.3396    1.0509 </r>
       <r>   -4.3390    1.0508 </r>
       <r>   -4.3354    1.0500 </r>
       <r>   -4.3329    1.0493 </r>
       <r>   -4.3317    1.0489 </r>
       <r>   -4.3306    1.0485 </r>
       <r>   -4.3272    1.0471 </r>
       <r>   -4.3267    1.0469 </r>
       <r>   -4.3239    1.0455 </r>
       <r>   -4.3134    1.0385 </r>
       <r>   -4.3109    1.0364 </r>
       <r>   -4.3025    1.0278 </r>
       <r>   -4.2994    1.0241 </r>
       <r>   -4.2954    1.0188 </r>
       <r>   -4.2937    1.0164 </r>
       <r>   -4.2915    1.0131 </r>
       <r>   -4.2903    1.0113 </r>
       <r>   -4.2871    1.0062 </r>
       <r>   -4.2858    1.0039 </r>
       <r>   -4.2749    0.9829 </r>
       <r>   -4.2730    0.9788 </r>
       <r>   -4.2680    0.9674 </r>
       <r>   -4.2652    0.9605 </r>
       <r>   -4.2616    0.9514 </r>
       <r>   -4.2613    0.9504 </r>
       <r>   -4.2589    0.9440 </r>
       <r>   -4.2561    0.9361 </r>
       <r>   -4.2551    0.9334 </r>
       <r>   -4.2514    0.9225 </r>
       <r>   -4.2498    0.9174 </r>
       <r>   -4.2490    0.9152 </r>
       <r>   -4.2472    0.9094 </r>
       <r>   -4.2450    0.9023 </r>
       <r>   -4.2444    0.9002 </r>
       <r>   -4.2436    0.8975 </r>
       <r>   -4.2330    0.8603 </r>
       <r>   -4.2318    0.8558 </r>
       <r>   -4.2291    0.8455 </r>
       <r>   -4.2270    0.8372 </r>
       <r>   -4.2259    0.8330 </r>
       <r>   -4.2247    0.8282 </r>
       <r>   -4.2185    0.8025 </r>
       <r>   -4.2074    0.7538 </r>
       <r>   -4.2012    0.7249 </r>
       <r>   -4.1898    0.6698 </r>
       <r>   -4.1856    0.6487 </r>
       <r>   -4.1835    0.6382 </r>
       <r>   -4.1801    0.6212 </r>
       <r>   -4.1790    0.6154 </r>
       <r>   -4.1777    0.6085 </r>
       <r>   -4.1670    0.5528 </r>
       <r>   -4.1642    0.5380 </r>
       <r>   -4.1388    0.4043 </r>
       <r>   -4.1359    0.3892 </r>
       <r>   -4.1334    0.3766 </r>
       <r>   -4.1331    0.3748 </r>
       <r>   -4.1226    0.3224 </r>
       <r>   -4.1211    0.3146 </r>
       <r>   -4.1167    0.2932 </r>
       <r>   -3.9707   -0.0514 </r>
       <r>   -3.8714   -0.0166 </r>
       <r>   -3.8229   -0.0012 </r>
       <r>   -3.8196   -0.0005 </r>
       <r>   -3.7024    0.0037 </r>
       <r>   -3.5056    0.0001 </r>
       <r>   -3.4951    0.0001 </r>
       <r>   -3.4124    0.0000 </r>
       <r>   -3.0800    0.0000 </r>
       <r>   -3.0652    0.0000 </r>
       <r>   -3.0601    0.0000 </r>
       <r>   -3.0420    0.0000 </r>
       <r>   -3.0197    0.0000 </r>
       <r>   -2.9555    0.0000 </r>
       <r>   -2.9365    0.0000 </r>
       <r>   -2.7665    0.0000 </r>
       <r>   -2.5959    0.0000 </r>
       <r>   -2.5235    0.0000 </r>
       <r>   -2.4870    0.0000 </r>
       <r>   -2.3259    0.0000 </r>
       <r>   -2.1794    0.0000 </r>
       <r>   -2.1181    0.0000 </r>
       <r>   -2.0904    0.0000 </r>
       <r>   -2.0673    0.0000 </r>
       <r>   -2.0040    0.0000 </r>
       <r>   -1.9416    0.0000 </r>
       <r>   -1.8892    0.0000 </r>
       <r>   -1.8000    0.0000 </r>
       <r>   -1.7605    0.0000 </r>
       <r>   -1.6940    0.0000 </r>
       <r>   -1.6445    0.0000 </r>
       <r>   -1.6205    0.0000 </r>
       <r>   -1.6005    0.0000 </r>
       <r>   -1.5395    0.0000 </r>
       <r>   -1.3987    0.0000 </r>
       <r>   -1.2993    0.0000 </r>
       <r>   -1.2397    0.0000 </r>
       <r>   -1.1513    0.0000 </r>
       <r>   -1.0999    0.0000 </r>
       <r>   -0.9858    0.0000 </r>
       <r>   -0.9823    0.0000 </r>
       <r>   -0.9552    0.0000 </r>
       <r>   -0.9374    0.0000 </r>
       <r>   -0.9319    0.0000 </r>
       <r>   -0.8788    0.0000 </r>
       <r>   -0.8392    0.0000 </r>
       <r>   -0.7979    0.0000 </r>
      </set>
     </set>
    </set>
   </array>
  </eigenvalues>
  <separator name="orbital magnetization" >
   <v name="MAGDIPOLOUT">      0.00000000      0.00000000      0.00000000</v>
  </separator>
  <dos>
   <i name="efermi">     -4.15699826 </i>
   <total>
    <array>
     <dimension dim="1">gridpoints</dimension>
     <dimension dim="2">spin</dimension>
     <field>energy</field>
     <field>total</field>
     <field>integrated</field>
     <set>
      <set comment="spin 1">
       <r>   -30.6593     0.0000     0.0000 </r>
       <r>   -30.5531     0.0000     0.0000 </r>
       <r>   -30.4469     0.0000     0.0000 </r>
       <r>   -30.3407     0.0000     0.0000 </r>
       <r>   -30.2345     0.0000     0.0000 </r>
       <r>   -30.1283     0.0000     0.0000 </r>
       <r>   -30.0221     0.0000     0.0000 </r>
       <r>   -29.9159     0.0000     0.0000 </r>
       <r>   -29.8097     0.0000     0.0000 </r>
       <r>   -29.7035     0.0000     0.0000 </r>
       <r>   -29.5973     0.0000     0.0000 </r>
       <r>   -29.4911     0.0000     0.0000 </r>
       <r>   -29.3849     0.0002     0.0000 </r>
       <r>   -29.2787     0.0034     0.0004 </r>
       <r>   -29.1724     0.0282     0.0034 </r>
       <r>   -29.0662     0.0611     0.0099 </r>
       <r>   -28.9600    -0.2937    -0.0213 </r>
       <r>   -28.8538    -0.7701    -0.1031 </r>
       <r>   -28.7476     2.7935     0.1936 </r>
       <r>   -28.6414     9.3643     1.1881 </r>
       <r>   -28.5352     7.5580     1.9908 </r>
       <r>   -28.4290     0.8787     2.0841 </r>
       <r>   -28.3228    -0.7789     2.0014 </r>
       <r>   -28.2166    -0.0908     1.9917 </r>
       <r>   -28.1104     0.0610     1.9982 </r>
       <r>   -28.0042     0.0153     1.9999 </r>
       <r>   -27.8980     0.0014     2.0000 </r>
       <r>   -27.7918     0.0001     2.0000 </r>
       <r>   -27.6856     0.0000     2.0000 </r>
       <r>   -27.5794     0.0000     2.0000 </r>
       <r>   -27.4732     0.0000     2.0000 </r>
       <r>   -27.3670     0.0000     2.0000 </r>
       <r>   -27.2608     0.0000     2.0000 </r>
       <r>   -27.1546     0.0000     2.0000 </r>
       <r>   -27.0483     0.0000     2.0000 </r>
       <r>   -26.9421     0.0000     2.0000 </r>
       <r>   -26.8359     0.0000     2.0000 </r>
       <r>   -26.7297     0.0000     2.0000 </r>
       <r>   -26.6235     0.0000     2.0000 </r>
       <r>   -26.5173     0.0000     2.0000 </r>
       <r>   -26.4111     0.0000     2.0000 </r>
       <r>   -26.3049     0.0000     2.0000 </r>
       <r>   -26.1987     0.0000     2.0000 </r>
       <r>   -26.0925     0.0000     2.0000 </r>
       <r>   -25.9863     0.0000     2.0000 </r>
       <r>   -25.8801     0.0000     2.0000 </r>
       <r>   -25.7739     0.0000     2.0000 </r>
       <r>   -25.6677     0.0000     2.0000 </r>
       <r>   -25.5615     0.0000     2.0000 </r>
       <r>   -25.4553     0.0000     2.0000 </r>
       <r>   -25.3491     0.0000     2.0000 </r>
       <r>   -25.2429     0.0000     2.0000 </r>
       <r>   -25.1367     0.0000     2.0000 </r>
       <r>   -25.0305     0.0000     2.0000 </r>
       <r>   -24.9243     0.0000     2.0000 </r>
       <r>   -24.8180     0.0000     2.0000 </r>
       <r>   -24.7118     0.0000     2.0000 </r>
       <r>   -24.6056     0.0000     2.0000 </r>
       <r>   -24.4994     0.0000     2.0000 </r>
       <r>   -24.3932     0.0000     2.0000 </r>
       <r>   -24.2870     0.0000     2.0000 </r>
       <r>   -24.1808     0.0000     2.0000 </r>
       <r>   -24.0746     0.0000     2.0000 </r>
       <r>   -23.9684     0.0000     2.0000 </r>
       <r>   -23.8622     0.0000     2.0000 </r>
       <r>   -23.7560     0.0000     2.0000 </r>
       <r>   -23.6498     0.0000     2.0000 </r>
       <r>   -23.5436     0.0000     2.0000 </r>
       <r>   -23.4374     0.0000     2.0000 </r>
       <r>   -23.3312     0.0000     2.0000 </r>
       <r>   -23.2250     0.0000     2.0000 </r>
       <r>   -23.1188     0.0000     2.0000 </r>
       <r>   -23.0126     0.0000     2.0000 </r>
       <r>   -22.9064     0.0000     2.0000 </r>
       <r>   -22.8002     0.0000     2.0000 </r>
       <r>   -22.6940     0.0000     2.0000 </r>
       <r>   -22.5877     0.0000     2.0000 </r>
       <r>   -22.4815     0.0000     2.0000 </r>
       <r>   -22.3753     0.0000     2.0000 </r>
       <r>   -22.2691     0.0000     2.0000 </r>
       <r>   -22.1629     0.0000     2.0000 </r>
       <r>   -22.0567     0.0000     2.0000 </r>
       <r>   -21.9505     0.0000     2.0000 </r>
       <r>   -21.8443     0.0000     2.0000 </r>
       <r>   -21.7381     0.0000     2.0000 </r>
       <r>   -21.6319     0.0000     2.0000 </r>
       <r>   -21.5257     0.0000     2.0000 </r>
       <r>   -21.4195     0.0000     2.0000 </r>
       <r>   -21.3133     0.0000     2.0000 </r>
       <r>   -21.2071     0.0000     2.0000 </r>
       <r>   -21.1009     0.0000     2.0000 </r>
       <r>   -20.9947     0.0000     2.0000 </r>
       <r>   -20.8885     0.0000     2.0000 </r>
       <r>   -20.7823     0.0000     2.0000 </r>
       <r>   -20.6761     0.0000     2.0000 </r>
       <r>   -20.5699     0.0000     2.0000 </r>
       <r>   -20.4637     0.0000     2.0000 </r>
       <r>   -20.3574     0.0000     2.0000 </r>
       <r>   -20.2512     0.0000     2.0000 </r>
       <r>   -20.1450     0.0000     2.0000 </r>
       <r>   -20.0388     0.0000     2.0000 </r>
       <r>   -19.9326     0.0000     2.0000 </r>
       <r>   -19.8264     0.0000     2.0000 </r>
       <r>   -19.7202     0.0000     2.0000 </r>
       <r>   -19.6140     0.0000     2.0000 </r>
       <r>   -19.5078     0.0000     2.0000 </r>
       <r>   -19.4016     0.0000     2.0000 </r>
       <r>   -19.2954     0.0000     2.0000 </r>
       <r>   -19.1892     0.0000     2.0000 </r>
       <r>   -19.0830     0.0000     2.0000 </r>
       <r>   -18.9768     0.0000     2.0000 </r>
       <r>   -18.8706     0.0000     2.0000 </r>
       <r>   -18.7644     0.0000     2.0000 </r>
       <r>   -18.6582     0.0000     2.0000 </r>
       <r>   -18.5520     0.0000     2.0000 </r>
       <r>   -18.4458     0.0000     2.0000 </r>
       <r>   -18.3396     0.0000     2.0000 </r>
       <r>   -18.2333     0.0000     2.0000 </r>
       <r>   -18.1271     0.0000     2.0000 </r>
       <r>   -18.0209     0.0000     2.0000 </r>
       <r>   -17.9147     0.0000     2.0000 </r>
       <r>   -17.8085     0.0000     2.0000 </r>
       <r>   -17.7023     0.0000     2.0000 </r>
       <r>   -17.5961     0.0000     2.0000 </r>
       <r>   -17.4899     0.0000     2.0000 </r>
       <r>   -17.3837     0.0000     2.0000 </r>
       <r>   -17.2775     0.0000     2.0000 </r>
       <r>   -17.1713     0.0000     2.0000 </r>
       <r>   -17.0651     0.0000     2.0000 </r>
       <r>   -16.9589     0.0000     2.0000 </r>
       <r>   -16.8527     0.0000     2.0000 </r>
       <r>   -16.7465     0.0000     2.0000 </r>
       <r>   -16.6403     0.0000     2.0000 </r>
       <r>   -16.5341     0.0000     2.0000 </r>
       <r>   -16.4279     0.0000     2.0000 </r>
       <r>   -16.3217     0.0000     2.0000 </r>
       <r>   -16.2155     0.0000     2.0000 </r>
       <r>   -16.1093     0.0000     2.0000 </r>
       <r>   -16.0030     0.0000     2.0000 </r>
       <r>   -15.8968     0.0000     2.0000 </r>
       <r>   -15.7906     0.0000     2.0000 </r>
       <r>   -15.6844     0.0000     2.0000 </r>
       <r>   -15.5782     0.0000     2.0000 </r>
       <r>   -15.4720     0.0000     2.0000 </r>
       <r>   -15.3658     0.0000     2.0000 </r>
       <r>   -15.2596     0.0000     2.0000 </r>
       <r>   -15.1534     0.0000     2.0000 </r>
       <r>   -15.0472     0.0000     2.0000 </r>
       <r>   -14.9410     0.0000     2.0000 </r>
       <r>   -14.8348     0.0000     2.0000 </r>
       <r>   -14.7286     0.0000     2.0000 </r>
       <r>   -14.6224     0.0000     2.0000 </r>
       <r>   -14.5162     0.0000     2.0000 </r>
       <r>   -14.4100     0.0000     2.0000 </r>
       <r>   -14.3038     0.0000     2.0000 </r>
       <r>   -14.1976     0.0000     2.0000 </r>
       <r>   -14.0914     0.0000     2.0000 </r>
       <r>   -13.9852     0.0011     2.0001 </r>
       <r>   -13.8790     0.0136     2.0016 </r>
       <r>   -13.7727     0.0588     2.0078 </r>
       <r>   -13.6665    -0.0646     2.0009 </r>
       <r>   -13.5603    -0.7493     1.9214 </r>
       <r>   -13.4541     0.6166     1.9868 </r>
       <r>   -13.3479     7.1585     2.7471 </r>
       <r>   -13.2417     9.5737     3.7639 </r>
       <r>   -13.1355     3.1933     4.1030 </r>
       <r>   -13.0293    -0.7252     4.0260 </r>
       <r>   -12.9231    -0.3377     3.9901 </r>
       <r>   -12.8169     0.0576     3.9963 </r>
       <r>   -12.7107     0.0310     3.9996 </r>
       <r>   -12.6045     0.0039     4.0000 </r>
       <r>   -12.4983     0.0002     4.0000 </r>
       <r>   -12.3921     0.0000     4.0000 </r>
       <r>   -12.2859     0.0000     4.0000 </r>
       <r>   -12.1797     0.0000     4.0000 </r>
       <r>   -12.0735     0.0000     4.0000 </r>
       <r>   -11.9673     0.0000     4.0000 </r>
       <r>   -11.8611     0.0001     4.0000 </r>
       <r>   -11.7549     0.0021     4.0002 </r>
       <r>   -11.6487     0.0252     4.0029 </r>
       <r>   -11.5424     0.1113     4.0147 </r>
       <r>   -11.4362    -0.1033     4.0038 </r>
       <r>   -11.3300    -1.4070     3.8543 </r>
       <r>   -11.2238     0.9404     3.9542 </r>
       <r>   -11.1176    13.4939     5.3873 </r>
       <r>   -11.0114    19.2255     7.4292 </r>
       <r>   -10.9052     7.2021     8.1941 </r>
       <r>   -10.7990    -1.2359     8.0628 </r>
       <r>   -10.6928    -0.7663     7.9814 </r>
       <r>   -10.5866     0.0974     7.9918 </r>
       <r>   -10.4804     0.0734     7.9995 </r>
       <r>   -10.3742     0.0472     8.0046 </r>
       <r>   -10.2680     0.0449     8.0093 </r>
       <r>   -10.1618    -0.4423     7.9624 </r>
       <r>   -10.0556    -0.5623     7.9026 </r>
       <r>    -9.9494     4.1361     8.3419 </r>
       <r>    -9.8432     9.9010     9.3934 </r>
       <r>    -9.7370     6.2116    10.0532 </r>
       <r>    -9.6308     0.1159    10.0655 </r>
       <r>    -9.5246    -0.6638     9.9950 </r>
       <r>    -9.4183    -0.0163     9.9932 </r>
       <r>    -9.3121     0.0526     9.9988 </r>
       <r>    -9.2059     0.0103     9.9999 </r>
       <r>    -9.0997     0.0008    10.0000 </r>
       <r>    -8.9935     0.0000    10.0000 </r>
       <r>    -8.8873     0.0000    10.0000 </r>
       <r>    -8.7811     0.0000    10.0000 </r>
       <r>    -8.6749     0.0000    10.0000 </r>
       <r>    -8.5687     0.0000    10.0000 </r>
       <r>    -8.4625     0.0000    10.0000 </r>
       <r>    -8.3563     0.0000    10.0000 </r>
       <r>    -8.2501     0.0000    10.0000 </r>
       <r>    -8.1439     0.0000    10.0000 </r>
       <r>    -8.0377     0.0000    10.0000 </r>
       <r>    -7.9315     0.0000    10.0000 </r>
       <r>    -7.8253     0.0000    10.0000 </r>
       <r>    -7.7191     0.0000    10.0000 </r>
       <r>    -7.6129     0.0000    10.0000 </r>
       <r>    -7.5067     0.0000    10.0000 </r>
       <r>    -7.4005     0.0001    10.0000 </r>
       <r>    -7.2943     0.0017    10.0002 </r>
       <r>    -7.1880     0.0182    10.0021 </r>
       <r>    -7.0818     0.0635    10.0089 </r>
       <r>    -6.9756    -0.1362     9.9944 </r>
       <r>    -6.8694    -0.8094     9.9084 </r>
       <r>    -6.7632     1.3299    10.0497 </r>
       <r>    -6.6570     8.1945    10.9200 </r>
       <r>    -6.5508     9.1666    11.8935 </r>
       <r>    -6.4446     1.6330    12.0670 </r>
       <r>    -6.3384    -3.1179    11.7358 </r>
       <r>    -6.2322     5.8407    12.3561 </r>
       <r>    -6.1260    25.7610    15.0921 </r>
       <r>    -6.0198    22.7251    17.5056 </r>
       <r>    -5.9136     8.5621    18.4149 </r>
       <r>    -5.8074    27.8406    21.3717 </r>
       <r>    -5.7012    76.3090    29.4761 </r>
       <r>    -5.5950   165.8097    47.0859 </r>
       <r>    -5.4888   277.9338    76.6038 </r>
       <r>    -5.3826   294.4868   107.8797 </r>
       <r>    -5.2764   223.7439   131.6424 </r>
       <r>    -5.1702   220.1782   155.0264 </r>
       <r>    -5.0640   308.3731   187.7771 </r>
       <r>    -4.9577   364.6492   226.5046 </r>
       <r>    -4.8515   320.1084   260.5017 </r>
       <r>    -4.7453   301.2346   292.4942 </r>
       <r>    -4.6391   382.2981   333.0961 </r>
       <r>    -4.5329   426.9037   378.4354 </r>
       <r>    -4.4267   425.7778   423.6550 </r>
       <r>    -4.3205   512.0100   478.0330 </r>
       <r>    -4.2143   550.4666   536.4952 </r>
       <r>    -4.1081   339.8481   572.5887 </r>
       <r>    -4.0019    79.7200   581.0553 </r>
       <r>    -3.8957     4.1033   581.4911 </r>
       <r>    -3.7895    26.8860   584.3465 </r>
       <r>    -3.6833    25.2166   587.0247 </r>
       <r>    -3.5771    14.9492   588.6123 </r>
       <r>    -3.4709    23.8505   591.1454 </r>
       <r>    -3.3647    21.8097   593.4617 </r>
       <r>    -3.2585     2.3280   593.7089 </r>
       <r>    -3.1523     8.2962   594.5900 </r>
       <r>    -3.0461    47.0346   599.5853 </r>
       <r>    -2.9399    57.5166   605.6939 </r>
       <r>    -2.8336    27.1499   608.5773 </r>
       <r>    -2.7274     8.1663   609.4446 </r>
       <r>    -2.6212    13.3451   610.8619 </r>
       <r>    -2.5150    24.9768   613.5146 </r>
       <r>    -2.4088    22.5201   615.9063 </r>
       <r>    -2.3026    12.0896   617.1903 </r>
       <r>    -2.1964    17.4466   619.0432 </r>
       <r>    -2.0902    36.8973   622.9619 </r>
       <r>    -1.9840    43.0812   627.5373 </r>
       <r>    -1.8778    33.1306   631.0559 </r>
       <r>    -1.7716    31.2849   634.3786 </r>
       <r>    -1.6654    42.9402   638.9390 </r>
       <r>    -1.5592    44.4586   643.6607 </r>
       <r>    -1.4530    25.9730   646.4192 </r>
       <r>    -1.3468    16.9218   648.2164 </r>
       <r>    -1.2406    22.6038   650.6170 </r>
       <r>    -1.1344    25.4377   653.3186 </r>
       <r>    -1.0282    37.2893   657.2789 </r>
       <r>    -0.9220    61.5046   663.8110 </r>
       <r>    -0.8158    56.9600   669.8604 </r>
       <r>    -0.7096    22.2341   672.2218 </r>
       <r>    -0.6033    -0.1704   672.2037 </r>
       <r>    -0.4971    -2.1384   671.9766 </r>
       <r>    -0.3909    -0.0558   671.9707 </r>
       <r>    -0.2847     0.2182   671.9938 </r>
       <r>    -0.1785     0.0528   671.9994 </r>
       <r>    -0.0723     0.0051   672.0000 </r>
       <r>     0.0339     0.0002   672.0000 </r>
       <r>     0.1401     0.0000   672.0000 </r>
       <r>     0.2463     0.0000   672.0000 </r>
       <r>     0.3525     0.0000   672.0000 </r>
       <r>     0.4587     0.0000   672.0000 </r>
       <r>     0.5649     0.0000   672.0000 </r>
       <r>     0.6711     0.0000   672.0000 </r>
       <r>     0.7773     0.0000   672.0000 </r>
       <r>     0.8835     0.0000   672.0000 </r>
       <r>     0.9897     0.0000   672.0000 </r>
       <r>     1.0959     0.0000   672.0000 </r>
       <r>     1.2021     0.0000   672.0000 </r>
      </set>
     </set>
    </array>
   </total>
  </dos>
 </calculation>
 <structure name="finalpos" >
  <crystal>
   <varray name="basis" >
    <v>      30.00000000       0.00000000       0.00000000 </v>
    <v>       0.00000000      30.00000000       0.00000000 </v>
    <v>       0.00000000       0.00000000      30.00000000 </v>
   </varray>
   <i name="volume">  27000.00000000 </i>
   <varray name="rec_basis" >
    <v>       0.03333333       0.00000000       0.00000000 </v>
    <v>       0.00000000       0.03333333       0.00000000 </v>
    <v>       0.00000000       0.00000000       0.03333333 </v>
   </varray>
  </crystal>
  <varray name="positions" >
   <v>       0.44576020       0.32826710       0.41691983 </v>
   <v>       0.67173288       0.55423978       0.41691983 </v>
   <v>       0.55423980       0.32826710       0.41691983 </v>
   <v>       0.32826712       0.55423978       0.41691983 </v>
   <v>       0.50000000       0.38250690       0.34021317 </v>
   <v>       0.50000000       0.38250690       0.65978680 </v>
   <v>       0.50000000       0.27609440       0.50000000 </v>
   <v>       0.27609443       0.49999998       0.50000000 </v>
   <v>       0.72390557       0.49999998       0.50000000 </v>
   <v>       0.50000000       0.72390555       0.50000000 </v>
   <v>       0.61195280       0.38804720       0.34167483 </v>
   <v>       0.61195280       0.38804720       0.65832513 </v>
   <v>       0.38804722       0.61195278       0.34167483 </v>
   <v>       0.38804722       0.61195278       0.65832513 </v>
   <v>       0.38804720       0.38804720       0.34167483 </v>
   <v>       0.38804720       0.38804720       0.65832513 </v>
   <v>       0.61195278       0.61195278       0.34167483 </v>
   <v>       0.61195278       0.61195278       0.65832513 </v>
   <v>       0.44576020       0.32826710       0.58308023 </v>
   <v>       0.67173288       0.55423978       0.58308023 </v>
   <v>       0.55791699       0.44208301       0.41809300 </v>
   <v>       0.32826705       0.44576024       0.41691983 </v>
   <v>       0.55423973       0.67173293       0.41691983 </v>
   <v>       0.55423980       0.32826710       0.58308023 </v>
   <v>       0.32826712       0.55423978       0.58308023 </v>
   <v>       0.67173295       0.44576024       0.41691983 </v>
   <v>       0.44576027       0.67173293       0.41691983 </v>
   <v>       0.44208301       0.44208301       0.41809300 </v>
   <v>       0.50000000       0.38416601       0.50000000 </v>
   <v>       0.61749315       0.50000005       0.34021317 </v>
   <v>       0.61749315       0.50000005       0.65978680 </v>
   <v>       0.38250685       0.50000005       0.34021317 </v>
   <v>       0.38250685       0.50000005       0.65978680 </v>
   <v>       0.38317830       0.38317830       0.50000000 </v>
   <v>       0.61682172       0.61682172       0.50000000 </v>
   <v>       0.61682170       0.38317830       0.50000000 </v>
   <v>       0.38317828       0.61682172       0.50000000 </v>
   <v>       0.50000000       0.50000000       0.33478917 </v>
   <v>       0.50000000       0.50000000       0.66521087 </v>
   <v>       0.32826705       0.44576024       0.58308023 </v>
   <v>       0.55423973       0.67173293       0.58308023 </v>
   <v>       0.55791699       0.44208301       0.58190703 </v>
   <v>       0.44208298       0.55791702       0.41809300 </v>
   <v>       0.44208301       0.44208301       0.58190703 </v>
   <v>       0.67173295       0.44576024       0.58308023 </v>
   <v>       0.44576027       0.67173293       0.58308023 </v>
   <v>       0.55791702       0.55791702       0.41809300 </v>
   <v>       0.38416599       0.50000002       0.50000000 </v>
   <v>       0.61583401       0.50000002       0.50000000 </v>
   <v>       0.50000000       0.61749319       0.34021317 </v>
   <v>       0.50000000       0.61749319       0.65978680 </v>
   <v>       0.50000000       0.50000000       0.50000000 </v>
   <v>       0.44208298       0.55791702       0.58190703 </v>
   <v>       0.55791702       0.55791702       0.58190703 </v>
   <v>       0.50000000       0.61583404       0.50000000 </v>
   <v>       0.51514180       0.25976523       0.41632287 </v>
   <v>       0.51737587       0.22432027       0.40397690 </v>
  </varray>
  <varray name="selective"  type="logical" >
   <v type="logical" >  F  F  F </v>
   <v type="logical" >  F  F  F </v>
   <v type="logical" >  F  F  F </v>
   <v type="logical" >  F  F  F </v>
   <v type="logical" >  F  F  F </v>
   <v type="logical" >  F  F  F </v>
   <v type="logical" >  F  F  F </v>
   <v type="logical" >  F  F  F </v>
   <v type="logical" >  F  F  F </v>
   <v type="logical" >  F  F  F </v>
   <v type="logical" >  F  F  F </v>
   <v type="logical" >  F  F  F </v>
   <v type="logical" >  F  F  F </v>
   <v type="logical" >  F  F  F </v>
   <v type="logical" >  F  F  F </v>
   <v type="logical" >  F  F  F </v>
   <v type="logical" >  F  F  F </v>
   <v type="logical" >  F  F  F </v>
   <v type="logical" >  F  F  F </v>
   <v type="logical" >  F  F  F </v>
   <v type="logical" >  F  F  F </v>
   <v type="logical" >  F  F  F </v>
   <v type="logical" >  F  F  F </v>
   <v type="logical" >  F  F  F </v>
   <v type="logical" >  F  F  F </v>
   <v type="logical" >  F  F  F </v>
   <v type="logical" >  F  F  F </v>
   <v type="logical" >  F  F  F </v>
   <v type="logical" >  F  F  F </v>
   <v type="logical" >  F  F  F </v>
   <v type="logical" >  F  F  F </v>
   <v type="logical" >  F  F  F </v>
   <v type="logical" >  F  F  F </v>
   <v type="logical" >  F  F  F </v>
   <v type="logical" >  F  F  F </v>
   <v type="logical" >  F  F  F </v>
   <v type="logical" >  F  F  F </v>
   <v type="logical" >  F  F  F </v>
   <v type="logical" >  F  F  F </v>
   <v type="logical" >  F  F  F </v>
   <v type="logical" >  F  F  F </v>
   <v type="logical" >  F  F  F </v>
   <v type="logical" >  F  F  F </v>
   <v type="logical" >  F  F  F </v>
   <v type="logical" >  F  F  F </v>
   <v type="logical" >  F  F  F </v>
   <v type="logical" >  F  F  F </v>
   <v type="logical" >  F  F  F </v>
   <v type="logical" >  F  F  F </v>
   <v type="logical" >  F  F  F </v>
   <v type="logical" >  F  F  F </v>
   <v type="logical" >  F  F  F </v>
   <v type="logical" >  F  F  F </v>
   <v type="logical" >  F  F  F </v>
   <v type="logical" >  F  F  F </v>
   <v type="logical" >  F  F  F </v>
   <v type="logical" >  F  F  F </v>
  </varray>
  <nose>
   <v>      -3.00000000       0.00000000       0.00010000       0.00010000 </v>
  </nose>
 </structure>
</modeling>
