       N       E                     dE             d eps       ncg     rms          rms(c)
DAV:   1     0.440090450640E+04    0.44009E+04   -0.10058E+05   688   0.815E+02
DAV:   2     0.203105271415E+04   -0.23699E+04   -0.21296E+04  1208   0.105E+02
DAV:   3     0.240311082403E+03   -0.17907E+04   -0.16817E+04  1008   0.920E+01
DAV:   4    -0.133805350063E+03   -0.37412E+03   -0.31817E+03   832   0.437E+01
DAV:   5    -0.180017973829E+03   -0.46213E+02   -0.37946E+02  1056   0.148E+01    0.177E+01
RMM:   6    -0.179817435279E+03    0.20054E+00   -0.65971E+01   730   0.967E+00    0.234E+01
RMM:   7    -0.181743393160E+03   -0.19260E+01   -0.22256E+01   846   0.495E+00    0.233E+01
RMM:   8    -0.185271192874E+03   -0.35278E+01   -0.92880E+00   784   0.389E+00    0.294E+01
RMM:   9    -0.183624797712E+03    0.16464E+01   -0.59724E+00   753   0.339E+00    0.238E+01
RMM:  10    -0.179324465719E+03    0.43003E+01   -0.48301E+00   731   0.331E+00    0.200E+01
RMM:  11    -0.177743555831E+03    0.15809E+01   -0.30423E+00   725   0.259E+00    0.197E+01
RMM:  12    -0.177246625910E+03    0.49693E+00   -0.18507E+00   723   0.199E+00    0.182E+01
RMM:  13    -0.177541353303E+03   -0.29473E+00   -0.14844E+00   725   0.179E+00    0.276E+01
RMM:  14    -0.177339268764E+03    0.20208E+00   -0.20976E+00   707   0.189E+00    0.198E+01
RMM:  15    -0.176963146849E+03    0.37612E+00   -0.12823E+00   717   0.166E+00    0.170E+01
RMM:  16    -0.176270499780E+03    0.69265E+00   -0.99151E-01   717   0.148E+00    0.169E+01
RMM:  17    -0.175486982503E+03    0.78352E+00   -0.69725E-01   707   0.125E+00    0.114E+01
RMM:  18    -0.175196449093E+03    0.29053E+00   -0.69728E-01   698   0.125E+00    0.944E+00
RMM:  19    -0.175066538128E+03    0.12991E+00   -0.53192E-01   695   0.109E+00    0.998E+00
RMM:  20    -0.175078623828E+03   -0.12086E-01   -0.34438E-01   715   0.889E-01    0.101E+01
RMM:  21    -0.174873560273E+03    0.20506E+00   -0.29579E-01   701   0.834E-01    0.807E+00
RMM:  22    -0.174688232482E+03    0.18533E+00   -0.19565E-01   697   0.680E-01    0.657E+00
RMM:  23    -0.174660582580E+03    0.27650E-01   -0.15075E-01   695   0.597E-01    0.648E+00
RMM:  24    -0.174526297101E+03    0.13429E+00   -0.10619E-01   695   0.505E-01    0.457E+00
RMM:  25    -0.174475477822E+03    0.50819E-01   -0.10252E-01   692   0.484E-01    0.432E+00
RMM:  26    -0.174425880189E+03    0.49598E-01   -0.64737E-02   693   0.403E-01    0.366E+00
RMM:  27    -0.174406467640E+03    0.19413E-01   -0.48649E-02   695   0.348E-01    0.288E+00
RMM:  28    -0.174390944612E+03    0.15523E-01   -0.33015E-02   694   0.298E-01    0.263E+00
RMM:  29    -0.174369352340E+03    0.21592E-01   -0.23651E-02   697   0.256E-01    0.208E+00
RMM:  30    -0.174362207682E+03    0.71447E-02   -0.19159E-02   691   0.229E-01    0.167E+00
RMM:  31    -0.174356222927E+03    0.59848E-02   -0.15486E-02   692   0.204E-01    0.151E+00
RMM:  32    -0.174346554071E+03    0.96689E-02   -0.98990E-03   688   0.167E-01    0.971E-01
RMM:  33    -0.174345664391E+03    0.88968E-03   -0.69152E-03   691   0.132E-01    0.974E-01
RMM:  34    -0.174343028983E+03    0.26354E-02   -0.49375E-03   696   0.113E-01    0.724E-01
RMM:  35    -0.174342135764E+03    0.89322E-03   -0.28296E-03   688   0.890E-02    0.603E-01
RMM:  36    -0.174342466502E+03   -0.33074E-03   -0.19161E-03   689   0.740E-02    0.481E-01
RMM:  37    -0.174343158220E+03   -0.69172E-03   -0.13615E-03   686   0.602E-02    0.370E-01
RMM:  38    -0.174345716385E+03   -0.25582E-02   -0.12354E-03   680   0.558E-02    0.299E-01
RMM:  39    -0.174347122614E+03   -0.14062E-02   -0.66861E-04   657   0.404E-02    0.240E-01
RMM:  40    -0.174349922228E+03   -0.27996E-02   -0.64511E-04   630   0.382E-02    0.252E-01
RMM:  41    -0.174354310641E+03   -0.43884E-02   -0.91262E-04   674   0.418E-02    0.155E-01
RMM:  42    -0.174357037284E+03   -0.27266E-02   -0.58029E-04   563   0.314E-02    0.172E-01
RMM:  43    -0.174359735591E+03   -0.26983E-02   -0.55741E-04   547   0.289E-02    0.116E-01
RMM:  44    -0.174361120023E+03   -0.13844E-02   -0.26029E-04   435   0.209E-02    0.127E-01
RMM:  45    -0.174363037112E+03   -0.19171E-02   -0.28316E-04   442   0.203E-02    0.960E-02
RMM:  46    -0.174363900953E+03   -0.86384E-03   -0.13353E-04   412   0.146E-02    0.623E-02
RMM:  47    -0.174365024119E+03   -0.11232E-02   -0.10018E-04   407   0.122E-02    0.702E-02
RMM:  48    -0.174365875233E+03   -0.85111E-03   -0.73902E-05   401   0.105E-02    0.742E-02
RMM:  49    -0.174366551073E+03   -0.67584E-03   -0.49581E-05   399   0.867E-03    0.565E-02
RMM:  50    -0.174367168108E+03   -0.61704E-03   -0.34650E-05   400   0.723E-03    0.282E-02
RMM:  51    -0.174367591559E+03   -0.42345E-03   -0.19972E-05   349   0.565E-03    0.282E-02
RMM:  52    -0.174368214742E+03   -0.62318E-03   -0.19302E-05   340   0.545E-03    0.240E-02
RMM:  53    -0.174368491741E+03   -0.27700E-03   -0.61009E-06   192   0.417E-03    0.143E-02
RMM:  54    -0.174369009650E+03   -0.51791E-03   -0.14520E-05   285   0.478E-03    0.171E-02
RMM:  55    -0.174369311650E+03   -0.30200E-03   -0.47719E-06   156   0.402E-03    0.136E-02
RMM:  56    -0.174369689378E+03   -0.37773E-03   -0.20972E-05   303   0.491E-03    0.128E-02
RMM:  57    -0.174369886555E+03   -0.19718E-03   -0.36723E-06   136   0.365E-03    0.776E-03
RMM:  58    -0.174370063118E+03   -0.17656E-03   -0.91656E-06   180   0.408E-03    0.102E-02
RMM:  59    -0.174370210696E+03   -0.14758E-03   -0.13303E-05   210   0.411E-03    0.560E-03
RMM:  60    -0.174370287824E+03   -0.77128E-04   -0.34437E-06   119   0.344E-03
   1 F= -.17437029E+03 E0= -.17436266E+03  d E =-.304973E-01
