  57  57   0   0
  0.4736842E+03  0.3000000E-08  0.3000000E-08  0.3000000E-08  0.5000000E-15
  1.000000000000000E-004
  CAR 
 6_Pd100_top_free_z(O)                   
      1.29234467    -30.27825484  301     -4.13885033      1.00000000
    -30.278  0.0000E+00  0.0000E+00
    -30.173  0.0000E+00  0.0000E+00
    -30.068  0.0000E+00  0.0000E+00
    -29.963  0.2409E-27  0.2535E-28
    -29.857  0.1055E-23  0.1110E-24
    -29.752  0.2615E-20  0.2753E-21
    -29.647  0.3662E-17  0.3856E-18
    -29.542  0.2886E-14  0.3041E-15
    -29.436  0.1276E-11  0.1346E-12
    -29.331  0.3141E-09  0.3319E-10
    -29.226  0.4266E-07  0.4522E-08
    -29.121  0.3153E-05  0.3363E-06
    -29.015  0.1240E-03  0.1338E-04
    -28.910  0.2482E-02  0.2746E-03
    -28.805  0.2284E-01  0.2678E-02
    -28.700  0.6456E-01  0.9472E-02
    -28.594 -0.1970E+00 -0.1126E-01
    -28.489 -0.8215E+00 -0.9771E-01
    -28.384  0.1796E+01  0.9133E-01
    -28.279  0.8581E+01  0.9944E+00
    -28.174  0.8635E+01  0.1903E+01
    -28.068  0.1854E+01  0.2098E+01
    -27.963 -0.8208E+00  0.2012E+01
    -27.858 -0.2033E+00  0.1990E+01
    -27.753  0.6450E-01  0.1997E+01
    -27.647  0.2325E-01  0.2000E+01
    -27.542  0.2548E-02  0.2000E+01
    -27.437  0.1282E-03  0.2000E+01
    -27.332  0.3282E-05  0.2000E+01
    -27.226  0.4468E-07  0.2000E+01
    -27.121  0.3310E-09  0.2000E+01
    -27.016  0.1357E-11  0.2000E+01
    -26.911  0.2110E-14  0.2000E+01
    -26.805  0.0000E+00  0.2000E+01
    -26.700  0.0000E+00  0.2000E+01
    -26.595  0.0000E+00  0.2000E+01
    -26.490  0.0000E+00  0.2000E+01
    -26.385  0.0000E+00  0.2000E+01
    -26.279  0.0000E+00  0.2000E+01
    -26.174  0.0000E+00  0.2000E+01
    -26.069  0.0000E+00  0.2000E+01
    -25.964  0.0000E+00  0.2000E+01
    -25.858  0.0000E+00  0.2000E+01
    -25.753  0.0000E+00  0.2000E+01
    -25.648  0.0000E+00  0.2000E+01
    -25.543  0.0000E+00  0.2000E+01
    -25.437  0.0000E+00  0.2000E+01
    -25.332  0.0000E+00  0.2000E+01
    -25.227  0.0000E+00  0.2000E+01
    -25.122  0.0000E+00  0.2000E+01
    -25.016  0.0000E+00  0.2000E+01
    -24.911  0.0000E+00  0.2000E+01
    -24.806  0.0000E+00  0.2000E+01
    -24.701  0.0000E+00  0.2000E+01
    -24.596  0.0000E+00  0.2000E+01
    -24.490  0.0000E+00  0.2000E+01
    -24.385  0.0000E+00  0.2000E+01
    -24.280  0.0000E+00  0.2000E+01
    -24.175  0.0000E+00  0.2000E+01
    -24.069  0.0000E+00  0.2000E+01
    -23.964  0.0000E+00  0.2000E+01
    -23.859  0.0000E+00  0.2000E+01
    -23.754  0.0000E+00  0.2000E+01
    -23.648  0.0000E+00  0.2000E+01
    -23.543  0.0000E+00  0.2000E+01
    -23.438  0.0000E+00  0.2000E+01
    -23.333  0.0000E+00  0.2000E+01
    -23.227  0.0000E+00  0.2000E+01
    -23.122  0.0000E+00  0.2000E+01
    -23.017  0.0000E+00  0.2000E+01
    -22.912  0.0000E+00  0.2000E+01
    -22.807  0.0000E+00  0.2000E+01
    -22.701  0.0000E+00  0.2000E+01
    -22.596  0.0000E+00  0.2000E+01
    -22.491  0.0000E+00  0.2000E+01
    -22.386  0.0000E+00  0.2000E+01
    -22.280  0.0000E+00  0.2000E+01
    -22.175  0.0000E+00  0.2000E+01
    -22.070  0.0000E+00  0.2000E+01
    -21.965  0.0000E+00  0.2000E+01
    -21.859  0.0000E+00  0.2000E+01
    -21.754  0.0000E+00  0.2000E+01
    -21.649  0.0000E+00  0.2000E+01
    -21.544  0.0000E+00  0.2000E+01
    -21.438  0.0000E+00  0.2000E+01
    -21.333  0.0000E+00  0.2000E+01
    -21.228  0.0000E+00  0.2000E+01
    -21.123  0.0000E+00  0.2000E+01
    -21.018  0.0000E+00  0.2000E+01
    -20.912  0.0000E+00  0.2000E+01
    -20.807  0.0000E+00  0.2000E+01
    -20.702  0.0000E+00  0.2000E+01
    -20.597  0.0000E+00  0.2000E+01
    -20.491  0.0000E+00  0.2000E+01
    -20.386  0.0000E+00  0.2000E+01
    -20.281  0.0000E+00  0.2000E+01
    -20.176  0.0000E+00  0.2000E+01
    -20.070  0.0000E+00  0.2000E+01
    -19.965  0.0000E+00  0.2000E+01
    -19.860  0.0000E+00  0.2000E+01
    -19.755  0.0000E+00  0.2000E+01
    -19.649  0.0000E+00  0.2000E+01
    -19.544  0.0000E+00  0.2000E+01
    -19.439  0.0000E+00  0.2000E+01
    -19.334  0.0000E+00  0.2000E+01
    -19.229  0.0000E+00  0.2000E+01
    -19.123  0.0000E+00  0.2000E+01
    -19.018  0.0000E+00  0.2000E+01
    -18.913  0.0000E+00  0.2000E+01
    -18.808  0.0000E+00  0.2000E+01
    -18.702  0.0000E+00  0.2000E+01
    -18.597  0.0000E+00  0.2000E+01
    -18.492  0.0000E+00  0.2000E+01
    -18.387  0.0000E+00  0.2000E+01
    -18.281  0.0000E+00  0.2000E+01
    -18.176  0.0000E+00  0.2000E+01
    -18.071  0.0000E+00  0.2000E+01
    -17.966  0.0000E+00  0.2000E+01
    -17.860  0.0000E+00  0.2000E+01
    -17.755  0.0000E+00  0.2000E+01
    -17.650  0.0000E+00  0.2000E+01
    -17.545  0.0000E+00  0.2000E+01
    -17.440  0.0000E+00  0.2000E+01
    -17.334  0.0000E+00  0.2000E+01
    -17.229  0.0000E+00  0.2000E+01
    -17.124  0.0000E+00  0.2000E+01
    -17.019  0.0000E+00  0.2000E+01
    -16.913  0.0000E+00  0.2000E+01
    -16.808  0.0000E+00  0.2000E+01
    -16.703  0.0000E+00  0.2000E+01
    -16.598  0.0000E+00  0.2000E+01
    -16.492  0.0000E+00  0.2000E+01
    -16.387  0.0000E+00  0.2000E+01
    -16.282  0.0000E+00  0.2000E+01
    -16.177  0.0000E+00  0.2000E+01
    -16.071  0.0000E+00  0.2000E+01
    -15.966  0.0000E+00  0.2000E+01
    -15.861  0.0000E+00  0.2000E+01
    -15.756  0.0000E+00  0.2000E+01
    -15.651  0.0000E+00  0.2000E+01
    -15.545  0.0000E+00  0.2000E+01
    -15.440  0.0000E+00  0.2000E+01
    -15.335  0.0000E+00  0.2000E+01
    -15.230  0.0000E+00  0.2000E+01
    -15.124  0.0000E+00  0.2000E+01
    -15.019  0.6367E-28  0.2000E+01
    -14.914  0.3041E-24  0.2000E+01
    -14.809  0.8225E-21  0.2000E+01
    -14.703  0.1257E-17  0.2000E+01
    -14.598  0.1082E-14  0.2000E+01
    -14.493  0.5231E-12  0.2000E+01
    -14.388  0.1408E-09  0.2000E+01
    -14.282  0.2095E-07  0.2000E+01
    -14.177  0.1701E-05  0.2000E+01
    -14.072  0.7381E-04  0.2000E+01
    -13.967  0.1645E-02  0.2000E+01
    -13.862  0.1725E-01  0.2002E+01
    -13.756  0.6274E-01  0.2009E+01
    -13.651 -0.1115E+00  0.1997E+01
    -13.546 -0.7947E+00  0.1913E+01
    -13.441  0.9952E+00  0.2018E+01
    -13.335  0.7672E+01  0.2825E+01
    -13.230  0.9343E+01  0.3809E+01
    -13.125  0.2800E+01  0.4103E+01
    -13.020 -0.7665E+00  0.4023E+01
    -12.914 -0.3076E+00  0.3990E+01
    -12.809  0.5983E-01  0.3996E+01
    -12.704  0.2997E-01  0.4000E+01
    -12.599  0.3772E-02  0.4000E+01
    -12.493  0.2118E-03  0.4000E+01
    -12.388  0.5988E-05  0.4000E+01
    -12.283  0.8965E-07  0.4000E+01
    -12.178  0.7122E-08  0.4000E+01
    -12.073  0.6045E-06  0.4000E+01
    -11.967  0.3073E-04  0.4000E+01
    -11.862  0.8126E-03  0.4000E+01
    -11.757  0.1043E-01  0.4001E+01
    -11.652  0.5287E-01  0.4007E+01
    -11.546 -0.8097E-02  0.4006E+01
    -11.441 -0.6167E+00  0.3941E+01
    -11.336  0.7338E-01  0.3949E+01
    -11.231  0.5574E+01  0.4535E+01
    -11.125  0.9269E+01  0.5511E+01
    -11.020  0.7826E+01  0.6334E+01
    -10.915  0.9151E+01  0.7297E+01
    -10.810  0.6744E+01  0.8007E+01
    -10.704  0.7174E+00  0.8082E+01
    -10.599 -0.1298E+01  0.7946E+01
    -10.494 -0.3167E+00  0.7913E+01
    -10.389  0.5298E+01  0.8470E+01
    -10.284  0.1004E+02  0.9527E+01
    -10.178  0.5245E+01  0.1008E+02
    -10.073 -0.2430E+00  0.1005E+02
     -9.968 -0.5785E+00  0.9993E+01
     -9.863  0.1247E-01  0.9994E+01
     -9.757  0.4774E-01  0.9999E+01
     -9.652  0.8496E-02  0.1000E+02
     -9.547  0.6161E-03  0.1000E+02
     -9.442  0.2188E-04  0.1000E+02
     -9.336  0.4057E-06  0.1000E+02
     -9.231  0.4054E-08  0.1000E+02
     -9.126  0.2222E-10  0.1000E+02
     -9.021  0.6752E-13  0.1000E+02
     -8.915  0.0000E+00  0.1000E+02
     -8.810  0.0000E+00  0.1000E+02
     -8.705  0.0000E+00  0.1000E+02
     -8.600  0.0000E+00  0.1000E+02
     -8.495  0.0000E+00  0.1000E+02
     -8.389  0.0000E+00  0.1000E+02
     -8.284  0.1208E-25  0.1000E+02
     -8.179  0.4077E-22  0.1000E+02
     -8.074  0.7782E-19  0.1000E+02
     -7.968  0.8376E-16  0.1000E+02
     -7.863  0.5064E-13  0.1000E+02
     -7.758  0.1715E-10  0.1000E+02
     -7.653  0.3217E-08  0.1000E+02
     -7.547  0.3313E-06  0.1000E+02
     -7.442  0.1840E-04  0.1000E+02
     -7.337  0.5348E-03  0.1000E+02
     -7.232  0.7645E-02  0.1000E+02
     -7.126  0.4523E-01  0.1001E+02
     -7.021  0.2296E-01  0.1001E+02
     -6.916 -0.5384E+00  0.9951E+01
     -6.811 -0.3246E+00  0.9917E+01
     -6.706  0.5030E+01  0.1045E+02
     -6.600  0.1000E+02  0.1150E+02
     -6.495  0.4217E+01  0.1194E+02
     -6.390 -0.2874E+00  0.1191E+02
     -6.285  0.1205E+02  0.1318E+02
     -6.179  0.3102E+02  0.1644E+02
     -6.074  0.3367E+02  0.1999E+02
     -5.969  0.1610E+02  0.2168E+02
     -5.864  0.1179E+02  0.2292E+02
     -5.758  0.4363E+02  0.2751E+02
     -5.653  0.1031E+03  0.3836E+02
     -5.548  0.2000E+03  0.5941E+02
     -5.443  0.2895E+03  0.8987E+02
     -5.337  0.2765E+03  0.1190E+03
     -5.232  0.2136E+03  0.1414E+03
     -5.127  0.2342E+03  0.1661E+03
     -5.022  0.3292E+03  0.2007E+03
     -4.917  0.3615E+03  0.2388E+03
     -4.811  0.3035E+03  0.2707E+03
     -4.706  0.3068E+03  0.3030E+03
     -4.601  0.3904E+03  0.3441E+03
     -4.496  0.4202E+03  0.3883E+03
     -4.390  0.4379E+03  0.4344E+03
     -4.285  0.5291E+03  0.4901E+03
     -4.180  0.5197E+03  0.5447E+03
     -4.075  0.2816E+03  0.5744E+03
     -3.969  0.5964E+02  0.5807E+03
     -3.864  0.1779E+02  0.5825E+03
     -3.759  0.3232E+02  0.5859E+03
     -3.654  0.1846E+02  0.5879E+03
     -3.548  0.1016E+02  0.5889E+03
     -3.443  0.1855E+02  0.5909E+03
     -3.338  0.1548E+02  0.5925E+03
     -3.233  0.5522E+01  0.5931E+03
     -3.128  0.1702E+02  0.5949E+03
     -3.022  0.5431E+02  0.6006E+03
     -2.917  0.5875E+02  0.6068E+03
     -2.812  0.2426E+02  0.6093E+03
     -2.707  0.4937E+01  0.6099E+03
     -2.601  0.1156E+02  0.6111E+03
     -2.496  0.2486E+02  0.6137E+03
     -2.391  0.1837E+02  0.6156E+03
     -2.286  0.6032E+01  0.6163E+03
     -2.180  0.1785E+02  0.6181E+03
     -2.075  0.3571E+02  0.6219E+03
     -1.970  0.4074E+02  0.6262E+03
     -1.865  0.4468E+02  0.6309E+03
     -1.759  0.4194E+02  0.6353E+03
     -1.654  0.3523E+02  0.6390E+03
     -1.549  0.3730E+02  0.6429E+03
     -1.444  0.3454E+02  0.6466E+03
     -1.339  0.2139E+02  0.6488E+03
     -1.233  0.8189E+01  0.6497E+03
     -1.128  0.7261E+01  0.6505E+03
     -1.023  0.3437E+02  0.6541E+03
     -0.918  0.6982E+02  0.6614E+03
     -0.812  0.6488E+02  0.6682E+03
     -0.707  0.2993E+02  0.6714E+03
     -0.602  0.6735E+01  0.6721E+03
     -0.497 -0.4157E+00  0.6721E+03
     -0.391 -0.7389E+00  0.6720E+03
     -0.286  0.3473E-01  0.6720E+03
     -0.181  0.1147E+00  0.6720E+03
     -0.076  0.2750E-01  0.6720E+03
      0.030  0.2701E-02  0.6720E+03
      0.135  0.1294E-03  0.6720E+03
      0.240  0.3228E-05  0.6720E+03
      0.345  0.4322E-07  0.6720E+03
      0.450  0.3165E-09  0.6720E+03
      0.556  0.1283E-11  0.6720E+03
      0.661  0.2110E-14  0.6720E+03
      0.766  0.0000E+00  0.6720E+03
      0.871  0.0000E+00  0.6720E+03
      0.977  0.0000E+00  0.6720E+03
      1.082  0.0000E+00  0.6720E+03
      1.187  0.0000E+00  0.6720E+03
      1.292  0.0000E+00  0.6720E+03
