 vasp.5.4.4.18Apr17-6-g9f103f2a35 (build Sep 03 2018 23:53:05) complex          
  
 executed on             LinuxIFC date 2021.12.02  06:06:36
 running on    1 total cores
 distrk:  each k-point on    1 cores,    1 groups
 distr:  one band on NCORES_PER_BAND=   1 cores,    1 groups


--------------------------------------------------------------------------------------------------------


 INCAR:
 POTCAR:    PAW_PBE Pd 04Jan2005                  
 POTCAR:    PAW_PBE C 08Apr2002                   
 POTCAR:    PAW_PBE O 08Apr2002                   
 POTCAR:    PAW_PBE Pd 04Jan2005                  
   VRHFIN =Pd : s1 d9                                                           
   LEXCH  = PE                                                                  
   EATOM  =   809.7530 eV,   59.5152 Ry                                         
                                                                                
   TITEL  = PAW_PBE Pd 04Jan2005                                                
   LULTRA =        F    use ultrasoft PP ?                                      
   IUNSCR =        1    unscreen: 0-lin 1-nonlin 2-no                           
   RPACOR =    2.000    partial core radius                                     
   POMASS =  106.420; ZVAL   =   10.000    mass and valenz                      
   RCORE  =    2.600    outmost cutoff radius                                   
   RWIGS  =    2.710; RWIGS  =    1.434    wigner-seitz radius (au A)           
   ENMAX  =  250.925; ENMIN  =  188.194 eV                                      
   ICORE  =        3    local potential                                         
   LCOR   =        T    correct aug charges                                     
   LPAW   =        T    paw PP                                                  
   EAUG   =  416.230                                                            
   DEXC   =    0.000                                                            
   RMAX   =    2.653    core radius for proj-oper                               
   RAUG   =    1.300    factor for augmentation sphere                          
   RDEP   =    2.734    radius for radial grids                                 
   RDEPT  =    2.103    core radius for aug-charge                              
                                                                                
   Atomic configuration                                                         
   12 entries                                                                   
     n  l   j            E        occ.                                          
     1  0  0.50    -24164.6631   2.0000                                         
     2  0  0.50     -3530.9218   2.0000                                         
     2  1  1.50     -3165.6822   6.0000                                         
     3  0  0.50      -639.4577   2.0000                                         
     3  1  1.50      -519.4532   6.0000                                         
     3  2  2.50      -328.9757  10.0000                                         
     4  0  0.50       -88.7014   2.0000                                         
     4  1  1.50       -54.4540   6.0000                                         
     4  2  2.50        -6.6878   9.0000                                         
     5  0  0.50        -4.3543   1.0000                                         
     5  1  0.50        -1.3606   0.0000                                         
     4  3  2.50        -1.3606   0.0000                                         
   Description                                                                  
     l       E           TYP  RCUT    TYP  RCUT                                 
     2     -6.6878251     23  2.400                                             
     2     -8.0484077     23  2.400                                             
     0     -4.3542939     23  2.400                                             
     0      4.3406793     23  2.400                                             
     1     -4.0817478     23  2.600                                             
     1     15.8380318     23  2.600                                             
     3     -4.0817478     23  2.400                                             
  local pseudopotential read in
  partial core-charges read in
  partial kinetic energy density read in
  atomic valenz-charges read in
  non local Contribution for L=           2  read in
    real space projection operators read in
  non local Contribution for L=           2  read in
    real space projection operators read in
  non local Contribution for L=           0  read in
    real space projection operators read in
  non local Contribution for L=           0  read in
    real space projection operators read in
  non local Contribution for L=           1  read in
    real space projection operators read in
  non local Contribution for L=           1  read in
    real space projection operators read in
    PAW grid and wavefunctions read in
 
   number of l-projection  operators is LMAX  =           6
   number of lm-projection operators is LMMAX =          18
 
 POTCAR:    PAW_PBE C 08Apr2002                   
   VRHFIN =C: s2p2                                                              
   LEXCH  = PE                                                                  
   EATOM  =   147.1560 eV,   10.8157 Ry                                         
                                                                                
   TITEL  = PAW_PBE C 08Apr2002                                                 
   LULTRA =        F    use ultrasoft PP ?                                      
   IUNSCR =        1    unscreen: 0-lin 1-nonlin 2-no                           
   RPACOR =    1.200    partial core radius                                     
   POMASS =   12.011; ZVAL   =    4.000    mass and valenz                      
   RCORE  =    1.500    outmost cutoff radius                                   
   RWIGS  =    1.630; RWIGS  =    0.863    wigner-seitz radius (au A)           
   ENMAX  =  400.000; ENMIN  =  300.000 eV                                      
   ICORE  =        2    local potential                                         
   LCOR   =        T    correct aug charges                                     
   LPAW   =        T    paw PP                                                  
   EAUG   =  644.873                                                            
   DEXC   =    0.000                                                            
   RMAX   =    1.529    core radius for proj-oper                               
   RAUG   =    1.300    factor for augmentation sphere                          
   RDEP   =    1.501    radius for radial grids                                 
   RDEPT  =    1.300    core radius for aug-charge                              
                                                                                
   Atomic configuration                                                         
    4 entries                                                                   
     n  l   j            E        occ.                                          
     1  0  0.50      -273.3789   2.0000                                         
     2  0  0.50       -13.7508   2.0000                                         
     2  1  0.50        -5.2854   2.0000                                         
     3  2  1.50        -5.4423   0.0000                                         
   Description                                                                  
     l       E           TYP  RCUT    TYP  RCUT                                 
     0    -13.7508458     23  1.200                                             
     0     -8.2022199     23  1.200                                             
     1     -5.2854383     23  1.500                                             
     1     34.0145650     23  1.500                                             
     2     -5.4423304      7  1.500                                             
  local pseudopotential read in
  partial core-charges read in
  partial kinetic energy density read in
  atomic valenz-charges read in
  non local Contribution for L=           0  read in
    real space projection operators read in
  non local Contribution for L=           0  read in
    real space projection operators read in
  non local Contribution for L=           1  read in
    real space projection operators read in
  non local Contribution for L=           1  read in
    real space projection operators read in
    PAW grid and wavefunctions read in
 
   number of l-projection  operators is LMAX  =           4
   number of lm-projection operators is LMMAX =           8
 
 POTCAR:    PAW_PBE O 08Apr2002                   
   VRHFIN =O: s2p4                                                              
   LEXCH  = PE                                                                  
   EATOM  =   432.3788 eV,   31.7789 Ry                                         
                                                                                
   TITEL  = PAW_PBE O 08Apr2002                                                 
   LULTRA =        F    use ultrasoft PP ?                                      
   IUNSCR =        1    unscreen: 0-lin 1-nonlin 2-no                           
   RPACOR =    1.200    partial core radius                                     
   POMASS =   16.000; ZVAL   =    6.000    mass and valenz                      
   RCORE  =    1.520    outmost cutoff radius                                   
   RWIGS  =    1.550; RWIGS  =    0.820    wigner-seitz radius (au A)           
   ENMAX  =  400.000; ENMIN  =  300.000 eV                                      
   ICORE  =        2    local potential                                         
   LCOR   =        T    correct aug charges                                     
   LPAW   =        T    paw PP                                                  
   EAUG   =  605.392                                                            
   DEXC   =    0.000                                                            
   RMAX   =    1.553    core radius for proj-oper                               
   RAUG   =    1.300    factor for augmentation sphere                          
   RDEP   =    1.550    radius for radial grids                                 
   RDEPT  =    1.329    core radius for aug-charge                              
                                                                                
   Atomic configuration                                                         
    4 entries                                                                   
     n  l   j            E        occ.                                          
     1  0  0.50      -514.6923   2.0000                                         
     2  0  0.50       -23.9615   2.0000                                         
     2  1  0.50        -9.0305   4.0000                                         
     3  2  1.50        -9.5241   0.0000                                         
   Description                                                                  
     l       E           TYP  RCUT    TYP  RCUT                                 
     0    -23.9615318     23  1.200                                             
     0     -9.5240782     23  1.200                                             
     1     -9.0304911     23  1.520                                             
     1      8.1634956     23  1.520                                             
     2     -9.5240782      7  1.500                                             
  local pseudopotential read in
  partial core-charges read in
  partial kinetic energy density read in
  kinetic energy density of atom read in
  atomic valenz-charges read in
  non local Contribution for L=           0  read in
    real space projection operators read in
  non local Contribution for L=           0  read in
    real space projection operators read in
  non local Contribution for L=           1  read in
    real space projection operators read in
  non local Contribution for L=           1  read in
    real space projection operators read in
    PAW grid and wavefunctions read in
 
   number of l-projection  operators is LMAX  =           4
   number of lm-projection operators is LMMAX =           8
 
 Optimization of the real space projectors (new method)

 maximal supplied QI-value         = 14.36
 optimisation between [QCUT,QGAM] = [ 10.20, 20.39] = [ 29.12,116.47] Ry 
 Optimized for a Real-space Cutoff    1.51 Angstroem

   l    n(q)    QCUT    max X(q) W(low)/X(q) W(high)/X(q)  e(spline) 
   2      8    10.197    59.108    0.26E-03    0.14E-03    0.96E-07
   2      8    10.197    58.101    0.27E-03    0.14E-03    0.98E-07
   0      9    10.197   102.235    0.54E-04    0.60E-05    0.72E-07
   0      9    10.197    58.388    0.52E-04    0.60E-05    0.68E-07
   1      9    10.197    22.191    0.18E-03    0.25E-03    0.79E-07
   1      9    10.197    15.590    0.15E-03    0.21E-03    0.69E-07
 Optimization of the real space projectors (new method)

 maximal supplied QI-value         = 25.13
 optimisation between [QCUT,QGAM] = [ 10.05, 20.36] = [ 28.30,116.06] Ry 
 Optimized for a Real-space Cutoff    1.30 Angstroem

   l    n(q)    QCUT    max X(q) W(low)/X(q) W(high)/X(q)  e(spline) 
   0      8    10.053   115.676    0.49E-03    0.72E-03    0.18E-06
   0      8    10.053    87.132    0.49E-03    0.71E-03    0.18E-06
   1      7    10.053     4.429    0.32E-03    0.31E-03    0.18E-06
   1      7    10.053     2.733    0.23E-03    0.19E-03    0.20E-06
 Optimization of the real space projectors (new method)

 maximal supplied QI-value         = 24.76
 optimisation between [QCUT,QGAM] = [ 10.15, 20.30] = [ 28.85,115.39] Ry 
 Optimized for a Real-space Cutoff    1.38 Angstroem

   l    n(q)    QCUT    max X(q) W(low)/X(q) W(high)/X(q)  e(spline) 
   0      8    10.150    20.381    0.22E-03    0.32E-03    0.29E-06
   0      8    10.150    15.268    0.23E-03    0.35E-03    0.30E-06
   1      8    10.150     5.964    0.46E-03    0.53E-03    0.21E-06
   1      8    10.150     5.382    0.38E-03    0.45E-03    0.19E-06

 ----------------------------------------------------------------------------- 
|                                                                             |
|  ADVICE TO THIS USER RUNNING 'VASP/VAMP'   (HEAR YOUR MASTER'S VOICE ...):  |
|                                                                             |
|      You enforced a specific xc-type in the INCAR file,                     |
|      a different type was found on the POTCAR file                          |
|          I HOPE YOU KNOW, WHAT YOU ARE  DOING                               |
|                                                                             |
 ----------------------------------------------------------------------------- 

  PAW_PBE Pd 04Jan2005                  :
 energy of atom  1       EATOM= -809.7530
 kinetic energy error for atom=    0.0091 (will be added to EATOM!!)
  PAW_PBE C 08Apr2002                   :
 energy of atom  2       EATOM= -147.1560
 kinetic energy error for atom=    0.0288 (will be added to EATOM!!)
  PAW_PBE O 08Apr2002                   :
 energy of atom  3       EATOM= -432.3788
 kinetic energy error for atom=    0.1156 (will be added to EATOM!!)
 
 
 POSCAR: Pd55PES                                 
  positions in cartesian coordinates
  No initial velocities read in
 exchange correlation table for  LEXCH =        9
   RHO(1)=    0.500       N(1)  =     2000
   RHO(2)=  100.500       N(2)  =     4000
 


--------------------------------------------------------------------------------------------------------


 ion  position               nearest neighbor table
   1  0.446  0.328  0.417-   3 3.25   5 3.25   7 3.36  15 3.36  29 3.42  28 3.42
   2  0.672  0.554  0.417-  26 3.25  30 3.25  17 3.36   9 3.36  47 3.42  49 3.42
   3  0.554  0.328  0.417-   1 3.25   5 3.25   7 3.36  11 3.36  29 3.42  21 3.42
   4  0.328  0.554  0.417-  32 3.25  22 3.25  13 3.36   8 3.36  43 3.42  48 3.42
   5  0.500  0.383  0.340-   1 3.25   3 3.25  11 3.36  15 3.36  21 3.42  28 3.42
   6  0.500  0.383  0.660-  56 2.68  24 3.25  19 3.25  16 3.36  12 3.36  44 3.42  42 3.42
   7  0.500  0.276  0.500-  29 3.24   3 3.36   1 3.36  19 3.36  24 3.36
   8  0.276  0.500  0.500-  48 3.24  22 3.36  40 3.36   4 3.36  25 3.36
   9  0.724  0.500  0.500-  49 3.24  26 3.36  45 3.36   2 3.36  20 3.36
  10  0.500  0.724  0.500-  55 3.24  27 3.36  23 3.36  46 3.36  41 3.36
  11  0.612  0.388  0.342-  21 3.24   5 3.36   3 3.36  30 3.36  26 3.36
  12  0.612  0.388  0.658-  42 3.24  24 3.36  45 3.36   6 3.36  31 3.36
  13  0.388  0.612  0.342-  43 3.24  32 3.36  50 3.36   4 3.36  27 3.36
  14  0.388  0.612  0.658-  53 3.24  25 3.36  33 3.36  51 3.36  46 3.36
  15  0.388  0.388  0.342-  28 3.24   5 3.36   1 3.36  32 3.36  22 3.36
  16  0.388  0.388  0.658-  44 3.24  19 3.36  40 3.36   6 3.36  33 3.36
  17  0.612  0.612  0.342-  47 3.24  30 3.36  50 3.36   2 3.36  23 3.36
  18  0.612  0.612  0.658-  54 3.24  31 3.36  20 3.36  51 3.36  41 3.36
  19  0.446  0.328  0.583-   6 3.25  24 3.25  16 3.36   7 3.36  44 3.42  29 3.42
  20  0.672  0.554  0.583-  31 3.25  45 3.25  18 3.36   9 3.36  54 3.42  49 3.42
  21  0.558  0.442  0.418-  11 3.24   5 3.42   3 3.42  30 3.42  26 3.42
  22  0.328  0.446  0.417-   4 3.25  32 3.25   8 3.36  15 3.36  48 3.42  28 3.42
  23  0.554  0.672  0.417-  27 3.25  50 3.25  10 3.36  17 3.36  55 3.42  47 3.42
  24  0.554  0.328  0.583-   6 3.25  19 3.25  12 3.36   7 3.36  42 3.42  29 3.42
  25  0.328  0.554  0.583-  33 3.25  40 3.25  14 3.36   8 3.36  53 3.42  48 3.42
  26  0.672  0.446  0.417-   2 3.25  30 3.25   9 3.36  11 3.36  49 3.42  21 3.42
  27  0.446  0.672  0.417-  23 3.25  50 3.25  10 3.36  13 3.36  55 3.42  43 3.42
  28  0.442  0.442  0.418-  15 3.24   5 3.42   1 3.42  32 3.42  22 3.42
  29  0.500  0.384  0.500-   7 3.24   3 3.42   1 3.42  24 3.42  19 3.42
  30  0.617  0.500  0.340-   2 3.25  26 3.25  17 3.36  11 3.36  47 3.42  21 3.42
  31  0.617  0.500  0.660-  20 3.25  45 3.25  18 3.36  12 3.36  54 3.42  42 3.42
  32  0.383  0.500  0.340-   4 3.25  22 3.25  13 3.36  15 3.36  43 3.42  28 3.42
  33  0.383  0.500  0.660-  25 3.25  40 3.25  14 3.36  16 3.36  53 3.42  44 3.42
  34  0.383  0.383  0.500-
  35  0.617  0.617  0.500-
  36  0.617  0.383  0.500-
  37  0.383  0.617  0.500-
  38  0.500  0.500  0.335-
  39  0.500  0.500  0.665-  56 1.88
  40  0.328  0.446  0.583-  33 3.25  25 3.25  16 3.36   8 3.36  44 3.42  48 3.42
  41  0.554  0.672  0.583-  46 3.25  51 3.25  10 3.36  18 3.36  54 3.42  55 3.42
  42  0.558  0.442  0.582-  12 3.24   6 3.42  24 3.42  31 3.42  45 3.42
  43  0.442  0.558  0.418-  13 3.24   4 3.42  32 3.42  27 3.42  50 3.42
  44  0.442  0.442  0.582-  16 3.24   6 3.42  19 3.42  33 3.42  40 3.42
  45  0.672  0.446  0.583-  20 3.25  31 3.25   9 3.36  12 3.36  49 3.42  42 3.42
  46  0.446  0.672  0.583-  41 3.25  51 3.25  10 3.36  14 3.36  53 3.42  55 3.42
  47  0.558  0.558  0.418-  17 3.24   2 3.42  30 3.42  23 3.42  50 3.42
  48  0.384  0.500  0.500-   8 3.24   4 3.42  22 3.42  25 3.42  40 3.42
  49  0.616  0.500  0.500-   9 3.24   2 3.42  26 3.42  20 3.42  45 3.42
  50  0.500  0.617  0.340-  27 3.25  23 3.25  13 3.36  17 3.36  43 3.42  47 3.42
  51  0.500  0.617  0.660-  41 3.25  46 3.25  14 3.36  18 3.36  53 3.42  54 3.42
  52  0.500  0.500  0.500-
  53  0.442  0.558  0.582-  14 3.24  25 3.42  33 3.42  51 3.42  46 3.42
  54  0.558  0.558  0.582-  18 3.24  31 3.42  20 3.42  51 3.42  41 3.42
  55  0.500  0.616  0.500-  10 3.24  23 3.42  27 3.42  41 3.42  46 3.42
  56  0.536  0.457  0.694-  57 1.13  39 1.88   6 2.68
  57  0.543  0.449  0.730-  56 1.13
 
  LATTYP: Found a simple cubic cell.
 ALAT       =    30.0000000000
  
  Lattice vectors:
  
 A1 = (  30.0000000000,   0.0000000000,   0.0000000000)
 A2 = (   0.0000000000,  30.0000000000,   0.0000000000)
 A3 = (   0.0000000000,   0.0000000000,  30.0000000000)


Analysis of symmetry for initial positions (statically):
=====================================================================
 Subroutine PRICEL returns:
 Original cell was already a primitive cell.
 

 Routine SETGRP: Setting up the symmetry group for a 
 simple cubic supercell.


 Subroutine GETGRP returns: Found  1 space group operations
 (whereof  1 operations were pure point group operations)
 out of a pool of 48 trial point group operations.


The static configuration has the point symmetry C_1 .


Analysis of symmetry for dynamics (positions and initial velocities):
=====================================================================
 Subroutine PRICEL returns:
 Original cell was already a primitive cell.
 

 Routine SETGRP: Setting up the symmetry group for a 
 simple cubic supercell.


 Subroutine GETGRP returns: Found  1 space group operations
 (whereof  1 operations were pure point group operations)
 out of a pool of 48 trial point group operations.


The dynamic configuration has the point symmetry C_1 .


Analysis of constrained symmetry for selective dynamics:
=====================================================================
 Subroutine PRICEL returns:
 Original cell was already a primitive cell.
 

 Routine SETGRP: Setting up the symmetry group for a 
 simple cubic supercell.


 Subroutine GETGRP returns: Found  1 space group operations
 (whereof  1 operations were pure point group operations)
 out of a pool of 48 trial point group operations.


The constrained configuration has the point symmetry C_1 .


 Subroutine INISYM returns: Found  1 space group operations
 (whereof  1 operations are pure point group operations),
 and found     1 'primitive' translations

 
 
 KPOINTS: K-points                                

Automatic generation of k-mesh.
Space group operators:
 irot       det(A)        alpha          n_x          n_y          n_z        tau_x        tau_y        tau_z
    1     1.000000     0.000000     1.000000     0.000000     0.000000     0.000000     0.000000     0.000000
 
 Subroutine IBZKPT returns following result:
 ===========================================
 
 Found      1 irreducible k-points:
 
 Following reciprocal coordinates:
            Coordinates               Weight
  0.000000  0.000000  0.000000      1.000000
 
 Following cartesian coordinates:
            Coordinates               Weight
  0.000000  0.000000  0.000000      1.000000
 


--------------------------------------------------------------------------------------------------------




 Dimension of arrays:
   k-points           NKPTS =      1   k-points in BZ     NKDIM =      1   number of bands    NBANDS=    336
   number of dos      NEDOS =    301   number of ions     NIONS =     57
   non local maximal  LDIM  =      6   non local SUM 2l+1 LMDIM =     18
   total plane-waves  NPLWV = ******
   max r-space proj   IRMAX =   1847   max aug-charges    IRDMAX=   6262
   dimension x,y,z NGX =   150 NGY =  150 NGZ =  150
   dimension x,y,z NGXF=   300 NGYF=  300 NGZF=  300
   support grid    NGXF=   300 NGYF=  300 NGZF=  300
   ions per type =              55   1   1
   NGX,Y,Z   is equivalent  to a cutoff of   8.31,  8.31,  8.31 a.u.
   NGXF,Y,Z  is equivalent  to a cutoff of  16.62, 16.62, 16.62 a.u.

 SYSTEM =  6_Pd100_top_free_z(O)                   
 POSCAR =  Pd55PES                                 

 Startparameter for this run:
   NWRITE =      2    write-flag & timer
   PREC   = normal    normal or accurate (medium, high low for compatibility)
   ISTART =      0    job   : 0-new  1-cont  2-samecut
   ICHARG =      2    charge: 1-file 2-atom 10-const
   ISPIN  =      1    spin polarized calculation?
   LNONCOLLINEAR =      F non collinear calculations
   LSORBIT =      F    spin-orbit coupling
   INIWAV =      1    electr: 0-lowe 1-rand  2-diag
   LASPH  =      F    aspherical Exc in radial PAW
   METAGGA=      F    non-selfconsistent MetaGGA calc.

 Electronic Relaxation 1
   ENCUT  =  400.0 eV  29.40 Ry    5.42 a.u.  48.92 48.92 48.92*2*pi/ulx,y,z
   ENINI  =  400.0     initial cutoff
   ENAUG  =  644.9 eV  augmentation charge cutoff
   NELM   =    100;   NELMIN=  6; NELMDL= -5     # of ELM steps 
   EDIFF  = 0.1E-03   stopping-criterion for ELM
   LREAL  =      T    real-space projection
   NLSPLINE    = F    spline interpolate recip. space projectors
   LCOMPAT=      F    compatible to vasp.4.4
   GGA_COMPAT  = T    GGA compatible to vasp.4.4-vasp.4.6
   LMAXPAW     = -100 max onsite density
   LMAXMIX     =    2 max onsite mixed and CHGCAR
   VOSKOWN=      0    Vosko Wilk Nusair interpolation
   ROPT   =   -0.00050  -0.00050  -0.00050
 Ionic relaxation
   EDIFFG = -.5E-01   stopping-criterion for IOM
   NSW    =      0    number of steps for IOM
   NBLOCK =      1;   KBLOCK =      1    inner block; outer block 
   IBRION =     -1    ionic relax: 0-MD 1-quasi-New 2-CG
   NFREE  =      1    steps in history (QN), initial steepest desc. (CG)
   ISIF   =      2    stress and relaxation
   IWAVPR =     10    prediction:  0-non 1-charg 2-wave 3-comb
   ISYM   =      2    0-nonsym 1-usesym 2-fastsym
   LCORR  =      T    Harris-Foulkes like correction to forces

   POTIM  = 0.5000    time-step for ionic-motion
   TEIN   =    0.0    initial temperature
   TEBEG  =    0.0;   TEEND  =   0.0 temperature during run
   SMASS  =  -3.00    Nose mass-parameter (am)
   estimated Nose-frequenzy (Omega)   =  0.10E-29 period in steps =****** mass=  -0.206E-25a.u.
   SCALEE = 1.0000    scale energy and forces
   NPACO  =    256;   APACO  = 16.0  distance and # of slots for P.C.
   PSTRESS=    0.0 pullay stress

  Mass of Ions in am
   POMASS = 106.42 12.01 16.00
  Ionic Valenz
   ZVAL   =  10.00  4.00  6.00
  Atomic Wigner-Seitz radii
   RWIGS  =  -1.00 -1.00 -1.00
  virtual crystal weights 
   VCA    =   1.00  1.00  1.00
   NELECT =     560.0000    total number of electrons
   NUPDOWN=      -1.0000    fix difference up-down

 DOS related values:
   EMIN   =  10.00;   EMAX   =-10.00  energy-range for DOS
   EFERMI =   0.00
   ISMEAR =     2;   SIGMA  =   0.20  broadening in eV -4-tet -1-fermi 0-gaus

 Electronic relaxation 2 (details)
   IALGO  =     68    algorithm
   LDIAG  =      T    sub-space diagonalisation (order eigenvalues)
   LSUBROT=      F    optimize rotation matrix (better conditioning)
   TURBO    =      0    0=normal 1=particle mesh
   IRESTART =      0    0=no restart 2=restart with 2 vectors
   NREBOOT  =      0    no. of reboots
   NMIN     =      0    reboot dimension
   EREF     =   0.00    reference energy to select bands
   IMIX   =      4    mixing-type and parameters
     AMIX     =   0.40;   BMIX     =  1.00
     AMIX_MAG =   1.60;   BMIX_MAG =  1.00
     AMIN     =   0.10
     WC   =   100.;   INIMIX=   1;  MIXPRE=   1;  MAXMIX= -45

 Intra band minimization:
   WEIMIN = 0.0000     energy-eigenvalue tresh-hold
   EBREAK =  0.74E-07  absolut break condition
   DEPER  =   0.30     relativ break condition  

   TIME   =   0.40     timestep for ELM

  volume/ion in A,a.u.               =     473.68      3196.58
  Fermi-wavevector in a.u.,A,eV,Ry     =   0.449797  0.849992  2.752691  0.202317
  Thomas-Fermi vector in A             =   1.430086
 
 Write flags
   LWAVE        =      F    write WAVECAR
   LDOWNSAMPLE  =      F    k-point downsampling of WAVECAR
   LCHARG       =      F    write CHGCAR
   LVTOT        =      F    write LOCPOT, total local potential
   LVHAR        =      F    write LOCPOT, Hartree potential only
   LELF         =      F    write electronic localiz. function (ELF)
   LORBIT       =      0    0 simple, 1 ext, 2 COOP (PROOUT), +10 PAW based schemes


 Dipole corrections
   LMONO  =      F    monopole corrections only (constant potential shift)
   LDIPOL =      F    correct potential (dipole corrections)
   IDIPOL =      0    1-x, 2-y, 3-z, 4-all directions 
   EPSILON=  1.0000000 bulk dielectric constant

 Exchange correlation treatment:
   GGA     =    RP    GGA type
   LEXCH   =     9    internal setting for exchange type
   VOSKOWN=      0    Vosko Wilk Nusair interpolation
   LHFCALC =     F    Hartree Fock is set to
   LHFONE  =     F    Hartree Fock one center treatment
   AEXX    =    0.0000 exact exchange contribution

 Linear response parameters
   LEPSILON=     F    determine dielectric tensor
   LRPA    =     F    only Hartree local field effects (RPA)
   LNABLA  =     F    use nabla operator in PAW spheres
   LVEL    =     F    velocity operator in full k-point grid
   LINTERFAST=   F  fast interpolation
   KINTER  =     0    interpolate to denser k-point grid
   CSHIFT  =0.1000    complex shift for real part using Kramers Kronig
   OMEGAMAX=  -1.0    maximum frequency
   DEG_THRESHOLD= 0.2000000E-02 threshold for treating states as degnerate
   RTIME   =   -0.100 relaxation time in fs
  (WPLASMAI=    0.000 imaginary part of plasma frequency in eV, 0.658/RTIME)
   DFIELD  = 0.0000000 0.0000000 0.0000000 field for delta impulse in time
 
 Orbital magnetization related:
   ORBITALMAG=     F  switch on orbital magnetization
   LCHIMAG   =     F  perturbation theory with respect to B field
   DQ        =  0.001000  dq finite difference perturbation B field
   LLRAUG    =     F  two centre corrections for induced B field



--------------------------------------------------------------------------------------------------------


 Static calculation
 charge density and potential will be updated during run
 non-spin polarized calculation
 RMM-DIIS sequential band-by-band and
  variant of blocked Davidson during initial phase
 perform sub-space diagonalisation
    before iterative eigenvector-optimisation
 modified Broyden-mixing scheme, WC =      100.0
 initial mixing is a Kerker type mixing with AMIX =  0.4000 and BMIX =      1.0000
 Hartree-type preconditioning will be used
 using additional bands           56
 real space projection scheme for non local part
 use partial core corrections
 calculate Harris-corrections to forces 
   (improved forces if not selfconsistent)
 use gradient corrections 
 use of overlap-Matrix (Vanderbilt PP)
 Methfessel and Paxton  Order N= 2 SIGMA  =   0.20


--------------------------------------------------------------------------------------------------------


  energy-cutoff  :      400.00
  volume of cell :    27000.00
      direct lattice vectors                 reciprocal lattice vectors
    30.000000000  0.000000000  0.000000000     0.033333333  0.000000000  0.000000000
     0.000000000 30.000000000  0.000000000     0.000000000  0.033333333  0.000000000
     0.000000000  0.000000000 30.000000000     0.000000000  0.000000000  0.033333333

  length of vectors
    30.000000000 30.000000000 30.000000000     0.033333333  0.033333333  0.033333333


 
 k-points in units of 2pi/SCALE and weight: K-points                                
   0.00000000  0.00000000  0.00000000       1.000
 
 k-points in reciprocal lattice and weights: K-points                                
   0.00000000  0.00000000  0.00000000       1.000
 
 position of ions in fractional coordinates (direct lattice) 
   0.44576020  0.32826710  0.41691983
   0.67173288  0.55423978  0.41691983
   0.55423980  0.32826710  0.41691983
   0.32826712  0.55423978  0.41691983
   0.50000000  0.38250690  0.34021317
   0.50000000  0.38250690  0.65978680
   0.50000000  0.27609440  0.50000000
   0.27609443  0.49999998  0.50000000
   0.72390557  0.49999998  0.50000000
   0.50000000  0.72390555  0.50000000
   0.61195280  0.38804720  0.34167483
   0.61195280  0.38804720  0.65832513
   0.38804722  0.61195278  0.34167483
   0.38804722  0.61195278  0.65832513
   0.38804720  0.38804720  0.34167483
   0.38804720  0.38804720  0.65832513
   0.61195278  0.61195278  0.34167483
   0.61195278  0.61195278  0.65832513
   0.44576020  0.32826710  0.58308023
   0.67173288  0.55423978  0.58308023
   0.55791699  0.44208301  0.41809300
   0.32826705  0.44576024  0.41691983
   0.55423973  0.67173293  0.41691983
   0.55423980  0.32826710  0.58308023
   0.32826712  0.55423978  0.58308023
   0.67173295  0.44576024  0.41691983
   0.44576027  0.67173293  0.41691983
   0.44208301  0.44208301  0.41809300
   0.50000000  0.38416601  0.50000000
   0.61749315  0.50000005  0.34021317
   0.61749315  0.50000005  0.65978680
   0.38250685  0.50000005  0.34021317
   0.38250685  0.50000005  0.65978680
   0.38317830  0.38317830  0.50000000
   0.61682172  0.61682172  0.50000000
   0.61682170  0.38317830  0.50000000
   0.38317828  0.61682172  0.50000000
   0.50000000  0.50000000  0.33478917
   0.50000000  0.50000000  0.66521087
   0.32826705  0.44576024  0.58308023
   0.55423973  0.67173293  0.58308023
   0.55791699  0.44208301  0.58190703
   0.44208298  0.55791702  0.41809300
   0.44208301  0.44208301  0.58190703
   0.67173295  0.44576024  0.58308023
   0.44576027  0.67173293  0.58308023
   0.55791702  0.55791702  0.41809300
   0.38416599  0.50000002  0.50000000
   0.61583401  0.50000002  0.50000000
   0.50000000  0.61749319  0.34021317
   0.50000000  0.61749319  0.65978680
   0.50000000  0.50000000  0.50000000
   0.44208298  0.55791702  0.58190703
   0.55791702  0.55791702  0.58190703
   0.50000000  0.61583404  0.50000000
   0.53584537  0.45691980  0.69359820
   0.54253257  0.44888287  0.72971537
 
 position of ions in cartesian coordinates  (Angst):
  13.37280588  9.84801292 12.50759500
  20.15198637 16.62719342 12.50759500
  16.62719412  9.84801292 12.50759500
   9.84801363 16.62719342 12.50759500
  15.00000000 11.47520705 10.20639500
  15.00000000 11.47520705 19.79360400
  15.00000000  8.28283206 15.00000000
   8.28283277 14.99999929 15.00000000
  21.71716723 14.99999929 15.00000000
  15.00000000 21.71716652 14.99999999
  18.35858397 11.64141603 10.25024500
  18.35858397 11.64141603 19.74975399
  11.64141674 18.35858326 10.25024500
  11.64141674 18.35858326 19.74975400
  11.64141603 11.64141603 10.25024500
  11.64141603 11.64141603 19.74975400
  18.35858326 18.35858326 10.25024500
  18.35858326 18.35858326 19.74975400
  13.37280588  9.84801291 17.49240700
  20.15198638 16.62719341 17.49240700
  16.73750985 13.26249015 12.54279000
   9.84801151 13.37280729 12.50759500
  16.62719200 20.15198779 12.50759500
  16.62719412  9.84801292 17.49240700
   9.84801363 16.62719342 17.49240700
  20.15198849 13.37280729 12.50759500
  13.37280800 20.15198779 12.50759500
  13.26249015 13.26249015 12.54279000
  15.00000000 11.52498029 15.00000000
  18.52479437 15.00000140 10.20639500
  18.52479437 15.00000141 19.79360400
  11.47520562 15.00000141 10.20639501
  11.47520563 15.00000141 19.79360400
  11.49534898 11.49534898 15.00000000
  18.50465172 18.50465172 15.00000000
  18.50465102 11.49534898 15.00000000
  11.49534828 18.50465172 15.00000000
  15.00000000 15.00000000 10.04367500
  15.00000000 15.00000000 19.95632599
   9.84801151 13.37280729 17.49240700
  16.62719200 20.15198779 17.49240700
  16.73750985 13.26249015 17.45721100
  13.26248944 16.73751056 12.54279001
  13.26249015 13.26249015 17.45721100
  20.15198849 13.37280729 17.49240699
  13.37280800 20.15198779 17.49240700
  16.73751056 16.73751056 12.54279000
  11.52497959 15.00000071 15.00000000
  18.47502041 15.00000071 15.00000000
  14.99999999 18.52479579 10.20639500
  15.00000000 18.52479578 19.79360400
  15.00000000 15.00000000 15.00000000
  13.26248944 16.73751057 17.45721101
  16.73751056 16.73751057 17.45721100
  15.00000000 18.47502112 15.00000000
  16.07536100 13.70759400 20.80794600
  16.27597700 13.46648600 21.89146100
 


--------------------------------------------------------------------------------------------------------


 k-point  1 :   0.0000 0.0000 0.0000  plane waves:  490521

 maximum and minimum number of plane-waves per node :    490521   490521

 maximum number of plane-waves:    490521
 maximum index in each direction: 
   IXMAX=   48   IYMAX=   48   IZMAX=   48
   IXMIN=  -48   IYMIN=  -48   IZMIN=  -48


 serial   3D FFT for wavefunctions
 parallel 3D FFT for charge:
    minimum data exchange during FFTs selected (reduces bandwidth)


 total amount of memory used by VASP MPI-rank0  5486941. kBytes
=======================================================================

   base      :      30000. kBytes
   nonlr-proj:      17126. kBytes
   fftplans  :     924480. kBytes
   grid      :    1872000. kBytes
   one-center:        886. kBytes
   wavefun   :    2642449. kBytes
 
     INWAV:  cpu time    0.0001: real time    0.0004
 Broyden mixing: mesh for mixing (old mesh)
   NGX = 97   NGY = 97   NGZ = 97
  (NGX  =300   NGY  =300   NGZ  =300)
  gives a total of 912673 points

 initial charge density was supplied:
 charge density of overlapping atoms calculated
 number of electron     560.0000000 magnetization 
 keeping initial charge density in first step


--------------------------------------------------------------------------------------------------------


 Maximum index for non-local projection operator         1763
 Maximum index for augmentation-charges         5898 (set IRDMAX)


--------------------------------------------------------------------------------------------------------


 First call to EWALD:  gamma=   0.059
 Maximum number of real-space cells 3x 3x 3
 Maximum number of reciprocal cells 3x 3x 3

    FEWALD:  cpu time    0.0146: real time    0.0146


--------------------------------------- Iteration      1(   1)  ---------------------------------------


    POTLOK:  cpu time   13.7068: real time   13.7118
    SETDIJ:  cpu time    0.1167: real time    0.1168
     EDDAV:  cpu time  345.3904: real time  345.4786
       DOS:  cpu time    0.0013: real time    0.0013
    --------------------------------------------
      LOOP:  cpu time  359.2152: real time  359.3085

 eigenvalue-minimisations  :   688
 total energy-change (2. order) : 0.4396637E+04  (-0.1004923E+05)
 number of electron     560.0000000 magnetization 
 augmentation part      560.0000000 magnetization 

 Free energy of the ion-electron system (eV)
  ---------------------------------------------------
  alpha Z        PSCENC =        75.25431677
  Ewald energy   TEWEN  =    139595.45055393
  -Hartree energ DENC   =   -182952.30992311
  -exchange      EXHF   =         0.00000000
  -V(xc)+E(xc)   XCENC  =     -1702.44033985
  PAW double counting   =     44873.02882129   -41398.84523641
  entropy T*S    EENTRO =         0.00913139
  eigenvalues    EBANDS =       819.98458441
  atomic energy  EATOM  =     45086.50549395
  Solvation  Ediel_sol  =         0.00000000
  ---------------------------------------------------
  free energy    TOTEN  =      4396.63740237 eV

  energy without entropy =     4396.62827097  energy(sigma->0) =     4396.63511952


--------------------------------------------------------------------------------------------------------




--------------------------------------- Iteration      1(   2)  ---------------------------------------


     EDDAV:  cpu time  537.3576: real time  537.4180
       DOS:  cpu time    0.0012: real time    0.0012
    --------------------------------------------
      LOOP:  cpu time  537.3588: real time  537.4192

 eigenvalue-minimisations  :  1208
 total energy-change (2. order) :-0.2365273E+04  (-0.2125198E+04)
 number of electron     560.0000000 magnetization 
 augmentation part      560.0000000 magnetization 

 Free energy of the ion-electron system (eV)
  ---------------------------------------------------
  alpha Z        PSCENC =        75.25431677
  Ewald energy   TEWEN  =    139595.45055393
  -Hartree energ DENC   =   -182952.30992311
  -exchange      EXHF   =         0.00000000
  -V(xc)+E(xc)   XCENC  =     -1702.44033985
  PAW double counting   =     44873.02882129   -41398.84523641
  entropy T*S    EENTRO =        -0.01297404
  eigenvalues    EBANDS =     -1545.26627743
  atomic energy  EATOM  =     45086.50549395
  Solvation  Ediel_sol  =         0.00000000
  ---------------------------------------------------
  free energy    TOTEN  =      2031.36443509 eV

  energy without entropy =     2031.37740913  energy(sigma->0) =     2031.36767860


--------------------------------------------------------------------------------------------------------




--------------------------------------- Iteration      1(   3)  ---------------------------------------


     EDDAV:  cpu time  461.4770: real time  461.5009
       DOS:  cpu time    0.0010: real time    0.0010
    --------------------------------------------
      LOOP:  cpu time  461.4780: real time  461.5020

 eigenvalue-minimisations  :  1000
 total energy-change (2. order) :-0.1787603E+04  (-0.1679191E+04)
 number of electron     560.0000000 magnetization 
 augmentation part      560.0000000 magnetization 

 Free energy of the ion-electron system (eV)
  ---------------------------------------------------
  alpha Z        PSCENC =        75.25431677
  Ewald energy   TEWEN  =    139595.45055393
  -Hartree energ DENC   =   -182952.30992311
  -exchange      EXHF   =         0.00000000
  -V(xc)+E(xc)   XCENC  =     -1702.44033985
  PAW double counting   =     44873.02882129   -41398.84523641
  entropy T*S    EENTRO =         0.01381321
  eigenvalues    EBANDS =     -3332.89644079
  atomic energy  EATOM  =     45086.50549395
  Solvation  Ediel_sol  =         0.00000000
  ---------------------------------------------------
  free energy    TOTEN  =       243.76105898 eV

  energy without entropy =      243.74724578  energy(sigma->0) =      243.75760568


--------------------------------------------------------------------------------------------------------




--------------------------------------- Iteration      1(   4)  ---------------------------------------


     EDDAV:  cpu time  399.4256: real time  399.4298
       DOS:  cpu time    0.0011: real time    0.0011
    --------------------------------------------
      LOOP:  cpu time  399.4267: real time  399.4309

 eigenvalue-minimisations  :   832
 total energy-change (2. order) :-0.3772005E+03  (-0.3212725E+03)
 number of electron     560.0000000 magnetization 
 augmentation part      560.0000000 magnetization 

 Free energy of the ion-electron system (eV)
  ---------------------------------------------------
  alpha Z        PSCENC =        75.25431677
  Ewald energy   TEWEN  =    139595.45055393
  -Hartree energ DENC   =   -182952.30992311
  -exchange      EXHF   =         0.00000000
  -V(xc)+E(xc)   XCENC  =     -1702.44033985
  PAW double counting   =     44873.02882129   -41398.84523641
  entropy T*S    EENTRO =        -0.00451215
  eigenvalues    EBANDS =     -3710.07863643
  atomic energy  EATOM  =     45086.50549395
  Solvation  Ediel_sol  =         0.00000000
  ---------------------------------------------------
  free energy    TOTEN  =      -133.43946202 eV

  energy without entropy =     -133.43494986  energy(sigma->0) =     -133.43833398


--------------------------------------------------------------------------------------------------------




--------------------------------------- Iteration      1(   5)  ---------------------------------------


     EDDAV:  cpu time  487.1033: real time  487.1073
       DOS:  cpu time    0.0014: real time    0.0014
    CHARGE:  cpu time   24.2886: real time   24.2884
    MIXING:  cpu time    0.4286: real time    0.4286
    --------------------------------------------
      LOOP:  cpu time  511.8219: real time  511.8258

 eigenvalue-minimisations  :  1064
 total energy-change (2. order) :-0.4657152E+02  (-0.3872769E+02)
 number of electron     559.9999875 magnetization 
 augmentation part      245.0340244 magnetization 

 Broyden mixing:
  rms(total) = 0.15923E+01    rms(broyden)= 0.15916E+01
  rms(prec ) = 0.16956E+01
  weight for this iteration     100.00

 Free energy of the ion-electron system (eV)
  ---------------------------------------------------
  alpha Z        PSCENC =        75.25431677
  Ewald energy   TEWEN  =    139595.45055393
  -Hartree energ DENC   =   -182952.30992311
  -exchange      EXHF   =         0.00000000
  -V(xc)+E(xc)   XCENC  =     -1702.44033985
  PAW double counting   =     44873.02882129   -41398.84523641
  entropy T*S    EENTRO =         0.49678581
  eigenvalues    EBANDS =     -3757.15145047
  atomic energy  EATOM  =     45086.50549395
  Solvation  Ediel_sol  =         0.00000000
  ---------------------------------------------------
  free energy    TOTEN  =      -180.01097809 eV

  energy without entropy =     -180.50776390  energy(sigma->0) =     -180.13517454


--------------------------------------------------------------------------------------------------------




--------------------------------------- Iteration      1(   6)  ---------------------------------------


    POTLOK:  cpu time   12.5612: real time   12.5635
    SETDIJ:  cpu time    0.1197: real time    0.1197
    EDDIAG:  cpu time   66.1790: real time   66.1848
  RMM-DIIS:  cpu time  178.8885: real time  178.8895
    ORTHCH:  cpu time   12.9696: real time   12.9695
       DOS:  cpu time    0.0015: real time    0.0015
    CHARGE:  cpu time   24.1936: real time   24.1934
    MIXING:  cpu time    0.4477: real time    0.4477
    --------------------------------------------
      LOOP:  cpu time  295.3607: real time  295.3695

 eigenvalue-minimisations  :   728
 total energy-change (2. order) :-0.1406954E+00  (-0.6217957E+01)
 number of electron     559.9999896 magnetization 
 augmentation part      240.5115035 magnetization 

 Broyden mixing:
  rms(total) = 0.21431E+01    rms(broyden)= 0.21428E+01
  rms(prec ) = 0.24793E+01
  weight for this iteration     100.00

 eigenvalues of (default mixing * dielectric matrix)
  average eigenvalue GAMMA=   0.3795
  0.3795

 Free energy of the ion-electron system (eV)
  ---------------------------------------------------
  alpha Z        PSCENC =        75.25431677
  Ewald energy   TEWEN  =    139595.45055393
  -Hartree energ DENC   =   -183351.64460458
  -exchange      EXHF   =         0.00000000
  -V(xc)+E(xc)   XCENC  =     -1696.06517320
  PAW double counting   =     45652.04481375   -42151.49955485
  entropy T*S    EENTRO =        -0.23309755
  eigenvalues    EBANDS =     -3389.96442174
  atomic energy  EATOM  =     45086.50549395
  Solvation  Ediel_sol  =         0.00000000
  ---------------------------------------------------
  free energy    TOTEN  =      -180.15167353 eV

  energy without entropy =     -179.91857598  energy(sigma->0) =     -180.09339914


--------------------------------------------------------------------------------------------------------




--------------------------------------- Iteration      1(   7)  ---------------------------------------


    POTLOK:  cpu time   12.6098: real time   12.6126
    SETDIJ:  cpu time    0.1159: real time    0.1159
    EDDIAG:  cpu time   66.6692: real time   66.6690
  RMM-DIIS:  cpu time  205.5574: real time  205.5657
    ORTHCH:  cpu time   12.9743: real time   12.9742
       DOS:  cpu time    0.0014: real time    0.0014
    CHARGE:  cpu time   24.1401: real time   24.1398
    MIXING:  cpu time    0.4769: real time    0.4768
    --------------------------------------------
      LOOP:  cpu time  322.5449: real time  322.5556

 eigenvalue-minimisations  :   840
 total energy-change (2. order) :-0.3355244E+01  (-0.2053593E+01)
 number of electron     559.9999886 magnetization 
 augmentation part      240.3080991 magnetization 

 Broyden mixing:
  rms(total) = 0.27773E+01    rms(broyden)= 0.27771E+01
  rms(prec ) = 0.33953E+01
  weight for this iteration     100.00

 eigenvalues of (default mixing * dielectric matrix)
  average eigenvalue GAMMA=   0.3133
  0.4897  0.1368

 Free energy of the ion-electron system (eV)
  ---------------------------------------------------
  alpha Z        PSCENC =        75.25431677
  Ewald energy   TEWEN  =    139595.45055393
  -Hartree energ DENC   =   -183450.48603156
  -exchange      EXHF   =         0.00000000
  -V(xc)+E(xc)   XCENC  =     -1696.34411405
  PAW double counting   =     45735.15636605   -42231.79943839
  entropy T*S    EENTRO =         0.09844795
  eigenvalues    EBANDS =     -3297.34251241
  atomic energy  EATOM  =     45086.50549395
  Solvation  Ediel_sol  =         0.00000000
  ---------------------------------------------------
  free energy    TOTEN  =      -183.50691776 eV

  energy without entropy =     -183.60536571  energy(sigma->0) =     -183.53152975


--------------------------------------------------------------------------------------------------------




--------------------------------------- Iteration      1(   8)  ---------------------------------------


    POTLOK:  cpu time   12.5090: real time   12.5119
    SETDIJ:  cpu time    0.1175: real time    0.1175
    EDDIAG:  cpu time   65.5052: real time   65.5049
  RMM-DIIS:  cpu time  206.0438: real time  206.0450
    ORTHCH:  cpu time   13.0328: real time   13.0327
       DOS:  cpu time    0.0015: real time    0.0014
    CHARGE:  cpu time   24.1412: real time   24.1410
    MIXING:  cpu time    0.4894: real time    0.4894
    --------------------------------------------
      LOOP:  cpu time  321.8404: real time  321.8437

 eigenvalue-minimisations  :   830
 total energy-change (2. order) :-0.3069807E+00  (-0.7051773E+00)
 number of electron     559.9999866 magnetization 
 augmentation part      240.1977712 magnetization 

 Broyden mixing:
  rms(total) = 0.24954E+01    rms(broyden)= 0.24951E+01
  rms(prec ) = 0.28876E+01
  weight for this iteration     100.00

 eigenvalues of (default mixing * dielectric matrix)
  average eigenvalue GAMMA=   0.3174
  0.6750  0.1386  0.1386

 Free energy of the ion-electron system (eV)
  ---------------------------------------------------
  alpha Z        PSCENC =        75.25431677
  Ewald energy   TEWEN  =    139595.45055393
  -Hartree energ DENC   =   -183485.31291913
  -exchange      EXHF   =         0.00000000
  -V(xc)+E(xc)   XCENC  =     -1696.39293014
  PAW double counting   =     45788.41429057   -42283.25445196
  entropy T*S    EENTRO =        -0.11631740
  eigenvalues    EBANDS =     -3264.36193500
  atomic energy  EATOM  =     45086.50549395
  Solvation  Ediel_sol  =         0.00000000
  ---------------------------------------------------
  free energy    TOTEN  =      -183.81389841 eV

  energy without entropy =     -183.69758101  energy(sigma->0) =     -183.78481906


--------------------------------------------------------------------------------------------------------




--------------------------------------- Iteration      1(   9)  ---------------------------------------


    POTLOK:  cpu time   12.4780: real time   12.4810
    SETDIJ:  cpu time    0.1182: real time    0.1182
    EDDIAG:  cpu time   64.6944: real time   64.6942
  RMM-DIIS:  cpu time  183.0883: real time  183.0879
    ORTHCH:  cpu time   13.2669: real time   13.2668
       DOS:  cpu time    0.0014: real time    0.0013
    CHARGE:  cpu time   24.4709: real time   24.4706
    MIXING:  cpu time    0.5341: real time    0.5341
    --------------------------------------------
      LOOP:  cpu time  298.6521: real time  298.6542

 eigenvalue-minimisations  :   727
 total energy-change (2. order) : 0.9646244E+00  (-0.6403025E+00)
 number of electron     559.9999867 magnetization 
 augmentation part      241.1098908 magnetization 

 Broyden mixing:
  rms(total) = 0.26954E+01    rms(broyden)= 0.26951E+01
  rms(prec ) = 0.31311E+01
  weight for this iteration     100.00

 eigenvalues of (default mixing * dielectric matrix)
  average eigenvalue GAMMA=   0.2968
  0.7715  0.1554  0.1554  0.1049

 Free energy of the ion-electron system (eV)
  ---------------------------------------------------
  alpha Z        PSCENC =        75.25431677
  Ewald energy   TEWEN  =    139595.45055393
  -Hartree energ DENC   =   -183496.73982744
  -exchange      EXHF   =         0.00000000
  -V(xc)+E(xc)   XCENC  =     -1696.36256716
  PAW double counting   =     45862.01516814   -42354.31990174
  entropy T*S    EENTRO =        -0.08606738
  eigenvalues    EBANDS =     -3254.56644304
  atomic energy  EATOM  =     45086.50549395
  Solvation  Ediel_sol  =         0.00000000
  ---------------------------------------------------
  free energy    TOTEN  =      -182.84927397 eV

  energy without entropy =     -182.76320658  energy(sigma->0) =     -182.82775712


--------------------------------------------------------------------------------------------------------




--------------------------------------- Iteration      1(  10)  ---------------------------------------


    POTLOK:  cpu time   12.7087: real time   12.7111
    SETDIJ:  cpu time    0.1168: real time    0.1168
    EDDIAG:  cpu time   66.5654: real time   66.5666
  RMM-DIIS:  cpu time  179.7390: real time  179.7393
    ORTHCH:  cpu time   13.1401: real time   13.1400
       DOS:  cpu time    0.0012: real time    0.0012
    CHARGE:  cpu time   24.6728: real time   24.6727
    MIXING:  cpu time    0.5595: real time    0.5595
    --------------------------------------------
      LOOP:  cpu time  297.5035: real time  297.5072

 eigenvalue-minimisations  :   735
 total energy-change (2. order) : 0.2449841E+01  (-0.3621328E+00)
 number of electron     559.9999880 magnetization 
 augmentation part      241.4799527 magnetization 

 Broyden mixing:
  rms(total) = 0.23084E+01    rms(broyden)= 0.23081E+01
  rms(prec ) = 0.27100E+01
  weight for this iteration     100.00

 eigenvalues of (default mixing * dielectric matrix)
  average eigenvalue GAMMA=   0.2835
  0.8681  0.1705  0.1705  0.1226  0.0860

 Free energy of the ion-electron system (eV)
  ---------------------------------------------------
  alpha Z        PSCENC =        75.25431677
  Ewald energy   TEWEN  =    139595.45055393
  -Hartree energ DENC   =   -183527.81281877
  -exchange      EXHF   =         0.00000000
  -V(xc)+E(xc)   XCENC  =     -1696.24947900
  PAW double counting   =     45910.37935390   -42401.02761207
  entropy T*S    EENTRO =        -0.10285673
  eigenvalues    EBANDS =     -3222.79638535
  atomic energy  EATOM  =     45086.50549395
  Solvation  Ediel_sol  =         0.00000000
  ---------------------------------------------------
  free energy    TOTEN  =      -180.39943338 eV

  energy without entropy =     -180.29657664  energy(sigma->0) =     -180.37371919


--------------------------------------------------------------------------------------------------------




--------------------------------------- Iteration      1(  11)  ---------------------------------------


    POTLOK:  cpu time   12.7604: real time   12.7655
    SETDIJ:  cpu time    0.1184: real time    0.1184
    EDDIAG:  cpu time   66.2829: real time   66.2832
  RMM-DIIS:  cpu time  183.0873: real time  183.0892
    ORTHCH:  cpu time   13.1133: real time   13.1132
       DOS:  cpu time    0.0015: real time    0.0015
    CHARGE:  cpu time   24.6067: real time   24.6066
    MIXING:  cpu time    0.6130: real time    0.6130
    --------------------------------------------
      LOOP:  cpu time  300.5836: real time  300.5906

 eigenvalue-minimisations  :   732
 total energy-change (2. order) : 0.1272088E+01  (-0.2496631E+00)
 number of electron     559.9999873 magnetization 
 augmentation part      241.5249187 magnetization 

 Broyden mixing:
  rms(total) = 0.21981E+01    rms(broyden)= 0.21978E+01
  rms(prec ) = 0.26348E+01
  weight for this iteration     100.00

 eigenvalues of (default mixing * dielectric matrix)
  average eigenvalue GAMMA=   0.2657
  0.9284  0.1744  0.1744  0.1597  0.0788  0.0788

 Free energy of the ion-electron system (eV)
  ---------------------------------------------------
  alpha Z        PSCENC =        75.25431677
  Ewald energy   TEWEN  =    139595.45055393
  -Hartree energ DENC   =   -183551.48467088
  -exchange      EXHF   =         0.00000000
  -V(xc)+E(xc)   XCENC  =     -1696.05007689
  PAW double counting   =     45954.27724900   -42443.28885269
  entropy T*S    EENTRO =         0.02966846
  eigenvalues    EBANDS =     -3199.82102689
  atomic energy  EATOM  =     45086.50549395
  Solvation  Ediel_sol  =         0.00000000
  ---------------------------------------------------
  free energy    TOTEN  =      -179.12734524 eV

  energy without entropy =     -179.15701370  energy(sigma->0) =     -179.13476236


--------------------------------------------------------------------------------------------------------




--------------------------------------- Iteration      1(  12)  ---------------------------------------


    POTLOK:  cpu time   12.5872: real time   12.5895
    SETDIJ:  cpu time    0.1186: real time    0.1186
    EDDIAG:  cpu time   66.2604: real time   66.2605
  RMM-DIIS:  cpu time  184.0607: real time  184.0615
    ORTHCH:  cpu time   13.1143: real time   13.1142
       DOS:  cpu time    0.0015: real time    0.0015
    CHARGE:  cpu time   24.4694: real time   24.4710
    MIXING:  cpu time    0.6402: real time    0.6402
    --------------------------------------------
      LOOP:  cpu time  301.2523: real time  301.2569

 eigenvalue-minimisations  :   733
 total energy-change (2. order) : 0.1413778E+01  (-0.1541801E+00)
 number of electron     559.9999886 magnetization 
 augmentation part      241.7844756 magnetization 

 Broyden mixing:
  rms(total) = 0.17067E+01    rms(broyden)= 0.17065E+01
  rms(prec ) = 0.19986E+01
  weight for this iteration     100.00

 eigenvalues of (default mixing * dielectric matrix)
  average eigenvalue GAMMA=   0.2611
  0.9974  0.1951  0.1951  0.1885  0.0950  0.0950  0.0614

 Free energy of the ion-electron system (eV)
  ---------------------------------------------------
  alpha Z        PSCENC =        75.25431677
  Ewald energy   TEWEN  =    139595.45055393
  -Hartree energ DENC   =   -183563.95568522
  -exchange      EXHF   =         0.00000000
  -V(xc)+E(xc)   XCENC  =     -1695.87051925
  PAW double counting   =     45983.91422550   -42471.70562091
  entropy T*S    EENTRO =        -0.08407610
  eigenvalues    EBANDS =     -3187.22225614
  atomic energy  EATOM  =     45086.50549395
  Solvation  Ediel_sol  =         0.00000000
  ---------------------------------------------------
  free energy    TOTEN  =      -177.71356747 eV

  energy without entropy =     -177.62949137  energy(sigma->0) =     -177.69254845


--------------------------------------------------------------------------------------------------------




--------------------------------------- Iteration      1(  13)  ---------------------------------------


    POTLOK:  cpu time   12.5917: real time   12.5950
    SETDIJ:  cpu time    0.1197: real time    0.1197
    EDDIAG:  cpu time   66.1771: real time   66.1775
  RMM-DIIS:  cpu time  175.1085: real time  175.1109
    ORTHCH:  cpu time   13.1351: real time   13.1350
       DOS:  cpu time    0.0015: real time    0.0015
    CHARGE:  cpu time   24.4732: real time   24.4730
    MIXING:  cpu time    0.6653: real time    0.6653
    --------------------------------------------
      LOOP:  cpu time  292.2720: real time  292.2779

 eigenvalue-minimisations  :   716
 total energy-change (2. order) : 0.7309475E+00  (-0.1454477E+00)
 number of electron     559.9999871 magnetization 
 augmentation part      241.7582655 magnetization 

 Broyden mixing:
  rms(total) = 0.13439E+01    rms(broyden)= 0.13436E+01
  rms(prec ) = 0.15841E+01
  weight for this iteration     100.00

 eigenvalues of (default mixing * dielectric matrix)
  average eigenvalue GAMMA=   0.2722
  1.1147  0.3071  0.1947  0.1947  0.1078  0.1078  0.0903  0.0603

 Free energy of the ion-electron system (eV)
  ---------------------------------------------------
  alpha Z        PSCENC =        75.25431677
  Ewald energy   TEWEN  =    139595.45055393
  -Hartree energ DENC   =   -183584.98951754
  -exchange      EXHF   =         0.00000000
  -V(xc)+E(xc)   XCENC  =     -1695.60198042
  PAW double counting   =     46020.58117435   -42506.77524079
  entropy T*S    EENTRO =        -0.05449580
  eigenvalues    EBANDS =     -3167.35292441
  atomic energy  EATOM  =     45086.50549395
  Solvation  Ediel_sol  =         0.00000000
  ---------------------------------------------------
  free energy    TOTEN  =      -176.98261998 eV

  energy without entropy =     -176.92812418  energy(sigma->0) =     -176.96899603


--------------------------------------------------------------------------------------------------------




--------------------------------------- Iteration      1(  14)  ---------------------------------------


    POTLOK:  cpu time   12.7480: real time   12.7515
    SETDIJ:  cpu time    0.1188: real time    0.1188
    EDDIAG:  cpu time   65.9633: real time   65.9636
  RMM-DIIS:  cpu time  181.9263: real time  181.9333
    ORTHCH:  cpu time   13.2115: real time   13.2114
       DOS:  cpu time    0.0014: real time    0.0014
    CHARGE:  cpu time   24.5554: real time   24.5553
    MIXING:  cpu time    0.7170: real time    0.7170
    --------------------------------------------
      LOOP:  cpu time  299.2418: real time  299.2523

 eigenvalue-minimisations  :   722
 total energy-change (2. order) :-0.6137691E+00  (-0.1408202E+00)
 number of electron     559.9999863 magnetization 
 augmentation part      241.5243143 magnetization 

 Broyden mixing:
  rms(total) = 0.20200E+01    rms(broyden)= 0.20198E+01
  rms(prec ) = 0.23794E+01
  weight for this iteration     100.00

 eigenvalues of (default mixing * dielectric matrix)
  average eigenvalue GAMMA=   0.2847
  1.2649  0.4591  0.1904  0.1904  0.1114  0.1114  0.1024  0.0742  0.0583

 Free energy of the ion-electron system (eV)
  ---------------------------------------------------
  alpha Z        PSCENC =        75.25431677
  Ewald energy   TEWEN  =    139595.45055393
  -Hartree energ DENC   =   -183616.36990698
  -exchange      EXHF   =         0.00000000
  -V(xc)+E(xc)   XCENC  =     -1695.13602985
  PAW double counting   =     46075.47454055   -42559.17635631
  entropy T*S    EENTRO =         0.03935967
  eigenvalues    EBANDS =     -3139.63836083
  atomic energy  EATOM  =     45086.50549395
  Solvation  Ediel_sol  =         0.00000000
  ---------------------------------------------------
  free energy    TOTEN  =      -177.59638910 eV

  energy without entropy =     -177.63574876  energy(sigma->0) =     -177.60622901


--------------------------------------------------------------------------------------------------------




--------------------------------------- Iteration      1(  15)  ---------------------------------------


    POTLOK:  cpu time   12.6818: real time   12.6842
    SETDIJ:  cpu time    0.1257: real time    0.1257
    EDDIAG:  cpu time   66.0336: real time   66.0336
  RMM-DIIS:  cpu time  177.2296: real time  177.2307
    ORTHCH:  cpu time   13.6963: real time   13.6962
       DOS:  cpu time    0.0014: real time    0.0014
    CHARGE:  cpu time   25.7498: real time   25.7497
    MIXING:  cpu time    0.8045: real time    0.8045
    --------------------------------------------
      LOOP:  cpu time  296.3228: real time  296.3259

 eigenvalue-minimisations  :   711
 total energy-change (2. order) : 0.6298256E+00  (-0.1309060E+00)
 number of electron     559.9999883 magnetization 
 augmentation part      241.4222114 magnetization 

 Broyden mixing:
  rms(total) = 0.18613E+01    rms(broyden)= 0.18610E+01
  rms(prec ) = 0.21523E+01
  weight for this iteration     100.00

 eigenvalues of (default mixing * dielectric matrix)
  average eigenvalue GAMMA=   0.2878
  1.3843  0.5524  0.1912  0.1912  0.1243  0.1243  0.0944  0.0944  0.0660  0.0557

 Free energy of the ion-electron system (eV)
  ---------------------------------------------------
  alpha Z        PSCENC =        75.25431677
  Ewald energy   TEWEN  =    139595.45055393
  -Hartree energ DENC   =   -183653.76129013
  -exchange      EXHF   =         0.00000000
  -V(xc)+E(xc)   XCENC  =     -1694.58631137
  PAW double counting   =     46135.71065263   -42616.63687994
  entropy T*S    EENTRO =         0.04900145
  eigenvalues    EBANDS =     -3104.95210075
  atomic energy  EATOM  =     45086.50549395
  Solvation  Ediel_sol  =         0.00000000
  ---------------------------------------------------
  free energy    TOTEN  =      -176.96656346 eV

  energy without entropy =     -177.01556492  energy(sigma->0) =     -176.97881382


--------------------------------------------------------------------------------------------------------




--------------------------------------- Iteration      1(  16)  ---------------------------------------


    POTLOK:  cpu time   13.4181: real time   13.4216
    SETDIJ:  cpu time    0.1220: real time    0.1220
    EDDIAG:  cpu time   66.7437: real time   66.7442
  RMM-DIIS:  cpu time  173.8050: real time  173.8089
    ORTHCH:  cpu time   13.1837: real time   13.1839
       DOS:  cpu time    0.0015: real time    0.0015
    CHARGE:  cpu time   24.5528: real time   24.5531
    MIXING:  cpu time    0.8330: real time    0.8330
    --------------------------------------------
      LOOP:  cpu time  292.6598: real time  292.6682

 eigenvalue-minimisations  :   702
 total energy-change (2. order) : 0.6341662E+00  (-0.9400448E-01)
 number of electron     559.9999882 magnetization 
 augmentation part      241.2330596 magnetization 

 Broyden mixing:
  rms(total) = 0.13184E+01    rms(broyden)= 0.13181E+01
  rms(prec ) = 0.14938E+01
  weight for this iteration     100.00

 eigenvalues of (default mixing * dielectric matrix)
  average eigenvalue GAMMA=   0.2905
  1.4825  0.6268  0.2117  0.2117  0.1113  0.1113  0.1206  0.1206  0.0786  0.0658
  0.0549

 Free energy of the ion-electron system (eV)
  ---------------------------------------------------
  alpha Z        PSCENC =        75.25431677
  Ewald energy   TEWEN  =    139595.45055393
  -Hartree energ DENC   =   -183683.69590290
  -exchange      EXHF   =         0.00000000
  -V(xc)+E(xc)   XCENC  =     -1694.22337273
  PAW double counting   =     46176.61531649   -42655.63182629
  entropy T*S    EENTRO =         0.00245497
  eigenvalues    EBANDS =     -3076.60943141
  atomic energy  EATOM  =     45086.50549395
  Solvation  Ediel_sol  =         0.00000000
  ---------------------------------------------------
  free energy    TOTEN  =      -176.33239722 eV

  energy without entropy =     -176.33485219  energy(sigma->0) =     -176.33301096


--------------------------------------------------------------------------------------------------------




--------------------------------------- Iteration      1(  17)  ---------------------------------------


    POTLOK:  cpu time   12.6415: real time   12.6439
    SETDIJ:  cpu time    0.1195: real time    0.1195
    EDDIAG:  cpu time   66.6795: real time   66.6801
  RMM-DIIS:  cpu time  173.0765: real time  173.0783
    ORTHCH:  cpu time   13.1659: real time   13.1659
       DOS:  cpu time    0.0015: real time    0.0015
    CHARGE:  cpu time   24.7352: real time   24.7350
    MIXING:  cpu time    0.8451: real time    0.8451
    --------------------------------------------
      LOOP:  cpu time  291.2647: real time  291.2692

 eigenvalue-minimisations  :   701
 total energy-change (2. order) : 0.3267581E+00  (-0.7436946E-01)
 number of electron     559.9999888 magnetization 
 augmentation part      241.1559372 magnetization 

 Broyden mixing:
  rms(total) = 0.12291E+01    rms(broyden)= 0.12289E+01
  rms(prec ) = 0.14477E+01
  weight for this iteration     100.00

 eigenvalues of (default mixing * dielectric matrix)
  average eigenvalue GAMMA=   0.2927
  1.5403  0.7094  0.2529  0.2529  0.1442  0.1104  0.1104  0.0964  0.0964  0.0836
  0.0615  0.0534

 Free energy of the ion-electron system (eV)
  ---------------------------------------------------
  alpha Z        PSCENC =        75.25431677
  Ewald energy   TEWEN  =    139595.45055393
  -Hartree energ DENC   =   -183704.66940632
  -exchange      EXHF   =         0.00000000
  -V(xc)+E(xc)   XCENC  =     -1693.95823812
  PAW double counting   =     46205.72729148   -42683.28909860
  entropy T*S    EENTRO =         0.09812122
  eigenvalues    EBANDS =     -3057.12467346
  atomic energy  EATOM  =     45086.50549395
  Solvation  Ediel_sol  =         0.00000000
  ---------------------------------------------------
  free energy    TOTEN  =      -176.00563916 eV

  energy without entropy =     -176.10376038  energy(sigma->0) =     -176.03016946


--------------------------------------------------------------------------------------------------------




--------------------------------------- Iteration      1(  18)  ---------------------------------------


    POTLOK:  cpu time   12.7077: real time   12.7111
    SETDIJ:  cpu time    0.1351: real time    0.1351
    EDDIAG:  cpu time   66.7961: real time   66.7998
  RMM-DIIS:  cpu time  175.9782: real time  175.9814
    ORTHCH:  cpu time   13.1699: real time   13.1698
       DOS:  cpu time    0.0015: real time    0.0015
    CHARGE:  cpu time   24.6398: real time   24.6408
    MIXING:  cpu time    0.8999: real time    0.8998
    --------------------------------------------
      LOOP:  cpu time  294.3282: real time  294.3393

 eigenvalue-minimisations  :   712
 total energy-change (2. order) : 0.7642800E-01  (-0.4374615E-01)
 number of electron     559.9999880 magnetization 
 augmentation part      241.1598029 magnetization 

 Broyden mixing:
  rms(total) = 0.12742E+01    rms(broyden)= 0.12740E+01
  rms(prec ) = 0.15004E+01
  weight for this iteration     100.00

 eigenvalues of (default mixing * dielectric matrix)
  average eigenvalue GAMMA=   0.3004
  1.6102  0.8246  0.3117  0.3117  0.1314  0.1314  0.1121  0.1121  0.0928  0.0928
  0.0619  0.0619  0.0503

 Free energy of the ion-electron system (eV)
  ---------------------------------------------------
  alpha Z        PSCENC =        75.25431677
  Ewald energy   TEWEN  =    139595.45055393
  -Hartree energ DENC   =   -183719.02839340
  -exchange      EXHF   =         0.00000000
  -V(xc)+E(xc)   XCENC  =     -1693.75943022
  PAW double counting   =     46222.25283068   -42698.84205434
  entropy T*S    EENTRO =         0.06231735
  eigenvalues    EBANDS =     -3043.82484586
  atomic energy  EATOM  =     45086.50549395
  Solvation  Ediel_sol  =         0.00000000
  ---------------------------------------------------
  free energy    TOTEN  =      -175.92921115 eV

  energy without entropy =     -175.99152850  energy(sigma->0) =     -175.94479049


--------------------------------------------------------------------------------------------------------




--------------------------------------- Iteration      1(  19)  ---------------------------------------


    POTLOK:  cpu time   12.7195: real time   12.7229
    SETDIJ:  cpu time    0.1178: real time    0.1178
    EDDIAG:  cpu time   66.4844: real time   66.4858
  RMM-DIIS:  cpu time  174.9777: real time  174.9828
    ORTHCH:  cpu time   13.2210: real time   13.2211
       DOS:  cpu time    0.0015: real time    0.0015
    CHARGE:  cpu time   24.7429: real time   24.7430
    MIXING:  cpu time    0.9724: real time    0.9724
    --------------------------------------------
      LOOP:  cpu time  293.2371: real time  293.2472

 eigenvalue-minimisations  :   707
 total energy-change (2. order) : 0.4093752E-01  (-0.4468858E-01)
 number of electron     559.9999888 magnetization 
 augmentation part      241.1481128 magnetization 

 Broyden mixing:
  rms(total) = 0.11209E+01    rms(broyden)= 0.11206E+01
  rms(prec ) = 0.12779E+01
  weight for this iteration     100.00

 eigenvalues of (default mixing * dielectric matrix)
  average eigenvalue GAMMA=   0.3111
  1.7074  0.9929  0.3446  0.3446  0.1528  0.1528  0.1083  0.1083  0.0944  0.0944
  0.0874  0.0616  0.0573  0.0482

 Free energy of the ion-electron system (eV)
  ---------------------------------------------------
  alpha Z        PSCENC =        75.25431677
  Ewald energy   TEWEN  =    139595.45055393
  -Hartree energ DENC   =   -183736.28069177
  -exchange      EXHF   =         0.00000000
  -V(xc)+E(xc)   XCENC  =     -1693.55526245
  PAW double counting   =     46238.04392890   -42713.52164255
  entropy T*S    EENTRO =         0.03584948
  eigenvalues    EBANDS =     -3027.82081990
  atomic energy  EATOM  =     45086.50549395
  Solvation  Ediel_sol  =         0.00000000
  ---------------------------------------------------
  free energy    TOTEN  =      -175.88827363 eV

  energy without entropy =     -175.92412311  energy(sigma->0) =     -175.89723600


--------------------------------------------------------------------------------------------------------




--------------------------------------- Iteration      1(  20)  ---------------------------------------


    POTLOK:  cpu time   12.7963: real time   12.7989
    SETDIJ:  cpu time    0.1200: real time    0.1200
    EDDIAG:  cpu time   67.2762: real time   67.2818
  RMM-DIIS:  cpu time  171.4550: real time  171.4740
    ORTHCH:  cpu time   13.1582: real time   13.1582
       DOS:  cpu time    0.0015: real time    0.0015
    CHARGE:  cpu time   24.6312: real time   24.6313
    MIXING:  cpu time    0.9825: real time    0.9825
    --------------------------------------------
      LOOP:  cpu time  290.4209: real time  290.4483

 eigenvalue-minimisations  :   694
 total energy-change (2. order) : 0.2821565E+00  (-0.4157752E-01)
 number of electron     559.9999897 magnetization 
 augmentation part      241.1409510 magnetization 

 Broyden mixing:
  rms(total) = 0.85479E+00    rms(broyden)= 0.85459E+00
  rms(prec ) = 0.96867E+00
  weight for this iteration     100.00

 eigenvalues of (default mixing * dielectric matrix)
  average eigenvalue GAMMA=   0.3198
  1.7883  1.1752  0.3618  0.3618  0.1689  0.1689  0.1039  0.1039  0.1087  0.1087
  0.0898  0.0898  0.0615  0.0576  0.0486

 Free energy of the ion-electron system (eV)
  ---------------------------------------------------
  alpha Z        PSCENC =        75.25431677
  Ewald energy   TEWEN  =    139595.45055393
  -Hartree energ DENC   =   -183757.53387354
  -exchange      EXHF   =         0.00000000
  -V(xc)+E(xc)   XCENC  =     -1693.30789342
  PAW double counting   =     46254.02984908   -42728.24952726
  entropy T*S    EENTRO =         0.03176504
  eigenvalues    EBANDS =     -3007.78680169
  atomic energy  EATOM  =     45086.50549395
  Solvation  Ediel_sol  =         0.00000000
  ---------------------------------------------------
  free energy    TOTEN  =      -175.60611715 eV

  energy without entropy =     -175.63788219  energy(sigma->0) =     -175.61405841


--------------------------------------------------------------------------------------------------------




--------------------------------------- Iteration      1(  21)  ---------------------------------------


    POTLOK:  cpu time   12.8287: real time   12.8322
    SETDIJ:  cpu time    0.1186: real time    0.1186
    EDDIAG:  cpu time   66.2265: real time   66.2365
  RMM-DIIS:  cpu time  172.8126: real time  172.8303
    ORTHCH:  cpu time   13.1611: real time   13.1614
       DOS:  cpu time    0.0015: real time    0.0015
    CHARGE:  cpu time   24.7235: real time   24.7266
    MIXING:  cpu time    1.0380: real time    1.0380
    --------------------------------------------
      LOOP:  cpu time  290.9104: real time  290.9452

 eigenvalue-minimisations  :   700
 total energy-change (2. order) :-0.5474542E-01  (-0.3042924E-01)
 number of electron     559.9999885 magnetization 
 augmentation part      241.1520612 magnetization 

 Broyden mixing:
  rms(total) = 0.10710E+01    rms(broyden)= 0.10708E+01
  rms(prec ) = 0.12610E+01
  weight for this iteration     100.00

 eigenvalues of (default mixing * dielectric matrix)
  average eigenvalue GAMMA=   0.3264
  1.9322  1.2534  0.4075  0.2752  0.2752  0.1561  0.1561  0.1077  0.1077  0.1093
  0.1093  0.0893  0.0769  0.0618  0.0555  0.0489

 Free energy of the ion-electron system (eV)
  ---------------------------------------------------
  alpha Z        PSCENC =        75.25431677
  Ewald energy   TEWEN  =    139595.45055393
  -Hartree energ DENC   =   -183777.64752463
  -exchange      EXHF   =         0.00000000
  -V(xc)+E(xc)   XCENC  =     -1693.09898471
  PAW double counting   =     46262.47621302   -42735.67466117
  entropy T*S    EENTRO =        -0.02009009
  eigenvalues    EBANDS =     -2988.90617965
  atomic energy  EATOM  =     45086.50549395
  Solvation  Ediel_sol  =         0.00000000
  ---------------------------------------------------
  free energy    TOTEN  =      -175.66086258 eV

  energy without entropy =     -175.64077249  energy(sigma->0) =     -175.65584005


--------------------------------------------------------------------------------------------------------




--------------------------------------- Iteration      1(  22)  ---------------------------------------


    POTLOK:  cpu time   12.9845: real time   12.9892
    SETDIJ:  cpu time    0.1246: real time    0.1246
    EDDIAG:  cpu time   66.1861: real time   66.1883
  RMM-DIIS:  cpu time  172.0754: real time  172.0857
    ORTHCH:  cpu time   13.0256: real time   13.0272
       DOS:  cpu time    0.0015: real time    0.0015
    CHARGE:  cpu time   24.6317: real time   24.6319
    MIXING:  cpu time    1.1416: real time    1.1416
    --------------------------------------------
      LOOP:  cpu time  290.1711: real time  290.1900

 eigenvalue-minimisations  :   696
 total energy-change (2. order) : 0.2015037E+00  (-0.2241405E-01)
 number of electron     559.9999887 magnetization 
 augmentation part      241.1377046 magnetization 

 Broyden mixing:
  rms(total) = 0.93393E+00    rms(broyden)= 0.93379E+00
  rms(prec ) = 0.10919E+01
  weight for this iteration     100.00

 eigenvalues of (default mixing * dielectric matrix)
  average eigenvalue GAMMA=   0.3256
  2.0122  1.2577  0.5003  0.3042  0.3042  0.1508  0.1508  0.1106  0.1106  0.1148
  0.1148  0.0827  0.0827  0.0741  0.0599  0.0564  0.0490

 Free energy of the ion-electron system (eV)
  ---------------------------------------------------
  alpha Z        PSCENC =        75.25431677
  Ewald energy   TEWEN  =    139595.45055393
  -Hartree energ DENC   =   -183795.13401564
  -exchange      EXHF   =         0.00000000
  -V(xc)+E(xc)   XCENC  =     -1692.86500044
  PAW double counting   =     46268.94274380   -42741.18173016
  entropy T*S    EENTRO =         0.01292812
  eigenvalues    EBANDS =     -2972.44464919
  atomic energy  EATOM  =     45086.50549395
  Solvation  Ediel_sol  =         0.00000000
  ---------------------------------------------------
  free energy    TOTEN  =      -175.45935886 eV

  energy without entropy =     -175.47228698  energy(sigma->0) =     -175.46259089


--------------------------------------------------------------------------------------------------------




--------------------------------------- Iteration      1(  23)  ---------------------------------------


    POTLOK:  cpu time   12.5743: real time   12.5789
    SETDIJ:  cpu time    0.1173: real time    0.1173
    EDDIAG:  cpu time   66.4771: real time   66.4829
  RMM-DIIS:  cpu time  171.6766: real time  171.6774
    ORTHCH:  cpu time   13.1089: real time   13.1088
       DOS:  cpu time    0.0015: real time    0.0015
    CHARGE:  cpu time   24.7770: real time   24.7769
    MIXING:  cpu time    1.1710: real time    1.1710
    --------------------------------------------
      LOOP:  cpu time  289.9036: real time  289.9146

 eigenvalue-minimisations  :   694
 total energy-change (2. order) : 0.2851326E+00  (-0.1264980E-01)
 number of electron     559.9999892 magnetization 
 augmentation part      241.1603387 magnetization 

 Broyden mixing:
  rms(total) = 0.47012E+00    rms(broyden)= 0.46999E+00
  rms(prec ) = 0.53650E+00
  weight for this iteration     100.00

 eigenvalues of (default mixing * dielectric matrix)
  average eigenvalue GAMMA=   0.3320
[...]
 -0.007  -0.012   0.004   0.004   0.005  -0.006  -0.011   0.004
 -0.011  -0.020   0.006   0.007   0.009  -0.011  -0.019   0.006
 -0.015  -0.004   0.013   0.000   0.022  -0.014  -0.004   0.012
  0.000  -0.023  -0.006  -0.015  -0.000   0.000  -0.022  -0.005
 -0.022   0.000   0.009  -0.005  -0.016  -0.022   0.000   0.008
 -0.017  -0.006   0.015   0.000   0.027  -0.017  -0.005   0.015
  0.000  -0.028  -0.007  -0.018  -0.000   0.000  -0.027  -0.007
 -0.027   0.000   0.010  -0.006  -0.019  -0.026   0.000   0.010
 total augmentation occupancy for first ion, spin component:           1
  1.531  -0.030   0.005   0.015   0.025   0.078  -0.008  -0.002   0.036  -0.010   0.092  -0.032   0.012   0.002   0.003  -0.019
 -0.030   1.396   0.031   0.072  -0.001  -0.007   0.073   0.011  -0.015  -0.007   0.219  -0.065   0.019   0.001   0.002  -0.006
  0.005   0.031   1.537   0.003   0.002  -0.002   0.012   0.076  -0.013   0.017  -0.054   0.018  -0.003  -0.008  -0.005   0.016
  0.015   0.072   0.003   1.336   0.044   0.034  -0.014  -0.013   0.092  -0.023  -0.081   0.021  -0.001  -0.010  -0.004   0.001
  0.025  -0.001   0.002   0.044   1.436  -0.010  -0.008   0.016  -0.022   0.069  -0.094   0.031  -0.003  -0.009  -0.010   0.027
  0.078  -0.007  -0.002   0.034  -0.010   0.218   0.019  -0.002  -0.045   0.004  -0.048   0.002   0.017  -0.010   0.035  -0.004
 -0.008   0.073   0.012  -0.014  -0.008   0.019   0.264  -0.023  -0.003   0.006  -0.110   0.007  -0.001   0.051  -0.010  -0.000
 -0.002   0.011   0.076  -0.013   0.016  -0.002  -0.023   0.216   0.014  -0.020   0.028  -0.001  -0.012   0.009  -0.018   0.003
  0.036  -0.015  -0.013   0.092  -0.022  -0.045  -0.003   0.014   0.262   0.007   0.043  -0.004  -0.009   0.036   0.004   0.000
 -0.010  -0.007   0.017  -0.023   0.069   0.004   0.006  -0.020   0.007   0.260   0.046  -0.003  -0.038   0.002   0.049   0.007
  0.092   0.219  -0.054  -0.081  -0.094  -0.048  -0.110   0.028   0.043   0.046   0.945  -0.141   0.084   0.013   0.064  -0.013
 -0.032  -0.065   0.018   0.021   0.031   0.002   0.007  -0.001  -0.004  -0.003  -0.141   0.023  -0.014  -0.003  -0.010   0.003
  0.012   0.019  -0.003  -0.001  -0.003   0.017  -0.001  -0.012  -0.009  -0.038   0.084  -0.014   0.029  -0.008  -0.004  -0.003
  0.002   0.001  -0.008  -0.010  -0.009  -0.010   0.051   0.009   0.036   0.002   0.013  -0.003  -0.008   0.036   0.004   0.000
  0.003   0.002  -0.005  -0.004  -0.010   0.035  -0.010  -0.018   0.004   0.049   0.064  -0.010  -0.004   0.004   0.035  -0.000
 -0.019  -0.006   0.016   0.001   0.027  -0.004  -0.000   0.003   0.000   0.007  -0.013   0.003  -0.003   0.000  -0.000   0.001
  0.001  -0.028  -0.006  -0.018   0.001   0.001  -0.008  -0.001  -0.006  -0.000  -0.003   0.001   0.000  -0.003  -0.000   0.000
 -0.028   0.001   0.012  -0.005  -0.019  -0.006   0.001   0.003  -0.001  -0.007  -0.008   0.001  -0.000  -0.000  -0.003   0.000


------------------------ aborting loop because EDIFF is reached ----------------------------------------


    CHARGE:  cpu time   24.2065: real time   24.2062
    FORLOC:  cpu time    6.6820: real time    6.6820
    FORNL :  cpu time   63.2966: real time   63.2962
    STRESS:  cpu time  194.9128: real time  194.9164
    FORCOR:  cpu time   21.7625: real time   21.7625
    FORHAR:  cpu time    9.5277: real time    9.5277
    MIXING:  cpu time    3.3346: real time    3.3346
    OFIELD:  cpu time    0.0000: real time    0.0000

  FORCE on cell =-STRESS in cart. coord.  units (eV):
  Direction    XX          YY          ZZ          XY          YZ          ZX
  --------------------------------------------------------------------------------------
  Alpha Z    75.25432    75.25432    75.25432
  Ewald   45109.19904 45217.46064 49268.68502  -158.83352  -739.96665   634.73784
  Hartree 59983.55152 60058.40932 63915.75108  -111.51838  -651.31919   552.98013
  E(xc)   -2905.99496 -2905.59999 -2904.98305    -0.38457    -0.54867     0.56374
  Local  ************************************   262.47323  1379.18891 -1177.30010
  n-local  -882.04107  -881.10905  -889.80345    -1.08392    -0.84576     0.95301
  augment  4104.02098  4102.18205  4104.24350     2.34632     2.43771    -2.35598
  Kinetic  7815.01764  7810.81927  7799.42067     5.87926     8.84244    -7.91078
  Fock        0.00000     0.00000     0.00000     0.00000     0.00000     0.00000
  -------------------------------------------------------------------------------------
  Total    -113.00151  -113.27426  -106.34065    -1.12157    -2.21122     1.66785
  in kB      -6.70550    -6.72168    -6.31024    -0.06655    -0.13121     0.09897
  external pressure =       -6.58 kB  Pullay stress =        0.00 kB


 VOLUME and BASIS-vectors are now :
 -----------------------------------------------------------------------------
  energy-cutoff  :      400.00
  volume of cell :    27000.00
      direct lattice vectors                 reciprocal lattice vectors
    30.000000000  0.000000000  0.000000000     0.033333333  0.000000000  0.000000000
     0.000000000 30.000000000  0.000000000     0.000000000  0.033333333  0.000000000
     0.000000000  0.000000000 30.000000000     0.000000000  0.000000000  0.033333333

  length of vectors
    30.000000000 30.000000000 30.000000000     0.033333333  0.033333333  0.033333333


 FORCES acting on ions
    electron-ion (+dipol)            ewald-force                    non-local-force                 convergence-correction
 -----------------------------------------------------------------------------------------------
   0.397E+03 0.975E+03 0.426E+03   -.395E+03 -.972E+03 -.425E+03   -.148E+01 -.183E+01 -.190E+00   0.925E-02 -.282E-02 0.168E-02
   -.975E+03 -.397E+03 0.425E+03   0.972E+03 0.395E+03 -.425E+03   0.183E+01 0.148E+01 -.192E+00   -.965E-02 0.152E-02 -.497E-02
   -.394E+03 0.975E+03 0.427E+03   0.392E+03 -.973E+03 -.427E+03   0.148E+01 -.182E+01 -.195E+00   -.109E-01 0.225E-03 0.486E-02
   0.975E+03 -.396E+03 0.422E+03   -.972E+03 0.394E+03 -.422E+03   -.184E+01 0.149E+01 -.219E+00   0.469E-02 0.258E-02 -.734E-02
   0.106E+01 0.587E+03 0.971E+03   -.106E+01 -.587E+03 -.967E+03   -.743E-03 -.319E+00 -.235E+01   -.129E-02 -.924E-03 0.754E-02
   0.671E+02 0.707E+03 -.876E+03   -.669E+02 -.706E+03 0.872E+03   -.599E-01 -.319E+00 0.204E+01   0.506E-02 -.769E-02 -.402E-02
   0.271E+01 0.114E+04 0.141E+02   -.268E+01 -.114E+04 -.140E+02   -.163E-01 -.310E+01 -.589E-01   0.955E-03 0.553E-02 -.641E-02
   0.114E+04 -.173E+01 0.731E+01   -.114E+04 0.171E+01 -.729E+01   -.311E+01 0.723E-02 -.102E-01   -.167E-02 0.505E-02 -.736E-02
   -.114E+04 -.303E+01 0.131E+02   0.114E+04 0.300E+01 -.131E+02   0.310E+01 0.133E-01 -.516E-01   -.121E-02 0.244E-03 -.608E-02
   0.137E+01 -.114E+04 0.696E+01   -.136E+01 0.114E+04 -.695E+01   -.661E-02 0.311E+01 -.765E-02   0.335E-02 -.298E-03 0.172E-03
   -.579E+03 0.579E+03 0.818E+03   0.577E+03 -.577E+03 -.815E+03   0.156E+01 -.156E+01 -.220E+01   -.766E-02 0.117E-02 0.330E-02
   -.657E+03 0.648E+03 -.751E+03   0.655E+03 -.646E+03 0.748E+03   0.140E+01 -.142E+01 0.225E+01   -.271E-02 -.750E-02 -.153E-02
   0.580E+03 -.580E+03 0.816E+03   -.578E+03 0.578E+03 -.813E+03   -.155E+01 0.155E+01 -.221E+01   0.194E-02 -.649E-02 -.962E-03
   0.597E+03 -.598E+03 -.804E+03   -.595E+03 0.596E+03 0.801E+03   -.159E+01 0.159E+01 0.221E+01   -.660E-04 0.618E-02 -.182E-02
   0.581E+03 0.579E+03 0.817E+03   -.578E+03 -.577E+03 -.814E+03   -.156E+01 -.155E+01 -.221E+01   0.863E-02 -.294E-02 0.177E-02
   0.622E+03 0.596E+03 -.795E+03   -.620E+03 -.594E+03 0.792E+03   -.156E+01 -.156E+01 0.224E+01   0.481E-02 -.970E-02 0.239E-02
   -.579E+03 -.581E+03 0.817E+03   0.577E+03 0.578E+03 -.814E+03   0.155E+01 0.156E+01 -.221E+01   -.515E-02 -.456E-02 0.310E-02
   -.595E+03 -.617E+03 -.798E+03   0.593E+03 0.615E+03 0.795E+03   0.157E+01 0.156E+01 0.223E+01   -.462E-03 0.381E-02 -.520E-03
   0.411E+03 0.993E+03 -.392E+03   -.409E+03 -.990E+03 0.391E+03   -.158E+01 -.185E+01 0.206E+00   0.114E-01 -.811E-02 -.113E-01
   -.991E+03 -.410E+03 -.395E+03   0.988E+03 0.408E+03 0.394E+03   0.184E+01 0.156E+01 0.205E+00   -.192E-02 0.507E-02 -.339E-02
   -.321E+03 0.321E+03 0.468E+03   0.322E+03 -.321E+03 -.469E+03   -.354E+00 0.354E+00 0.550E+00   -.645E-02 -.777E-03 -.260E-02
   0.976E+03 0.394E+03 0.423E+03   -.973E+03 -.392E+03 -.423E+03   -.183E+01 -.150E+01 -.206E+00   0.570E-02 -.598E-03 -.938E-02
   -.394E+03 -.976E+03 0.423E+03   0.392E+03 0.973E+03 -.422E+03   0.150E+01 0.184E+01 -.207E+00   0.388E-02 -.617E-02 -.838E-03
   -.398E+03 0.100E+04 -.382E+03   0.395E+03 -.100E+04 0.381E+03   0.154E+01 -.179E+01 0.309E+00   -.364E-02 -.574E-02 -.108E-01
   0.986E+03 -.401E+03 -.406E+03   -.983E+03 0.399E+03 0.405E+03   -.183E+01 0.152E+01 0.207E+00   -.314E-02 0.998E-02 -.362E-02
   -.976E+03 0.394E+03 0.427E+03   0.973E+03 -.392E+03 -.427E+03   0.182E+01 -.149E+01 -.196E+00   -.841E-02 -.140E-02 -.503E-02
   0.396E+03 -.975E+03 0.422E+03   -.394E+03 0.972E+03 -.422E+03   -.150E+01 0.184E+01 -.220E+00   0.410E-02 -.543E-02 -.207E-02
   0.325E+03 0.321E+03 0.466E+03   -.326E+03 -.321E+03 -.466E+03   0.368E+00 0.361E+00 0.532E+00   0.113E-01 -.483E-02 -.629E-02
   0.515E+01 0.647E+03 0.274E+02   -.514E+01 -.648E+03 -.273E+02   -.114E-01 0.706E+00 -.717E-01   0.435E-02 -.117E-01 -.108E-01
   -.588E+03 -.125E+01 0.970E+03   0.587E+03 0.125E+01 -.967E+03   0.317E+00 0.654E-03 -.235E+01   -.842E-02 0.810E-03 0.174E-02
   -.688E+03 -.613E+02 -.896E+03   0.687E+03 0.614E+02 0.893E+03   0.103E+00 -.585E-01 0.222E+01   -.123E-02 -.145E-02 0.287E-02
   0.589E+03 -.105E+01 0.969E+03   -.588E+03 0.103E+01 -.965E+03   -.295E+00 0.744E-02 -.237E+01   0.680E-02 0.756E-03 -.697E-03
   0.633E+03 -.142E+02 -.948E+03   -.632E+03 0.142E+02 0.944E+03   -.374E+00 -.406E-01 0.245E+01   0.158E-02 0.267E-02 0.344E-02
   0.771E+03 0.765E+03 0.152E+02   -.769E+03 -.763E+03 -.151E+02   -.114E+01 -.116E+01 -.327E-01   0.130E-01 -.113E-01 -.116E-01
   -.765E+03 -.770E+03 0.140E+02   0.763E+03 0.768E+03 -.140E+02   0.115E+01 0.114E+01 -.235E-01   -.433E-02 0.138E-02 -.803E-02
   -.768E+03 0.767E+03 0.239E+02   0.766E+03 -.765E+03 -.238E+02   0.116E+01 -.117E+01 -.719E-01   -.109E-01 -.718E-02 -.641E-02
   0.767E+03 -.767E+03 0.988E+01   -.765E+03 0.765E+03 -.992E+01   -.113E+01 0.113E+01 0.263E-01   0.805E-03 0.447E-03 -.434E-02
   0.108E+01 -.130E+01 0.107E+04   -.105E+01 0.126E+01 -.107E+04   -.199E-01 0.249E-01 -.162E+01   0.231E-02 -.735E-03 0.392E-02
   0.148E+03 -.177E+03 -.914E+03   -.144E+03 0.173E+03 0.914E+03   -.403E+01 0.477E+01 -.216E+01   0.447E-02 -.132E-02 0.767E-03
   0.990E+03 0.394E+03 -.403E+03   -.988E+03 -.392E+03 0.402E+03   -.182E+01 -.150E+01 0.238E+00   -.130E-02 -.207E-02 -.269E-02
   -.395E+03 -.989E+03 -.404E+03   0.393E+03 0.986E+03 0.403E+03   0.150E+01 0.182E+01 0.235E+00   -.528E-05 0.215E-02 -.533E-02
   -.334E+03 0.328E+03 -.364E+03   0.335E+03 -.329E+03 0.364E+03   -.532E+00 0.488E+00 0.690E-01   -.334E-02 -.809E-02 -.941E-02
   0.324E+03 -.325E+03 0.463E+03   -.325E+03 0.325E+03 -.464E+03   0.376E+00 -.376E+00 0.497E+00   0.733E-02 -.526E-02 -.675E-02
   0.355E+03 0.324E+03 -.406E+03   -.356E+03 -.325E+03 0.406E+03   0.483E+00 0.358E+00 -.407E+00   0.126E-01 -.663E-02 -.944E-02
   -.100E+04 0.395E+03 -.385E+03   0.999E+03 -.393E+03 0.384E+03   0.180E+01 -.153E+01 0.296E+00   -.267E-02 -.612E-02 -.209E-02
   0.401E+03 -.986E+03 -.406E+03   -.398E+03 0.983E+03 0.406E+03   -.152E+01 0.183E+01 0.210E+00   0.215E-02 0.413E-02 -.380E-02
   -.321E+03 -.325E+03 0.465E+03   0.322E+03 0.326E+03 -.466E+03   -.364E+00 -.370E+00 0.528E+00   -.321E-02 -.361E-02 -.436E-02
   0.650E+03 -.370E+01 0.162E+02   -.651E+03 0.369E+01 -.162E+02   0.707E+00 0.364E-02 -.960E-02   0.894E-02 0.444E-02 -.123E-01
   -.647E+03 -.587E+01 0.259E+02   0.648E+03 0.585E+01 -.258E+02   -.701E+00 0.142E-01 -.674E-01   -.108E-01 0.657E-03 -.119E-01
   0.856E+00 -.589E+03 0.969E+03   -.846E+00 0.588E+03 -.965E+03   -.769E-02 0.293E+00 -.237E+01   0.371E-02 -.879E-02 0.135E-02
   0.107E+02 -.631E+03 -.949E+03   -.108E+02 0.630E+03 0.945E+03   0.387E-01 0.417E+00 0.246E+01   0.215E-02 0.442E-02 -.170E-02
   0.558E+01 -.671E+01 0.297E+02   -.558E+01 0.670E+01 -.296E+02   -.382E-02 0.396E-02 -.255E-01   0.555E-02 -.255E-02 -.135E-01
   0.341E+03 -.343E+03 -.425E+03   -.342E+03 0.343E+03 0.426E+03   0.281E+00 -.293E+00 -.724E+00   0.522E-02 0.419E-02 -.822E-02
   -.327E+03 -.355E+03 -.410E+03   0.327E+03 0.355E+03 0.411E+03   -.345E+00 -.450E+00 -.457E+00   -.128E-02 0.196E-02 -.874E-02
   0.295E+01 -.650E+03 0.155E+02   -.295E+01 0.651E+03 -.155E+02   -.215E-02 -.708E+00 -.451E-02   0.562E-02 -.322E-02 -.704E-02
   -.673E+02 0.698E+02 -.272E+03   0.631E+02 -.652E+02 0.252E+03   0.269E+01 -.350E+01 0.146E+02   0.625E-03 -.155E-02 0.618E-03
   -.137E+03 0.159E+03 -.874E+03   0.149E+03 -.173E+03 0.937E+03   -.101E+02 0.124E+02 -.572E+02   0.706E-03 -.170E-02 0.878E-03
 -----------------------------------------------------------------------------------------------
   0.121E+02 -.139E+02 0.463E+02   0.540E-12 0.767E-12 -.455E-12   -.121E+02 0.140E+02 -.461E+02   0.511E-01 -.899E-01 -.205E+00
 
 
 POSITION                                       TOTAL-FORCE (eV/Angst)
 -----------------------------------------------------------------------------------
     13.37281      9.84801     12.50759         0.697563      1.115407      0.282614
     20.15199     16.62719     12.50759        -1.114085     -0.696663      0.282173
     16.62719      9.84801     12.50759        -0.699354      1.114313      0.290985
      9.84801     16.62719     12.50759         1.109235     -0.696046      0.290133
     15.00000     11.47521     10.20639         0.001284      0.414718      1.278255
     15.00000     11.47521     19.79360         0.178089      0.823092     -1.168006
     15.00000      8.28283     15.00000         0.014006      1.505648      0.025317
      8.28283     15.00000     15.00000         1.510189     -0.006963      0.005489
     21.71717     15.00000     15.00000        -1.503737     -0.012085      0.021688
     15.00000     21.71717     15.00000         0.006099     -1.510822      0.004523
     18.35858     11.64142     10.25025        -0.754652      0.754597      1.071321
     18.35858     11.64142     19.74975        -0.702072      0.710665     -1.068941
     11.64142     18.35858     10.25025         0.749279     -0.750201      1.076150
     11.64142     18.35858     19.74975         0.760321     -0.760722     -1.064481
     11.64142     11.64142     10.25025         0.754785      0.750409      1.072933
     11.64142     11.64142     19.74975         0.730748      0.736850     -1.069938
     18.35858     18.35858     10.25025        -0.749789     -0.754496      1.073193
     18.35858     18.35858     19.74975        -0.742208     -0.741000     -1.070330
     13.37281      9.84801     17.49241         0.693401      1.084651     -0.311987
     20.15199     16.62719     17.49241        -1.094370     -0.698227     -0.300983
     16.73751     13.26249     12.54279         0.113431     -0.112601     -0.155258
      9.84801     13.37281     12.50759         1.108674      0.698267      0.288027
     16.62719     20.15199     12.50759        -0.697727     -1.108087      0.287812
     16.62719      9.84801     17.49241        -0.709571      1.072127     -0.342984
      9.84801     16.62719     17.49241         1.116478     -0.699111     -0.288611
     20.15199     13.37281     12.50759        -1.113881      0.699381      0.290676
     13.37281     20.15199     12.50759         0.696057     -1.108111      0.290270
     13.26249     13.26249     12.54279        -0.112660     -0.110366     -0.155393
     15.00000     11.52498     15.00000         0.003622     -0.226126      0.003348
     18.52479     15.00000     10.20639        -0.413847     -0.001470      1.278241
     18.52479     15.00000     19.79360        -0.562895     -0.056148     -1.249482
     11.47521     15.00000     10.20640         0.405812     -0.005770      1.280212
     11.47521     15.00000     19.79360         0.355377      0.025476     -1.302601
     11.49535     11.49535     15.00000         0.827540      0.833569      0.005960
     18.50465     18.50465     15.00000        -0.831846     -0.826822      0.002897
     18.50465     11.49535     15.00000        -0.838282      0.839931      0.014326
     11.49535     18.50465     15.00000         0.818135     -0.816813     -0.018957
     15.00000     15.00000     10.04368         0.009855     -0.011775      1.182068
     15.00000     15.00000     19.95633        -0.059442      0.160687     -1.547226
      9.84801     13.37281     17.49241         1.107813      0.699517     -0.296766
     16.62719     20.15199     17.49241        -0.698228     -1.108887     -0.296259
     16.73751     13.26249     17.45721         0.167862     -0.153873      0.024104
     13.26249     16.73751     12.54279        -0.114897      0.114550     -0.148541
     13.26249     13.26249     17.45721        -0.183439     -0.139972      0.101563
     20.15199     13.37281     17.49241        -1.082131      0.710789     -0.329578
     13.37281     20.15199     17.49241         0.697733     -1.117050     -0.290070
     16.73751     16.73751     12.54279         0.111294      0.112769     -0.153860
     11.52498     15.00000     15.00000        -0.220887      0.004942     -0.002965
     18.47502     15.00000     15.00000         0.224728     -0.003997      0.003104
     15.00000     18.52480     10.20639         0.005925     -0.404503      1.280599
     15.00000     18.52480     19.79360        -0.021845     -0.366270     -1.299538
     15.00000     15.00000     15.00000         0.005583     -0.005019     -0.002053
     13.26249     16.73751     17.45721        -0.123732      0.127213      0.152402
     16.73751     16.73751     17.45721         0.138379      0.179147      0.109395
     15.00000     18.47502     15.00000        -0.004509      0.219913     -0.001822
     16.07536     13.70759     20.80795        -1.503183      1.119796     -5.359048
     16.27598     13.46649     21.89146         1.533976     -1.618430      5.925903
 -----------------------------------------------------------------------------------
    total drift:                               -0.009524      0.000783      0.001820


--------------------------------------------------------------------------------------------------------



  FREE ENERGIE OF THE ION-ELECTRON SYSTEM (eV)
  ---------------------------------------------------
  free  energy   TOTEN  =      -174.99151998 eV

  energy  without entropy=     -174.96124897  energy(sigma->0) =     -174.98395222
 


--------------------------------------------------------------------------------------------------------


    POTLOK:  cpu time   13.3353: real time   13.3352


--------------------------------------------------------------------------------------------------------


     LOOP+:  cpu time17626.2396: real time17626.9666
    4ORBIT:  cpu time    0.0000: real time    0.0000

 total amount of memory used by VASP MPI-rank0  5486941. kBytes
=======================================================================

   base      :      30000. kBytes
   nonlr-proj:      17126. kBytes
   fftplans  :     924480. kBytes
   grid      :    1872000. kBytes
   one-center:        886. kBytes
   wavefun   :    2642449. kBytes
 
  
  
 General timing and accounting informations for this job:
 ========================================================
  
                  Total CPU time used (sec):    17698.156
                            User time (sec):    16686.333
                          System time (sec):     1011.823
                         Elapsed time (sec):    17698.925
  
                   Maximum memory used (kb):     7179052.
                   Average memory used (kb):           0.
  
                          Minor page faults:    826321186
                          Major page faults:            0
                 Voluntary context switches:          658
