       N       E                     dE             d eps       ncg     rms          rms(c)
DAV:   1     0.439473883707E+04    0.43947E+04   -0.10049E+05   688   0.815E+02
DAV:   2     0.201218145307E+04   -0.23826E+04   -0.21427E+04  1224   0.105E+02
DAV:   3     0.229744969484E+03   -0.17824E+04   -0.16799E+04  1008   0.922E+01
DAV:   4    -0.135644178593E+03   -0.36539E+03   -0.30842E+03   824   0.435E+01
DAV:   5    -0.180485903640E+03   -0.44842E+02   -0.36892E+02  1056   0.145E+01    0.175E+01
RMM:   6    -0.181472685472E+03   -0.98678E+00   -0.72489E+01   727   0.953E+00    0.252E+01
RMM:   7    -0.183614404914E+03   -0.21417E+01   -0.20805E+01   841   0.486E+00    0.242E+01
RMM:   8    -0.185836002100E+03   -0.22216E+01   -0.82983E+00   788   0.375E+00    0.285E+01
RMM:   9    -0.184624268802E+03    0.12117E+01   -0.65502E+00   742   0.355E+00    0.326E+01
RMM:  10    -0.182261969744E+03    0.23623E+01   -0.45802E+00   742   0.293E+00    0.262E+01
RMM:  11    -0.179957720867E+03    0.23042E+01   -0.32640E+00   732   0.256E+00    0.223E+01
RMM:  12    -0.178888372384E+03    0.10693E+01   -0.34430E+00   721   0.266E+00    0.188E+01
RMM:  13    -0.178743519070E+03    0.14485E+00   -0.22149E+00   724   0.220E+00    0.194E+01
RMM:  14    -0.178404133428E+03    0.33939E+00   -0.19533E+00   722   0.208E+00    0.188E+01
RMM:  15    -0.177063884922E+03    0.13402E+01   -0.19669E+00   704   0.210E+00    0.144E+01
RMM:  16    -0.176338450968E+03    0.72543E+00   -0.10699E+00   709   0.159E+00    0.145E+01
RMM:  17    -0.176134179016E+03    0.20427E+00   -0.51276E-01   716   0.109E+00    0.123E+01
RMM:  18    -0.175893218773E+03    0.24096E+00   -0.48866E-01   697   0.105E+00    0.106E+01
RMM:  19    -0.175624548781E+03    0.26867E+00   -0.37013E-01   701   0.888E-01    0.672E+00
RMM:  20    -0.175530585061E+03    0.93964E-01   -0.26516E-01   699   0.779E-01    0.670E+00
RMM:  21    -0.175498218435E+03    0.32367E-01   -0.19088E-01   703   0.672E-01    0.714E+00
RMM:  22    -0.175497593049E+03    0.62539E-03   -0.19038E-01   700   0.667E-01    0.679E+00
RMM:  23    -0.175361626303E+03    0.13597E+00   -0.18268E-01   694   0.671E-01    0.479E+00
RMM:  24    -0.175325476971E+03    0.36149E-01   -0.13184E-01   700   0.570E-01    0.480E+00
RMM:  25    -0.175275678253E+03    0.49799E-01   -0.10385E-01   694   0.490E-01    0.371E+00
RMM:  26    -0.175252790089E+03    0.22888E-01   -0.66134E-02   699   0.410E-01    0.366E+00
RMM:  27    -0.175236425293E+03    0.16365E-01   -0.43035E-02   695   0.330E-01    0.305E+00
RMM:  28    -0.175201489717E+03    0.34936E-01   -0.24814E-02   697   0.262E-01    0.232E+00
RMM:  29    -0.175191500601E+03    0.99891E-02   -0.15964E-02   695   0.202E-01    0.189E+00
RMM:  30    -0.175179635731E+03    0.11865E-01   -0.11151E-02   696   0.171E-01    0.133E+00
RMM:  31    -0.175174608789E+03    0.50269E-02   -0.58293E-03   698   0.123E-01    0.114E+00
RMM:  32    -0.175172167794E+03    0.24410E-02   -0.50331E-03   692   0.109E-01    0.106E+00
RMM:  33    -0.175168194865E+03    0.39729E-02   -0.37908E-03   692   0.102E-01    0.752E-01
RMM:  34    -0.175168229553E+03   -0.34688E-04   -0.25891E-03   691   0.823E-02    0.708E-01
RMM:  35    -0.175168297331E+03   -0.67778E-04   -0.24147E-03   691   0.756E-02    0.575E-01
RMM:  36    -0.175168377780E+03   -0.80449E-04   -0.13081E-03   688   0.599E-02    0.405E-01
RMM:  37    -0.175170845203E+03   -0.24674E-02   -0.12877E-03   686   0.550E-02    0.435E-01
RMM:  38    -0.175172494310E+03   -0.16491E-02   -0.86091E-04   681   0.470E-02    0.255E-01
RMM:  39    -0.175174542068E+03   -0.20478E-02   -0.57213E-04   610   0.382E-02    0.305E-01
RMM:  40    -0.175177938828E+03   -0.33968E-02   -0.75850E-04   647   0.386E-02    0.244E-01
RMM:  41    -0.175180069440E+03   -0.21306E-02   -0.48695E-04   535   0.326E-02    0.169E-01
RMM:  42    -0.175182641366E+03   -0.25719E-02   -0.43870E-04   505   0.288E-02    0.190E-01
RMM:  43    -0.175184611092E+03   -0.19697E-02   -0.32550E-04   445   0.250E-02    0.127E-01
RMM:  44    -0.175185721604E+03   -0.11105E-02   -0.17213E-04   427   0.183E-02    0.111E-01
RMM:  45    -0.175188474303E+03   -0.27527E-02   -0.35707E-04   469   0.219E-02    0.108E-01
RMM:  46    -0.175189376075E+03   -0.90177E-03   -0.14299E-04   413   0.155E-02    0.789E-02
RMM:  47    -0.175190800009E+03   -0.14239E-02   -0.12417E-04   410   0.139E-02    0.674E-02
RMM:  48    -0.175191374820E+03   -0.57481E-03   -0.67620E-05   413   0.102E-02    0.456E-02
RMM:  49    -0.175192027757E+03   -0.65294E-03   -0.45131E-05   405   0.842E-03    0.514E-02
RMM:  50    -0.175192741309E+03   -0.71355E-03   -0.32034E-05   399   0.698E-03    0.330E-02
RMM:  51    -0.175193122494E+03   -0.38118E-03   -0.16988E-05   320   0.548E-03    0.359E-02
RMM:  52    -0.175193612815E+03   -0.49032E-03   -0.12570E-05   299   0.504E-03    0.229E-02
RMM:  53    -0.175194079558E+03   -0.46674E-03   -0.10447E-05   270   0.467E-03    0.225E-02
RMM:  54    -0.175194417422E+03   -0.33786E-03   -0.64776E-06   193   0.419E-03    0.164E-02
RMM:  55    -0.175194762348E+03   -0.34493E-03   -0.11915E-05   251   0.444E-03    0.162E-02
RMM:  56    -0.175195154099E+03   -0.39175E-03   -0.12397E-05   232   0.440E-03    0.118E-02
RMM:  57    -0.175195310083E+03   -0.15598E-03   -0.70162E-06   179   0.383E-03    0.101E-02
RMM:  58    -0.175195514534E+03   -0.20445E-03   -0.90197E-06   179   0.388E-03    0.557E-03
RMM:  59    -0.175195607400E+03   -0.92866E-04   -0.37888E-06   134   0.359E-03
   1 F= -.17519561E+03 E0= -.17518417E+03  d E =-.457522E-01
