   57   57    1    1
  0.4736842E+03  0.3000000E-08  0.3000000E-08  0.3000000E-08  0.5000000E-15
  1.000000000000000E-004
  CAR 
 6_Pd100_top_free_z(O)                   
    560      1    336
 
  0.0000000E+00  0.0000000E+00  0.0000000E+00  0.1000000E+01
    1      -28.460234   1.000000
    2      -13.435622   1.000000
    3      -11.215435   1.000000
    4      -10.960779   1.000000
    5      -10.590377   1.000000
    6       -6.669364   1.000000
    7       -6.415446   1.000000
    8       -6.370614   1.000000
    9       -6.187851   1.000000
   10       -6.141026   1.000000
   11       -6.139298   1.000000
   12       -5.906126   1.000000
   13       -5.866428   1.000000
   14       -5.829863   1.000000
   15       -5.801238   1.000000
   16       -5.766729   1.000000
   17       -5.752680   1.000000
   18       -5.713356   1.000000
   19       -5.705267   1.000000
   20       -5.699127   1.000000
   21       -5.686012   1.000000
   22       -5.639573   1.000000
   23       -5.637166   1.000000
   24       -5.625471   1.000000
   25       -5.611101   1.000000
   26       -5.597063   1.000000
   27       -5.594978   1.000000
   28       -5.572295   1.000000
   29       -5.564117   1.000000
   30       -5.563851   1.000000
   31       -5.555438   1.000000
   32       -5.542222   1.000000
   33       -5.534879   1.000000
   34       -5.533635   1.000000
   35       -5.529334   1.000000
   36       -5.528014   1.000000
   37       -5.524585   1.000000
   38       -5.512156   1.000000
   39       -5.507117   1.000000
   40       -5.497004   1.000000
   41       -5.489636   1.000000
   42       -5.488121   1.000000
   43       -5.485413   1.000000
   44       -5.482729   1.000000
   45       -5.481019   1.000000
   46       -5.466282   1.000000
   47       -5.447979   1.000000
   48       -5.445601   1.000000
   49       -5.443692   1.000000
   50       -5.442066   1.000000
   51       -5.437841   1.000000
   52       -5.430993   1.000000
   53       -5.425280   1.000000
   54       -5.422005   1.000000
   55       -5.419158   1.000000
   56       -5.416917   1.000000
   57       -5.400629   1.000000
   58       -5.354150   1.000000
   59       -5.349979   1.000000
   60       -5.342605   1.000000
   61       -5.341611   1.000000
   62       -5.335004   1.000000
   63       -5.331791   1.000000
   64       -5.319582   1.000000
   65       -5.315572   1.000000
   66       -5.312188   1.000000
   67       -5.310702   1.000000
   68       -5.302933   1.000000
   69       -5.293829   1.000000
   70       -5.230929   1.000000
   71       -5.226742   1.000000
   72       -5.220254   1.000000
   73       -5.209078   1.000000
   74       -5.204177   1.000000
   75       -5.198060   1.000000
   76       -5.197283   1.000000
   77       -5.189355   1.000000
   78       -5.188847   1.000000
   79       -5.181375   1.000000
   80       -5.178845   1.000000
   81       -5.172407   1.000000
   82       -5.155336   1.000000
   83       -5.148020   1.000000
   84       -5.146895   1.000000
   85       -5.139970   1.000000
   86       -5.129246   1.000000
   87       -5.128399   1.000000
   88       -5.116764   1.000000
   89       -5.106185   1.000000
   90       -5.097786   1.000000
   91       -5.085336   1.000000
   92       -5.072618   1.000000
   93       -5.069093   1.000000
   94       -5.067871   1.000000
   95       -5.065088   1.000000
   96       -5.063593   1.000000
   97       -5.059932   1.000000
   98       -5.053484   1.000000
   99       -5.045401   1.000000
  100       -5.043963   1.000000
  101       -5.040752   1.000000
  102       -5.037085   1.000000
  103       -5.027211   1.000000
  104       -5.018848   1.000000
  105       -5.017595   1.000000
  106       -5.012517   1.000000
  107       -5.008769   1.000000
  108       -5.006881   1.000000
  109       -5.002810   1.000000
  110       -4.994548   1.000000
  111       -4.993651   1.000000
  112       -4.981693   1.000000
  113       -4.976773   0.999999
  114       -4.975220   0.999999
  115       -4.972144   0.999999
  116       -4.967813   0.999999
  117       -4.960155   0.999999
  118       -4.949465   0.999999
  119       -4.948399   0.999999
  120       -4.942813   0.999998
  121       -4.929295   0.999997
  122       -4.925486   0.999997
  123       -4.923811   0.999997
  124       -4.918832   0.999996
  125       -4.917727   0.999996
  126       -4.914705   0.999995
  127       -4.902170   0.999993
  128       -4.887481   0.999989
  129       -4.867995   0.999980
  130       -4.859339   0.999975
  131       -4.857526   0.999973
  132       -4.854279   0.999971
  133       -4.852029   0.999969
  134       -4.848407   0.999965
  135       -4.844529   0.999961
  136       -4.827834   0.999938
  137       -4.815771   0.999915
  138       -4.809992   0.999901
  139       -4.798422   0.999866
  140       -4.792510   0.999844
  141       -4.791255   0.999840
  142       -4.780980   0.999793
  143       -4.767777   0.999717
  144       -4.763717   0.999689
  145       -4.755136   0.999622
  146       -4.751691   0.999592
  147       -4.745077   0.999528
  148       -4.736284   0.999430
  149       -4.728747   0.999333
  150       -4.717177   0.999159
  151       -4.704725   0.998932
  152       -4.702614   0.998890
  153       -4.696341   0.998755
  154       -4.691043   0.998633
  155       -4.686268   0.998515
  156       -4.685979   0.998508
  157       -4.684157   0.998461
  158       -4.681873   0.998401
  159       -4.679838   0.998346
  160       -4.671947   0.998121
  161       -4.665100   0.997911
  162       -4.662938   0.997842
  163       -4.662006   0.997812
  164       -4.660241   0.997755
  165       -4.658755   0.997705
  166       -4.657801   0.997674
  167       -4.656388   0.997626
  168       -4.648730   0.997360
  169       -4.648464   0.997351
  170       -4.633955   0.996818
  171       -4.629150   0.996637
  172       -4.623308   0.996418
  173       -4.616399   0.996162
  174       -4.612224   0.996011
  175       -4.609002   0.995899
  176       -4.607635   0.995852
  177       -4.605375   0.995776
  178       -4.603373   0.995710
  179       -4.600974   0.995635
  180       -4.589875   0.995328
  181       -4.588970   0.995307
  182       -4.582064   0.995172
  183       -4.575954   0.995094
  184       -4.574666   0.995084
  185       -4.571360   0.995067
  186       -4.565967   0.995075
  187       -4.564354   0.995086
  188       -4.563621   0.995093
  189       -4.562344   0.995107
  190       -4.553530   0.995288
  191       -4.543960   0.995676
  192       -4.533202   0.996400
  193       -4.523978   0.997301
  194       -4.522367   0.997488
  195       -4.519870   0.997796
  196       -4.513717   0.998653
  197       -4.507393   0.999687
  198       -4.506359   0.999872
  199       -4.491104   1.003125
  200       -4.489459   1.003537
  201       -4.484687   1.004802
  202       -4.482293   1.005476
  203       -4.472574   1.008481
  204       -4.471397   1.008874
  205       -4.468652   1.009814
  206       -4.466420   1.010603
  207       -4.460582   1.012769
  208       -4.459262   1.013278
  209       -4.453577   1.015552
  210       -4.450702   1.016749
  211       -4.440433   1.021249
  212       -4.436694   1.022962
  213       -4.433966   1.024232
  214       -4.424034   1.028958
  215       -4.421967   1.029952
  216       -4.421354   1.030248
  217       -4.419001   1.031381
  218       -4.418206   1.031764
  219       -4.415704   1.032966
  220       -4.395325   1.042261
  221       -4.390431   1.044234
  222       -4.386157   1.045827
  223       -4.378232   1.048381
  224       -4.376270   1.048921
  225       -4.364392   1.051209
  226       -4.358918   1.051601
  227       -4.353572   1.051507
  228       -4.351170   1.051298
  229       -4.349170   1.051040
  230       -4.347527   1.050768
  231       -4.345847   1.050434
  232       -4.345316   1.050316
  233       -4.341043   1.049145
  234       -4.340805   1.049068
  235       -4.339343   1.048565
  236       -4.337982   1.048053
  237       -4.336089   1.047268
  238       -4.335380   1.046951
  239       -4.334240   1.046416
  240       -4.323632   1.039818
  241       -4.321713   1.038293
  242       -4.316955   1.034048
  243       -4.315046   1.032152
  244       -4.307963   1.024114
  245       -4.302636   1.016984
  246       -4.301768   1.015730
  247       -4.297477   1.009150
  248       -4.295480   1.005867
  249       -4.293644   1.002720
  250       -4.286991   0.990291
  251       -4.281829   0.979510
  252       -4.276177   0.966545
  253       -4.275632   0.965230
  254       -4.272142   0.956538
  255       -4.271593   0.955128
  256       -4.265737   0.939357
  257       -4.263335   0.932504
  258       -4.261997   0.928589
  259       -4.259423   0.920864
  260       -4.257869   0.916078
  261       -4.256528   0.911873
  262       -4.254412   0.905097
  263       -4.252115   0.897548
  264       -4.251303   0.894829
  265       -4.249945   0.890229
  266       -4.241050   0.858417
  267       -4.238492   0.848733
  268       -4.236879   0.842511
  269       -4.233611   0.829625
  270       -4.232325   0.824453
  271       -4.229255   0.811885
  272       -4.219935   0.771883
  273       -4.216215   0.755185
  274       -4.205145   0.703312
  275       -4.197079   0.663724
  276       -4.196309   0.659881
  277       -4.191204   0.634114
  278       -4.190236   0.629183
  279       -4.188290   0.619220
  280       -4.184537   0.599871
  281       -4.174462   0.547215
  282       -4.174031   0.544943
  283       -4.151901   0.428215
  284       -4.143444   0.384326
  285       -4.143128   0.382701
  286       -4.141531   0.374516
  287       -4.140204   0.367740
  288       -4.130723   0.320205
  289       -4.125872   0.296560
  290       -3.974431  -0.051622
  291       -3.851779  -0.006366
  292       -3.842377  -0.003740
  293       -3.827887  -0.000471
  294       -3.735055   0.004513
  295       -3.517597   0.000091
  296       -3.500546   0.000057
  297       -3.364307   0.000001
  298       -3.086232   0.000000
  299       -3.072461   0.000000
  300       -3.070305   0.000000
  301       -3.043215   0.000000
  302       -3.034534   0.000000
  303       -2.953644   0.000000
  304       -2.949675   0.000000
  305       -2.789724   0.000000
  306       -2.576005   0.000000
  307       -2.539692   0.000000
  308       -2.529857   0.000000
  309       -2.312131   0.000000
  310       -2.126126   0.000000
  311       -2.123764   0.000000
  312       -2.071487   0.000000
  313       -2.029765   0.000000
  314       -1.983232   0.000000
  315       -1.945698   0.000000
  316       -1.888647   0.000000
  317       -1.805420   0.000000
  318       -1.695851   0.000000
  319       -1.666176   0.000000
  320       -1.655062   0.000000
  321       -1.649640   0.000000
  322       -1.620793   0.000000
  323       -1.562292   0.000000
  324       -1.371459   0.000000
  325       -1.253707   0.000000
  326       -1.169628   0.000000
  327       -1.131137   0.000000
  328       -1.052144   0.000000
  329       -0.989714   0.000000
  330       -0.981531   0.000000
  331       -0.955126   0.000000
  332       -0.938457   0.000000
  333       -0.929036   0.000000
  334       -0.909520   0.000000
  335       -0.879451   0.000000
  336       -0.694682   0.000000
