       N       E                     dE             d eps       ncg     rms          rms(c)
DAV:   1     0.438416740438E+04    0.43842E+04   -0.10047E+05   688   0.815E+02
DAV:   2     0.201198064971E+04   -0.23722E+04   -0.21316E+04  1224   0.105E+02
DAV:   3     0.232922701055E+03   -0.17791E+04   -0.16759E+04   992   0.918E+01
DAV:   4    -0.134955674959E+03   -0.36788E+03   -0.31317E+03   832   0.435E+01
DAV:   5    -0.178923772607E+03   -0.43968E+02   -0.36214E+02  1056   0.144E+01    0.139E+01
RMM:   6    -0.178680261775E+03    0.24351E+00   -0.51577E+01   723   0.856E+00    0.229E+01
RMM:   7    -0.181448337372E+03   -0.27681E+01   -0.18348E+01   863   0.446E+00    0.237E+01
RMM:   8    -0.182586003306E+03   -0.11377E+01   -0.62018E+00   803   0.321E+00    0.231E+01
RMM:   9    -0.181381694237E+03    0.12043E+01   -0.51576E+00   723   0.321E+00    0.225E+01
RMM:  10    -0.179418986141E+03    0.19627E+01   -0.28726E+00   732   0.254E+00    0.238E+01
RMM:  11    -0.177389363642E+03    0.20296E+01   -0.16001E+00   729   0.189E+00    0.166E+01
RMM:  12    -0.176663646872E+03    0.72572E+00   -0.12117E+00   719   0.164E+00    0.175E+01
RMM:  13    -0.176091592228E+03    0.57205E+00   -0.73236E-01   730   0.126E+00    0.140E+01
RMM:  14    -0.176588780809E+03   -0.49719E+00   -0.11071E+00   716   0.154E+00    0.241E+01
RMM:  15    -0.176702347814E+03   -0.11357E+00   -0.98229E-01   715   0.144E+00    0.222E+01
RMM:  16    -0.175938026283E+03    0.76432E+00   -0.76120E-01   717   0.129E+00    0.199E+01
RMM:  17    -0.175498688108E+03    0.43934E+00   -0.61225E-01   713   0.115E+00    0.168E+01
RMM:  18    -0.174962930040E+03    0.53576E+00   -0.51615E-01   708   0.106E+00    0.105E+01
RMM:  19    -0.174954323271E+03    0.86068E-02   -0.40646E-01   715   0.946E-01    0.949E+00
RMM:  20    -0.174973588926E+03   -0.19266E-01   -0.29130E-01   712   0.830E-01    0.155E+01
RMM:  21    -0.174748316526E+03    0.22527E+00   -0.17353E-01   706   0.619E-01    0.952E+00
RMM:  22    -0.174544808251E+03    0.20351E+00   -0.20901E-01   710   0.673E-01    0.630E+00
RMM:  23    -0.174401251092E+03    0.14356E+00   -0.21298E-01   702   0.700E-01    0.522E+00
RMM:  24    -0.174440909145E+03   -0.39658E-01   -0.17309E-01   703   0.645E-01    0.701E+00
RMM:  25    -0.174327507857E+03    0.11340E+00   -0.10635E-01   705   0.516E-01    0.463E+00
RMM:  26    -0.174227348598E+03    0.10016E+00   -0.70751E-02   703   0.431E-01    0.280E+00
RMM:  27    -0.174199852163E+03    0.27496E-01   -0.50088E-02   701   0.357E-01    0.207E+00
RMM:  28    -0.174218388040E+03   -0.18536E-01   -0.35689E-02   702   0.294E-01    0.312E+00
RMM:  29    -0.174189996973E+03    0.28391E-01   -0.30277E-02   702   0.281E-01    0.260E+00
RMM:  30    -0.174166229284E+03    0.23768E-01   -0.16670E-02   702   0.227E-01    0.143E+00
RMM:  31    -0.174171762577E+03   -0.55333E-02   -0.16355E-02   702   0.206E-01    0.180E+00
RMM:  32    -0.174162664437E+03    0.90981E-02   -0.12377E-02   701   0.185E-01    0.131E+00
RMM:  33    -0.174156885341E+03    0.57791E-02   -0.63600E-03   702   0.140E-01    0.941E-01
RMM:  34    -0.174155233304E+03    0.16520E-02   -0.42836E-03   702   0.103E-01    0.819E-01
RMM:  35    -0.174153208903E+03    0.20244E-02   -0.31059E-03   700   0.897E-02    0.707E-01
RMM:  36    -0.174152733895E+03    0.47501E-03   -0.15622E-03   697   0.651E-02    0.449E-01
RMM:  37    -0.174153847273E+03   -0.11134E-02   -0.11383E-03   697   0.544E-02    0.376E-01
RMM:  38    -0.174154690599E+03   -0.84333E-03   -0.72956E-04   677   0.428E-02    0.318E-01
RMM:  39    -0.174158146767E+03   -0.34562E-02   -0.11676E-03   697   0.498E-02    0.408E-01
RMM:  40    -0.174160780521E+03   -0.26338E-02   -0.93497E-04   697   0.468E-02    0.298E-01
RMM:  41    -0.174162954181E+03   -0.21737E-02   -0.56886E-04   593   0.359E-02    0.269E-01
RMM:  42    -0.174165793653E+03   -0.28395E-02   -0.52483E-04   558   0.341E-02    0.243E-01
RMM:  43    -0.174167007723E+03   -0.12141E-02   -0.24158E-04   429   0.243E-02    0.199E-01
RMM:  44    -0.174169115734E+03   -0.21080E-02   -0.27492E-04   438   0.234E-02    0.157E-01
RMM:  45    -0.174170308645E+03   -0.11929E-02   -0.19047E-04   422   0.205E-02    0.999E-02
RMM:  46    -0.174172413194E+03   -0.21045E-02   -0.25430E-04   438   0.206E-02    0.127E-01
RMM:  47    -0.174174091124E+03   -0.16779E-02   -0.21786E-04   429   0.192E-02    0.924E-02
RMM:  48    -0.174174743919E+03   -0.65279E-03   -0.90541E-05   420   0.125E-02    0.856E-02
RMM:  49    -0.174176243011E+03   -0.14991E-02   -0.94912E-05   415   0.121E-02    0.685E-02
RMM:  50    -0.174176985050E+03   -0.74204E-03   -0.60657E-05   411   0.982E-03    0.588E-02
RMM:  51    -0.174177885621E+03   -0.90057E-03   -0.52701E-05   411   0.903E-03    0.517E-02
RMM:  52    -0.174178766495E+03   -0.88087E-03   -0.49008E-05   410   0.857E-03    0.295E-02
RMM:  53    -0.174179151581E+03   -0.38509E-03   -0.27278E-05   386   0.618E-03    0.302E-02
RMM:  54    -0.174179736472E+03   -0.58489E-03   -0.28072E-05   369   0.590E-03    0.207E-02
RMM:  55    -0.174179872507E+03   -0.13604E-03   -0.73201E-06   175   0.407E-03    0.158E-02
RMM:  56    -0.174180088424E+03   -0.21592E-03   -0.54040E-06   183   0.412E-03    0.278E-02
RMM:  57    -0.174180265017E+03   -0.17659E-03   -0.30373E-06   138   0.378E-03    0.950E-03
RMM:  58    -0.174180358507E+03   -0.93490E-04   -0.10048E-06    98   0.359E-03
   1 F= -.17418036E+03 E0= -.17416180E+03  d E =-.742313E-01
