<?xml version="1.0" encoding="ISO-8859-1"?>
<modeling>
 <generator>
  <i name="program" type="string">vasp </i>
  <i name="version" type="string">5.4.4.18Apr17-6-g9f103f2a35  </i>
  <i name="subversion" type="string">(build Sep 03 2018 23:53:05) complex            parallel </i>
  <i name="platform" type="string">LinuxIFC </i>
  <i name="date" type="string">2021 11 27 </i>
  <i name="time" type="string">00:40:32 </i>
 </generator>
 <incar>
  <i type="string" name="SYSTEM"> 6_Pd100_top_free_z(O)</i>
  <i type="int" name="ISTART">     0</i>
  <i type="string" name="PREC">normal   			! encut=max(enmax), ngx,y,z</i>
  <i type="string" name="ALGO"> Fast     			! Mix RMM-DIIS and Dav</i>
  <i type="logical" name="ADDGRID"> F  </i>
  <i type="int" name="ISPIN">     1</i>
  <i type="int" name="ICHARG">     2</i>
  <i type="int" name="NELM">   100</i>
  <i type="int" name="NELMIN">     6</i>
  <i type="int" name="IBRION">     2</i>
  <i name="EDIFF">      0.00010000</i>
  <i name="EDIFFG">     -0.05000000</i>
  <i type="int" name="NSW">     0</i>
  <i type="int" name="ISIF">     2</i>
  <i type="int" name="ISYM">     2</i>
  <i name="ENCUT">    400.00000000</i>
  <i type="string" name="LREAL"> Auto     			! Auto or A projection done</i>
  <i type="int" name="ISMEAR">     2</i>
  <i name="SIGMA">      0.20000000</i>
  <i type="logical" name="LWAVE"> F  </i>
  <i type="logical" name="LCHARG"> F  </i>
  <v type="int" name="KPOINT_BSE">    -1     0     0     0</v>
  <i type="int" name="MAXMEM"> 10000</i>
  <i type="int" name="NELM">   100</i>
  <i type="string" name="GGA"> RP         			! Revised PBE</i>
 </incar>
 <structure name="primitive_cell" >
  <crystal>
   <varray name="basis" >
    <v>      30.00000000       0.00000000       0.00000000 </v>
    <v>       0.00000000      30.00000000       0.00000000 </v>
    <v>       0.00000000       0.00000000      30.00000000 </v>
   </varray>
   <i name="volume">  27000.00000000 </i>
   <varray name="rec_basis" >
    <v>       0.03333333       0.00000000       0.00000000 </v>
    <v>       0.00000000       0.03333333       0.00000000 </v>
    <v>       0.00000000       0.00000000       0.03333333 </v>
   </varray>
  </crystal>
  <varray name="positions" >
   <v>       0.44576020       0.32826710       0.41691983 </v>
   <v>      -0.44576020       0.32826710       0.41691983 </v>
   <v>      -0.50000000       0.38250690       0.34021317 </v>
   <v>      -0.50000000       0.27609440      -0.50000000 </v>
   <v>       0.38804720       0.38804720       0.34167483 </v>
   <v>      -0.50000000       0.38416601      -0.50000000 </v>
   <v>       0.44208300       0.44208300       0.41809300 </v>
   <v>       0.38317830       0.38317830      -0.50000000 </v>
   <v>      -0.44208300       0.44208300       0.41809300 </v>
   <v>       0.44576020       0.32826710      -0.41691977 </v>
   <v>       0.32826705       0.44576024       0.41691983 </v>
   <v>      -0.38804720       0.38804720       0.34167483 </v>
   <v>      -0.38317830       0.38317830      -0.50000000 </v>
   <v>      -0.50000000      -0.50000000       0.33478917 </v>
   <v>      -0.50000000      -0.50000000      -0.50000000 </v>
   <v>      -0.44576020       0.32826710      -0.41691977 </v>
   <v>       0.38250685      -0.49999995       0.34021317 </v>
   <v>       0.44208300       0.44208300      -0.41809297 </v>
   <v>       0.38416599      -0.49999998      -0.50000000 </v>
   <v>      -0.44208300       0.44208300      -0.41809297 </v>
   <v>       0.44208298      -0.44208298       0.41809300 </v>
   <v>       0.32826705       0.44576024      -0.41691977 </v>
   <v>      -0.50000000       0.38250690      -0.34021320 </v>
   <v>       0.32826712      -0.44576022       0.41691983 </v>
   <v>      -0.38250685      -0.49999995       0.34021317 </v>
   <v>      -0.32826705       0.44576024       0.41691983 </v>
   <v>       0.27609443       0.49999998      -0.50000000 </v>
   <v>       0.38804720       0.38804720      -0.34167487 </v>
   <v>      -0.38416599      -0.49999998      -0.50000000 </v>
   <v>      -0.44208298      -0.44208298       0.41809300 </v>
   <v>       0.44208298      -0.44208298      -0.41809297 </v>
   <v>      -0.38804720       0.38804720      -0.34167487 </v>
   <v>       0.38804722      -0.38804722       0.34167483 </v>
   <v>       0.38250685      -0.49999995      -0.34021320 </v>
   <v>       0.32826712      -0.44576022      -0.41691977 </v>
   <v>      -0.32826705       0.44576024      -0.41691977 </v>
   <v>       0.50000000      -0.38250681       0.34021317 </v>
   <v>      -0.50000000      -0.38416596      -0.50000000 </v>
   <v>      -0.44208298      -0.44208298      -0.41809297 </v>
   <v>      -0.50000000      -0.50000000      -0.33478913 </v>
   <v>       0.38317828      -0.38317828      -0.50000000 </v>
   <v>      -0.32826712      -0.44576022       0.41691983 </v>
   <v>      -0.27609443       0.49999998      -0.50000000 </v>
   <v>      -0.38804722      -0.38804722       0.34167483 </v>
   <v>      -0.38250685      -0.49999995      -0.34021320 </v>
   <v>       0.44576027      -0.32826707       0.41691983 </v>
   <v>      -0.38317828      -0.38317828      -0.50000000 </v>
   <v>      -0.32826712      -0.44576022      -0.41691977 </v>
   <v>      -0.44576027      -0.32826707       0.41691983 </v>
   <v>       0.49655547       0.49300877      -0.25356990 </v>
   <v>       0.38804722      -0.38804722      -0.34167487 </v>
   <v>      -0.50000000      -0.38250681      -0.34021320 </v>
   <v>       0.44576027      -0.32826707      -0.41691977 </v>
   <v>      -0.44576027      -0.32826707      -0.41691977 </v>
   <v>       0.49603017       0.49194257      -0.21598870 </v>
   <v>      -0.50000000      -0.27609445       0.50000000 </v>
   <v>      -0.38804722      -0.38804722      -0.34167487 </v>
  </varray>
 </structure>
 <varray name="primitive_index" >
  <v type="int" >        1 </v>
  <v type="int" >        3 </v>
  <v type="int" >        5 </v>
  <v type="int" >        7 </v>
  <v type="int" >       15 </v>
  <v type="int" >       29 </v>
  <v type="int" >       28 </v>
  <v type="int" >       34 </v>
  <v type="int" >       21 </v>
  <v type="int" >       19 </v>
  <v type="int" >       22 </v>
  <v type="int" >       11 </v>
  <v type="int" >       36 </v>
  <v type="int" >       38 </v>
  <v type="int" >       52 </v>
  <v type="int" >       24 </v>
  <v type="int" >       32 </v>
  <v type="int" >       44 </v>
  <v type="int" >       48 </v>
  <v type="int" >       42 </v>
  <v type="int" >       43 </v>
  <v type="int" >       40 </v>
  <v type="int" >        6 </v>
  <v type="int" >        4 </v>
  <v type="int" >       30 </v>
  <v type="int" >       26 </v>
  <v type="int" >        8 </v>
  <v type="int" >       16 </v>
  <v type="int" >       49 </v>
  <v type="int" >       47 </v>
  <v type="int" >       53 </v>
  <v type="int" >       12 </v>
  <v type="int" >       13 </v>
  <v type="int" >       33 </v>
  <v type="int" >       25 </v>
  <v type="int" >       45 </v>
  <v type="int" >       50 </v>
  <v type="int" >       55 </v>
  <v type="int" >       54 </v>
  <v type="int" >       39 </v>
  <v type="int" >       37 </v>
  <v type="int" >        2 </v>
  <v type="int" >        9 </v>
  <v type="int" >       17 </v>
  <v type="int" >       31 </v>
  <v type="int" >       27 </v>
  <v type="int" >       35 </v>
  <v type="int" >       20 </v>
  <v type="int" >       23 </v>
  <v type="int" >       56 </v>
  <v type="int" >       14 </v>
  <v type="int" >       51 </v>
  <v type="int" >       46 </v>
  <v type="int" >       41 </v>
  <v type="int" >       57 </v>
  <v type="int" >       10 </v>
  <v type="int" >       18 </v>
 </varray>
 <kpoints>
  <generation param="Monkhorst-Pack">
   <v type="int" name="divisions">       1        1        1 </v>
   <v name="usershift">      0.00000000       0.00000000       0.00000000 </v>
   <v name="genvec1">      1.00000000       0.00000000       0.00000000 </v>
   <v name="genvec2">      0.00000000       1.00000000       0.00000000 </v>
   <v name="genvec3">      0.00000000       0.00000000       1.00000000 </v>
   <v name="shift">      0.00000000       0.00000000       0.00000000 </v>
  </generation>
  <varray name="kpointlist" >
   <v>       0.00000000       0.00000000       0.00000000 </v>
  </varray>
  <varray name="weights" >
   <v>       1.00000000 </v>
  </varray>
 </kpoints>
 <parameters>
  <separator name="general" >
   <i type="string" name="SYSTEM">6_Pd100_top_free_z(O)</i>
   <i type="logical" name="LCOMPAT"> F  </i>
  </separator>
  <separator name="electronic" >
   <i type="string" name="PREC">normal</i>
   <i name="ENMAX">    400.00000000</i>
   <i name="ENAUG">    644.87300000</i>
   <i name="EDIFF">      0.00010000</i>
   <i type="int" name="IALGO">    68</i>
   <i type="int" name="IWAVPR">    10</i>
   <i type="int" name="NBANDS">   336</i>
   <i name="NELECT">    560.00000000</i>
   <i type="int" name="TURBO">     0</i>
   <i type="int" name="IRESTART">     0</i>
   <i type="int" name="NREBOOT">     0</i>
   <i type="int" name="NMIN">     0</i>
   <i name="EREF">      0.00000000</i>
   <separator name="electronic smearing" >
    <i type="int" name="ISMEAR">     2</i>
    <i name="SIGMA">      0.20000000</i>
    <i name="KSPACING">      0.50000000</i>
    <i type="logical" name="KGAMMA"> T  </i>
   </separator>
   <separator name="electronic projectors" >
    <i type="logical" name="LREAL"> T  </i>
    <v name="ROPT">     -0.00050000     -0.00050000     -0.00050000</v>
    <i type="int" name="LMAXPAW">  -100</i>
    <i type="int" name="LMAXMIX">     2</i>
    <i type="logical" name="NLSPLINE"> F  </i>
   </separator>
   <separator name="electronic startup" >
    <i type="int" name="ISTART">     0</i>
    <i type="int" name="ICHARG">     2</i>
    <i type="int" name="INIWAV">     1</i>
   </separator>
   <separator name="electronic spin" >
    <i type="int" name="ISPIN">     1</i>
    <i type="logical" name="LNONCOLLINEAR"> F  </i>
    <v name="MAGMOM">      1.00000000      1.00000000      1.00000000      1.00000000      1.00000000      1.00000000      1.00000000      1.00000000      1.00000000      1.00000000      1.00000000      1.00000000      1.00000000      1.00000000      1.00000000      1.00000000      1.00000000      1.00000000      1.00000000      1.00000000
      1.00000000      1.00000000      1.00000000      1.00000000      1.00000000      1.00000000      1.00000000      1.00000000      1.00000000      1.00000000      1.00000000      1.00000000      1.00000000      1.00000000      1.00000000      1.00000000      1.00000000      1.00000000      1.00000000      1.00000000
      1.00000000      1.00000000      1.00000000      1.00000000      1.00000000      1.00000000      1.00000000      1.00000000      1.00000000      1.00000000      1.00000000      1.00000000      1.00000000      1.00000000      1.00000000      1.00000000      1.00000000</v>
    <i name="NUPDOWN">     -1.00000000</i>
    <i type="logical" name="LSORBIT"> F  </i>
    <v name="SAXIS">      0.00000000      0.00000000      1.00000000</v>
    <i type="logical" name="LSPIRAL"> F  </i>
    <v name="QSPIRAL">      0.00000000      0.00000000      0.00000000</v>
    <i type="logical" name="LZEROZ"> F  </i>
   </separator>
   <separator name="electronic exchange-correlation" >
    <i type="logical" name="LASPH"> F  </i>
    <i type="logical" name="LMETAGGA"> F  </i>
   </separator>
   <separator name="electronic convergence" >
    <i type="int" name="NELM">   100</i>
    <i type="int" name="NELMDL">    -5</i>
    <i type="int" name="NELMIN">     6</i>
    <i name="ENINI">    400.00000000</i>
    <separator name="electronic convergence detail" >
     <i type="logical" name="LDIAG"> T  </i>
     <i type="logical" name="LSUBROT"> F  </i>
     <i name="WEIMIN">      0.00000000</i>
     <i name="EBREAK">      0.00000007</i>
     <i name="DEPER">      0.30000000</i>
     <i type="int" name="NRMM">     4</i>
     <i name="TIME">      0.40000000</i>
    </separator>
   </separator>
   <separator name="electronic mixer" >
    <i name="AMIX">      0.40000000</i>
    <i name="BMIX">      1.00000000</i>
    <i name="AMIN">      0.10000000</i>
    <i name="AMIX_MAG">      1.60000000</i>
    <i name="BMIX_MAG">      1.00000000</i>
    <separator name="electronic mixer details" >
     <i type="int" name="IMIX">     4</i>
     <i type="logical" name="MIXFIRST"> F  </i>
     <i type="int" name="MAXMIX">   -45</i>
     <i name="WC">    100.00000000</i>
     <i type="int" name="INIMIX">     1</i>
     <i type="int" name="MIXPRE">     1</i>
     <i type="int" name="MREMOVE">     5</i>
    </separator>
   </separator>
   <separator name="electronic dipolcorrection" >
    <i type="logical" name="LDIPOL"> F  </i>
    <i type="logical" name="LMONO"> F  </i>
    <i type="int" name="IDIPOL">     0</i>
    <i name="EPSILON">      1.00000000</i>
    <v name="DIPOL">   -100.00000000   -100.00000000   -100.00000000</v>
    <i name="EFIELD">      0.00000000</i>
   </separator>
  </separator>
  <separator name="grids" >
   <i type="int" name="NGX">   150</i>
   <i type="int" name="NGY">   150</i>
   <i type="int" name="NGZ">   150</i>
   <i type="int" name="NGXF">   300</i>
   <i type="int" name="NGYF">   300</i>
   <i type="int" name="NGZF">   300</i>
   <i type="logical" name="ADDGRID"> F  </i>
  </separator>
  <separator name="ionic" >
   <i type="int" name="NSW">     0</i>
   <i type="int" name="IBRION">    -1</i>
   <i type="int" name="MDALGO">     0</i>
   <i type="int" name="ISIF">     2</i>
   <i name="PSTRESS">      0.00000000</i>
   <i name="EDIFFG">     -0.05000000</i>
   <i type="int" name="NFREE">     1</i>
   <i name="POTIM">      0.50000000</i>
   <i name="SMASS">     -3.00000000</i>
   <i name="SCALEE">      1.00000000</i>
  </separator>
  <separator name="ionic md" >
   <i name="TEBEG">      0.00010000</i>
   <i name="TEEND">      0.00010000</i>
   <i type="int" name="NBLOCK">     1</i>
   <i type="int" name="KBLOCK">     1</i>
   <i type="int" name="NPACO">   256</i>
   <i name="APACO">     16.00000000</i>
  </separator>
  <separator name="symmetry" >
   <i type="int" name="ISYM">     2</i>
   <i name="SYMPREC">      0.00001000</i>
  </separator>
  <separator name="dos" >
   <i type="int" name="LORBIT">     0</i>
   <v name="RWIGS">     -1.00000000     -1.00000000     -1.00000000</v>
   <i type="int" name="NEDOS">   301</i>
   <i name="EMIN">     10.00000000</i>
   <i name="EMAX">    -10.00000000</i>
   <i name="EFERMI">      0.00000000</i>
  </separator>
  <separator name="writing" >
   <i type="int" name="NWRITE">     2</i>
   <i type="logical" name="LWAVE"> F  </i>
   <i type="logical" name="LDOWNSAMPLE"> F  </i>
   <i type="logical" name="LCHARG"> F  </i>
   <i type="logical" name="LPARD"> F  </i>
   <i type="logical" name="LVTOT"> F  </i>
   <i type="logical" name="LVHAR"> F  </i>
   <i type="logical" name="LELF"> F  </i>
   <i type="logical" name="LOPTICS"> F  </i>
   <v name="STM">      0.00000000      0.00000000      0.00000000      0.00000000      0.00000000      0.00000000      0.00000000</v>
  </separator>
  <separator name="performance" >
   <i type="int" name="NPAR">     1</i>
   <i type="int" name="NSIM">     4</i>
   <i type="int" name="NBLK">    -1</i>
   <i type="logical" name="LPLANE"> T  </i>
   <i type="logical" name="LSCALAPACK"> T  </i>
   <i type="logical" name="LSCAAWARE"> F  </i>
   <i type="logical" name="LSCALU"> F  </i>
   <i type="logical" name="LASYNC"> F  </i>
   <i type="logical" name="LORBITALREAL"> F  </i>
  </separator>
  <separator name="miscellaneous" >
   <i type="int" name="IDIOT">     3</i>
   <i type="int" name="ISPECIAL">     0</i>
   <i type="logical" name="LMUSIC"> F  </i>
   <v name="POMASS">    106.42000000     12.01100000     16.00000000</v>
   <v name="DARWINR">      0.00000000      0.00000000      0.00000000</v>
   <v name="DARWINV">      1.00000000      1.00000000      1.00000000</v>
   <i type="logical" name="LCORR"> T  </i>
  </separator>
  <i type="logical" name="GGA_COMPAT"> T  </i>
  <i type="logical" name="LBERRY"> F  </i>
  <i type="int" name="ICORELEVEL">     0</i>
  <i type="logical" name="LDAU"> F  </i>
  <i type="int" name="I_CONSTRAINED_M">     0</i>
  <separator name="electronic exchange-correlation" >
   <i type="string" name="GGA">RP</i>
   <i type="int" name="VOSKOWN">     0</i>
   <i type="logical" name="LHFCALC"> F  </i>
   <i type="string" name="PRECFOCK"></i>
   <i type="logical" name="LSYMGRAD"> F  </i>
   <i type="logical" name="LHFONE"> F  </i>
   <i type="logical" name="LRHFCALC"> F  </i>
   <i type="logical" name="LTHOMAS"> F  </i>
   <i type="logical" name="LMODELHF"> F  </i>
   <i name="ENCUT4O">     -1.00000000</i>
   <i type="int" name="EXXOEP">     0</i>
   <i type="int" name="FOURORBIT">     0</i>
   <i name="AEXX">      0.00000000</i>
   <i name="HFALPHA">      0.00000000</i>
   <i name="MCALPHA">      0.00000000</i>
   <i name="ALDAX">      1.00000000</i>
   <i name="AGGAX">      1.00000000</i>
   <i name="ALDAC">      1.00000000</i>
   <i name="AGGAC">      1.00000000</i>
   <i type="int" name="NKREDX">     1</i>
   <i type="int" name="NKREDY">     1</i>
   <i type="int" name="NKREDZ">     1</i>
   <i type="logical" name="SHIFTRED"> F  </i>
   <i type="logical" name="ODDONLY"> F  </i>
   <i type="logical" name="EVENONLY"> F  </i>
   <i type="int" name="LMAXFOCK">     0</i>
   <i type="int" name="NMAXFOCKAE">     0</i>
   <i type="logical" name="LFOCKAEDFT"> F  </i>
   <i name="HFSCREEN">      0.00000000</i>
   <i name="HFSCREENC">      0.00000000</i>
   <i type="int" name="NBANDSGWLOW">     0</i>
  </separator>
  <separator name="vdW DFT" >
   <i type="logical" name="LUSE_VDW"> F  </i>
   <i name="Zab_VDW">     -0.84910000</i>
   <i name="PARAM1">      0.12340000</i>
   <i name="PARAM2">      1.00000000</i>
   <i name="PARAM3">      0.00000000</i>
  </separator>
  <separator name="model GW" >
   <i type="int" name="MODEL_GW">     0</i>
   <i name="MODEL_EPS0">    284.21052632</i>
   <i name="MODEL_ALPHA">      1.00000000</i>
  </separator>
  <separator name="linear response parameters" >
   <i type="logical" name="LEPSILON"> F  </i>
   <i type="logical" name="LRPA"> F  </i>
   <i type="logical" name="LNABLA"> F  </i>
   <i type="logical" name="LVEL"> F  </i>
   <i type="int" name="KINTER">     0</i>
   <i name="CSHIFT">      0.10000000</i>
   <i name="OMEGAMAX">     -1.00000000</i>
   <i name="DEG_THRESHOLD">      0.00200000</i>
   <i name="RTIME">     -0.10000000</i>
   <i name="WPLASMAI">      0.00000000</i>
   <v name="DFIELD">      0.00000000      0.00000000      0.00000000</v>
   <v name="WPLASMA">      0.00000000      0.00000000      0.00000000      0.00000000      0.00000000      0.00000000      0.00000000      0.00000000      0.00000000</v>
  </separator>
  <separator name="orbital magnetization" >
   <i type="logical" name="NUCIND"> F  </i>
   <v name="MAGPOS">      0.00000000      0.00000000      0.00000000</v>
   <i type="logical" name="LNICSALL"> T  </i>
   <i type="logical" name="ORBITALMAG"> F  </i>
   <i type="logical" name="LMAGBLOCH"> F  </i>
   <i type="logical" name="LCHIMAG"> F  </i>
   <i type="logical" name="LGAUGE"> T  </i>
   <i type="int" name="MAGATOM">     0</i>
   <v name="MAGDIPOL">      0.00000000      0.00000000      0.00000000</v>
   <v name="AVECCONST">      0.00000000      0.00000000      0.00000000</v>
  </separator>
  <separator name="response functions" >
   <i type="logical" name="LADDER"> F  </i>
   <i type="logical" name="LRPAFORCE"> F  </i>
   <i type="logical" name="LFXC"> F  </i>
   <i type="logical" name="LHARTREE"> T  </i>
   <i type="int" name="IBSE">     0</i>
   <v type="int" name="KPOINT">    -1     0     0     0</v>
   <i type="logical" name="LTCTE"> F  </i>
   <i type="logical" name="LTETE"> F  </i>
   <i type="logical" name="LTRIPLET"> F  </i>
   <i type="logical" name="LFXCEPS"> F  </i>
   <i type="logical" name="LFXHEG"> F  </i>
   <i type="int" name="NATURALO">     2</i>
   <i type="logical" name="L2ORDER"> F  </i>
   <i type="logical" name="LMP2LT"> F  </i>
   <i type="logical" name="LUSEW"> F  </i>
   <i name="ENCUTGW">     -2.00000000</i>
   <i name="ENCUTGWSOFT">     -2.00000000</i>
   <i name="ENCUTLF">     -1.00000000</i>
   <i type="int" name="LMAXMP2">    -1</i>
   <i name="SCISSOR">      0.00000000</i>
   <i type="int" name="NOMEGA">     0</i>
   <i type="int" name="NOMEGAR">     0</i>
   <i type="int" name="NBANDSGW">    -1</i>
   <i type="int" name="NBANDSO">    -1</i>
   <i type="int" name="NBANDSV">    -1</i>
   <i type="int" name="NELM">   100</i>
   <i type="int" name="NELMHF">     1</i>
   <i type="int" name="DIM">     3</i>
   <i type="int" name="ANTIRES">     0</i>
   <i name="OMEGAMAX">    -30.00000000</i>
   <i name="OMEGAMIN">    -30.00000000</i>
   <i name="OMEGATL">   -200.00000000</i>
   <i type="int" name="OMEGAGRID">   140</i>
   <i name="CSHIFT">     -0.10000000</i>
   <i type="logical" name="SELFENERGY"> F  </i>
   <i type="logical" name="LSPECTRAL"> F  </i>
   <i type="logical" name="LSPECTRALGW"> F  </i>
   <i type="logical" name="LSINGLES"> F  </i>
   <i type="logical" name="LFERMIGW"> F  </i>
   <i type="logical" name="ODDONLYGW"> F  </i>
   <i type="logical" name="EVENONLYGW"> F  </i>
   <i type="int" name="NKREDLFX">     1</i>
   <i type="int" name="NKREDLFY">     1</i>
   <i type="int" name="NKREDLFZ">     1</i>
   <i type="int" name="MAXMEM"> 10000</i>
   <i type="int" name="TELESCOPE">     0</i>
   <i type="int" name="TAUPAR">     1</i>
   <i type="int" name="OMEGAPAR">    -1</i>
   <i name="LAMBDA">      1.00000000</i>
  </separator>
  <separator name="External order field" >
   <i name="OFIELD_KAPPA">      0.00000000</i>
   <v name="OFIELD_K">      0.00000000      0.00000000      0.00000000</v>
   <i name="OFIELD_Q6_NEAR">      0.00000000</i>
   <i name="OFIELD_Q6_FAR">      0.00000000</i>
   <i name="OFIELD_A">      0.00000000</i>
  </separator>
 </parameters>
 <atominfo>
  <atoms>      57 </atoms>
  <types>       3 </types>
  <array name="atoms" >
   <dimension dim="1">ion</dimension>
   <field type="string">element</field>
   <field type="int">atomtype</field>
   <set>
    <rc><c>Pd</c><c>   1</c></rc>
    <rc><c>Pd</c><c>   1</c></rc>
    <rc><c>Pd</c><c>   1</c></rc>
    <rc><c>Pd</c><c>   1</c></rc>
    <rc><c>Pd</c><c>   1</c></rc>
    <rc><c>Pd</c><c>   1</c></rc>
    <rc><c>Pd</c><c>   1</c></rc>
    <rc><c>Pd</c><c>   1</c></rc>
    <rc><c>Pd</c><c>   1</c></rc>
    <rc><c>Pd</c><c>   1</c></rc>
    <rc><c>Pd</c><c>   1</c></rc>
    <rc><c>Pd</c><c>   1</c></rc>
    <rc><c>Pd</c><c>   1</c></rc>
    <rc><c>Pd</c><c>   1</c></rc>
    <rc><c>Pd</c><c>   1</c></rc>
    <rc><c>Pd</c><c>   1</c></rc>
    <rc><c>Pd</c><c>   1</c></rc>
    <rc><c>Pd</c><c>   1</c></rc>
    <rc><c>Pd</c><c>   1</c></rc>
    <rc><c>Pd</c><c>   1</c></rc>
    <rc><c>Pd</c><c>   1</c></rc>
    <rc><c>Pd</c><c>   1</c></rc>
    <rc><c>Pd</c><c>   1</c></rc>
    <rc><c>Pd</c><c>   1</c></rc>
    <rc><c>Pd</c><c>   1</c></rc>
    <rc><c>Pd</c><c>   1</c></rc>
    <rc><c>Pd</c><c>   1</c></rc>
    <rc><c>Pd</c><c>   1</c></rc>
    <rc><c>Pd</c><c>   1</c></rc>
    <rc><c>Pd</c><c>   1</c></rc>
    <rc><c>Pd</c><c>   1</c></rc>
    <rc><c>Pd</c><c>   1</c></rc>
    <rc><c>Pd</c><c>   1</c></rc>
    <rc><c>Pd</c><c>   1</c></rc>
    <rc><c>Pd</c><c>   1</c></rc>
    <rc><c>Pd</c><c>   1</c></rc>
    <rc><c>Pd</c><c>   1</c></rc>
    <rc><c>Pd</c><c>   1</c></rc>
    <rc><c>Pd</c><c>   1</c></rc>
    <rc><c>Pd</c><c>   1</c></rc>
    <rc><c>Pd</c><c>   1</c></rc>
    <rc><c>Pd</c><c>   1</c></rc>
    <rc><c>Pd</c><c>   1</c></rc>
    <rc><c>Pd</c><c>   1</c></rc>
    <rc><c>Pd</c><c>   1</c></rc>
    <rc><c>Pd</c><c>   1</c></rc>
    <rc><c>Pd</c><c>   1</c></rc>
    <rc><c>Pd</c><c>   1</c></rc>
    <rc><c>Pd</c><c>   1</c></rc>
    <rc><c>Pd</c><c>   1</c></rc>
    <rc><c>Pd</c><c>   1</c></rc>
    <rc><c>Pd</c><c>   1</c></rc>
    <rc><c>Pd</c><c>   1</c></rc>
    <rc><c>Pd</c><c>   1</c></rc>
    <rc><c>Pd</c><c>   1</c></rc>
    <rc><c>C </c><c>   2</c></rc>
    <rc><c>O </c><c>   3</c></rc>
   </set>
  </array>
  <array name="atomtypes" >
   <dimension dim="1">type</dimension>
   <field type="int">atomspertype</field>
   <field type="string">element</field>
   <field>mass</field>
   <field>valence</field>
   <field type="string">pseudopotential</field>
   <set>
    <rc><c>  55</c><c>Pd</c><c>    106.42000000</c><c>     10.00000000</c><c>  PAW_PBE Pd 04Jan2005                  </c></rc>
    <rc><c>   1</c><c>C </c><c>     12.01100000</c><c>      4.00000000</c><c>  PAW_PBE C 08Apr2002                   </c></rc>
    <rc><c>   1</c><c>O </c><c>     16.00000000</c><c>      6.00000000</c><c>  PAW_PBE O 08Apr2002                   </c></rc>
   </set>
  </array>
 </atominfo>
 <structure name="initialpos" >
  <crystal>
   <varray name="basis" >
    <v>      30.00000000       0.00000000       0.00000000 </v>
    <v>       0.00000000      30.00000000       0.00000000 </v>
    <v>       0.00000000       0.00000000      30.00000000 </v>
   </varray>
   <i name="volume">  27000.00000000 </i>
   <varray name="rec_basis" >
    <v>       0.03333333       0.00000000       0.00000000 </v>
    <v>       0.00000000       0.03333333       0.00000000 </v>
    <v>       0.00000000       0.00000000       0.03333333 </v>
   </varray>
  </crystal>
  <varray name="positions" >
   <v>       0.44576020       0.32826710       0.41691983 </v>
   <v>       0.67173288       0.55423978       0.41691983 </v>
   <v>       0.55423980       0.32826710       0.41691983 </v>
   <v>       0.32826712       0.55423978       0.41691983 </v>
   <v>       0.50000000       0.38250690       0.34021317 </v>
   <v>       0.50000000       0.38250690       0.65978680 </v>
   <v>       0.50000000       0.27609440       0.50000000 </v>
   <v>       0.27609443       0.49999998       0.50000000 </v>
   <v>       0.72390557       0.49999998       0.50000000 </v>
   <v>       0.50000000       0.72390555       0.50000000 </v>
   <v>       0.61195280       0.38804720       0.34167483 </v>
   <v>       0.61195280       0.38804720       0.65832513 </v>
   <v>       0.38804722       0.61195278       0.34167483 </v>
   <v>       0.38804722       0.61195278       0.65832513 </v>
   <v>       0.38804720       0.38804720       0.34167483 </v>
   <v>       0.38804720       0.38804720       0.65832513 </v>
   <v>       0.61195278       0.61195278       0.34167483 </v>
   <v>       0.61195278       0.61195278       0.65832513 </v>
   <v>       0.44576020       0.32826710       0.58308023 </v>
   <v>       0.67173288       0.55423978       0.58308023 </v>
   <v>       0.55791699       0.44208301       0.41809300 </v>
   <v>       0.32826705       0.44576024       0.41691983 </v>
   <v>       0.55423973       0.67173293       0.41691983 </v>
   <v>       0.55423980       0.32826710       0.58308023 </v>
   <v>       0.32826712       0.55423978       0.58308023 </v>
   <v>       0.67173295       0.44576024       0.41691983 </v>
   <v>       0.44576027       0.67173293       0.41691983 </v>
   <v>       0.44208301       0.44208301       0.41809300 </v>
   <v>       0.50000000       0.38416601       0.50000000 </v>
   <v>       0.61749315       0.50000005       0.34021317 </v>
   <v>       0.61749315       0.50000005       0.65978680 </v>
   <v>       0.38250685       0.50000005       0.34021317 </v>
   <v>       0.38250685       0.50000005       0.65978680 </v>
   <v>       0.38317830       0.38317830       0.50000000 </v>
   <v>       0.61682172       0.61682172       0.50000000 </v>
   <v>       0.61682170       0.38317830       0.50000000 </v>
   <v>       0.38317828       0.61682172       0.50000000 </v>
   <v>       0.50000000       0.50000000       0.33478917 </v>
   <v>       0.50000000       0.50000000       0.66521087 </v>
   <v>       0.32826705       0.44576024       0.58308023 </v>
   <v>       0.55423973       0.67173293       0.58308023 </v>
   <v>       0.55791699       0.44208301       0.58190703 </v>
   <v>       0.44208298       0.55791702       0.41809300 </v>
   <v>       0.44208301       0.44208301       0.58190703 </v>
   <v>       0.67173295       0.44576024       0.58308023 </v>
   <v>       0.44576027       0.67173293       0.58308023 </v>
   <v>       0.55791702       0.55791702       0.41809300 </v>
   <v>       0.38416599       0.50000002       0.50000000 </v>
   <v>       0.61583401       0.50000002       0.50000000 </v>
   <v>       0.50000000       0.61749319       0.34021317 </v>
   <v>       0.50000000       0.61749319       0.65978680 </v>
   <v>       0.50000000       0.50000000       0.50000000 </v>
   <v>       0.44208298       0.55791702       0.58190703 </v>
   <v>       0.55791702       0.55791702       0.58190703 </v>
   <v>       0.50000000       0.61583404       0.50000000 </v>
   <v>       0.49655547       0.49300877       0.74643010 </v>
   <v>       0.49603017       0.49194257       0.78401130 </v>
  </varray>
  <varray name="selective"  type="logical" >
   <v type="logical" >  F  F  F </v>
   <v type="logical" >  F  F  F </v>
   <v type="logical" >  F  F  F </v>
   <v type="logical" >  F  F  F </v>
   <v type="logical" >  F  F  F </v>
   <v type="logical" >  F  F  F </v>
   <v type="logical" >  F  F  F </v>
   <v type="logical" >  F  F  F </v>
   <v type="logical" >  F  F  F </v>
   <v type="logical" >  F  F  F </v>
   <v type="logical" >  F  F  F </v>
   <v type="logical" >  F  F  F </v>
   <v type="logical" >  F  F  F </v>
   <v type="logical" >  F  F  F </v>
   <v type="logical" >  F  F  F </v>
   <v type="logical" >  F  F  F </v>
   <v type="logical" >  F  F  F </v>
   <v type="logical" >  F  F  F </v>
   <v type="logical" >  F  F  F </v>
   <v type="logical" >  F  F  F </v>
   <v type="logical" >  F  F  F </v>
   <v type="logical" >  F  F  F </v>
   <v type="logical" >  F  F  F </v>
   <v type="logical" >  F  F  F </v>
   <v type="logical" >  F  F  F </v>
   <v type="logical" >  F  F  F </v>
   <v type="logical" >  F  F  F </v>
   <v type="logical" >  F  F  F </v>
   <v type="logical" >  F  F  F </v>
   <v type="logical" >  F  F  F </v>
   <v type="logical" >  F  F  F </v>
   <v type="logical" >  F  F  F </v>
   <v type="logical" >  F  F  F </v>
   <v type="logical" >  F  F  F </v>
   <v type="logical" >  F  F  F </v>
   <v type="logical" >  F  F  F </v>
   <v type="logical" >  F  F  F </v>
   <v type="logical" >  F  F  F </v>
   <v type="logical" >  F  F  F </v>
   <v type="logical" >  F  F  F </v>
   <v type="logical" >  F  F  F </v>
   <v type="logical" >  F  F  F </v>
   <v type="logical" >  F  F  F </v>
   <v type="logical" >  F  F  F </v>
   <v type="logical" >  F  F  F </v>
   <v type="logical" >  F  F  F </v>
   <v type="logical" >  F  F  F </v>
   <v type="logical" >  F  F  F </v>
   <v type="logical" >  F  F  F </v>
   <v type="logical" >  F  F  F </v>
   <v type="logical" >  F  F  F </v>
   <v type="logical" >  F  F  F </v>
   <v type="logical" >  F  F  F </v>
   <v type="logical" >  F  F  F </v>
   <v type="logical" >  F  F  F </v>
   <v type="logical" >  F  F  F </v>
   <v type="logical" >  F  F  F </v>
  </varray>
  <nose>
   <v>      -3.00000000       0.00000000       0.00010000       0.00010000 </v>
  </nose>
 </structure>
 <calculation>
  <scstep>
   <time name="dav">  360.93  360.99</time>
   <time name="total">  374.67  374.75</time>
   <energy>
    <i name="alphaZ">     75.25431677 </i>
    <i name="ewald"> 138067.42777574 </i>
    <i name="hartreedc">-181434.50935406 </i>
    <i name="XCdc">  -1703.84857550 </i>
    <i name="pawpsdc">  44873.02882129 </i>
    <i name="pawaedc"> -41398.84523641 </i>
    <i name="eentropy">      0.01672333 </i>
    <i name="bandstr">    819.13743927 </i>
    <i name="atom">  45086.50549395 </i>
    <i name="e_fr_energy">   4384.16740438 </i>
    <i name="e_wo_entrp">   4384.15068105 </i>
    <i name="e_0_energy">   4384.16322355 </i>
   </energy>
  </scstep>
  <scstep>
   <time name="dav">  585.02  585.05</time>
   <time name="total">  585.02  585.05</time>
   <energy>
    <i name="e_fr_energy">   2011.98064971 </i>
    <i name="e_wo_entrp">   2012.01768156 </i>
    <i name="e_0_energy">   2011.98990768 </i>
   </energy>
  </scstep>
  <scstep>
   <time name="dav">  493.31  493.33</time>
   <time name="total">  493.31  493.33</time>
   <energy>
    <i name="e_fr_energy">    232.92270105 </i>
    <i name="e_wo_entrp">    232.94251976 </i>
    <i name="e_0_energy">    232.92765573 </i>
   </energy>
  </scstep>
  <scstep>
   <time name="dav">  431.53  431.56</time>
   <time name="total">  431.53  431.56</time>
   <energy>
    <i name="e_fr_energy">   -134.95567496 </i>
    <i name="e_wo_entrp">   -135.03092800 </i>
    <i name="e_0_energy">   -134.97448822 </i>
   </energy>
  </scstep>
  <scstep>
   <time name="dav">  523.86  523.89</time>
   <time name="total">  550.18  550.21</time>
   <energy>
    <i name="e_fr_energy">   -178.92377261 </i>
    <i name="e_wo_entrp">   -179.45055331 </i>
    <i name="e_0_energy">   -179.05546778 </i>
   </energy>
  </scstep>
  <scstep>
   <time name="diag">   66.50   66.51</time>
   <time name="diis">  193.29  193.30</time>
   <time name="orth">   12.89   12.90</time>
   <time name="total">  312.81  312.83</time>
   <energy>
    <i name="e_fr_energy">   -178.68026177 </i>
    <i name="e_wo_entrp">   -178.45115793 </i>
    <i name="e_0_energy">   -178.62298581 </i>
   </energy>
  </scstep>
  <scstep>
   <time name="diag">   68.08   68.08</time>
   <time name="diis">  232.05  232.08</time>
   <time name="orth">   12.71   12.71</time>
   <time name="total">  352.60  352.65</time>
   <energy>
    <i name="e_fr_energy">   -181.44833737 </i>
    <i name="e_wo_entrp">   -181.47191102 </i>
    <i name="e_0_energy">   -181.45423078 </i>
   </energy>
  </scstep>
  <scstep>
   <time name="diag">   67.84   67.85</time>
   <time name="diis">  216.70  216.71</time>
   <time name="orth">   12.98   12.98</time>
   <time name="total">  337.21  337.23</time>
   <energy>
    <i name="e_fr_energy">   -182.58600331 </i>
    <i name="e_wo_entrp">   -182.40980693 </i>
    <i name="e_0_energy">   -182.54195421 </i>
   </energy>
  </scstep>
  <scstep>
   <time name="diag">   68.53   68.54</time>
   <time name="diis">  195.11  195.12</time>
   <time name="orth">   12.97   12.97</time>
   <time name="total">  316.63  316.65</time>
   <energy>
    <i name="e_fr_energy">   -181.38169424 </i>
    <i name="e_wo_entrp">   -181.22935212 </i>
    <i name="e_0_energy">   -181.34360871 </i>
   </energy>
  </scstep>
  <scstep>
   <time name="diag">   68.44   68.45</time>
   <time name="diis">  196.62  196.64</time>
   <time name="orth">   12.89   12.89</time>
   <time name="total">  317.76  317.78</time>
   <energy>
    <i name="e_fr_energy">   -179.41898614 </i>
    <i name="e_wo_entrp">   -179.35062918 </i>
    <i name="e_0_energy">   -179.40189690 </i>
   </energy>
  </scstep>
  <scstep>
   <time name="diag">   68.66   68.67</time>
   <time name="diis">  195.63  195.64</time>
   <time name="orth">   12.95   12.95</time>
   <time name="total">  317.03  317.06</time>
   <energy>
    <i name="e_fr_energy">   -177.38936364 </i>
    <i name="e_wo_entrp">   -177.30365463 </i>
    <i name="e_0_energy">   -177.36793639 </i>
   </energy>
  </scstep>
  <scstep>
   <time name="diag">   68.68   68.68</time>
   <time name="diis">  192.63  192.64</time>
   <time name="orth">   12.95   12.95</time>
   <time name="total">  314.23  314.25</time>
   <energy>
    <i name="e_fr_energy">   -176.66364687 </i>
    <i name="e_wo_entrp">   -176.60549649 </i>
    <i name="e_0_energy">   -176.64910928 </i>
   </energy>
  </scstep>
  <scstep>
   <time name="diag">   68.46   68.47</time>
   <time name="diis">  195.42  195.44</time>
   <time name="orth">   13.07   13.07</time>
   <time name="total">  316.80  316.82</time>
   <energy>
    <i name="e_fr_energy">   -176.09159223 </i>
    <i name="e_wo_entrp">   -175.99769750 </i>
    <i name="e_0_energy">   -176.06811855 </i>
   </energy>
  </scstep>
  <scstep>
   <time name="diag">   68.42   68.42</time>
   <time name="diis">  190.91  190.91</time>
   <time name="orth">   13.13   13.13</time>
   <time name="total">  312.52  312.52</time>
   <energy>
    <i name="e_fr_energy">   -176.58878081 </i>
    <i name="e_wo_entrp">   -176.71732332 </i>
    <i name="e_0_energy">   -176.62091644 </i>
   </energy>
  </scstep>
  <scstep>
   <time name="diag">   69.10   69.11</time>
   <time name="diis">  191.18  191.18</time>
   <time name="orth">   13.01   13.01</time>
   <time name="total">  313.39  313.40</time>
   <energy>
    <i name="e_fr_energy">   -176.70234781 </i>
    <i name="e_wo_entrp">   -176.67703156 </i>
    <i name="e_0_energy">   -176.69601875 </i>
   </energy>
  </scstep>
  <scstep>
   <time name="diag">   68.31   68.31</time>
   <time name="diis">  192.08  192.08</time>
   <time name="orth">   12.71   12.71</time>
   <time name="total">  312.91  312.91</time>
   <energy>
    <i name="e_fr_energy">   -175.93802628 </i>
    <i name="e_wo_entrp">   -175.98289648 </i>
    <i name="e_0_energy">   -175.94924383 </i>
   </energy>
  </scstep>
  <scstep>
   <time name="diag">   68.37   68.37</time>
   <time name="diis">  190.90  190.90</time>
   <time name="orth">   12.80   12.80</time>
   <time name="total">  312.41  312.42</time>
   <energy>
    <i name="e_fr_energy">   -175.49868811 </i>
    <i name="e_wo_entrp">   -175.56417769 </i>
    <i name="e_0_energy">   -175.51506050 </i>
   </energy>
  </scstep>
  <scstep>
   <time name="diag">   68.77   68.77</time>
   <time name="diis">  190.33  190.33</time>
   <time name="orth">   12.85   12.85</time>
   <time name="total">  312.15  312.15</time>
   <energy>
    <i name="e_fr_energy">   -174.96293004 </i>
    <i name="e_wo_entrp">   -174.96466089 </i>
    <i name="e_0_energy">   -174.96336275 </i>
   </energy>
  </scstep>
  <scstep>
   <time name="diag">   68.72   68.72</time>
   <time name="diis">  191.59  191.59</time>
   <time name="orth">   12.84   12.84</time>
   <time name="total">  313.24  313.24</time>
   <energy>
    <i name="e_fr_energy">   -174.95432327 </i>
    <i name="e_wo_entrp">   -174.93438869 </i>
    <i name="e_0_energy">   -174.94933962 </i>
   </energy>
  </scstep>
  <scstep>
   <time name="diag">   68.45   68.45</time>
   <time name="diis">  190.30  190.31</time>
   <time name="orth">   13.00   13.00</time>
   <time name="total">  312.13  312.13</time>
   <energy>
    <i name="e_fr_energy">   -174.97358893 </i>
    <i name="e_wo_entrp">   -175.03202221 </i>
    <i name="e_0_energy">   -174.98819725 </i>
   </energy>
  </scstep>
  <scstep>
   <time name="diag">   68.49   68.49</time>
   <time name="diis">  188.78  188.78</time>
   <time name="orth">   12.93   12.93</time>
   <time name="total">  311.21  311.22</time>
   <energy>
    <i name="e_fr_energy">   -174.74831653 </i>
    <i name="e_wo_entrp">   -174.77944186 </i>
    <i name="e_0_energy">   -174.75609786 </i>
   </energy>
  </scstep>
  <scstep>
   <time name="diag">   68.55   68.56</time>
   <time name="diis">  189.43  189.44</time>
   <time name="orth">   13.04   13.05</time>
   <time name="total">  312.03  312.05</time>
   <energy>
    <i name="e_fr_energy">   -174.54480825 </i>
    <i name="e_wo_entrp">   -174.48535439 </i>
    <i name="e_0_energy">   -174.52994479 </i>
   </energy>
  </scstep>
  <scstep>
   <time name="diag">   68.44   68.45</time>
   <time name="diis">  187.23  187.23</time>
   <time name="orth">   12.89   12.89</time>
   <time name="total">  309.47  309.48</time>
   <energy>
    <i name="e_fr_energy">   -174.40125109 </i>
    <i name="e_wo_entrp">   -174.30115661 </i>
    <i name="e_0_energy">   -174.37622747 </i>
   </energy>
  </scstep>
  <scstep>
   <time name="diag">   68.31   68.31</time>
   <time name="diis">  186.59  186.59</time>
   <time name="orth">   13.12   13.12</time>
   <time name="total">  309.42  309.42</time>
   <energy>
    <i name="e_fr_energy">   -174.44090915 </i>
    <i name="e_wo_entrp">   -174.37835670 </i>
    <i name="e_0_energy">   -174.42527103 </i>
   </energy>
  </scstep>
  <scstep>
   <time name="diag">   68.49   68.49</time>
   <time name="diis">  186.93  186.93</time>
   <time name="orth">   13.24   13.24</time>
   <time name="total">  310.18  310.19</time>
   <energy>
    <i name="e_fr_energy">   -174.32750786 </i>
    <i name="e_wo_entrp">   -174.25003391 </i>
    <i name="e_0_energy">   -174.30813937 </i>
   </energy>
  </scstep>
  <scstep>
   <time name="diag">   68.04   68.04</time>
   <time name="diis">  186.60  186.61</time>
   <time name="orth">   13.22   13.22</time>
   <time name="total">  309.30  309.31</time>
   <energy>
    <i name="e_fr_energy">   -174.22734860 </i>
    <i name="e_wo_entrp">   -174.15301612 </i>
    <i name="e_0_energy">   -174.20876548 </i>
   </energy>
  </scstep>
  <scstep>
   <time name="diag">   67.00   67.00</time>
   <time name="diis">  187.52  187.53</time>
   <time name="orth">   12.91   12.91</time>
   <time name="total">  308.02  308.03</time>
   <energy>
    <i name="e_fr_energy">   -174.19985216 </i>
    <i name="e_wo_entrp">   -174.13218434 </i>
    <i name="e_0_energy">   -174.18293521 </i>
   </energy>
  </scstep>
  <scstep>
   <time name="diag">   66.27   66.28</time>
   <time name="diis">  186.85  186.86</time>
   <time name="orth">   12.66   12.66</time>
   <time name="total">  305.63  305.65</time>
   <energy>
    <i name="e_fr_energy">   -174.21838804 </i>
    <i name="e_wo_entrp">   -174.14483036 </i>
    <i name="e_0_energy">   -174.19999862 </i>
   </energy>
  </scstep>
  <scstep>
   <time name="diag">   67.99   67.99</time>
   <time name="diis">  184.25  184.26</time>
   <time name="orth">   12.83   12.83</time>
   <time name="total">  306.02  306.04</time>
   <energy>
    <i name="e_fr_energy">   -174.18999697 </i>
    <i name="e_wo_entrp">   -174.12712705 </i>
    <i name="e_0_energy">   -174.17427949 </i>
   </energy>
  </scstep>
  <scstep>
   <time name="diag">   69.52   69.53</time>
   <time name="diis">  183.23  183.24</time>
   <time name="orth">   13.27   13.27</time>
   <time name="total">  308.36  308.38</time>
   <energy>
    <i name="e_fr_energy">   -174.16622928 </i>
    <i name="e_wo_entrp">   -174.09263913 </i>
    <i name="e_0_energy">   -174.14783175 </i>
   </energy>
  </scstep>
  <scstep>
   <time name="diag">   68.22   68.22</time>
   <time name="diis">  184.25  184.26</time>
   <time name="orth">   13.30   13.30</time>
   <time name="total">  307.33  307.35</time>
   <energy>
    <i name="e_fr_energy">   -174.17176258 </i>
    <i name="e_wo_entrp">   -174.09197355 </i>
    <i name="e_0_energy">   -174.15181532 </i>
   </energy>
  </scstep>
  <scstep>
   <time name="diag">   66.29   66.30</time>
   <time name="diis">  185.26  185.28</time>
   <time name="orth">   12.90   12.90</time>
   <time name="total">  305.37  305.40</time>
   <energy>
    <i name="e_fr_energy">   -174.16266444 </i>
    <i name="e_wo_entrp">   -174.08315719 </i>
    <i name="e_0_energy">   -174.14278762 </i>
   </energy>
  </scstep>
  <scstep>
   <time name="diag">   66.06   66.06</time>
   <time name="diis">  186.58  186.60</time>
   <time name="orth">   12.87   12.87</time>
   <time name="total">  306.28  306.30</time>
   <energy>
    <i name="e_fr_energy">   -174.15688534 </i>
    <i name="e_wo_entrp">   -174.07300636 </i>
    <i name="e_0_energy">   -174.13591560 </i>
   </energy>
  </scstep>
  <scstep>
   <time name="diag">   67.02   67.03</time>
   <time name="diis">  184.39  184.40</time>
   <time name="orth">   12.86   12.86</time>
   <time name="total">  305.34  305.36</time>
   <energy>
    <i name="e_fr_energy">   -174.15523330 </i>
    <i name="e_wo_entrp">   -174.07498342 </i>
    <i name="e_0_energy">   -174.13517083 </i>
   </energy>
  </scstep>
  <scstep>
   <time name="diag">   66.62   66.62</time>
   <time name="diis">  184.84  184.84</time>
   <time name="orth">   13.01   13.01</time>
   <time name="total">  304.90  304.91</time>
   <energy>
    <i name="e_fr_energy">   -174.15320890 </i>
    <i name="e_wo_entrp">   -174.07724241 </i>
    <i name="e_0_energy">   -174.13421728 </i>
   </energy>
  </scstep>
  <scstep>
   <time name="diag">   66.60   66.60</time>
   <time name="diis">  183.20  183.21</time>
   <time name="orth">   12.55   12.55</time>
   <time name="total">  303.49  303.50</time>
   <energy>
    <i name="e_fr_energy">   -174.15273389 </i>
    <i name="e_wo_entrp">   -174.07711336 </i>
    <i name="e_0_energy">   -174.13382876 </i>
   </energy>
  </scstep>
  <scstep>
   <time name="diag">   66.15   66.16</time>
   <time name="diis">  182.76  182.77</time>
   <time name="orth">   12.66   12.66</time>
   <time name="total">  302.92  302.94</time>
   <energy>
    <i name="e_fr_energy">   -174.15384727 </i>
    <i name="e_wo_entrp">   -174.07921632 </i>
    <i name="e_0_energy">   -174.13518953 </i>
   </energy>
  </scstep>
  <scstep>
   <time name="diag">   66.37   66.37</time>
   <time name="diis">  176.50  176.51</time>
   <time name="orth">   12.90   12.90</time>
   <time name="total">  297.47  297.49</time>
   <energy>
    <i name="e_fr_energy">   -174.15469060 </i>
    <i name="e_wo_entrp">   -174.08123469 </i>
    <i name="e_0_energy">   -174.13632662 </i>
   </energy>
  </scstep>
  <scstep>
   <time name="diag">   64.66   64.66</time>
   <time name="diis">  180.38  180.39</time>
   <time name="orth">   12.41   12.41</time>
   <time name="total">  298.17  298.18</time>
   <energy>
    <i name="e_fr_energy">   -174.15814677 </i>
    <i name="e_wo_entrp">   -174.08440274 </i>
    <i name="e_0_energy">   -174.13971076 </i>
   </energy>
  </scstep>
  <scstep>
   <time name="diag">   66.55   66.55</time>
   <time name="diis">  180.33  180.33</time>
   <time name="orth">   12.43   12.43</time>
   <time name="total">  301.13  301.14</time>
   <energy>
    <i name="e_fr_energy">   -174.16078052 </i>
    <i name="e_wo_entrp">   -174.08759136 </i>
    <i name="e_0_energy">   -174.14248323 </i>
   </energy>
  </scstep>
  <scstep>
   <time name="diag">   65.10   65.10</time>
   <time name="diis">  156.08  156.08</time>
   <time name="orth">   13.00   13.00</time>
   <time name="total">  275.52  275.53</time>
   <energy>
    <i name="e_fr_energy">   -174.16295418 </i>
    <i name="e_wo_entrp">   -174.08788563 </i>
    <i name="e_0_energy">   -174.14418704 </i>
   </energy>
  </scstep>
  <scstep>
   <time name="diag">   64.19   64.19</time>
   <time name="diis">  147.41  147.41</time>
   <time name="orth">   12.51   12.51</time>
   <time name="total">  264.67  264.67</time>
   <energy>
    <i name="e_fr_energy">   -174.16579365 </i>
    <i name="e_wo_entrp">   -174.09132157 </i>
    <i name="e_0_energy">   -174.14717563 </i>
   </energy>
  </scstep>
  <scstep>
   <time name="diag">   64.37   64.37</time>
   <time name="diis">  119.26  119.26</time>
   <time name="orth">   12.46   12.46</time>
   <time name="total">  236.54  236.54</time>
   <energy>
    <i name="e_fr_energy">   -174.16700772 </i>
    <i name="e_wo_entrp">   -174.09182310 </i>
    <i name="e_0_energy">   -174.14821157 </i>
   </energy>
  </scstep>
  <scstep>
   <time name="diag">   64.77   64.77</time>
   <time name="diis">  119.40  119.40</time>
   <time name="orth">   12.44   12.44</time>
   <time name="total">  237.53  237.53</time>
   <energy>
    <i name="e_fr_energy">   -174.16911573 </i>
    <i name="e_wo_entrp">   -174.09357383 </i>
    <i name="e_0_energy">   -174.15023026 </i>
   </energy>
  </scstep>
  <scstep>
   <time name="diag">   64.80   64.80</time>
   <time name="diis">  115.27  115.27</time>
   <time name="orth">   12.41   12.41</time>
   <time name="total">  233.97  233.98</time>
   <energy>
    <i name="e_fr_energy">   -174.17030864 </i>
    <i name="e_wo_entrp">   -174.09579731 </i>
    <i name="e_0_energy">   -174.15168081 </i>
   </energy>
  </scstep>
  <scstep>
   <time name="diag">   64.99   65.00</time>
   <time name="diis">  119.19  119.20</time>
   <time name="orth">   12.58   12.58</time>
   <time name="total">  239.02  239.05</time>
   <energy>
    <i name="e_fr_energy">   -174.17241319 </i>
    <i name="e_wo_entrp">   -174.09835702 </i>
    <i name="e_0_energy">   -174.15389915 </i>
   </energy>
  </scstep>
  <scstep>
   <time name="diag">   64.64   64.65</time>
   <time name="diis">  116.18  116.19</time>
   <time name="orth">   12.60   12.60</time>
   <time name="total">  235.17  235.19</time>
   <energy>
    <i name="e_fr_energy">   -174.17409112 </i>
    <i name="e_wo_entrp">   -174.10049401 </i>
    <i name="e_0_energy">   -174.15569185 </i>
   </energy>
  </scstep>
  <scstep>
   <time name="diag">   64.56   64.57</time>
   <time name="diis">  114.31  114.32</time>
   <time name="orth">   12.44   12.44</time>
   <time name="total">  232.98  233.00</time>
   <energy>
    <i name="e_fr_energy">   -174.17474392 </i>
    <i name="e_wo_entrp">   -174.10068098 </i>
    <i name="e_0_energy">   -174.15622818 </i>
   </energy>
  </scstep>
  <scstep>
   <time name="diag">   64.28   64.28</time>
   <time name="diis">  115.89  115.89</time>
   <time name="orth">   12.77   12.77</time>
   <time name="total">  235.78  235.78</time>
   <energy>
    <i name="e_fr_energy">   -174.17624301 </i>
    <i name="e_wo_entrp">   -174.10223663 </i>
    <i name="e_0_energy">   -174.15774142 </i>
   </energy>
  </scstep>
  <scstep>
   <time name="diag">   65.08   65.09</time>
   <time name="diis">  113.47  113.48</time>
   <time name="orth">   12.74   12.74</time>
   <time name="total">  233.69  233.71</time>
   <energy>
    <i name="e_fr_energy">   -174.17698505 </i>
    <i name="e_wo_entrp">   -174.10303805 </i>
    <i name="e_0_energy">   -174.15849830 </i>
   </energy>
  </scstep>
  <scstep>
   <time name="diag">   65.62   65.63</time>
   <time name="diis">  114.27  114.27</time>
   <time name="orth">   12.47   12.47</time>
   <time name="total">  233.89  233.90</time>
   <energy>
    <i name="e_fr_energy">   -174.17788562 </i>
    <i name="e_wo_entrp">   -174.10387187 </i>
    <i name="e_0_energy">   -174.15938218 </i>
   </energy>
  </scstep>
  <scstep>
   <time name="diag">   65.19   65.20</time>
   <time name="diis">  115.15  115.16</time>
   <time name="orth">   12.62   12.62</time>
   <time name="total">  234.53  234.55</time>
   <energy>
    <i name="e_fr_energy">   -174.17876650 </i>
    <i name="e_wo_entrp">   -174.10454221 </i>
    <i name="e_0_energy">   -174.16021042 </i>
   </energy>
  </scstep>
  <scstep>
   <time name="diag">   63.88   63.88</time>
   <time name="diis">  112.56  112.56</time>
   <time name="orth">   12.55   12.55</time>
   <time name="total">  232.21  232.23</time>
   <energy>
    <i name="e_fr_energy">   -174.17915158 </i>
    <i name="e_wo_entrp">   -174.10479998 </i>
    <i name="e_0_energy">   -174.16056368 </i>
   </energy>
  </scstep>
  <scstep>
   <time name="diag">   66.20   66.21</time>
   <time name="diis">  107.84  107.85</time>
   <time name="orth">   12.69   12.69</time>
   <time name="total">  229.69  229.71</time>
   <energy>
    <i name="e_fr_energy">   -174.17973647 </i>
    <i name="e_wo_entrp">   -174.10548072 </i>
    <i name="e_0_energy">   -174.16117254 </i>
   </energy>
  </scstep>
  <scstep>
   <time name="diag">   66.40   66.40</time>
   <time name="diis">   87.08   87.08</time>
   <time name="orth">   12.60   12.60</time>
   <time name="total">  208.64  208.65</time>
   <energy>
    <i name="e_fr_energy">   -174.17987251 </i>
    <i name="e_wo_entrp">   -174.10563792 </i>
    <i name="e_0_energy">   -174.16131386 </i>
   </energy>
  </scstep>
  <scstep>
   <time name="diag">   64.72   64.73</time>
   <time name="diis">   85.44   85.44</time>
   <time name="orth">   12.91   12.91</time>
   <time name="total">  206.46  206.48</time>
   <energy>
    <i name="e_fr_energy">   -174.18008842 </i>
    <i name="e_wo_entrp">   -174.10577867 </i>
    <i name="e_0_energy">   -174.16151099 </i>
   </energy>
  </scstep>
  <scstep>
   <time name="diag">   66.57   66.57</time>
   <time name="diis">   80.64   80.65</time>
   <time name="orth">   12.53   12.53</time>
   <time name="total">  202.73  202.74</time>
   <energy>
    <i name="e_fr_energy">   -174.18026502 </i>
    <i name="e_wo_entrp">   -174.10599938 </i>
    <i name="e_0_energy">   -174.16169861 </i>
   </energy>
  </scstep>
  <scstep>
   <time name="diag">   65.58   65.59</time>
   <time name="diis">   75.95   75.95</time>
   <time name="orth">   12.93   12.93</time>
   <time name="total">  167.90  167.92</time>
   <energy>
    <i name="alphaZ">     75.25431677 </i>
    <i name="ewald"> 138067.42777574 </i>
    <i name="hartreedc">-182440.72312445 </i>
    <i name="XCdc">  -1693.18310039 </i>
    <i name="pawpsdc">  46051.70223883 </i>
    <i name="pawaedc"> -42521.27417760 </i>
    <i name="eentropy">     -0.07423127 </i>
    <i name="bandstr">  -2799.81555009 </i>
    <i name="atom">  45086.50549395 </i>
    <i name="e_fr_energy">   -174.18035851 </i>
    <i name="e_wo_entrp">   -174.10612724 </i>
    <i name="e_0_energy">   -174.16180069 </i>
   </energy>
  </scstep>
  <structure>
   <crystal>
    <varray name="basis" >
     <v>      30.00000000       0.00000000       0.00000000 </v>
     <v>       0.00000000      30.00000000       0.00000000 </v>
     <v>       0.00000000       0.00000000      30.00000000 </v>
    </varray>
    <i name="volume">  27000.00000000 </i>
    <varray name="rec_basis" >
     <v>       0.03333333       0.00000000       0.00000000 </v>
     <v>       0.00000000       0.03333333       0.00000000 </v>
     <v>       0.00000000       0.00000000       0.03333333 </v>
    </varray>
   </crystal>
   <varray name="positions" >
    <v>       0.44576020       0.32826710       0.41691983 </v>
    <v>       0.67173288       0.55423978       0.41691983 </v>
    <v>       0.55423980       0.32826710       0.41691983 </v>
    <v>       0.32826712       0.55423978       0.41691983 </v>
    <v>       0.50000000       0.38250690       0.34021317 </v>
    <v>       0.50000000       0.38250690       0.65978680 </v>
    <v>       0.50000000       0.27609440       0.50000000 </v>
    <v>       0.27609443       0.49999998       0.50000000 </v>
    <v>       0.72390557       0.49999998       0.50000000 </v>
    <v>       0.50000000       0.72390555       0.50000000 </v>
    <v>       0.61195280       0.38804720       0.34167483 </v>
    <v>       0.61195280       0.38804720       0.65832513 </v>
    <v>       0.38804722       0.61195278       0.34167483 </v>
    <v>       0.38804722       0.61195278       0.65832513 </v>
    <v>       0.38804720       0.38804720       0.34167483 </v>
    <v>       0.38804720       0.38804720       0.65832513 </v>
    <v>       0.61195278       0.61195278       0.34167483 </v>
    <v>       0.61195278       0.61195278       0.65832513 </v>
    <v>       0.44576020       0.32826710       0.58308023 </v>
    <v>       0.67173288       0.55423978       0.58308023 </v>
    <v>       0.55791699       0.44208301       0.41809300 </v>
    <v>       0.32826705       0.44576024       0.41691983 </v>
    <v>       0.55423973       0.67173293       0.41691983 </v>
    <v>       0.55423980       0.32826710       0.58308023 </v>
    <v>       0.32826712       0.55423978       0.58308023 </v>
    <v>       0.67173295       0.44576024       0.41691983 </v>
    <v>       0.44576027       0.67173293       0.41691983 </v>
    <v>       0.44208301       0.44208301       0.41809300 </v>
    <v>       0.50000000       0.38416601       0.50000000 </v>
    <v>       0.61749315       0.50000005       0.34021317 </v>
    <v>       0.61749315       0.50000005       0.65978680 </v>
    <v>       0.38250685       0.50000005       0.34021317 </v>
    <v>       0.38250685       0.50000005       0.65978680 </v>
    <v>       0.38317830       0.38317830       0.50000000 </v>
    <v>       0.61682172       0.61682172       0.50000000 </v>
    <v>       0.61682170       0.38317830       0.50000000 </v>
    <v>       0.38317828       0.61682172       0.50000000 </v>
    <v>       0.50000000       0.50000000       0.33478917 </v>
    <v>       0.50000000       0.50000000       0.66521087 </v>
    <v>       0.32826705       0.44576024       0.58308023 </v>
    <v>       0.55423973       0.67173293       0.58308023 </v>
    <v>       0.55791699       0.44208301       0.58190703 </v>
    <v>       0.44208298       0.55791702       0.41809300 </v>
    <v>       0.44208301       0.44208301       0.58190703 </v>
    <v>       0.67173295       0.44576024       0.58308023 </v>
    <v>       0.44576027       0.67173293       0.58308023 </v>
    <v>       0.55791702       0.55791702       0.41809300 </v>
    <v>       0.38416599       0.50000002       0.50000000 </v>
    <v>       0.61583401       0.50000002       0.50000000 </v>
    <v>       0.50000000       0.61749319       0.34021317 </v>
    <v>       0.50000000       0.61749319       0.65978680 </v>
    <v>       0.50000000       0.50000000       0.50000000 </v>
    <v>       0.44208298       0.55791702       0.58190703 </v>
    <v>       0.55791702       0.55791702       0.58190703 </v>
    <v>       0.50000000       0.61583404       0.50000000 </v>
    <v>       0.49655547       0.49300877       0.74643010 </v>
    <v>       0.49603017       0.49194257       0.78401130 </v>
   </varray>
  </structure>
  <varray name="forces" >
   <v>       0.70145200       1.10793580       0.29111119 </v>
   <v>      -1.10778310      -0.70149303       0.29216704 </v>
   <v>      -0.70089334       1.10787824       0.29135180 </v>
   <v>       1.10831105      -0.70136352       0.29176547 </v>
   <v>       0.00000788       0.40756775       1.28170526 </v>
   <v>       0.00066938       0.37456615      -1.32332783 </v>
   <v>       0.00005182       1.51241631       0.00352927 </v>
   <v>       1.51244184      -0.00039073       0.00324229 </v>
   <v>      -1.51291437      -0.00032241       0.00272840 </v>
   <v>       0.00007117      -1.51330187       0.00236404 </v>
   <v>      -0.75474945       0.75414686       1.07379313 </v>
   <v>      -0.75238217       0.75331966      -1.07382198 </v>
   <v>       0.75441896      -0.75507469       1.07380987 </v>
   <v>       0.75429027      -0.75358722      -1.07355147 </v>
   <v>       0.75493834       0.75433721       1.07375794 </v>
   <v>       0.75236987       0.75239803      -1.07434784 </v>
   <v>      -0.75424346      -0.75488646       1.07385328 </v>
   <v>      -0.75406581      -0.75436072      -1.07300453 </v>
   <v>       0.70206029       1.10613809      -0.29101437 </v>
   <v>      -1.10718660      -0.70216395      -0.28968615 </v>
   <v>       0.11332189      -0.11316598      -0.15484609 </v>
   <v>       1.10814658       0.70123751       0.29123800 </v>
   <v>      -0.70119824      -1.10791636       0.29231625 </v>
   <v>      -0.70217206       1.10681362      -0.29037853 </v>
   <v>       1.10755669      -0.70256108      -0.28988746 </v>
   <v>      -1.10743356       0.70119804       0.29157764 </v>
   <v>       0.70155856      -1.10772425       0.29202379 </v>
   <v>      -0.11293483      -0.11318530      -0.15488983 </v>
   <v>       0.00040360      -0.21853432      -0.00126018 </v>
   <v>      -0.40717976      -0.00040282       1.28180846 </v>
   <v>      -0.38139442       0.00081963      -1.32189989 </v>
   <v>       0.40779187      -0.00046884       1.28161718 </v>
   <v>       0.37712640       0.00089648      -1.32324322 </v>
   <v>       0.82083379       0.82077980      -0.01155771 </v>
   <v>      -0.81886764      -0.81897351      -0.01505495 </v>
   <v>      -0.81963444       0.82039464      -0.01293443 </v>
   <v>       0.82022512      -0.81945717      -0.01413559 </v>
   <v>      -0.00041264      -0.00135547       1.18350582 </v>
   <v>      -0.05734024      -0.11681862       0.61366232 </v>
   <v>       1.10631357       0.70131967      -0.29124551 </v>
   <v>      -0.70084772      -1.10665760      -0.28981835 </v>
   <v>       0.11749326      -0.11226881       0.14903389 </v>
   <v>      -0.11287301       0.11283918      -0.15476756 </v>
   <v>      -0.12083775      -0.11943306       0.14536989 </v>
   <v>      -1.10603451       0.70085009      -0.29098072 </v>
   <v>       0.70089517      -1.10654383      -0.29047015 </v>
   <v>       0.11318684       0.11274695      -0.15465008 </v>
   <v>      -0.21834837       0.00022474      -0.00099078 </v>
   <v>       0.21867572       0.00021950      -0.00040698 </v>
   <v>       0.00007025      -0.40734088       1.28143027 </v>
   <v>       0.00052943      -0.38415824      -1.32080625 </v>
   <v>       0.00024031      -0.00001069       0.01037708 </v>
   <v>      -0.10524354       0.11055755       0.15374335 </v>
   <v>       0.09988710       0.10130734       0.15935313 </v>
   <v>       0.00035257       0.21828527      -0.00015258 </v>
   <v>       0.11636372       0.23742930      -4.53062093 </v>
   <v>      -0.05508429      -0.08470195       2.93151587 </v>
  </varray>
  <varray name="stress" >
   <v>      -6.73244183      -0.00093028       0.00835906 </v>
   <v>      -0.00093024      -6.73302150       0.01749757 </v>
   <v>       0.00835909       0.01749753      -6.79070296 </v>
  </varray>
  <energy>
   <i name="e_fr_energy">   -174.18035851 </i>
   <i name="e_wo_entrp">   -174.16180069 </i>
   <i name="e_0_energy">     -0.07423127 </i>
  </energy>
  <time name="totalsc">17818.2717819.25</time>
  <eigenvalues>
   <array>
    <dimension dim="1">band</dimension>
    <dimension dim="2">kpoint</dimension>
    <dimension dim="3">spin</dimension>
    <field>eigene</field>
    <field>occ</field>
    <set>
     <set comment="spin 1">
      <set comment="kpoint 1">
       <r>  -29.1537    1.0000 </r>
       <r>  -13.6895    1.0000 </r>
       <r>  -11.4555    1.0000 </r>
       <r>  -11.4548    1.0000 </r>
       <r>   -9.6314    1.0000 </r>
       <r>   -6.6245    1.0000 </r>
       <r>   -6.1073    1.0000 </r>
       <r>   -6.1072    1.0000 </r>
       <r>   -6.1008    1.0000 </r>
       <r>   -5.7937    1.0000 </r>
       <r>   -5.7936    1.0000 </r>
       <r>   -5.7907    1.0000 </r>
       <r>   -5.7240    1.0000 </r>
       <r>   -5.6722    1.0000 </r>
       <r>   -5.6636    1.0000 </r>
       <r>   -5.6636    1.0000 </r>
       <r>   -5.6633    1.0000 </r>
       <r>   -5.6015    1.0000 </r>
       <r>   -5.5999    1.0000 </r>
       <r>   -5.5854    1.0000 </r>
       <r>   -5.5762    1.0000 </r>
       <r>   -5.5762    1.0000 </r>
       <r>   -5.5750    1.0000 </r>
       <r>   -5.5387    1.0000 </r>
       <r>   -5.5382    1.0000 </r>
       <r>   -5.5325    1.0000 </r>
       <r>   -5.5282    1.0000 </r>
       <r>   -5.5007    1.0000 </r>
       <r>   -5.5007    1.0000 </r>
       <r>   -5.4995    1.0000 </r>
       <r>   -5.4963    1.0000 </r>
       <r>   -5.4942    1.0000 </r>
       <r>   -5.4941    1.0000 </r>
       <r>   -5.4932    1.0000 </r>
       <r>   -5.4904    1.0000 </r>
       <r>   -5.4575    1.0000 </r>
       <r>   -5.4566    1.0000 </r>
       <r>   -5.4529    1.0000 </r>
       <r>   -5.4527    1.0000 </r>
       <r>   -5.4464    1.0000 </r>
       <r>   -5.4458    1.0000 </r>
       <r>   -5.4457    1.0000 </r>
       <r>   -5.4457    1.0000 </r>
       <r>   -5.4177    1.0000 </r>
       <r>   -5.4143    1.0000 </r>
       <r>   -5.4101    1.0000 </r>
       <r>   -5.4092    1.0000 </r>
       <r>   -5.4073    1.0000 </r>
       <r>   -5.4073    1.0000 </r>
       <r>   -5.4055    1.0000 </r>
       <r>   -5.4024    1.0000 </r>
       <r>   -5.3875    1.0000 </r>
       <r>   -5.3856    1.0000 </r>
       <r>   -5.3856    1.0000 </r>
       <r>   -5.3704    1.0000 </r>
       <r>   -5.3138    1.0000 </r>
       <r>   -5.3135    1.0000 </r>
       <r>   -5.3101    1.0000 </r>
       <r>   -5.3071    1.0000 </r>
       <r>   -5.2950    1.0000 </r>
       <r>   -5.2945    1.0000 </r>
       <r>   -5.2945    1.0000 </r>
       <r>   -5.2838    1.0000 </r>
       <r>   -5.2837    1.0000 </r>
       <r>   -5.2805    1.0000 </r>
       <r>   -5.2727    1.0000 </r>
       <r>   -5.2674    1.0000 </r>
       <r>   -5.1988    1.0000 </r>
       <r>   -5.1982    1.0000 </r>
       <r>   -5.1958    1.0000 </r>
       <r>   -5.1914    1.0000 </r>
       <r>   -5.1594    1.0000 </r>
       <r>   -5.1578    1.0000 </r>
       <r>   -5.1577    1.0000 </r>
       <r>   -5.1551    1.0000 </r>
       <r>   -5.1516    1.0000 </r>
       <r>   -5.1457    1.0000 </r>
       <r>   -5.1453    1.0000 </r>
       <r>   -5.1434    1.0000 </r>
       <r>   -5.1256    1.0000 </r>
       <r>   -5.1045    1.0000 </r>
       <r>   -5.1026    1.0000 </r>
       <r>   -5.1022    1.0000 </r>
       <r>   -5.0949    1.0000 </r>
       <r>   -5.0853    1.0000 </r>
       <r>   -5.0851    1.0000 </r>
       <r>   -5.0806    1.0000 </r>
       <r>   -5.0506    1.0000 </r>
       <r>   -5.0499    1.0000 </r>
       <r>   -5.0404    1.0000 </r>
       <r>   -5.0367    1.0000 </r>
       <r>   -5.0345    1.0000 </r>
       <r>   -5.0340    1.0000 </r>
       <r>   -5.0286    1.0000 </r>
       <r>   -5.0285    1.0000 </r>
       <r>   -5.0262    1.0000 </r>
       <r>   -5.0261    1.0000 </r>
       <r>   -5.0051    1.0000 </r>
       <r>   -4.9963    1.0000 </r>
       <r>   -4.9962    1.0000 </r>
       <r>   -4.9840    1.0000 </r>
       <r>   -4.9834    1.0000 </r>
       <r>   -4.9834    1.0000 </r>
       <r>   -4.9769    1.0000 </r>
       <r>   -4.9768    1.0000 </r>
       <r>   -4.9690    1.0000 </r>
       <r>   -4.9589    1.0000 </r>
       <r>   -4.9578    1.0000 </r>
       <r>   -4.9578    1.0000 </r>
       <r>   -4.9523    1.0000 </r>
       <r>   -4.9467    1.0000 </r>
       <r>   -4.9456    1.0000 </r>
       <r>   -4.9438    1.0000 </r>
       <r>   -4.9353    1.0000 </r>
       <r>   -4.9325    1.0000 </r>
       <r>   -4.9324    1.0000 </r>
       <r>   -4.9175    1.0000 </r>
       <r>   -4.9031    1.0000 </r>
       <r>   -4.9016    1.0000 </r>
       <r>   -4.8953    1.0000 </r>
       <r>   -4.8953    1.0000 </r>
       <r>   -4.8952    1.0000 </r>
       <r>   -4.8864    1.0000 </r>
       <r>   -4.8844    1.0000 </r>
       <r>   -4.8799    1.0000 </r>
       <r>   -4.8799    1.0000 </r>
       <r>   -4.8394    1.0000 </r>
       <r>   -4.8390    1.0000 </r>
       <r>   -4.8318    1.0000 </r>
       <r>   -4.8257    1.0000 </r>
       <r>   -4.8209    1.0000 </r>
       <r>   -4.8190    1.0000 </r>
       <r>   -4.8097    1.0000 </r>
       <r>   -4.8097    1.0000 </r>
       <r>   -4.8082    1.0000 </r>
       <r>   -4.7849    0.9999 </r>
       <r>   -4.7830    0.9999 </r>
       <r>   -4.7730    0.9999 </r>
       <r>   -4.7696    0.9999 </r>
       <r>   -4.7670    0.9999 </r>
       <r>   -4.7658    0.9999 </r>
       <r>   -4.7377    0.9998 </r>
       <r>   -4.7155    0.9996 </r>
       <r>   -4.7155    0.9996 </r>
       <r>   -4.7144    0.9996 </r>
       <r>   -4.7088    0.9996 </r>
       <r>   -4.7080    0.9996 </r>
       <r>   -4.6938    0.9994 </r>
       <r>   -4.6929    0.9994 </r>
       <r>   -4.6849    0.9993 </r>
       <r>   -4.6719    0.9991 </r>
       <r>   -4.6604    0.9988 </r>
       <r>   -4.6581    0.9988 </r>
       <r>   -4.6539    0.9987 </r>
       <r>   -4.6538    0.9987 </r>
       <r>   -4.6515    0.9986 </r>
       <r>   -4.6503    0.9986 </r>
       <r>   -4.6503    0.9986 </r>
       <r>   -4.6385    0.9983 </r>
       <r>   -4.6332    0.9982 </r>
       <r>   -4.6314    0.9981 </r>
       <r>   -4.6297    0.9980 </r>
       <r>   -4.6284    0.9980 </r>
       <r>   -4.6279    0.9980 </r>
       <r>   -4.6232    0.9978 </r>
       <r>   -4.6232    0.9978 </r>
       <r>   -4.6204    0.9978 </r>
       <r>   -4.6189    0.9977 </r>
       <r>   -4.6077    0.9973 </r>
       <r>   -4.6057    0.9972 </r>
       <r>   -4.5990    0.9970 </r>
       <r>   -4.5982    0.9970 </r>
       <r>   -4.5837    0.9964 </r>
       <r>   -4.5750    0.9961 </r>
       <r>   -4.5750    0.9961 </r>
       <r>   -4.5722    0.9960 </r>
       <r>   -4.5712    0.9960 </r>
       <r>   -4.5649    0.9958 </r>
       <r>   -4.5635    0.9957 </r>
       <r>   -4.5634    0.9957 </r>
       <r>   -4.5507    0.9953 </r>
       <r>   -4.5345    0.9951 </r>
       <r>   -4.5310    0.9951 </r>
       <r>   -4.5310    0.9951 </r>
       <r>   -4.5298    0.9951 </r>
       <r>   -4.5287    0.9951 </r>
       <r>   -4.5287    0.9951 </r>
       <r>   -4.5285    0.9951 </r>
       <r>   -4.5264    0.9951 </r>
       <r>   -4.5263    0.9951 </r>
       <r>   -4.4882    0.9969 </r>
       <r>   -4.4852    0.9972 </r>
       <r>   -4.4851    0.9972 </r>
       <r>   -4.4812    0.9977 </r>
       <r>   -4.4812    0.9977 </r>
       <r>   -4.4685    0.9995 </r>
       <r>   -4.4587    1.0014 </r>
       <r>   -4.4586    1.0014 </r>
       <r>   -4.4550    1.0022 </r>
       <r>   -4.4461    1.0045 </r>
       <r>   -4.4455    1.0046 </r>
       <r>   -4.4387    1.0066 </r>
       <r>   -4.4344    1.0079 </r>
       <r>   -4.4343    1.0080 </r>
       <r>   -4.4267    1.0106 </r>
       <r>   -4.4259    1.0109 </r>
       <r>   -4.4258    1.0109 </r>
       <r>   -4.4241    1.0115 </r>
       <r>   -4.4241    1.0115 </r>
       <r>   -4.4168    1.0143 </r>
       <r>   -4.4021    1.0206 </r>
       <r>   -4.3898    1.0263 </r>
       <r>   -4.3860    1.0281 </r>
       <r>   -4.3860    1.0281 </r>
       <r>   -4.3853    1.0284 </r>
       <r>   -4.3803    1.0309 </r>
       <r>   -4.3784    1.0317 </r>
       <r>   -4.3783    1.0318 </r>
       <r>   -4.3762    1.0328 </r>
       <r>   -4.3561    1.0420 </r>
       <r>   -4.3558    1.0421 </r>
       <r>   -4.3366    1.0489 </r>
       <r>   -4.3255    1.0511 </r>
       <r>   -4.3251    1.0512 </r>
       <r>   -4.3180    1.0516 </r>
       <r>   -4.3159    1.0516 </r>
       <r>   -4.3149    1.0516 </r>
       <r>   -4.3138    1.0515 </r>
       <r>   -4.3138    1.0515 </r>
       <r>   -4.3102    1.0512 </r>
       <r>   -4.3064    1.0505 </r>
       <r>   -4.3063    1.0505 </r>
       <r>   -4.3020    1.0494 </r>
       <r>   -4.3001    1.0488 </r>
       <r>   -4.2991    1.0484 </r>
       <r>   -4.2981    1.0480 </r>
       <r>   -4.2981    1.0480 </r>
       <r>   -4.2970    1.0476 </r>
       <r>   -4.2942    1.0463 </r>
       <r>   -4.2942    1.0463 </r>
       <r>   -4.2811    1.0376 </r>
       <r>   -4.2773    1.0342 </r>
       <r>   -4.2705    1.0270 </r>
       <r>   -4.2704    1.0268 </r>
       <r>   -4.2631    1.0173 </r>
       <r>   -4.2609    1.0142 </r>
       <r>   -4.2608    1.0141 </r>
       <r>   -4.2603    1.0133 </r>
       <r>   -4.2550    1.0047 </r>
       <r>   -4.2477    0.9913 </r>
       <r>   -4.2400    0.9750 </r>
       <r>   -4.2338    0.9604 </r>
       <r>   -4.2337    0.9600 </r>
       <r>   -4.2333    0.9591 </r>
       <r>   -4.2267    0.9415 </r>
       <r>   -4.2266    0.9414 </r>
       <r>   -4.2263    0.9405 </r>
       <r>   -4.2233    0.9318 </r>
       <r>   -4.2203    0.9231 </r>
       <r>   -4.2203    0.9231 </r>
       <r>   -4.2146    0.9051 </r>
       <r>   -4.2133    0.9008 </r>
       <r>   -4.2133    0.9007 </r>
       <r>   -4.2131    0.9002 </r>
       <r>   -4.2102    0.8907 </r>
       <r>   -4.1984    0.8476 </r>
       <r>   -4.1952    0.8352 </r>
       <r>   -4.1951    0.8347 </r>
       <r>   -4.1949    0.8340 </r>
       <r>   -4.1920    0.8224 </r>
       <r>   -4.1910    0.8181 </r>
       <r>   -4.1875    0.8037 </r>
       <r>   -4.1704    0.7274 </r>
       <r>   -4.1701    0.7259 </r>
       <r>   -4.1687    0.7197 </r>
       <r>   -4.1590    0.6722 </r>
       <r>   -4.1589    0.6720 </r>
       <r>   -4.1529    0.6420 </r>
       <r>   -4.1457    0.6051 </r>
       <r>   -4.1456    0.6047 </r>
       <r>   -4.1452    0.6021 </r>
       <r>   -4.1314    0.5299 </r>
       <r>   -4.1076    0.4046 </r>
       <r>   -4.1065    0.3991 </r>
       <r>   -4.1064    0.3986 </r>
       <r>   -4.1018    0.3749 </r>
       <r>   -4.0916    0.3238 </r>
       <r>   -4.0872    0.3021 </r>
       <r>   -4.0662    0.2061 </r>
       <r>   -3.9428   -0.0509 </r>
       <r>   -3.8760   -0.0332 </r>
       <r>   -3.7965   -0.0023 </r>
       <r>   -3.7963   -0.0022 </r>
       <r>   -3.7960   -0.0021 </r>
       <r>   -3.4695    0.0001 </r>
       <r>   -3.4694    0.0001 </r>
       <r>   -3.4103    0.0000 </r>
       <r>   -3.0349    0.0000 </r>
       <r>   -3.0348    0.0000 </r>
       <r>   -2.9976    0.0000 </r>
       <r>   -2.9915    0.0000 </r>
       <r>   -2.9908    0.0000 </r>
       <r>   -2.9906    0.0000 </r>
       <r>   -2.9072    0.0000 </r>
       <r>   -2.8453    0.0000 </r>
       <r>   -2.5370    0.0000 </r>
       <r>   -2.5361    0.0000 </r>
       <r>   -2.4964    0.0000 </r>
       <r>   -2.2482    0.0000 </r>
       <r>   -2.1050    0.0000 </r>
       <r>   -2.1046    0.0000 </r>
       <r>   -2.0947    0.0000 </r>
       <r>   -1.9319    0.0000 </r>
       <r>   -1.9311    0.0000 </r>
       <r>   -1.8615    0.0000 </r>
       <r>   -1.8349    0.0000 </r>
       <r>   -1.8270    0.0000 </r>
       <r>   -1.7650    0.0000 </r>
       <r>   -1.7638    0.0000 </r>
       <r>   -1.7027    0.0000 </r>
       <r>   -1.6208    0.0000 </r>
       <r>   -1.5287    0.0000 </r>
       <r>   -1.4920    0.0000 </r>
       <r>   -1.4694    0.0000 </r>
       <r>   -1.4671    0.0000 </r>
       <r>   -1.1364    0.0000 </r>
       <r>   -1.1343    0.0000 </r>
       <r>   -1.0505    0.0000 </r>
       <r>   -0.9646    0.0000 </r>
       <r>   -0.9637    0.0000 </r>
       <r>   -0.9583    0.0000 </r>
       <r>   -0.9209    0.0000 </r>
       <r>   -0.9080    0.0000 </r>
       <r>   -0.8969    0.0000 </r>
       <r>   -0.7899    0.0000 </r>
       <r>   -0.7187    0.0000 </r>
      </set>
     </set>
    </set>
   </array>
  </eigenvalues>
  <separator name="orbital magnetization" >
   <v name="MAGDIPOLOUT">      0.00000000      0.00000000      0.00000000</v>
  </separator>
  <dos>
   <i name="efermi">     -4.12570078 </i>
   <total>
    <array>
     <dimension dim="1">gridpoints</dimension>
     <dimension dim="2">spin</dimension>
     <field>energy</field>
     <field>total</field>
     <field>integrated</field>
     <set>
      <set comment="spin 1">
       <r>   -31.1537     0.0000     0.0000 </r>
       <r>   -31.0455     0.0000     0.0000 </r>
       <r>   -30.9374     0.0000     0.0000 </r>
       <r>   -30.8293     0.0000     0.0000 </r>
       <r>   -30.7212     0.0000     0.0000 </r>
       <r>   -30.6131     0.0000     0.0000 </r>
       <r>   -30.5050     0.0000     0.0000 </r>
       <r>   -30.3968     0.0000     0.0000 </r>
       <r>   -30.2887     0.0000     0.0000 </r>
       <r>   -30.1806     0.0000     0.0000 </r>
       <r>   -30.0725     0.0000     0.0000 </r>
       <r>   -29.9644     0.0000     0.0000 </r>
       <r>   -29.8563     0.0004     0.0000 </r>
       <r>   -29.7481     0.0059     0.0007 </r>
       <r>   -29.6400     0.0405     0.0051 </r>
       <r>   -29.5319     0.0330     0.0086 </r>
       <r>   -29.4238    -0.5135    -0.0469 </r>
       <r>   -29.3157    -0.3543    -0.0852 </r>
       <r>   -29.2076     5.0501     0.4608 </r>
       <r>   -29.0994    10.0005     1.5420 </r>
       <r>   -28.9913     5.0278     2.0856 </r>
       <r>   -28.8832    -0.3609     2.0466 </r>
       <r>   -28.7751    -0.5111     1.9913 </r>
       <r>   -28.6670     0.0335     1.9950 </r>
       <r>   -28.5589     0.0404     1.9993 </r>
       <r>   -28.4507     0.0059     2.0000 </r>
       <r>   -28.3426     0.0003     2.0000 </r>
       <r>   -28.2345     0.0000     2.0000 </r>
       <r>   -28.1264     0.0000     2.0000 </r>
       <r>   -28.0183     0.0000     2.0000 </r>
       <r>   -27.9102     0.0000     2.0000 </r>
       <r>   -27.8020     0.0000     2.0000 </r>
       <r>   -27.6939     0.0000     2.0000 </r>
       <r>   -27.5858     0.0000     2.0000 </r>
       <r>   -27.4777     0.0000     2.0000 </r>
       <r>   -27.3696     0.0000     2.0000 </r>
       <r>   -27.2615     0.0000     2.0000 </r>
       <r>   -27.1533     0.0000     2.0000 </r>
       <r>   -27.0452     0.0000     2.0000 </r>
       <r>   -26.9371     0.0000     2.0000 </r>
       <r>   -26.8290     0.0000     2.0000 </r>
       <r>   -26.7209     0.0000     2.0000 </r>
       <r>   -26.6128     0.0000     2.0000 </r>
       <r>   -26.5046     0.0000     2.0000 </r>
       <r>   -26.3965     0.0000     2.0000 </r>
       <r>   -26.2884     0.0000     2.0000 </r>
       <r>   -26.1803     0.0000     2.0000 </r>
       <r>   -26.0722     0.0000     2.0000 </r>
       <r>   -25.9641     0.0000     2.0000 </r>
       <r>   -25.8559     0.0000     2.0000 </r>
       <r>   -25.7478     0.0000     2.0000 </r>
       <r>   -25.6397     0.0000     2.0000 </r>
       <r>   -25.5316     0.0000     2.0000 </r>
       <r>   -25.4235     0.0000     2.0000 </r>
       <r>   -25.3154     0.0000     2.0000 </r>
       <r>   -25.2072     0.0000     2.0000 </r>
       <r>   -25.0991     0.0000     2.0000 </r>
       <r>   -24.9910     0.0000     2.0000 </r>
       <r>   -24.8829     0.0000     2.0000 </r>
       <r>   -24.7748     0.0000     2.0000 </r>
       <r>   -24.6667     0.0000     2.0000 </r>
       <r>   -24.5585     0.0000     2.0000 </r>
       <r>   -24.4504     0.0000     2.0000 </r>
       <r>   -24.3423     0.0000     2.0000 </r>
       <r>   -24.2342     0.0000     2.0000 </r>
       <r>   -24.1261     0.0000     2.0000 </r>
       <r>   -24.0180     0.0000     2.0000 </r>
       <r>   -23.9098     0.0000     2.0000 </r>
       <r>   -23.8017     0.0000     2.0000 </r>
       <r>   -23.6936     0.0000     2.0000 </r>
       <r>   -23.5855     0.0000     2.0000 </r>
       <r>   -23.4774     0.0000     2.0000 </r>
       <r>   -23.3693     0.0000     2.0000 </r>
       <r>   -23.2611     0.0000     2.0000 </r>
       <r>   -23.1530     0.0000     2.0000 </r>
       <r>   -23.0449     0.0000     2.0000 </r>
       <r>   -22.9368     0.0000     2.0000 </r>
       <r>   -22.8287     0.0000     2.0000 </r>
       <r>   -22.7206     0.0000     2.0000 </r>
       <r>   -22.6124     0.0000     2.0000 </r>
       <r>   -22.5043     0.0000     2.0000 </r>
       <r>   -22.3962     0.0000     2.0000 </r>
       <r>   -22.2881     0.0000     2.0000 </r>
       <r>   -22.1800     0.0000     2.0000 </r>
       <r>   -22.0719     0.0000     2.0000 </r>
       <r>   -21.9637     0.0000     2.0000 </r>
       <r>   -21.8556     0.0000     2.0000 </r>
       <r>   -21.7475     0.0000     2.0000 </r>
       <r>   -21.6394     0.0000     2.0000 </r>
       <r>   -21.5313     0.0000     2.0000 </r>
       <r>   -21.4232     0.0000     2.0000 </r>
       <r>   -21.3150     0.0000     2.0000 </r>
       <r>   -21.2069     0.0000     2.0000 </r>
       <r>   -21.0988     0.0000     2.0000 </r>
       <r>   -20.9907     0.0000     2.0000 </r>
       <r>   -20.8826     0.0000     2.0000 </r>
       <r>   -20.7745     0.0000     2.0000 </r>
       <r>   -20.6663     0.0000     2.0000 </r>
       <r>   -20.5582     0.0000     2.0000 </r>
       <r>   -20.4501     0.0000     2.0000 </r>
       <r>   -20.3420     0.0000     2.0000 </r>
       <r>   -20.2339     0.0000     2.0000 </r>
       <r>   -20.1258     0.0000     2.0000 </r>
       <r>   -20.0176     0.0000     2.0000 </r>
       <r>   -19.9095     0.0000     2.0000 </r>
       <r>   -19.8014     0.0000     2.0000 </r>
       <r>   -19.6933     0.0000     2.0000 </r>
       <r>   -19.5852     0.0000     2.0000 </r>
       <r>   -19.4771     0.0000     2.0000 </r>
       <r>   -19.3689     0.0000     2.0000 </r>
       <r>   -19.2608     0.0000     2.0000 </r>
       <r>   -19.1527     0.0000     2.0000 </r>
       <r>   -19.0446     0.0000     2.0000 </r>
       <r>   -18.9365     0.0000     2.0000 </r>
       <r>   -18.8284     0.0000     2.0000 </r>
       <r>   -18.7202     0.0000     2.0000 </r>
       <r>   -18.6121     0.0000     2.0000 </r>
       <r>   -18.5040     0.0000     2.0000 </r>
       <r>   -18.3959     0.0000     2.0000 </r>
       <r>   -18.2878     0.0000     2.0000 </r>
       <r>   -18.1797     0.0000     2.0000 </r>
       <r>   -18.0715     0.0000     2.0000 </r>
       <r>   -17.9634     0.0000     2.0000 </r>
       <r>   -17.8553     0.0000     2.0000 </r>
       <r>   -17.7472     0.0000     2.0000 </r>
       <r>   -17.6391     0.0000     2.0000 </r>
       <r>   -17.5310     0.0000     2.0000 </r>
       <r>   -17.4228     0.0000     2.0000 </r>
       <r>   -17.3147     0.0000     2.0000 </r>
       <r>   -17.2066     0.0000     2.0000 </r>
       <r>   -17.0985     0.0000     2.0000 </r>
       <r>   -16.9904     0.0000     2.0000 </r>
       <r>   -16.8823     0.0000     2.0000 </r>
       <r>   -16.7741     0.0000     2.0000 </r>
       <r>   -16.6660     0.0000     2.0000 </r>
       <r>   -16.5579     0.0000     2.0000 </r>
       <r>   -16.4498     0.0000     2.0000 </r>
       <r>   -16.3417     0.0000     2.0000 </r>
       <r>   -16.2336     0.0000     2.0000 </r>
       <r>   -16.1254     0.0000     2.0000 </r>
       <r>   -16.0173     0.0000     2.0000 </r>
       <r>   -15.9092     0.0000     2.0000 </r>
       <r>   -15.8011     0.0000     2.0000 </r>
       <r>   -15.6930     0.0000     2.0000 </r>
       <r>   -15.5849     0.0000     2.0000 </r>
       <r>   -15.4767     0.0000     2.0000 </r>
       <r>   -15.3686     0.0000     2.0000 </r>
       <r>   -15.2605     0.0000     2.0000 </r>
       <r>   -15.1524     0.0000     2.0000 </r>
       <r>   -15.0443     0.0000     2.0000 </r>
       <r>   -14.9362     0.0000     2.0000 </r>
       <r>   -14.8280     0.0000     2.0000 </r>
       <r>   -14.7199     0.0000     2.0000 </r>
       <r>   -14.6118     0.0000     2.0000 </r>
       <r>   -14.5037     0.0000     2.0000 </r>
       <r>   -14.3956     0.0003     2.0000 </r>
       <r>   -14.2875     0.0055     2.0006 </r>
       <r>   -14.1793     0.0388     2.0048 </r>
       <r>   -14.0712     0.0383     2.0090 </r>
       <r>   -13.9631    -0.4870     1.9563 </r>
       <r>   -13.8550    -0.4232     1.9106 </r>
       <r>   -13.7469     4.8071     2.4303 </r>
       <r>   -13.6388     9.9946     3.5109 </r>
       <r>   -13.5306     5.2712     4.0808 </r>
       <r>   -13.4225    -0.2861     4.0498 </r>
       <r>   -13.3144    -0.5374     3.9917 </r>
       <r>   -13.2063     0.0276     3.9947 </r>
       <r>   -13.0982     0.0421     3.9993 </r>
       <r>   -12.9901     0.0063     4.0000 </r>
       <r>   -12.8819     0.0004     4.0000 </r>
       <r>   -12.7738     0.0000     4.0000 </r>
       <r>   -12.6657     0.0000     4.0000 </r>
       <r>   -12.5576     0.0000     4.0000 </r>
       <r>   -12.4495     0.0000     4.0000 </r>
       <r>   -12.3414     0.0000     4.0000 </r>
       <r>   -12.2332     0.0001     4.0000 </r>
       <r>   -12.1251     0.0018     4.0002 </r>
       <r>   -12.0170     0.0235     4.0027 </r>
       <r>   -11.9089     0.1127     4.0149 </r>
       <r>   -11.8008    -0.1030     4.0038 </r>
       <r>   -11.6927    -1.4742     3.8444 </r>
       <r>   -11.5845     1.2570     3.9803 </r>
       <r>   -11.4764    14.5520     5.5536 </r>
       <r>   -11.3683    18.8660     7.5933 </r>
       <r>   -11.2602     5.6679     8.2061 </r>
       <r>   -11.1521    -1.5428     8.0393 </r>
       <r>   -11.0440    -0.5452     7.9804 </r>
       <r>   -10.9358     0.1249     7.9939 </r>
       <r>   -10.8277     0.0506     7.9994 </r>
       <r>   -10.7196     0.0054     8.0000 </r>
       <r>   -10.6115     0.0003     8.0000 </r>
       <r>   -10.5034     0.0000     8.0000 </r>
       <r>   -10.3953     0.0001     8.0000 </r>
       <r>   -10.2871     0.0013     8.0001 </r>
       <r>   -10.1790     0.0155     8.0018 </r>
       <r>   -10.0709     0.0615     8.0085 </r>
       <r>    -9.9628    -0.1110     7.9965 </r>
       <r>    -9.8547    -0.7971     7.9103 </r>
       <r>    -9.7466     1.2558     8.0461 </r>
       <r>    -9.6384     8.1350     8.9256 </r>
       <r>    -9.5303     8.8602     9.8835 </r>
       <r>    -9.4222     1.9898    10.0986 </r>
       <r>    -9.3141    -0.8139    10.0106 </r>
       <r>    -9.2060    -0.1844     9.9907 </r>
       <r>    -9.0979     0.0640     9.9976 </r>
       <r>    -8.9897     0.0199     9.9998 </r>
       <r>    -8.8816     0.0019    10.0000 </r>
       <r>    -8.7735     0.0001    10.0000 </r>
       <r>    -8.6654     0.0000    10.0000 </r>
       <r>    -8.5573     0.0000    10.0000 </r>
       <r>    -8.4492     0.0000    10.0000 </r>
       <r>    -8.3410     0.0000    10.0000 </r>
       <r>    -8.2329     0.0000    10.0000 </r>
       <r>    -8.1248     0.0000    10.0000 </r>
       <r>    -8.0167     0.0000    10.0000 </r>
       <r>    -7.9086     0.0000    10.0000 </r>
       <r>    -7.8005     0.0000    10.0000 </r>
       <r>    -7.6923     0.0000    10.0000 </r>
       <r>    -7.5842     0.0000    10.0000 </r>
       <r>    -7.4761     0.0000    10.0000 </r>
       <r>    -7.3680     0.0001    10.0000 </r>
       <r>    -7.2599     0.0022    10.0003 </r>
       <r>    -7.1518     0.0222    10.0027 </r>
       <r>    -7.0436     0.0639    10.0096 </r>
       <r>    -6.9355    -0.2214     9.9856 </r>
       <r>    -6.8274    -0.8030     9.8988 </r>
       <r>    -6.7193     2.3594    10.1539 </r>
       <r>    -6.6112     9.2260    11.1514 </r>
       <r>    -6.5031     7.9396    12.0098 </r>
       <r>    -6.3949    -0.1128    11.9976 </r>
       <r>    -6.2868    -2.6241    11.7139 </r>
       <r>    -6.1787    11.3449    12.9405 </r>
       <r>    -6.0706    28.6954    16.0429 </r>
       <r>    -5.9625    16.9244    17.8727 </r>
       <r>    -5.8544     9.0619    18.8524 </r>
       <r>    -5.7462    35.3661    22.6761 </r>
       <r>    -5.6381    90.0018    32.4068 </r>
       <r>    -5.5300   202.7250    54.3248 </r>
       <r>    -5.4219   305.6073    87.3660 </r>
       <r>    -5.3138   274.4619   117.0399 </r>
       <r>    -5.2057   204.7553   139.1774 </r>
       <r>    -5.0975   246.2590   165.8021 </r>
       <r>    -4.9894   348.3830   203.4681 </r>
       <r>    -4.8813   361.6272   242.5661 </r>
       <r>    -4.7732   297.9416   274.7785 </r>
       <r>    -4.6651   329.7908   310.4344 </r>
       <r>    -4.5570   413.6295   355.1547 </r>
       <r>    -4.4488   416.7654   400.2140 </r>
       <r>    -4.3407   459.7556   449.9212 </r>
       <r>    -4.2326   560.3858   510.5083 </r>
       <r>    -4.1245   461.4081   560.3942 </r>
       <r>    -4.0164   177.1470   579.5468 </r>
       <r>    -3.9083    19.7751   581.6848 </r>
       <r>    -3.8001    25.4214   584.4333 </r>
       <r>    -3.6920    27.7464   587.4331 </r>
       <r>    -3.5839     7.8039   588.2768 </r>
       <r>    -3.4758    18.4676   590.2735 </r>
       <r>    -3.3677    27.2048   593.2148 </r>
       <r>    -3.2596     6.2723   593.8929 </r>
       <r>    -3.1514    -1.3517   593.7468 </r>
       <r>    -3.0433    35.9150   597.6298 </r>
       <r>    -2.9352    67.6094   604.9395 </r>
       <r>    -2.8271    41.5841   609.4354 </r>
       <r>    -2.7190     5.3468   610.0135 </r>
       <r>    -2.6109     6.3617   610.7013 </r>
       <r>    -2.5027    26.5100   613.5675 </r>
       <r>    -2.3946    21.0853   615.8472 </r>
       <r>    -2.2865     6.6667   616.5679 </r>
       <r>    -2.1784    16.7095   618.3745 </r>
       <r>    -2.0703    30.7712   621.7014 </r>
       <r>    -1.9622    33.8329   625.3593 </r>
       <r>    -1.8540    47.4686   630.4914 </r>
       <r>    -1.7459    54.9009   636.4271 </r>
       <r>    -1.6378    38.8021   640.6223 </r>
       <r>    -1.5297    36.1154   644.5270 </r>
       <r>    -1.4216    37.8317   648.6172 </r>
       <r>    -1.3135    13.8719   650.1170 </r>
       <r>    -1.2053     2.8884   650.4293 </r>
       <r>    -1.0972    22.6456   652.8777 </r>
       <r>    -0.9891    51.6479   658.4616 </r>
       <r>    -0.8810    64.5261   665.4380 </r>
       <r>    -0.7729    42.6951   670.0541 </r>
       <r>    -0.6648    16.1391   671.7990 </r>
       <r>    -0.5566     2.9733   672.1204 </r>
       <r>    -0.4485    -0.9776   672.0147 </r>
       <r>    -0.3404    -0.3320   671.9788 </r>
       <r>    -0.2323     0.1323   671.9931 </r>
       <r>    -0.1242     0.0561   671.9992 </r>
       <r>    -0.0161     0.0070   672.0000 </r>
       <r>     0.0921     0.0004   672.0000 </r>
       <r>     0.2002     0.0000   672.0000 </r>
       <r>     0.3083     0.0000   672.0000 </r>
       <r>     0.4164     0.0000   672.0000 </r>
       <r>     0.5245     0.0000   672.0000 </r>
       <r>     0.6326     0.0000   672.0000 </r>
       <r>     0.7408     0.0000   672.0000 </r>
       <r>     0.8489     0.0000   672.0000 </r>
       <r>     0.9570     0.0000   672.0000 </r>
       <r>     1.0651     0.0000   672.0000 </r>
       <r>     1.1732     0.0000   672.0000 </r>
       <r>     1.2813     0.0000   672.0000 </r>
      </set>
     </set>
    </array>
   </total>
  </dos>
 </calculation>
 <structure name="finalpos" >
  <crystal>
   <varray name="basis" >
    <v>      30.00000000       0.00000000       0.00000000 </v>
    <v>       0.00000000      30.00000000       0.00000000 </v>
    <v>       0.00000000       0.00000000      30.00000000 </v>
   </varray>
   <i name="volume">  27000.00000000 </i>
   <varray name="rec_basis" >
    <v>       0.03333333       0.00000000       0.00000000 </v>
    <v>       0.00000000       0.03333333       0.00000000 </v>
    <v>       0.00000000       0.00000000       0.03333333 </v>
   </varray>
  </crystal>
  <varray name="positions" >
   <v>       0.44576020       0.32826710       0.41691983 </v>
   <v>       0.67173288       0.55423978       0.41691983 </v>
   <v>       0.55423980       0.32826710       0.41691983 </v>
   <v>       0.32826712       0.55423978       0.41691983 </v>
   <v>       0.50000000       0.38250690       0.34021317 </v>
   <v>       0.50000000       0.38250690       0.65978680 </v>
   <v>       0.50000000       0.27609440       0.50000000 </v>
   <v>       0.27609443       0.49999998       0.50000000 </v>
   <v>       0.72390557       0.49999998       0.50000000 </v>
   <v>       0.50000000       0.72390555       0.50000000 </v>
   <v>       0.61195280       0.38804720       0.34167483 </v>
   <v>       0.61195280       0.38804720       0.65832513 </v>
   <v>       0.38804722       0.61195278       0.34167483 </v>
   <v>       0.38804722       0.61195278       0.65832513 </v>
   <v>       0.38804720       0.38804720       0.34167483 </v>
   <v>       0.38804720       0.38804720       0.65832513 </v>
   <v>       0.61195278       0.61195278       0.34167483 </v>
   <v>       0.61195278       0.61195278       0.65832513 </v>
   <v>       0.44576020       0.32826710       0.58308023 </v>
   <v>       0.67173288       0.55423978       0.58308023 </v>
   <v>       0.55791699       0.44208301       0.41809300 </v>
   <v>       0.32826705       0.44576024       0.41691983 </v>
   <v>       0.55423973       0.67173293       0.41691983 </v>
   <v>       0.55423980       0.32826710       0.58308023 </v>
   <v>       0.32826712       0.55423978       0.58308023 </v>
   <v>       0.67173295       0.44576024       0.41691983 </v>
   <v>       0.44576027       0.67173293       0.41691983 </v>
   <v>       0.44208301       0.44208301       0.41809300 </v>
   <v>       0.50000000       0.38416601       0.50000000 </v>
   <v>       0.61749315       0.50000005       0.34021317 </v>
   <v>       0.61749315       0.50000005       0.65978680 </v>
   <v>       0.38250685       0.50000005       0.34021317 </v>
   <v>       0.38250685       0.50000005       0.65978680 </v>
   <v>       0.38317830       0.38317830       0.50000000 </v>
   <v>       0.61682172       0.61682172       0.50000000 </v>
   <v>       0.61682170       0.38317830       0.50000000 </v>
   <v>       0.38317828       0.61682172       0.50000000 </v>
   <v>       0.50000000       0.50000000       0.33478917 </v>
   <v>       0.50000000       0.50000000       0.66521087 </v>
   <v>       0.32826705       0.44576024       0.58308023 </v>
   <v>       0.55423973       0.67173293       0.58308023 </v>
   <v>       0.55791699       0.44208301       0.58190703 </v>
   <v>       0.44208298       0.55791702       0.41809300 </v>
   <v>       0.44208301       0.44208301       0.58190703 </v>
   <v>       0.67173295       0.44576024       0.58308023 </v>
   <v>       0.44576027       0.67173293       0.58308023 </v>
   <v>       0.55791702       0.55791702       0.41809300 </v>
   <v>       0.38416599       0.50000002       0.50000000 </v>
   <v>       0.61583401       0.50000002       0.50000000 </v>
   <v>       0.50000000       0.61749319       0.34021317 </v>
   <v>       0.50000000       0.61749319       0.65978680 </v>
   <v>       0.50000000       0.50000000       0.50000000 </v>
   <v>       0.44208298       0.55791702       0.58190703 </v>
   <v>       0.55791702       0.55791702       0.58190703 </v>
   <v>       0.50000000       0.61583404       0.50000000 </v>
   <v>       0.49655547       0.49300877       0.74643010 </v>
   <v>       0.49603017       0.49194257       0.78401130 </v>
  </varray>
  <varray name="selective"  type="logical" >
   <v type="logical" >  F  F  F </v>
   <v type="logical" >  F  F  F </v>
   <v type="logical" >  F  F  F </v>
   <v type="logical" >  F  F  F </v>
   <v type="logical" >  F  F  F </v>
   <v type="logical" >  F  F  F </v>
   <v type="logical" >  F  F  F </v>
   <v type="logical" >  F  F  F </v>
   <v type="logical" >  F  F  F </v>
   <v type="logical" >  F  F  F </v>
   <v type="logical" >  F  F  F </v>
   <v type="logical" >  F  F  F </v>
   <v type="logical" >  F  F  F </v>
   <v type="logical" >  F  F  F </v>
   <v type="logical" >  F  F  F </v>
   <v type="logical" >  F  F  F </v>
   <v type="logical" >  F  F  F </v>
   <v type="logical" >  F  F  F </v>
   <v type="logical" >  F  F  F </v>
   <v type="logical" >  F  F  F </v>
   <v type="logical" >  F  F  F </v>
   <v type="logical" >  F  F  F </v>
   <v type="logical" >  F  F  F </v>
   <v type="logical" >  F  F  F </v>
   <v type="logical" >  F  F  F </v>
   <v type="logical" >  F  F  F </v>
   <v type="logical" >  F  F  F </v>
   <v type="logical" >  F  F  F </v>
   <v type="logical" >  F  F  F </v>
   <v type="logical" >  F  F  F </v>
   <v type="logical" >  F  F  F </v>
   <v type="logical" >  F  F  F </v>
   <v type="logical" >  F  F  F </v>
   <v type="logical" >  F  F  F </v>
   <v type="logical" >  F  F  F </v>
   <v type="logical" >  F  F  F </v>
   <v type="logical" >  F  F  F </v>
   <v type="logical" >  F  F  F </v>
   <v type="logical" >  F  F  F </v>
   <v type="logical" >  F  F  F </v>
   <v type="logical" >  F  F  F </v>
   <v type="logical" >  F  F  F </v>
   <v type="logical" >  F  F  F </v>
   <v type="logical" >  F  F  F </v>
   <v type="logical" >  F  F  F </v>
   <v type="logical" >  F  F  F </v>
   <v type="logical" >  F  F  F </v>
   <v type="logical" >  F  F  F </v>
   <v type="logical" >  F  F  F </v>
   <v type="logical" >  F  F  F </v>
   <v type="logical" >  F  F  F </v>
   <v type="logical" >  F  F  F </v>
   <v type="logical" >  F  F  F </v>
   <v type="logical" >  F  F  F </v>
   <v type="logical" >  F  F  F </v>
   <v type="logical" >  F  F  F </v>
   <v type="logical" >  F  F  F </v>
  </varray>
  <nose>
   <v>      -3.00000000       0.00000000       0.00010000       0.00010000 </v>
  </nose>
 </structure>
</modeling>
