  57  57   0   0
  0.4736842E+03  0.3000000E-08  0.3000000E-08  0.3000000E-08  0.5000000E-15
  1.000000000000000E-004
  CAR 
 6_Pd100_top_free_z(O)                   
      1.20791525    -30.57173201  301     -4.15586533      1.00000000
    -30.572  0.0000E+00  0.0000E+00
    -30.466  0.0000E+00  0.0000E+00
    -30.360  0.0000E+00  0.0000E+00
    -30.254  0.2842E-27  0.3011E-28
    -30.148  0.1298E-23  0.1376E-24
    -30.042  0.3333E-20  0.3532E-21
    -29.936  0.4794E-17  0.5082E-18
    -29.830  0.3852E-14  0.4085E-15
    -29.724  0.1723E-11  0.1829E-12
    -29.618  0.4253E-09  0.4524E-10
    -29.512  0.5744E-07  0.6130E-08
    -29.406  0.4184E-05  0.4494E-06
    -29.301  0.1604E-03  0.1744E-04
    -29.195  0.3088E-02  0.3445E-03
    -29.089  0.2664E-01  0.3167E-02
    -28.983  0.6262E-01  0.9800E-02
    -28.877 -0.2651E+00 -0.1828E-01
    -28.771 -0.7936E+00 -0.1024E+00
    -28.665  0.2500E+01  0.1624E+00
    -28.559  0.9172E+01  0.1134E+01
    -28.453  0.7882E+01  0.1969E+01
    -28.347  0.1130E+01  0.2089E+01
    -28.241 -0.8005E+00  0.2004E+01
    -28.135 -0.1189E+00  0.1991E+01
    -28.029  0.6284E-01  0.1998E+01
    -27.923  0.1730E-01  0.2000E+01
    -27.817  0.1624E-02  0.2000E+01
    -27.712  0.7103E-04  0.2000E+01
    -27.606  0.1583E-05  0.2000E+01
    -27.500  0.1871E-07  0.2000E+01
    -27.394  0.1197E-09  0.2000E+01
    -27.288  0.4213E-12  0.2000E+01
    -27.182  0.0000E+00  0.2000E+01
    -27.076  0.0000E+00  0.2000E+01
    -26.970  0.0000E+00  0.2000E+01
    -26.864  0.0000E+00  0.2000E+01
    -26.758  0.0000E+00  0.2000E+01
    -26.652  0.0000E+00  0.2000E+01
    -26.546  0.0000E+00  0.2000E+01
    -26.440  0.0000E+00  0.2000E+01
    -26.334  0.0000E+00  0.2000E+01
    -26.229  0.0000E+00  0.2000E+01
    -26.123  0.0000E+00  0.2000E+01
    -26.017  0.0000E+00  0.2000E+01
    -25.911  0.0000E+00  0.2000E+01
    -25.805  0.0000E+00  0.2000E+01
    -25.699  0.0000E+00  0.2000E+01
    -25.593  0.0000E+00  0.2000E+01
    -25.487  0.0000E+00  0.2000E+01
    -25.381  0.0000E+00  0.2000E+01
    -25.275  0.0000E+00  0.2000E+01
    -25.169  0.0000E+00  0.2000E+01
    -25.063  0.0000E+00  0.2000E+01
    -24.957  0.0000E+00  0.2000E+01
    -24.851  0.0000E+00  0.2000E+01
    -24.745  0.0000E+00  0.2000E+01
    -24.640  0.0000E+00  0.2000E+01
    -24.534  0.0000E+00  0.2000E+01
    -24.428  0.0000E+00  0.2000E+01
    -24.322  0.0000E+00  0.2000E+01
    -24.216  0.0000E+00  0.2000E+01
    -24.110  0.0000E+00  0.2000E+01
    -24.004  0.0000E+00  0.2000E+01
    -23.898  0.0000E+00  0.2000E+01
    -23.792  0.0000E+00  0.2000E+01
    -23.686  0.0000E+00  0.2000E+01
    -23.580  0.0000E+00  0.2000E+01
    -23.474  0.0000E+00  0.2000E+01
    -23.368  0.0000E+00  0.2000E+01
    -23.262  0.0000E+00  0.2000E+01
    -23.156  0.0000E+00  0.2000E+01
    -23.051  0.0000E+00  0.2000E+01
    -22.945  0.0000E+00  0.2000E+01
    -22.839  0.0000E+00  0.2000E+01
    -22.733  0.0000E+00  0.2000E+01
    -22.627  0.0000E+00  0.2000E+01
    -22.521  0.0000E+00  0.2000E+01
    -22.415  0.0000E+00  0.2000E+01
    -22.309  0.0000E+00  0.2000E+01
    -22.203  0.0000E+00  0.2000E+01
    -22.097  0.0000E+00  0.2000E+01
    -21.991  0.0000E+00  0.2000E+01
    -21.885  0.0000E+00  0.2000E+01
    -21.779  0.0000E+00  0.2000E+01
    -21.673  0.0000E+00  0.2000E+01
    -21.567  0.0000E+00  0.2000E+01
    -21.462  0.0000E+00  0.2000E+01
    -21.356  0.0000E+00  0.2000E+01
    -21.250  0.0000E+00  0.2000E+01
    -21.144  0.0000E+00  0.2000E+01
    -21.038  0.0000E+00  0.2000E+01
    -20.932  0.0000E+00  0.2000E+01
    -20.826  0.0000E+00  0.2000E+01
    -20.720  0.0000E+00  0.2000E+01
    -20.614  0.0000E+00  0.2000E+01
    -20.508  0.0000E+00  0.2000E+01
    -20.402  0.0000E+00  0.2000E+01
    -20.296  0.0000E+00  0.2000E+01
    -20.190  0.0000E+00  0.2000E+01
    -20.084  0.0000E+00  0.2000E+01
    -19.979  0.0000E+00  0.2000E+01
    -19.873  0.0000E+00  0.2000E+01
    -19.767  0.0000E+00  0.2000E+01
    -19.661  0.0000E+00  0.2000E+01
    -19.555  0.0000E+00  0.2000E+01
    -19.449  0.0000E+00  0.2000E+01
    -19.343  0.0000E+00  0.2000E+01
    -19.237  0.0000E+00  0.2000E+01
    -19.131  0.0000E+00  0.2000E+01
    -19.025  0.0000E+00  0.2000E+01
    -18.919  0.0000E+00  0.2000E+01
    -18.813  0.0000E+00  0.2000E+01
    -18.707  0.0000E+00  0.2000E+01
    -18.601  0.0000E+00  0.2000E+01
    -18.495  0.0000E+00  0.2000E+01
    -18.390  0.0000E+00  0.2000E+01
    -18.284  0.0000E+00  0.2000E+01
    -18.178  0.0000E+00  0.2000E+01
    -18.072  0.0000E+00  0.2000E+01
    -17.966  0.0000E+00  0.2000E+01
    -17.860  0.0000E+00  0.2000E+01
    -17.754  0.0000E+00  0.2000E+01
    -17.648  0.0000E+00  0.2000E+01
    -17.542  0.0000E+00  0.2000E+01
    -17.436  0.0000E+00  0.2000E+01
    -17.330  0.0000E+00  0.2000E+01
    -17.224  0.0000E+00  0.2000E+01
    -17.118  0.0000E+00  0.2000E+01
    -17.012  0.0000E+00  0.2000E+01
    -16.906  0.0000E+00  0.2000E+01
    -16.801  0.0000E+00  0.2000E+01
    -16.695  0.0000E+00  0.2000E+01
    -16.589  0.0000E+00  0.2000E+01
    -16.483  0.0000E+00  0.2000E+01
    -16.377  0.0000E+00  0.2000E+01
    -16.271  0.0000E+00  0.2000E+01
    -16.165  0.0000E+00  0.2000E+01
    -16.059  0.0000E+00  0.2000E+01
    -15.953  0.0000E+00  0.2000E+01
    -15.847  0.0000E+00  0.2000E+01
    -15.741  0.0000E+00  0.2000E+01
    -15.635  0.0000E+00  0.2000E+01
    -15.529  0.0000E+00  0.2000E+01
    -15.423  0.0000E+00  0.2000E+01
    -15.318  0.0000E+00  0.2000E+01
    -15.212  0.0000E+00  0.2000E+01
    -15.106  0.0000E+00  0.2000E+01
    -15.000  0.1657E-26  0.2000E+01
    -14.894  0.6732E-23  0.2000E+01
    -14.788  0.1536E-19  0.2000E+01
    -14.682  0.1963E-16  0.2000E+01
    -14.576  0.1400E-13  0.2000E+01
    -14.470  0.5554E-11  0.2000E+01
    -14.364  0.1214E-08  0.2000E+01
    -14.258  0.1447E-06  0.2000E+01
    -14.152  0.9274E-05  0.2000E+01
    -14.046  0.3105E-03  0.2000E+01
    -13.940  0.5143E-02  0.2001E+01
    -13.834  0.3653E-01  0.2004E+01
    -13.729  0.4774E-01  0.2010E+01
    -13.623 -0.4193E+00  0.1965E+01
    -13.517 -0.6098E+00  0.1900E+01
    -13.411  0.3892E+01  0.2313E+01
    -13.305  0.9835E+01  0.3355E+01
    -13.199  0.6494E+01  0.4043E+01
    -13.093  0.2573E+00  0.4070E+01
    -12.987 -0.6947E+00  0.3996E+01
    -12.881 -0.3149E-01  0.3993E+01
    -12.775  0.5507E-01  0.3999E+01
    -12.669  0.1146E-01  0.4000E+01
    -12.563  0.9094E-03  0.4000E+01
    -12.457  0.3451E-04  0.4000E+01
    -12.351  0.6744E-06  0.4000E+01
    -12.245  0.7267E-08  0.4000E+01
    -12.140  0.3503E-07  0.4000E+01
    -12.034  0.2726E-05  0.4000E+01
    -11.928  0.1122E-03  0.4000E+01
    -11.822  0.2336E-02  0.4000E+01
    -11.716  0.2233E-01  0.4003E+01
    -11.610  0.6794E-01  0.4010E+01
    -11.504 -0.1656E+00  0.3992E+01
    -11.398 -0.7589E+00  0.3912E+01
    -11.292  0.1549E+01  0.4076E+01
    -11.186  0.7887E+01  0.4911E+01
    -11.080  0.1131E+02  0.6110E+01
    -10.974  0.1106E+02  0.7281E+01
    -10.868  0.6769E+01  0.7998E+01
    -10.762  0.7315E+00  0.8076E+01
    -10.656 -0.7162E+00  0.8000E+01
    -10.551 -0.5045E-01  0.7994E+01
    -10.445  0.1275E+00  0.8008E+01
    -10.339 -0.2193E+00  0.7985E+01
    -10.233 -0.8079E+00  0.7899E+01
    -10.127  0.2226E+01  0.8135E+01
    -10.021  0.8974E+01  0.9085E+01
     -9.915  0.8150E+01  0.9949E+01
     -9.809  0.1353E+01  0.1009E+02
     -9.703 -0.8122E+00  0.1001E+02
     -9.597 -0.1421E+00  0.9991E+01
     -9.491  0.6377E-01  0.9998E+01
     -9.385  0.1880E-01  0.1000E+02
     -9.279  0.1831E-02  0.1000E+02
     -9.173  0.8262E-04  0.1000E+02
     -9.068  0.1895E-05  0.1000E+02
     -8.962  0.2301E-07  0.1000E+02
     -8.856  0.1512E-09  0.1000E+02
     -8.750  0.5429E-12  0.1000E+02
     -8.644  0.2096E-14  0.1000E+02
     -8.538  0.0000E+00  0.1000E+02
     -8.432  0.0000E+00  0.1000E+02
     -8.326  0.8244E-27  0.1000E+02
     -8.220  0.3509E-23  0.1000E+02
     -8.114  0.8392E-20  0.1000E+02
     -8.008  0.1124E-16  0.1000E+02
     -7.902  0.8405E-14  0.1000E+02
     -7.796  0.3498E-11  0.1000E+02
     -7.690  0.8023E-09  0.1000E+02
     -7.584  0.1005E-06  0.1000E+02
     -7.479  0.6780E-05  0.1000E+02
     -7.373  0.2396E-03  0.1000E+02
     -7.267  0.4216E-02  0.1000E+02
     -7.161  0.3241E-01  0.1000E+02
     -7.055  0.5575E-01  0.1001E+02
     -6.949 -0.3555E+00  0.9972E+01
     -6.843 -0.7055E+00  0.9897E+01
     -6.737  0.3336E+01  0.1025E+02
     -6.631  0.9742E+01  0.1128E+02
     -6.525  0.7200E+01  0.1205E+02
     -6.419 -0.7242E+00  0.1197E+02
     -6.313 -0.2118E+01  0.1174E+02
     -6.207  0.1242E+02  0.1306E+02
     -6.101  0.2796E+02  0.1602E+02
     -5.995  0.2058E+02  0.1820E+02
     -5.890  0.2237E+02  0.2057E+02
     -5.784  0.4761E+02  0.2562E+02
     -5.678  0.8993E+02  0.3514E+02
     -5.572  0.1843E+03  0.5466E+02
     -5.466  0.2877E+03  0.8515E+02
     -5.360  0.2836E+03  0.1152E+03
     -5.254  0.2172E+03  0.1382E+03
     -5.148  0.2282E+03  0.1624E+03
     -5.042  0.3176E+03  0.1960E+03
     -4.936  0.3677E+03  0.2350E+03
     -4.830  0.3234E+03  0.2692E+03
     -4.724  0.3131E+03  0.3024E+03
     -4.618  0.3839E+03  0.3431E+03
     -4.512  0.4121E+03  0.3867E+03
     -4.406  0.4291E+03  0.4322E+03
     -4.301  0.5323E+03  0.4885E+03
     -4.195  0.5334E+03  0.5450E+03
     -4.089  0.2882E+03  0.5756E+03
     -3.983  0.5449E+02  0.5813E+03
     -3.877  0.8710E+01  0.5823E+03
     -3.771  0.2881E+02  0.5853E+03
     -3.665  0.2065E+02  0.5875E+03
     -3.559  0.1536E+02  0.5891E+03
     -3.453  0.2747E+02  0.5920E+03
     -3.347  0.1785E+02  0.5939E+03
     -3.241 -0.2709E+01  0.5937E+03
     -3.135  0.1158E+02  0.5949E+03
     -3.029  0.5368E+02  0.6006E+03
     -2.923  0.5924E+02  0.6068E+03
     -2.818  0.2527E+02  0.6095E+03
     -2.712  0.3103E+01  0.6098E+03
     -2.606  0.8520E+01  0.6107E+03
     -2.500  0.2689E+02  0.6136E+03
     -2.394  0.2651E+02  0.6164E+03
     -2.288  0.1152E+02  0.6176E+03
     -2.182  0.1478E+02  0.6192E+03
     -2.076  0.3445E+02  0.6228E+03
     -1.970  0.4382E+02  0.6275E+03
     -1.864  0.4257E+02  0.6320E+03
     -1.758  0.3710E+02  0.6359E+03
     -1.652  0.3564E+02  0.6397E+03
     -1.546  0.3370E+02  0.6433E+03
     -1.440  0.1876E+02  0.6453E+03
     -1.334  0.1334E+02  0.6467E+03
     -1.229  0.3348E+02  0.6502E+03
     -1.123  0.3871E+02  0.6543E+03
     -1.017  0.3592E+02  0.6581E+03
     -0.911  0.5870E+02  0.6643E+03
     -0.805  0.5590E+02  0.6703E+03
     -0.699  0.1936E+02  0.6723E+03
     -0.593 -0.1366E+01  0.6722E+03
     -0.487 -0.1887E+01  0.6720E+03
     -0.381  0.5573E-01  0.6720E+03
     -0.275  0.1990E+00  0.6720E+03
     -0.169  0.4399E-01  0.6720E+03
     -0.063  0.4112E-02  0.6720E+03
      0.043  0.1915E-03  0.6720E+03
      0.149  0.4688E-05  0.6720E+03
      0.255  0.6191E-07  0.6720E+03
      0.360  0.4472E-09  0.6720E+03
      0.466  0.1782E-11  0.6720E+03
      0.572  0.4192E-14  0.6720E+03
      0.678  0.0000E+00  0.6720E+03
      0.784  0.0000E+00  0.6720E+03
      0.890  0.0000E+00  0.6720E+03
      0.996  0.0000E+00  0.6720E+03
      1.102  0.0000E+00  0.6720E+03
      1.208  0.0000E+00  0.6720E+03
