   57   57    1    1
  0.4736842E+03  0.3000000E-08  0.3000000E-08  0.3000000E-08  0.5000000E-15
  1.000000000000000E-004
  CAR 
 6_Pd100_top_free_z(O)                   
    560      1    336
 
  0.0000000E+00  0.0000000E+00  0.0000000E+00  0.1000000E+01
    1      -28.893709   1.000000
    2      -13.490381   1.000000
    3      -11.264870   1.000000
    4      -11.238911   1.000000
    5       -9.746010   1.000000
    6       -6.643284   1.000000
    7       -6.127066   1.000000
    8       -6.126803   1.000000
    9       -6.116662   1.000000
   10       -5.817591   1.000000
   11       -5.816476   1.000000
   12       -5.815588   1.000000
   13       -5.748593   1.000000
   14       -5.715198   1.000000
   15       -5.691910   1.000000
   16       -5.686203   1.000000
   17       -5.684795   1.000000
   18       -5.640082   1.000000
   19       -5.639395   1.000000
   20       -5.623936   1.000000
   21       -5.609663   1.000000
   22       -5.599976   1.000000
   23       -5.597671   1.000000
   24       -5.589007   1.000000
   25       -5.559193   1.000000
   26       -5.550109   1.000000
   27       -5.549486   1.000000
   28       -5.549273   1.000000
   29       -5.534088   1.000000
   30       -5.527381   1.000000
   31       -5.523846   1.000000
   32       -5.521337   1.000000
   33       -5.519697   1.000000
   34       -5.514262   1.000000
   35       -5.513849   1.000000
   36       -5.506695   1.000000
   37       -5.495836   1.000000
   38       -5.483914   1.000000
   39       -5.479779   1.000000
   40       -5.472571   1.000000
   41       -5.471372   1.000000
   42       -5.470159   1.000000
   43       -5.468270   1.000000
   44       -5.461861   1.000000
   45       -5.457629   1.000000
   46       -5.435052   1.000000
   47       -5.431105   1.000000
   48       -5.429160   1.000000
   49       -5.427338   1.000000
   50       -5.426494   1.000000
   51       -5.422408   1.000000
   52       -5.408393   1.000000
   53       -5.407359   1.000000
   54       -5.403517   1.000000
   55       -5.390553   1.000000
   56       -5.377740   1.000000
   57       -5.366241   1.000000
   58       -5.327424   1.000000
   59       -5.324671   1.000000
   60       -5.323908   1.000000
   61       -5.322293   1.000000
   62       -5.317689   1.000000
   63       -5.316213   1.000000
   64       -5.302891   1.000000
   65       -5.301212   1.000000
   66       -5.292151   1.000000
   67       -5.289348   1.000000
   68       -5.250741   1.000000
   69       -5.214688   1.000000
   70       -5.213219   1.000000
   71       -5.205564   1.000000
   72       -5.202632   1.000000
   73       -5.190241   1.000000
   74       -5.181963   1.000000
   75       -5.180930   1.000000
   76       -5.180490   1.000000
   77       -5.175255   1.000000
   78       -5.165410   1.000000
   79       -5.160307   1.000000
   80       -5.153011   1.000000
   81       -5.140713   1.000000
   82       -5.133943   1.000000
   83       -5.125209   1.000000
   84       -5.115036   1.000000
   85       -5.108936   1.000000
   86       -5.107523   1.000000
   87       -5.105716   1.000000
   88       -5.076861   1.000000
   89       -5.072689   1.000000
   90       -5.057476   1.000000
   91       -5.054825   1.000000
   92       -5.053844   1.000000
   93       -5.052516   1.000000
   94       -5.050737   1.000000
   95       -5.050408   1.000000
   96       -5.040804   1.000000
   97       -5.035843   1.000000
   98       -5.031459   1.000000
   99       -5.026336   1.000000
  100       -5.024188   1.000000
  101       -5.021577   1.000000
  102       -5.018538   1.000000
  103       -5.008053   1.000000
  104       -5.001626   1.000000
  105       -5.000414   1.000000
  106       -4.992997   1.000000
  107       -4.991030   1.000000
  108       -4.988594   1.000000
  109       -4.983536   1.000000
  110       -4.979197   1.000000
  111       -4.977272   1.000000
  112       -4.964329   1.000000
  113       -4.961352   0.999999
  114       -4.957917   0.999999
  115       -4.954956   0.999999
  116       -4.952593   0.999999
  117       -4.934001   0.999999
  118       -4.926829   0.999998
  119       -4.925552   0.999998
  120       -4.916227   0.999997
  121       -4.915560   0.999997
  122       -4.908199   0.999997
  123       -4.906242   0.999996
  124       -4.903287   0.999996
  125       -4.902712   0.999996
  126       -4.900389   0.999995
  127       -4.857159   0.999983
  128       -4.856348   0.999982
  129       -4.849751   0.999978
  130       -4.844402   0.999974
  131       -4.842904   0.999973
  132       -4.839192   0.999970
  133       -4.837408   0.999969
  134       -4.832728   0.999964
  135       -4.830890   0.999962
  136       -4.807965   0.999929
  137       -4.797736   0.999906
  138       -4.796253   0.999903
  139       -4.776395   0.999838
  140       -4.772423   0.999821
  141       -4.767730   0.999800
  142       -4.761232   0.999766
  143       -4.744721   0.999656
  144       -4.740799   0.999624
  145       -4.738200   0.999601
  146       -4.736516   0.999586
  147       -4.726580   0.999486
  148       -4.707940   0.999243
  149       -4.704075   0.999182
  150       -4.698427   0.999087
  151       -4.687365   0.998875
  152       -4.686760   0.998862
  153       -4.680464   0.998725
  154       -4.672717   0.998540
  155       -4.670914   0.998494
  156       -4.668948   0.998443
  157       -4.668329   0.998427
  158       -4.667556   0.998407
  159       -4.665509   0.998351
  160       -4.651780   0.997949
  161       -4.649662   0.997883
  162       -4.648182   0.997835
  163       -4.648113   0.997833
  164       -4.646390   0.997777
  165       -4.645647   0.997753
  166       -4.643490   0.997681
  167       -4.642327   0.997642
  168       -4.632373   0.997295
  169       -4.630978   0.997245
  170       -4.608927   0.996423
  171       -4.604805   0.996270
  172       -4.602047   0.996168
  173       -4.597915   0.996019
  174       -4.596257   0.995961
  175       -4.593479   0.995865
  176       -4.590420   0.995762
  177       -4.590136   0.995753
  178       -4.588170   0.995689
  179       -4.586283   0.995630
  180       -4.576421   0.995354
  181       -4.576114   0.995347
  182       -4.563730   0.995118
  183       -4.555818   0.995065
  184       -4.554386   0.995065
  185       -4.553759   0.995066
  186       -4.551498   0.995075
  187       -4.550649   0.995080
  188       -4.549309   0.995091
  189       -4.549199   0.995092
  190       -4.532122   0.995545
  191       -4.522843   0.996080
  192       -4.519101   0.996364
  193       -4.507916   0.997478
  194       -4.506944   0.997595
  195       -4.505480   0.997778
  196       -4.495219   0.999282
  197       -4.488836   1.000430
  198       -4.486386   1.000916
  199       -4.477228   1.002963
  200       -4.474606   1.003618
  201       -4.468811   1.005177
  202       -4.466000   1.005988
  203       -4.463888   1.006621
  204       -4.458190   1.008431
  205       -4.453110   1.010168
  206       -4.452267   1.010467
  207       -4.445501   1.012979
  208       -4.445012   1.013168
  209       -4.442340   1.014218
  210       -4.440359   1.015015
  211       -4.425948   1.021227
  212       -4.418526   1.024658
  213       -4.412838   1.027357
  214       -4.408989   1.029204
  215       -4.406867   1.030226
  216       -4.405776   1.030751
  217       -4.404246   1.031488
  218       -4.402000   1.032568
  219       -4.400121   1.033469
  220       -4.381601   1.041921
  221       -4.367840   1.047117
  222       -4.365350   1.047897
  223       -4.356847   1.050078
  224       -4.351624   1.050986
  225       -4.343510   1.051619
  226       -4.338072   1.051436
  227       -4.337199   1.051357
  228       -4.335670   1.051183
  229       -4.333392   1.050839
  230       -4.332655   1.050706
  231       -4.331609   1.050497
  232       -4.331352   1.050442
  233       -4.326266   1.049066
  234       -4.325580   1.048836
  235       -4.325320   1.048747
  236       -4.324701   1.048526
  237       -4.323428   1.048045
  238       -4.321414   1.047206
  239       -4.321353   1.047179
  240       -4.308509   1.039360
  241       -4.306127   1.037412
  242       -4.304972   1.036407
  243       -4.293891   1.024687
  244       -4.290059   1.019714
  245       -4.286221   1.014234
  246       -4.285087   1.012517
  247       -4.283400   1.009881
  248       -4.279907   1.004101
  249       -4.278605   1.001833
  250       -4.271033   0.987416
  251       -4.266486   0.977728
  252       -4.260800   0.964505
  253       -4.258235   0.958134
  254       -4.255975   0.952308
  255       -4.255001   0.949735
  256       -4.249183   0.933607
  257       -4.248915   0.932834
  258       -4.246124   0.924603
  259       -4.244322   0.919127
  260       -4.243617   0.916952
  261       -4.241153   0.909198
  262       -4.239498   0.903859
  263       -4.238051   0.899104
  264       -4.237052   0.895778
  265       -4.235894   0.891873
  266       -4.225283   0.853776
  267       -4.222834   0.844403
  268       -4.220475   0.835179
  269       -4.219222   0.830201
  270       -4.218093   0.825669
  271       -4.215243   0.814041
  272       -4.215084   0.813386
  273       -4.195694   0.727517
  274       -4.190864   0.704531
  275       -4.184864   0.675242
  276       -4.180306   0.652508
  277       -4.179476   0.648326
  278       -4.176837   0.634960
  279       -4.172856   0.614597
  280       -4.171410   0.607143
  281       -4.170181   0.600790
  282       -4.157769   0.535832
  283       -4.133260   0.406802
  284       -4.128033   0.379819
  285       -4.127620   0.377704
  286       -4.127097   0.375024
  287       -4.125221   0.365451
  288       -4.115212   0.315397
  289       -4.111347   0.296599
  290       -3.959730  -0.051623
  291       -3.832133  -0.004888
  292       -3.824741  -0.002962
  293       -3.813478  -0.000495
  294       -3.776838   0.004075
  295       -3.490768   0.000065
  296       -3.485168   0.000056
  297       -3.389091   0.000003
  298       -3.071581   0.000000
  299       -3.065381   0.000000
  300       -3.050599   0.000000
  301       -3.027818   0.000000
  302       -3.022624   0.000000
  303       -2.934669   0.000000
  304       -2.933883   0.000000
  305       -2.856586   0.000000
  306       -2.569653   0.000000
  307       -2.535537   0.000000
  308       -2.514795   0.000000
  309       -2.309016   0.000000
  310       -2.112036   0.000000
  311       -2.112009   0.000000
  312       -2.057423   0.000000
  313       -2.046491   0.000000
  314       -2.035056   0.000000
  315       -1.924916   0.000000
  316       -1.884950   0.000000
  317       -1.806138   0.000000
  318       -1.717497   0.000000
  319       -1.684859   0.000000
  320       -1.639218   0.000000
  321       -1.635258   0.000000
  322       -1.618893   0.000000
  323       -1.552474   0.000000
  324       -1.410746   0.000000
  325       -1.338266   0.000000
  326       -1.198511   0.000000
  327       -1.159424   0.000000
  328       -1.125072   0.000000
  329       -0.979468   0.000000
  330       -0.969528   0.000000
  331       -0.955236   0.000000
  332       -0.926430   0.000000
  333       -0.920631   0.000000
  334       -0.901760   0.000000
  335       -0.816303   0.000000
  336       -0.655765   0.000000
